 Entering Gaussian System, Link 0=g16
 Input=Geometria-145-.com
 Output=Geometria-145-.log
 Initial command:
 /usr/local/g16/l1.exe "/home/padawan/israel-mol/pheophytin/spectra/emi/Gau-42889.inp" -scrdir="/home/padawan/israel-mol/pheophytin/spectra/emi/"
 Entering Link 1 = /usr/local/g16/l1.exe PID=     42891.
  
 Copyright (c) 1988,1990,1992,1993,1995,1998,2003,2009,2016,
            Gaussian, Inc.  All Rights Reserved.
  
 This is part of the Gaussian(R) 16 program.  It is based on
 the Gaussian(R) 09 system (copyright 2009, Gaussian, Inc.),
 the Gaussian(R) 03 system (copyright 2003, Gaussian, Inc.),
 the Gaussian(R) 98 system (copyright 1998, Gaussian, Inc.),
 the Gaussian(R) 94 system (copyright 1995, Gaussian, Inc.),
 the Gaussian 92(TM) system (copyright 1992, Gaussian, Inc.),
 the Gaussian 90(TM) system (copyright 1990, Gaussian, Inc.),
 the Gaussian 88(TM) system (copyright 1988, Gaussian, Inc.),
 the Gaussian 86(TM) system (copyright 1986, Carnegie Mellon
 University), and the Gaussian 82(TM) system (copyright 1983,
 Carnegie Mellon University). Gaussian is a federally registered
 trademark of Gaussian, Inc.
  
 This software contains proprietary and confidential information,
 including trade secrets, belonging to Gaussian, Inc.
  
 This software is provided under written license and may be
 used, copied, transmitted, or stored only in accord with that
 written license.
  
 The following legend is applicable only to US Government
 contracts under FAR:
  
                    RESTRICTED RIGHTS LEGEND
  
 Use, reproduction and disclosure by the US Government is
 subject to restrictions as set forth in subparagraphs (a)
 and (c) of the Commercial Computer Software - Restricted
 Rights clause in FAR 52.227-19.
  
 Gaussian, Inc.
 340 Quinnipiac St., Bldg. 40, Wallingford CT 06492
  
  
 ---------------------------------------------------------------
 Warning -- This program may not be used in any manner that
 competes with the business of Gaussian, Inc. or will provide
 assistance to any competitor of Gaussian, Inc.  The licensee
 of this program is prohibited from giving any competitor of
 Gaussian, Inc. access to this program.  By using this program,
 the user acknowledges that Gaussian, Inc. is engaged in the
 business of creating and licensing software in the field of
 computational chemistry and represents and warrants to the
 licensee that it is not a competitor of Gaussian, Inc. and that
 it will not use this program in any manner prohibited above.
 ---------------------------------------------------------------
  

 Cite this work as:
 Gaussian 16, Revision A.03,
 M. J. Frisch, G. W. Trucks, H. B. Schlegel, G. E. Scuseria, 
 M. A. Robb, J. R. Cheeseman, G. Scalmani, V. Barone, 
 G. A. Petersson, H. Nakatsuji, X. Li, M. Caricato, A. V. Marenich, 
 J. Bloino, B. G. Janesko, R. Gomperts, B. Mennucci, H. P. Hratchian, 
 J. V. Ortiz, A. F. Izmaylov, J. L. Sonnenberg, D. Williams-Young, 
 F. Ding, F. Lipparini, F. Egidi, J. Goings, B. Peng, A. Petrone, 
 T. Henderson, D. Ranasinghe, V. G. Zakrzewski, J. Gao, N. Rega, 
 G. Zheng, W. Liang, M. Hada, M. Ehara, K. Toyota, R. Fukuda, 
 J. Hasegawa, M. Ishida, T. Nakajima, Y. Honda, O. Kitao, H. Nakai, 
 T. Vreven, K. Throssell, J. A. Montgomery, Jr., J. E. Peralta, 
 F. Ogliaro, M. J. Bearpark, J. J. Heyd, E. N. Brothers, K. N. Kudin, 
 V. N. Staroverov, T. A. Keith, R. Kobayashi, J. Normand, 
 K. Raghavachari, A. P. Rendell, J. C. Burant, S. S. Iyengar, 
 J. Tomasi, M. Cossi, J. M. Millam, M. Klene, C. Adamo, R. Cammi, 
 J. W. Ochterski, R. L. Martin, K. Morokuma, O. Farkas, 
 J. B. Foresman, and D. J. Fox, Gaussian, Inc., Wallingford CT, 2016.
 
 ******************************************
 Gaussian 16:  ES64L-G16RevA.03 25-Dec-2016
                15-Aug-2019 
 ******************************************
 %nproc=4
 Will use up to    4 processors via shared memory.
 %Mem=2GB
 --------------------------
 # td=(NStates=1) B3LYP/SVP
 --------------------------
 1/38=1,172=1/1;
 2/12=2,17=6,18=5,40=1/2;
 3/5=18,7=101,11=9,25=1,30=1,74=-5/1,2,3,8;
 4//1;
 5/5=2,38=5/2;
 8/6=1,10=1,108=1/1;
 9/41=1,42=1,70=2/14;
 6/7=2,8=2,9=2,10=2/1;
 99/5=1,9=1/99;
 --
 TD
 --
 Symbolic Z-matrix:
 Charge =  0 Multiplicity = 1
 6                    -5.09239  -1.97139   0.43533 
 6                    -4.72115   2.76518   1.51017 
 6                    -9.35597   3.35484  -0.18481 
 6                    -9.81063  -1.45061  -0.86448 
 7                    -5.25148   0.34628   0.95558 
 6                    -4.51498  -0.76893   0.83525 
 6                    -2.98132  -0.56269   1.12676 
 6                    -3.09244   0.88385   1.80491 
 6                    -4.44848   1.38808   1.3873 
 6                    -2.96528   0.77839   3.43795 
 6                    -2.09556  -0.56136  -0.11943 
 6                    -0.62718  -0.69154   0.45126 
 6                     0.34217  -0.95573  -0.73217 
 8                     0.03165  -1.09114  -1.92693 
 8                     1.621    -0.94509  -0.27772 
 7                    -7.08607   2.71003   0.61299 
 6                    -5.95444   3.4005    1.07765 
 6                    -6.23188   4.76734   0.97022 
 6                    -7.50737   5.04937   0.47061 
 6                    -8.0541    3.69223   0.20148 
 6                    -5.24172   5.89848   1.37657 
 6                    -8.16458   6.30985   0.28274 
 6                    -9.03042   6.6253   -0.67644 
 7                    -9.1351    0.92702  -0.48711 
 6                    -9.83489   2.09847  -0.50869 
 6                    -11.24853   1.90643  -0.91272 
 6                    -11.3488   0.55436  -1.16062 
 6                    -10.00108   0.05746  -0.85354 
 6                    -12.2633   3.01737  -0.99819 
 6                    -12.54872  -0.32727  -1.5159 
 6                    -12.5915  -0.33362  -3.11875 
 7                    -7.46279  -1.22927  -0.33981 
 6                    -8.57526  -2.09483  -0.71279 
 6                    -8.12426  -3.3747   -0.66649 
 6                    -6.79155  -3.38765  -0.26518 
 6                    -6.43747  -2.06185  -0.00218 
 6                    -9.01389  -4.63375  -1.1115 
 6                    -5.63434  -4.26223   0.13831 
 8                    -5.62287  -5.49058   0.0599 
 6                    -4.35861  -3.40157   0.50396 
 6                    -3.80358  -3.88641   1.8881 
 8                    -3.97407  -3.30624   2.91659 
 8                    -3.17233  -4.89504   1.61971 
 6                    -2.70631  -5.58521   2.76305 
 6                     2.65432  -1.16212  -1.24789 
 6                     3.9671   -0.87655  -0.50571 
 6                     4.93748   0.01723  -0.94465 
 6                     4.94374   0.70363  -2.31623 
 6                     6.20329  -0.02652  -0.13068 
 6                     7.49563  -0.3821   -1.09131 
 6                     8.72362  -0.31667  -0.19336 
 6                     10.03577  -0.7041   -0.97616 
 6                     10.0834  -2.25423  -1.2551 
 6                     11.35544  -0.23217  -0.09753 
 6                     12.68837  -0.46555  -0.68345 
 6                     13.78259  -0.00372   0.18205 
 6                     15.1629  -0.26315  -0.39038 
 6                     15.6126  -1.7675   -0.41061 
 6                     16.1725   0.53202   0.48627 
 6                     17.69487   0.60062  -0.02351 
 6                     18.55086   1.49437   0.69544 
 6                     20.06839   1.74165   0.14342 
 6                     20.09581   2.38653  -1.25198 
 6                     20.8106   2.5461    1.26761 
 1                    -3.84466   3.44087   1.89273 
 1                    -10.16182   4.11355  -0.37416 
 1                    -10.66835  -2.02423  -1.33534 
 1                    -2.54114  -1.32061   1.85555 
 1                    -2.17876   1.63618   1.61719 
 1                    -2.00628   0.68164   3.76147 
 1                    -3.35507   1.7719    3.94949 
 1                    -3.60577  -0.04578   3.64582 
 1                    -2.23907  -1.38604  -0.73002 
 1                    -2.15398   0.30618  -0.87457 
 1                    -0.25925   0.32897   1.0958 
 1                    -0.60895  -1.5743    1.09166 
 1                    -4.04637   5.56666   0.94702 
 1                    -5.69801   7.08481   0.84859 
 1                    -5.32013   5.90602   2.60388 
 1                    -7.97758   7.15428   1.03404 
 1                    -9.44046   5.99306  -1.44241 
 1                    -9.42474   7.54841  -0.46979 
 1                    -12.46443   3.41499   0.0342 
 1                    -11.82706   3.59183  -1.78295 
 1                    -13.31098   2.68084  -1.31673 
 1                    -12.46989  -1.34956  -1.14319 
 1                    -13.46444   0.29927  -0.92257 
 1                    -12.61574   0.71174  -3.72466 
 1                    -11.53914  -0.70112  -3.56738 
 1                    -13.4646  -0.97932  -3.46807 
 1                    -10.10046  -4.45938  -0.40965 
 1                    -9.21637  -4.72672  -2.21631 
 1                    -8.44887  -5.67047  -0.77085 
 1                    -3.75781  -3.54386  -0.37446 
 1                    -2.1033   -6.50782   2.41113 
 1                    -2.10575  -4.94629   3.44645 
 1                    -3.44808  -6.06659   3.28757 
 1                     2.24765  -2.15966  -1.68188 
 1                     2.37191  -0.3596   -2.06665 
 1                     4.00117  -1.2237    0.43255 
 1                     5.82401   1.70328  -2.27331 
 1                     5.46901   0.1915   -3.08444 
 1                     3.9287    0.80719  -2.4136 
 1                     6.3759    0.96369   0.38066 
 1                     5.87944  -0.90667   0.69762 
 1                     7.43512  -1.47111  -1.59854 
 1                     7.56328   0.35351  -1.89785 
 1                     8.65828   0.77414   0.16449 
 1                     8.58545  -0.97847   0.69988 
 1                     10.04166  -0.2979   -1.93761 
 1                     9.22786  -2.49845  -1.90646 
 1                     10.96666  -2.39086  -1.87124 
 1                     9.84587  -2.79817  -0.40339 
 1                     11.21667   0.84882   0.19598 
 1                     11.24424  -0.63002   1.04923 
 1                     12.78845  -1.56859  -0.67727 
 1                     12.74501  -0.07869  -1.64421 
 1                     13.70853   0.96601   0.5358 
 1                     13.86562  -0.46392   1.11409 
 1                     15.0484  -0.13316  -1.42067 
 1                     14.88199  -2.3781   -0.96917 
 1                     16.63651  -1.87488  -0.99096 
 1                     15.59795  -2.38865   0.62792 
 1                     15.70739   1.6365    0.58228 
 1                     16.22895   0.30585   1.47375 
 1                     18.04317  -0.40654  -0.05581 
 1                     17.60522   0.98336  -1.045 
 1                     18.01332   2.57705   0.81754 
 1                     18.69204   1.02466   1.87345 
 1                     20.29201   0.71778  -0.08253 
 1                     19.62922   3.25425  -1.27271 
 1                     21.22935   2.56973  -1.43345 
 1                     19.68903   1.72866  -1.95626 
 1                     20.86149   1.89241   2.14445 
 1                     21.99091   2.82214   0.90417 
 1                     20.44211   3.56398   1.30121 
 1                    -6.98599   1.77549   0.6154 
 1                    -7.40387  -0.22075  -0.4546 
 
 Stoichiometry    C55H74N4O5
 Framework group  C1[X(C55H74N4O5)]
 Deg. of freedom   408
 Full point group                 C1      NOp   1
 Largest Abelian subgroup         C1      NOp   1
 Largest concise Abelian subgroup C1      NOp   1
                         Standard orientation:                         
 ---------------------------------------------------------------------
 Center     Atomic      Atomic             Coordinates (Angstroms)
 Number     Number       Type             X           Y           Z
 ---------------------------------------------------------------------
      1          6           0       -5.089810   -1.979767    0.423355
      2          6           0       -4.725448    2.751548    1.523364
      3          6           0       -9.360964    3.343568   -0.168908
      4          6           0       -9.808677   -1.458849   -0.874130
      5          7           0       -5.252266    0.334875    0.955891
      6          6           0       -4.514156   -0.778621    0.829708
      7          6           0       -2.980820   -0.571737    1.122453
      8          6           0       -3.094075    0.871021    1.808274
      9          6           0       -4.450796    1.375511    1.393212
     10          6           0       -2.966909    0.757065    3.440742
     11          6           0       -2.094957   -0.562525   -0.123618
     12          6           0       -0.626439   -0.693628    0.446512
     13          6           0        0.343394   -0.950145   -0.738213
     14          8           0        0.033178   -1.079649   -1.933701
     15          8           0        1.622165   -0.940086   -0.283593
     16          7           0       -7.090210    2.697776    0.625681
     17          6           0       -5.959609    3.387390    1.094110
     18          6           0       -6.239003    4.754390    0.993910
     19          6           0       -7.514850    5.037234    0.495685
     20          6           0       -8.059609    3.680762    0.219299
     21          6           0       -5.250499    5.884772    1.406361
     22          6           0       -8.173848    6.297756    0.314449
     23          6           0       -9.040051    6.617056   -0.643125
     24          7           0       -9.136581    0.917706   -0.484067
     25          6           0       -9.838045    2.088253   -0.499498
     26          6           0      -11.251379    1.896338   -0.904674
     27          6           0      -11.349689    0.545456   -1.159761
     28          6           0      -10.001282    0.048862   -0.855197
     29          6           0      -12.267731    3.006262   -0.984349
     30          6           0      -12.548318   -0.335993   -1.519841
     31          6           0      -12.590945   -0.333889   -3.122701
     32          7           0       -7.461199   -1.236937   -0.348064
     33          6           0       -8.572399   -2.102095   -0.725740
     34          6           0       -8.119563   -3.381552   -0.686196
     35          6           0       -6.786876   -3.394727   -0.284830
     36          6           0       -6.434721   -2.069830   -0.014759
     37          6           0       -9.007348   -4.639488   -1.137975
     38          6           0       -5.628449   -4.269776    0.114116
     39          8           0       -5.615217   -5.497669    0.029192
     40          6           0       -4.353987   -3.409240    0.484453
     41          6           0       -3.798388   -3.900633    1.866058
     42          8           0       -3.969797   -3.326177    2.897599
     43          8           0       -3.165666   -4.906916    1.592373
     44          6           0       -2.698764   -5.602480    2.732082
     45          6           0        2.655879   -1.150485   -1.254799
     46          6           0        3.968188   -0.866978   -0.510984
     47          6           0        4.937321    0.030513   -0.945081
     48          6           0        4.942728    0.724198   -2.313000
     49          6           0        6.203128   -0.015747   -0.131238
     50          6           0        7.496061   -0.364367   -1.093610
     51          6           0        8.723869   -0.301948   -0.195214
     52          6           0       10.036642   -0.683344   -0.979929
     53          6           0       10.086524   -2.231896   -1.267093
     54          6           0       11.355557   -0.214195   -0.098682
     55          6           0       12.688873   -0.442543   -0.685698
     56          6           0       13.782361    0.016243    0.182348
     57          6           0       15.163085   -0.238163   -0.391326
     58          6           0       15.614942   -1.741740   -0.419499
     59          6           0       16.171469    0.553789    0.489637
     60          6           0       17.693781    0.627267   -0.019624
     61          6           0       18.548434    1.518413    0.704140
     62          6           0       20.065649    1.770796    0.153585
     63          6           0       20.092273    2.423114   -1.238366
     64          6           0       20.806611    2.570325    1.282109
     65          1           0       -3.849965    3.426456    1.909595
     66          1           0      -10.167882    4.102117   -0.354296
     67          1           0      -10.665525   -2.031190   -1.348113
     68          1           0       -2.539619   -1.332891    1.847252
     69          1           0       -2.181453    1.625645    1.624636
     70          1           0       -2.007795    0.659971    3.763835
     71          1           0       -3.358163    1.747291    3.957513
     72          1           0       -3.606234   -0.069114    3.644170
     73          1           0       -2.237230   -1.384157   -0.738597
     74          1           0       -2.154549    0.308928   -0.874147
     75          1           0       -0.260027    0.323966    1.096491
     76          1           0       -0.607004   -1.579748    1.082211
     77          1           0       -4.054633    5.556951    0.975165
     78          1           0       -5.708439    7.073234    0.884641
     79          1           0       -5.329029    5.885679    2.633684
     80          1           0       -7.988119    7.138453    1.070242
     81          1           0       -9.449116    5.988301   -1.412489
     82          1           0       -9.435708    7.538488   -0.431614
     83          1           0      -12.469522    3.398103    0.050123
     84          1           0      -11.832246    3.585505   -1.765997
     85          1           0      -13.314897    2.669928   -1.304773
     86          1           0      -12.468053   -1.360127   -1.152552
     87          1           0      -13.464979    0.286076   -0.923272
     88          1           0      -12.616621    0.714635   -3.723056
     89          1           0      -11.538016   -0.697495   -3.573173
     90          1           0      -13.463089   -0.978971   -3.475531
     91          1           0      -10.094231   -4.470406   -0.435307
     92          1           0       -9.209605   -4.726883   -2.243281
     93          1           0       -8.440875   -5.677194   -0.802779
     94          1           0       -3.752906   -3.546007   -0.394648
     95          1           0       -2.094395   -6.522341    2.375319
     96          1           0       -2.099174   -4.966343    3.418919
     97          1           0       -3.439882   -6.087704    3.253964
     98          1           0        2.250679   -2.146285   -1.694115
     99          1           0        2.372396   -0.344026   -2.069318
    100          1           0        4.002673   -1.219054    0.425422
    101          1           0        5.821554    1.724860   -2.264683
    102          1           0        5.468799    0.216899   -3.083866
    103          1           0        3.927544    0.826820   -2.409909
    104          1           0        6.374268    0.971979    0.385378
    105          1           0        5.880458   -0.900743    0.692350
    106          1           0        7.437157   -1.450757   -1.606630
    107          1           0        7.562721    0.375610   -1.896228
    108          1           0        8.656939    0.786844    0.168419
    109          1           0        8.586573   -0.968687    0.694492
    110          1           0       10.042040   -0.272030   -1.939213
    111          1           0        9.231390   -2.473877   -1.919823
    112          1           0       10.970035   -2.363987   -1.883868
    113          1           0        9.849698   -2.780692   -0.418311
    114          1           0       11.215212    0.865027    0.200557
    115          1           0       11.244831   -0.618287    1.045937
    116          1           0       12.790531   -1.545462   -0.685371
    117          1           0       12.745051   -0.050506   -1.644386
    118          1           0       13.706877    0.983973    0.541230
    119          1           0       13.865964   -0.448777    1.111936
    120          1           0       15.048489   -0.102868   -1.420918
    121          1           0       14.885262   -2.350406   -0.981364
    122          1           0       16.639058   -1.844573   -1.000312
    123          1           0       15.601094   -2.368415    0.615713
    124          1           0       15.704767    1.657069    0.591466
    125          1           0       16.228155    0.322459    1.475905
    126          1           0       18.043530   -0.379202   -0.057242
    127          1           0       17.603680    1.015303   -1.039081
    128          1           0       18.009331    2.599657    0.831935
    129          1           0       18.690180    1.042660    1.879653
    130          1           0       20.290757    0.748465   -0.077769
    131          1           0       19.624437    3.290263   -1.254534
    132          1           0       21.225567    2.608903   -1.418749
    133          1           0       19.686495    1.768417   -1.946168
    134          1           0       20.858360    1.912062    2.155466
    135          1           0       21.986558    2.849984    0.920253
    136          1           0       20.436661    3.587482    1.321078
    137          1           0       -6.988792    1.763387    0.623140
    138          1           0       -7.403716   -0.227738   -0.457489
 ---------------------------------------------------------------------
 Rotational constants (GHZ):           0.0628657           0.0061926           0.0058168
 Standard basis: SVP (5D, 7F)
 There are  1330 symmetry adapted cartesian basis functions of A   symmetry.
 There are  1266 symmetry adapted basis functions of A   symmetry.
  1266 basis functions,  2118 primitive gaussians,  1330 cartesian basis functions
   236 alpha electrons      236 beta electrons
       nuclear repulsion energy      8283.8906162330 Hartrees.
 NAtoms=  138 NActive=  138 NUniq=  138 SFac= 1.00D+00 NAtFMM=   60 NAOKFM=T Big=T
 Integral buffers will be    131072 words long.
 Regular integral format.
 Two-electron integral symmetry is turned on.
 One-electron integrals computed using PRISM.
 NBasis=  1266 RedAO= T EigKep=  2.83D-04  NBF=  1266
 NBsUse=  1266 1.00D-06 EigRej= -1.00D+00 NBFU=  1266
 ExpMin= 1.22D-01 ExpMax= 2.27D+03 ExpMxC= 3.41D+02 IAcc=3 IRadAn=         5 AccDes= 0.00D+00
 Harris functional with IExCor=  402 and IRadAn=       5 diagonalized for initial guess.
 HarFok:  IExCor=  402 AccDes= 0.00D+00 IRadAn=         5 IDoV= 1 UseB2=F ITyADJ=14
 ICtDFT=  3500011 ScaDFX=  1.000000  1.000000  1.000000  1.000000
 FoFCou: FMM=F IPFlag=           0 FMFlag=      100000 FMFlg1=        2001
         NFxFlg=           0 DoJE=T BraDBF=F KetDBF=T FulRan=T
         wScrn=  0.000000 ICntrl=       500 IOpCl=  0 I1Cent=   200000004 NGrid=           0
         NMat0=    1 NMatS0=      1 NMatT0=    0 NMatD0=    1 NMtDS0=    0 NMtDT0=    0
 Petite list used in FoFCou.
 Requested convergence on RMS density matrix=1.00D-08 within 128 cycles.
 Requested convergence on MAX density matrix=1.00D-06.
 Requested convergence on             energy=1.00D-06.
 No special actions if energy rises.
 Integral accuracy reduced to 1.0D-05 until final iterations.
 Initial convergence to 1.0D-05 achieved.  Increase integral accuracy.
 SCF Done:  E(RB3LYP) =  -2733.00431557     A.U. after   17 cycles
            NFock= 17  Conv=0.30D-08     -V/T= 2.0121
 DoSCS=F DFT=T ScalE2(SS,OS)=  1.000000  1.000000
 ExpMin= 1.22D-01 ExpMax= 2.27D+03 ExpMxC= 3.41D+02 IAcc=3 IRadAn=         5 AccDes= 0.00D+00
 HarFok:  IExCor=  205 AccDes= 0.00D+00 IRadAn=         5 IDoV=-2 UseB2=F ITyADJ=14
 ICtDFT= 12500011 ScaDFX=  1.000000  1.000000  1.000000  1.000000
 GSVD:  LWork=       -4608 too small for GESVD, short by       21440 words or       21440 for optimal perf.
 Range of M.O.s used for correlation:    65  1266
 NBasis=  1266 NAE=   236 NBE=   236 NFC=    64 NFV=     0
 NROrb=   1202 NOA=   172 NOB=   172 NVA=  1030 NVB=  1030

 **** Warning!!: The smallest alpha delta epsilon is  0.84058134D-01

 Orbital symmetries:
       Occupied  (A) (A) (A) (A) (A) (A) (A) (A) (A) (A) (A) (A)
                 (A) (A) (A) (A) (A) (A) (A) (A) (A) (A) (A) (A)
                 (A) (A) (A) (A) (A) (A) (A) (A) (A) (A) (A) (A)
                 (A) (A) (A) (A) (A) (A) (A) (A) (A) (A) (A) (A)
                 (A) (A) (A) (A) (A) (A) (A) (A) (A) (A) (A) (A)
                 (A) (A) (A) (A) (A) (A) (A) (A) (A) (A) (A) (A)
                 (A) (A) (A) (A) (A) (A) (A) (A) (A) (A) (A) (A)
                 (A) (A) (A) (A) (A) (A) (A) (A) (A) (A) (A) (A)
                 (A) (A) (A) (A) (A) (A) (A) (A) (A) (A) (A) (A)
                 (A) (A) (A) (A) (A) (A) (A) (A) (A) (A) (A) (A)
                 (A) (A) (A) (A) (A) (A) (A) (A) (A) (A) (A) (A)
                 (A) (A) (A) (A) (A) (A) (A) (A) (A) (A) (A) (A)
                 (A) (A) (A) (A) (A) (A) (A) (A) (A) (A) (A) (A)
                 (A) (A) (A) (A) (A) (A) (A) (A) (A) (A) (A) (A)
                 (A) (A) (A) (A) (A) (A) (A) (A) (A) (A) (A) (A)
                 (A) (A) (A) (A) (A) (A) (A) (A) (A) (A) (A) (A)
                 (A) (A) (A) (A) (A) (A) (A) (A) (A) (A) (A) (A)
                 (A) (A) (A) (A) (A) (A) (A) (A) (A) (A) (A) (A)
                 (A) (A) (A) (A) (A) (A) (A) (A) (A) (A) (A) (A)
                 (A) (A) (A) (A) (A) (A) (A) (A)
       Virtual   (A) (A) (A) (A) (A) (A) (A) (A) (A) (A) (A) (A)
                 (A) (A) (A) (A) (A) (A) (A) (A) (A) (A) (A) (A)
                 (A) (A) (A) (A) (A) (A) (A) (A) (A) (A) (A) (A)
                 (A) (A) (A) (A) (A) (A) (A) (A) (A) (A) (A) (A)
                 (A) (A) (A) (A) (A) (A) (A) (A) (A) (A) (A) (A)
                 (A) (A) (A) (A) (A) (A) (A) (A) (A) (A) (A) (A)
                 (A) (A) (A) (A) (A) (A) (A) (A) (A) (A) (A) (A)
                 (A) (A) (A) (A) (A) (A) (A) (A) (A) (A) (A) (A)
                 (A) (A) (A) (A) (A) (A) (A) (A) (A) (A) (A) (A)
                 (A) (A) (A) (A) (A) (A) (A) (A) (A) (A) (A) (A)
                 (A) (A) (A) (A) (A) (A) (A) (A) (A) (A) (A) (A)
                 (A) (A) (A) (A) (A) (A) (A) (A) (A) (A) (A) (A)
                 (A) (A) (A) (A) (A) (A) (A) (A) (A) (A) (A) (A)
                 (A) (A) (A) (A) (A) (A) (A) (A) (A) (A) (A) (A)
                 (A) (A) (A) (A) (A) (A) (A) (A) (A) (A) (A) (A)
                 (A) (A) (A) (A) (A) (A) (A) (A) (A) (A) (A) (A)
                 (A) (A) (A) (A) (A) (A) (A) (A) (A) (A) (A) (A)
                 (A) (A) (A) (A) (A) (A) (A) (A) (A) (A) (A) (A)
                 (A) (A) (A) (A) (A) (A) (A) (A) (A) (A) (A) (A)
                 (A) (A) (A) (A) (A) (A) (A) (A) (A) (A) (A) (A)
                 (A) (A) (A) (A) (A) (A) (A) (A) (A) (A) (A) (A)
                 (A) (A) (A) (A) (A) (A) (A) (A) (A) (A) (A) (A)
                 (A) (A) (A) (A) (A) (A) (A) (A) (A) (A) (A) (A)
                 (A) (A) (A) (A) (A) (A) (A) (A) (A) (A) (A) (A)
                 (A) (A) (A) (A) (A) (A) (A) (A) (A) (A) (A) (A)
                 (A) (A) (A) (A) (A) (A) (A) (A) (A) (A) (A) (A)
                 (A) (A) (A) (A) (A) (A) (A) (A) (A) (A) (A) (A)
                 (A) (A) (A) (A) (A) (A) (A) (A) (A) (A) (A) (A)
                 (A) (A) (A) (A) (A) (A) (A) (A) (A) (A) (A) (A)
                 (A) (A) (A) (A) (A) (A) (A) (A) (A) (A) (A) (A)
                 (A) (A) (A) (A) (A) (A) (A) (A) (A) (A) (A) (A)
                 (A) (A) (A) (A) (A) (A) (A) (A) (A) (A) (A) (A)
                 (A) (A) (A) (A) (A) (A) (A) (A) (A) (A) (A) (A)
                 (A) (A) (A) (A) (A) (A) (A) (A) (A) (A) (A) (A)
                 (A) (A) (A) (A) (A) (A) (A) (A) (A) (A) (A) (A)
                 (A) (A) (A) (A) (A) (A) (A) (A) (A) (A) (A) (A)
                 (A) (A) (A) (A) (A) (A) (A) (A) (A) (A) (A) (A)
                 (A) (A) (A) (A) (A) (A) (A) (A) (A) (A) (A) (A)
                 (A) (A) (A) (A) (A) (A) (A) (A) (A) (A) (A) (A)
                 (A) (A) (A) (A) (A) (A) (A) (A) (A) (A) (A) (A)
                 (A) (A) (A) (A) (A) (A) (A) (A) (A) (A) (A) (A)
                 (A) (A) (A) (A) (A) (A) (A) (A) (A) (A) (A) (A)
                 (A) (A) (A) (A) (A) (A) (A) (A) (A) (A) (A) (A)
                 (A) (A) (A) (A) (A) (A) (A) (A) (A) (A) (A) (A)
                 (A) (A) (A) (A) (A) (A) (A) (A) (A) (A) (A) (A)
                 (A) (A) (A) (A) (A) (A) (A) (A) (A) (A) (A) (A)
                 (A) (A) (A) (A) (A) (A) (A) (A) (A) (A) (A) (A)
                 (A) (A) (A) (A) (A) (A) (A) (A) (A) (A) (A) (A)
                 (A) (A) (A) (A) (A) (A) (A) (A) (A) (A) (A) (A)
                 (A) (A) (A) (A) (A) (A) (A) (A) (A) (A) (A) (A)
                 (A) (A) (A) (A) (A) (A) (A) (A) (A) (A) (A) (A)
                 (A) (A) (A) (A) (A) (A) (A) (A) (A) (A) (A) (A)
                 (A) (A) (A) (A) (A) (A) (A) (A) (A) (A) (A) (A)
                 (A) (A) (A) (A) (A) (A) (A) (A) (A) (A) (A) (A)
                 (A) (A) (A) (A) (A) (A) (A) (A) (A) (A) (A) (A)
                 (A) (A) (A) (A) (A) (A) (A) (A) (A) (A) (A) (A)
                 (A) (A) (A) (A) (A) (A) (A) (A) (A) (A) (A) (A)
                 (A) (A) (A) (A) (A) (A) (A) (A) (A) (A) (A) (A)
                 (A) (A) (A) (A) (A) (A) (A) (A) (A) (A) (A) (A)
                 (A) (A) (A) (A) (A) (A) (A) (A) (A) (A) (A) (A)
                 (A) (A) (A) (A) (A) (A) (A) (A) (A) (A) (A) (A)
                 (A) (A) (A) (A) (A) (A) (A) (A) (A) (A) (A) (A)
                 (A) (A) (A) (A) (A) (A) (A) (A) (A) (A) (A) (A)
                 (A) (A) (A) (A) (A) (A) (A) (A) (A) (A) (A) (A)
                 (A) (A) (A) (A) (A) (A) (A) (A) (A) (A) (A) (A)
                 (A) (A) (A) (A) (A) (A) (A) (A) (A) (A) (A) (A)
                 (A) (A) (A) (A) (A) (A) (A) (A) (A) (A) (A) (A)
                 (A) (A) (A) (A) (A) (A) (A) (A) (A) (A) (A) (A)
                 (A) (A) (A) (A) (A) (A) (A) (A) (A) (A) (A) (A)
                 (A) (A) (A) (A) (A) (A) (A) (A) (A) (A) (A) (A)
                 (A) (A) (A) (A) (A) (A) (A) (A) (A) (A) (A) (A)
                 (A) (A) (A) (A) (A) (A) (A) (A) (A) (A) (A) (A)
                 (A) (A) (A) (A) (A) (A) (A) (A) (A) (A) (A) (A)
                 (A) (A) (A) (A) (A) (A) (A) (A) (A) (A) (A) (A)
                 (A) (A) (A) (A) (A) (A) (A) (A) (A) (A) (A) (A)
                 (A) (A) (A) (A) (A) (A) (A) (A) (A) (A) (A) (A)
                 (A) (A) (A) (A) (A) (A) (A) (A) (A) (A) (A) (A)
                 (A) (A) (A) (A) (A) (A) (A) (A) (A) (A) (A) (A)
                 (A) (A) (A) (A) (A) (A) (A) (A) (A) (A) (A) (A)
                 (A) (A) (A) (A) (A) (A) (A) (A) (A) (A) (A) (A)
                 (A) (A) (A) (A) (A) (A) (A) (A) (A) (A) (A) (A)
                 (A) (A) (A) (A) (A) (A) (A) (A) (A) (A) (A) (A)
                 (A) (A) (A) (A) (A) (A) (A) (A) (A) (A) (A) (A)
                 (A) (A) (A) (A) (A) (A) (A) (A) (A) (A) (A) (A)
                 (A) (A) (A) (A) (A) (A) (A) (A) (A) (A) (A) (A)
                 (A) (A) (A) (A) (A) (A) (A) (A) (A) (A)
     4 initial guesses have been made.
 Convergence on wavefunction:    0.001000000000000
 Iteration     1 Dimension     4 NMult     0 NNew      4
 CISAX will form     4 AO SS matrices at one time.
 Iteration     2 Dimension     6 NMult     4 NNew      2
 Iteration     3 Dimension     8 NMult     6 NNew      2
 Iteration     4 Dimension    10 NMult     8 NNew      2
 Iteration     5 Dimension    12 NMult    10 NNew      2
 Iteration     6 Dimension    14 NMult    12 NNew      2
 Iteration     7 Dimension    16 NMult    14 NNew      2
 Iteration     8 Dimension    18 NMult    16 NNew      2
 ***********************************************************************
 Excited states from <AA,BB:AA,BB> singles matrix:
 ***********************************************************************
 
 Ground to excited state transition densities written to RWF  633
 Ground to excited state transition electric dipole moments (Au):
       state          X           Y           Z        Dip. S.      Osc.
         1         0.1078      1.7853      0.2448      3.2588      0.1597
 Ground to excited state transition velocity dipole moments (Au):
       state          X           Y           Z        Dip. S.      Osc.
         1        -0.0074     -0.1276     -0.0182      0.0167      0.1512
 Ground to excited state transition magnetic dipole moments (Au):
       state          X           Y           Z
         1        -0.2512     -0.3643      2.6677
 Ground to excited state transition velocity quadrupole moments (Au):
       state          XX          YY          ZZ          XY          XZ          YZ
         1         0.2509     -0.2905     -0.0377      1.6443      0.2035     -0.0754
 <0|del|b> * <b|rxdel|0> + <0|del|b> * <b|delr+rdel|0>
 Rotatory Strengths (R) in cgs (10**-40 erg-esu-cm/Gauss)
       state          XX          YY          ZZ    R(velocity)    E-M Angle
         1       -29.2264    -78.0746    104.9705     -0.7768       90.04
 1/2[<0|r|b>*<b|rxdel|0> + (<0|rxdel|b>*<b|r|0>)*]
 Rotatory Strengths (R) in cgs (10**-40 erg-esu-cm/Gauss)
       state          XX          YY          ZZ     R(length)
         1        19.1463    459.9442   -461.8724      5.7394
  1/2[<0|del|b>*<b|r|0> + (<0|r|b>*<b|del|0>)*] (Au)
       state          X           Y           Z        Dip. S.   Osc.(frdel)
         1        -0.0008     -0.2278     -0.0045      0.2331      0.1554

 Excitation energies and oscillator strengths:
 
 Excited State   1:      Singlet-A      1.9999 eV  619.95 nm  f=0.1597  <S**2>=0.000
     235 -> 237       -0.14957
     235 -> 238        0.29216
     236 -> 237        0.61490
     236 -> 238        0.10904
 This state for optimization and/or second-order correction.
 Total Energy, E(TD-HF/TD-DFT) =  -2732.93082009    
 Copying the excited state density for this state as the 1-particle RhoCI density.
 SavETr:  write IOETrn=   770 NScale= 10 NData=  16 NLR=1 NState=    1 LETran=      28.
 Hyperfine terms turned off by default for NAtoms > 100.

 **********************************************************************

            Population analysis using the SCF density.

 **********************************************************************

 Orbital symmetries:
       Occupied  (A) (A) (A) (A) (A) (A) (A) (A) (A) (A) (A) (A)
                 (A) (A) (A) (A) (A) (A) (A) (A) (A) (A) (A) (A)
                 (A) (A) (A) (A) (A) (A) (A) (A) (A) (A) (A) (A)
                 (A) (A) (A) (A) (A) (A) (A) (A) (A) (A) (A) (A)
                 (A) (A) (A) (A) (A) (A) (A) (A) (A) (A) (A) (A)
                 (A) (A) (A) (A) (A) (A) (A) (A) (A) (A) (A) (A)
                 (A) (A) (A) (A) (A) (A) (A) (A) (A) (A) (A) (A)
                 (A) (A) (A) (A) (A) (A) (A) (A) (A) (A) (A) (A)
                 (A) (A) (A) (A) (A) (A) (A) (A) (A) (A) (A) (A)
                 (A) (A) (A) (A) (A) (A) (A) (A) (A) (A) (A) (A)
                 (A) (A) (A) (A) (A) (A) (A) (A) (A) (A) (A) (A)
                 (A) (A) (A) (A) (A) (A) (A) (A) (A) (A) (A) (A)
                 (A) (A) (A) (A) (A) (A) (A) (A) (A) (A) (A) (A)
                 (A) (A) (A) (A) (A) (A) (A) (A) (A) (A) (A) (A)
                 (A) (A) (A) (A) (A) (A) (A) (A) (A) (A) (A) (A)
                 (A) (A) (A) (A) (A) (A) (A) (A) (A) (A) (A) (A)
                 (A) (A) (A) (A) (A) (A) (A) (A) (A) (A) (A) (A)
                 (A) (A) (A) (A) (A) (A) (A) (A) (A) (A) (A) (A)
                 (A) (A) (A) (A) (A) (A) (A) (A) (A) (A) (A) (A)
                 (A) (A) (A) (A) (A) (A) (A) (A)
       Virtual   (A) (A) (A) (A) (A) (A) (A) (A) (A) (A) (A) (A)
                 (A) (A) (A) (A) (A) (A) (A) (A) (A) (A) (A) (A)
                 (A) (A) (A) (A) (A) (A) (A) (A) (A) (A) (A) (A)
                 (A) (A) (A) (A) (A) (A) (A) (A) (A) (A) (A) (A)
                 (A) (A) (A) (A) (A) (A) (A) (A) (A) (A) (A) (A)
                 (A) (A) (A) (A) (A) (A) (A) (A) (A) (A) (A) (A)
                 (A) (A) (A) (A) (A) (A) (A) (A) (A) (A) (A) (A)
                 (A) (A) (A) (A) (A) (A) (A) (A) (A) (A) (A) (A)
                 (A) (A) (A) (A) (A) (A) (A) (A) (A) (A) (A) (A)
                 (A) (A) (A) (A) (A) (A) (A) (A) (A) (A) (A) (A)
                 (A) (A) (A) (A) (A) (A) (A) (A) (A) (A) (A) (A)
                 (A) (A) (A) (A) (A) (A) (A) (A) (A) (A) (A) (A)
                 (A) (A) (A) (A) (A) (A) (A) (A) (A) (A) (A) (A)
                 (A) (A) (A) (A) (A) (A) (A) (A) (A) (A) (A) (A)
                 (A) (A) (A) (A) (A) (A) (A) (A) (A) (A) (A) (A)
                 (A) (A) (A) (A) (A) (A) (A) (A) (A) (A) (A) (A)
                 (A) (A) (A) (A) (A) (A) (A) (A) (A) (A) (A) (A)
                 (A) (A) (A) (A) (A) (A) (A) (A) (A) (A) (A) (A)
                 (A) (A) (A) (A) (A) (A) (A) (A) (A) (A) (A) (A)
                 (A) (A) (A) (A) (A) (A) (A) (A) (A) (A) (A) (A)
                 (A) (A) (A) (A) (A) (A) (A) (A) (A) (A) (A) (A)
                 (A) (A) (A) (A) (A) (A) (A) (A) (A) (A) (A) (A)
                 (A) (A) (A) (A) (A) (A) (A) (A) (A) (A) (A) (A)
                 (A) (A) (A) (A) (A) (A) (A) (A) (A) (A) (A) (A)
                 (A) (A) (A) (A) (A) (A) (A) (A) (A) (A) (A) (A)
                 (A) (A) (A) (A) (A) (A) (A) (A) (A) (A) (A) (A)
                 (A) (A) (A) (A) (A) (A) (A) (A) (A) (A) (A) (A)
                 (A) (A) (A) (A) (A) (A) (A) (A) (A) (A) (A) (A)
                 (A) (A) (A) (A) (A) (A) (A) (A) (A) (A) (A) (A)
                 (A) (A) (A) (A) (A) (A) (A) (A) (A) (A) (A) (A)
                 (A) (A) (A) (A) (A) (A) (A) (A) (A) (A) (A) (A)
                 (A) (A) (A) (A) (A) (A) (A) (A) (A) (A) (A) (A)
                 (A) (A) (A) (A) (A) (A) (A) (A) (A) (A) (A) (A)
                 (A) (A) (A) (A) (A) (A) (A) (A) (A) (A) (A) (A)
                 (A) (A) (A) (A) (A) (A) (A) (A) (A) (A) (A) (A)
                 (A) (A) (A) (A) (A) (A) (A) (A) (A) (A) (A) (A)
                 (A) (A) (A) (A) (A) (A) (A) (A) (A) (A) (A) (A)
                 (A) (A) (A) (A) (A) (A) (A) (A) (A) (A) (A) (A)
                 (A) (A) (A) (A) (A) (A) (A) (A) (A) (A) (A) (A)
                 (A) (A) (A) (A) (A) (A) (A) (A) (A) (A) (A) (A)
                 (A) (A) (A) (A) (A) (A) (A) (A) (A) (A) (A) (A)
                 (A) (A) (A) (A) (A) (A) (A) (A) (A) (A) (A) (A)
                 (A) (A) (A) (A) (A) (A) (A) (A) (A) (A) (A) (A)
                 (A) (A) (A) (A) (A) (A) (A) (A) (A) (A) (A) (A)
                 (A) (A) (A) (A) (A) (A) (A) (A) (A) (A) (A) (A)
                 (A) (A) (A) (A) (A) (A) (A) (A) (A) (A) (A) (A)
                 (A) (A) (A) (A) (A) (A) (A) (A) (A) (A) (A) (A)
                 (A) (A) (A) (A) (A) (A) (A) (A) (A) (A) (A) (A)
                 (A) (A) (A) (A) (A) (A) (A) (A) (A) (A) (A) (A)
                 (A) (A) (A) (A) (A) (A) (A) (A) (A) (A) (A) (A)
                 (A) (A) (A) (A) (A) (A) (A) (A) (A) (A) (A) (A)
                 (A) (A) (A) (A) (A) (A) (A) (A) (A) (A) (A) (A)
                 (A) (A) (A) (A) (A) (A) (A) (A) (A) (A) (A) (A)
                 (A) (A) (A) (A) (A) (A) (A) (A) (A) (A) (A) (A)
                 (A) (A) (A) (A) (A) (A) (A) (A) (A) (A) (A) (A)
                 (A) (A) (A) (A) (A) (A) (A) (A) (A) (A) (A) (A)
                 (A) (A) (A) (A) (A) (A) (A) (A) (A) (A) (A) (A)
                 (A) (A) (A) (A) (A) (A) (A) (A) (A) (A) (A) (A)
                 (A) (A) (A) (A) (A) (A) (A) (A) (A) (A) (A) (A)
                 (A) (A) (A) (A) (A) (A) (A) (A) (A) (A) (A) (A)
                 (A) (A) (A) (A) (A) (A) (A) (A) (A) (A) (A) (A)
                 (A) (A) (A) (A) (A) (A) (A) (A) (A) (A) (A) (A)
                 (A) (A) (A) (A) (A) (A) (A) (A) (A) (A) (A) (A)
                 (A) (A) (A) (A) (A) (A) (A) (A) (A) (A) (A) (A)
                 (A) (A) (A) (A) (A) (A) (A) (A) (A) (A) (A) (A)
                 (A) (A) (A) (A) (A) (A) (A) (A) (A) (A) (A) (A)
                 (A) (A) (A) (A) (A) (A) (A) (A) (A) (A) (A) (A)
                 (A) (A) (A) (A) (A) (A) (A) (A) (A) (A) (A) (A)
                 (A) (A) (A) (A) (A) (A) (A) (A) (A) (A) (A) (A)
                 (A) (A) (A) (A) (A) (A) (A) (A) (A) (A) (A) (A)
                 (A) (A) (A) (A) (A) (A) (A) (A) (A) (A) (A) (A)
                 (A) (A) (A) (A) (A) (A) (A) (A) (A) (A) (A) (A)
                 (A) (A) (A) (A) (A) (A) (A) (A) (A) (A) (A) (A)
                 (A) (A) (A) (A) (A) (A) (A) (A) (A) (A) (A) (A)
                 (A) (A) (A) (A) (A) (A) (A) (A) (A) (A) (A) (A)
                 (A) (A) (A) (A) (A) (A) (A) (A) (A) (A) (A) (A)
                 (A) (A) (A) (A) (A) (A) (A) (A) (A) (A) (A) (A)
                 (A) (A) (A) (A) (A) (A) (A) (A) (A) (A) (A) (A)
                 (A) (A) (A) (A) (A) (A) (A) (A) (A) (A) (A) (A)
                 (A) (A) (A) (A) (A) (A) (A) (A) (A) (A) (A) (A)
                 (A) (A) (A) (A) (A) (A) (A) (A) (A) (A) (A) (A)
                 (A) (A) (A) (A) (A) (A) (A) (A) (A) (A) (A) (A)
                 (A) (A) (A) (A) (A) (A) (A) (A) (A) (A) (A) (A)
                 (A) (A) (A) (A) (A) (A) (A) (A) (A) (A) (A) (A)
                 (A) (A) (A) (A) (A) (A) (A) (A) (A) (A) (A) (A)
                 (A) (A) (A) (A) (A) (A) (A) (A) (A) (A)
 The electronic state is 1-A.
 Alpha  occ. eigenvalues --  -19.20829 -19.17326 -19.12833 -19.12429 -19.12109
 Alpha  occ. eigenvalues --  -14.36282 -14.35863 -14.32224 -14.29429 -10.32110
 Alpha  occ. eigenvalues --  -10.31774 -10.28173 -10.25746 -10.25739 -10.24371
 Alpha  occ. eigenvalues --  -10.24343 -10.23473 -10.23020 -10.22972 -10.22864
 Alpha  occ. eigenvalues --  -10.22744 -10.22666 -10.21982 -10.21538 -10.21428
 Alpha  occ. eigenvalues --  -10.21363 -10.21338 -10.21123 -10.20979 -10.20933
 Alpha  occ. eigenvalues --  -10.20926 -10.20860 -10.20804 -10.20754 -10.20639
 Alpha  occ. eigenvalues --  -10.20627 -10.20541 -10.20507 -10.20483 -10.20056
 Alpha  occ. eigenvalues --  -10.19883 -10.19870 -10.19859 -10.19618 -10.19511
 Alpha  occ. eigenvalues --  -10.19488 -10.19440 -10.19350 -10.19293 -10.19171
 Alpha  occ. eigenvalues --  -10.19156 -10.18959 -10.18938 -10.18626 -10.18608
 Alpha  occ. eigenvalues --  -10.18477 -10.18394 -10.18216 -10.18011 -10.17557
 Alpha  occ. eigenvalues --  -10.17502 -10.17281 -10.16708 -10.16038  -1.16510
 Alpha  occ. eigenvalues --   -1.08726  -1.02968  -1.01712  -0.99642  -0.97039
 Alpha  occ. eigenvalues --   -0.96317  -0.94894  -0.93373  -0.83455  -0.82660
 Alpha  occ. eigenvalues --   -0.81954  -0.81927  -0.80271  -0.80088  -0.80023
 Alpha  occ. eigenvalues --   -0.79577  -0.79281  -0.78904  -0.78069  -0.77739
 Alpha  occ. eigenvalues --   -0.76686  -0.76515  -0.75593  -0.74522  -0.73865
 Alpha  occ. eigenvalues --   -0.73729  -0.72875  -0.72009  -0.71087  -0.69190
 Alpha  occ. eigenvalues --   -0.69090  -0.68318  -0.67984  -0.67829  -0.67825
 Alpha  occ. eigenvalues --   -0.67011  -0.66220  -0.65839  -0.65166  -0.64573
 Alpha  occ. eigenvalues --   -0.63856  -0.62735  -0.61700  -0.60897  -0.60469
 Alpha  occ. eigenvalues --   -0.60273  -0.59208  -0.58468  -0.57681  -0.57461
 Alpha  occ. eigenvalues --   -0.56803  -0.56410  -0.55930  -0.55775  -0.55371
 Alpha  occ. eigenvalues --   -0.54582  -0.54414  -0.54089  -0.53495  -0.53110
 Alpha  occ. eigenvalues --   -0.52925  -0.52615  -0.51699  -0.50886  -0.50491
 Alpha  occ. eigenvalues --   -0.49969  -0.49489  -0.49422  -0.48724  -0.48123
 Alpha  occ. eigenvalues --   -0.48042  -0.47775  -0.47314  -0.46688  -0.46583
 Alpha  occ. eigenvalues --   -0.46473  -0.46167  -0.45928  -0.45778  -0.45432
 Alpha  occ. eigenvalues --   -0.45394  -0.45326  -0.45208  -0.44658  -0.44431
 Alpha  occ. eigenvalues --   -0.44355  -0.44270  -0.44012  -0.43572  -0.43428
 Alpha  occ. eigenvalues --   -0.43196  -0.42758  -0.42484  -0.42297  -0.42042
 Alpha  occ. eigenvalues --   -0.42000  -0.41809  -0.41781  -0.41188  -0.40978
 Alpha  occ. eigenvalues --   -0.40679  -0.40423  -0.40408  -0.40129  -0.39844
 Alpha  occ. eigenvalues --   -0.39575  -0.39491  -0.39390  -0.39163  -0.39030
 Alpha  occ. eigenvalues --   -0.38907  -0.38449  -0.38386  -0.38233  -0.38202
 Alpha  occ. eigenvalues --   -0.38066  -0.37898  -0.37623  -0.37460  -0.37131
 Alpha  occ. eigenvalues --   -0.36996  -0.36805  -0.36517  -0.36462  -0.36175
 Alpha  occ. eigenvalues --   -0.35996  -0.35815  -0.35471  -0.35386  -0.35202
 Alpha  occ. eigenvalues --   -0.35095  -0.35008  -0.34871  -0.34852  -0.34643
 Alpha  occ. eigenvalues --   -0.34576  -0.34141  -0.34013  -0.33629  -0.33539
 Alpha  occ. eigenvalues --   -0.33406  -0.33388  -0.33276  -0.32931  -0.32894
 Alpha  occ. eigenvalues --   -0.32642  -0.32402  -0.32226  -0.31953  -0.31830
 Alpha  occ. eigenvalues --   -0.31232  -0.30632  -0.30313  -0.30298  -0.30037
 Alpha  occ. eigenvalues --   -0.29763  -0.29461  -0.28698  -0.28203  -0.27741
 Alpha  occ. eigenvalues --   -0.27394  -0.27008  -0.26775  -0.26094  -0.25445
 Alpha  occ. eigenvalues --   -0.24700  -0.24339  -0.24023  -0.22728  -0.19539
 Alpha  occ. eigenvalues --   -0.18698
 Alpha virt. eigenvalues --   -0.10293  -0.07557  -0.03894  -0.01923  -0.01809
 Alpha virt. eigenvalues --   -0.00669   0.00336   0.01553   0.02204   0.02854
 Alpha virt. eigenvalues --    0.03139   0.03887   0.04081   0.04197   0.04780
 Alpha virt. eigenvalues --    0.04843   0.05273   0.05531   0.05852   0.05958
 Alpha virt. eigenvalues --    0.06373   0.06454   0.06515   0.06837   0.07016
 Alpha virt. eigenvalues --    0.07134   0.07223   0.07370   0.07627   0.07688
 Alpha virt. eigenvalues --    0.08096   0.08286   0.08323   0.08437   0.08669
 Alpha virt. eigenvalues --    0.08724   0.08968   0.09334   0.09767   0.10021
 Alpha virt. eigenvalues --    0.10120   0.10214   0.10462   0.10544   0.10621
 Alpha virt. eigenvalues --    0.10993   0.11083   0.11194   0.11490   0.11545
 Alpha virt. eigenvalues --    0.11667   0.11735   0.11898   0.11938   0.12167
 Alpha virt. eigenvalues --    0.12231   0.12420   0.12512   0.12742   0.12803
 Alpha virt. eigenvalues --    0.12903   0.13221   0.13277   0.13452   0.13645
 Alpha virt. eigenvalues --    0.13657   0.13931   0.14233   0.14318   0.14478
 Alpha virt. eigenvalues --    0.14810   0.14979   0.15191   0.15307   0.15510
 Alpha virt. eigenvalues --    0.15518   0.15711   0.15761   0.16321   0.16707
 Alpha virt. eigenvalues --    0.16747   0.16884   0.17270   0.17398   0.17802
 Alpha virt. eigenvalues --    0.17862   0.18112   0.18126   0.18304   0.18650
 Alpha virt. eigenvalues --    0.18726   0.18964   0.19131   0.19503   0.19556
 Alpha virt. eigenvalues --    0.19754   0.19796   0.19937   0.19971   0.20241
 Alpha virt. eigenvalues --    0.20396   0.20788   0.21136   0.21193   0.21414
 Alpha virt. eigenvalues --    0.21496   0.21673   0.22026   0.22055   0.22729
 Alpha virt. eigenvalues --    0.23357   0.23408   0.23708   0.23860   0.24045
 Alpha virt. eigenvalues --    0.24174   0.24425   0.24694   0.24910   0.25098
 Alpha virt. eigenvalues --    0.25389   0.25870   0.25977   0.26584   0.27003
 Alpha virt. eigenvalues --    0.27476   0.27625   0.27820   0.28331   0.28713
 Alpha virt. eigenvalues --    0.29016   0.29517   0.30146   0.30299   0.30985
 Alpha virt. eigenvalues --    0.31481   0.32145   0.32518   0.32947   0.33283
 Alpha virt. eigenvalues --    0.33520   0.33754   0.33880   0.34299   0.34684
 Alpha virt. eigenvalues --    0.35318   0.35385   0.36158   0.36474   0.36787
 Alpha virt. eigenvalues --    0.37107   0.37370   0.37856   0.38092   0.38731
 Alpha virt. eigenvalues --    0.39084   0.39173   0.39613   0.39691   0.39873
 Alpha virt. eigenvalues --    0.40008   0.40574   0.40851   0.41132   0.41281
 Alpha virt. eigenvalues --    0.41438   0.41580   0.41855   0.41962   0.42183
 Alpha virt. eigenvalues --    0.42495   0.42740   0.42863   0.42928   0.43160
 Alpha virt. eigenvalues --    0.43290   0.43459   0.43668   0.43941   0.44138
 Alpha virt. eigenvalues --    0.44509   0.44712   0.44902   0.45146   0.45351
 Alpha virt. eigenvalues --    0.45497   0.45690   0.45899   0.45963   0.46564
 Alpha virt. eigenvalues --    0.46823   0.46871   0.47371   0.47596   0.47784
 Alpha virt. eigenvalues --    0.47963   0.48156   0.48368   0.48595   0.48793
 Alpha virt. eigenvalues --    0.48810   0.49152   0.49232   0.49639   0.49961
 Alpha virt. eigenvalues --    0.50124   0.50288   0.50443   0.50849   0.51091
 Alpha virt. eigenvalues --    0.51257   0.51500   0.51777   0.52097   0.52317
 Alpha virt. eigenvalues --    0.52475   0.52809   0.53255   0.53551   0.53776
 Alpha virt. eigenvalues --    0.54040   0.54328   0.54367   0.54411   0.55071
 Alpha virt. eigenvalues --    0.55173   0.55308   0.55698   0.55775   0.55885
 Alpha virt. eigenvalues --    0.55923   0.56340   0.56894   0.56951   0.57136
 Alpha virt. eigenvalues --    0.57268   0.57367   0.57695   0.57776   0.57882
 Alpha virt. eigenvalues --    0.58427   0.58584   0.58748   0.58786   0.58975
 Alpha virt. eigenvalues --    0.59048   0.59137   0.59207   0.59458   0.59530
 Alpha virt. eigenvalues --    0.59811   0.59859   0.60445   0.60688   0.60787
 Alpha virt. eigenvalues --    0.60909   0.61005   0.61091   0.61212   0.61329
 Alpha virt. eigenvalues --    0.61493   0.61761   0.61899   0.61962   0.62165
 Alpha virt. eigenvalues --    0.62347   0.62380   0.62736   0.62908   0.62932
 Alpha virt. eigenvalues --    0.63083   0.63275   0.63357   0.63489   0.63736
 Alpha virt. eigenvalues --    0.63871   0.64003   0.64062   0.64202   0.64458
 Alpha virt. eigenvalues --    0.64593   0.64754   0.64983   0.65016   0.65226
 Alpha virt. eigenvalues --    0.65305   0.65501   0.65653   0.65717   0.65938
 Alpha virt. eigenvalues --    0.65987   0.66119   0.66292   0.66345   0.66409
 Alpha virt. eigenvalues --    0.66569   0.66663   0.66878   0.66906   0.67120
 Alpha virt. eigenvalues --    0.67192   0.67242   0.67423   0.67487   0.67630
 Alpha virt. eigenvalues --    0.68026   0.68083   0.68275   0.68612   0.68727
 Alpha virt. eigenvalues --    0.68840   0.68877   0.69033   0.69116   0.69213
 Alpha virt. eigenvalues --    0.69314   0.69473   0.69620   0.69785   0.69904
 Alpha virt. eigenvalues --    0.69953   0.70266   0.70364   0.70527   0.70546
 Alpha virt. eigenvalues --    0.70759   0.70810   0.71016   0.71105   0.71388
 Alpha virt. eigenvalues --    0.71601   0.71722   0.72050   0.72197   0.72369
 Alpha virt. eigenvalues --    0.72445   0.72592   0.72659   0.73021   0.73086
 Alpha virt. eigenvalues --    0.73174   0.73531   0.73750   0.73985   0.74153
 Alpha virt. eigenvalues --    0.74245   0.74315   0.74413   0.74542   0.74600
 Alpha virt. eigenvalues --    0.74781   0.75057   0.75163   0.75215   0.75515
 Alpha virt. eigenvalues --    0.75813   0.76347   0.76423   0.76785   0.76795
 Alpha virt. eigenvalues --    0.76995   0.77147   0.77352   0.77537   0.78166
 Alpha virt. eigenvalues --    0.78307   0.78387   0.78964   0.79062   0.79310
 Alpha virt. eigenvalues --    0.79653   0.79730   0.80125   0.80607   0.81217
 Alpha virt. eigenvalues --    0.81344   0.81547   0.81995   0.82392   0.82862
 Alpha virt. eigenvalues --    0.83422   0.83650   0.83990   0.84140   0.84268
 Alpha virt. eigenvalues --    0.85770   0.86427   0.87772   0.87926   0.88293
 Alpha virt. eigenvalues --    0.88793   0.89386   0.89760   0.90661   0.91030
 Alpha virt. eigenvalues --    0.91390   0.91477   0.92387   0.92848   0.93018
 Alpha virt. eigenvalues --    0.93274   0.94179   0.94601   0.94704   0.95072
 Alpha virt. eigenvalues --    0.95283   0.96146   0.96295   0.96541   0.97426
 Alpha virt. eigenvalues --    0.97759   0.97960   0.98466   0.98806   0.99367
 Alpha virt. eigenvalues --    0.99661   1.00052   1.00291   1.00457   1.01407
 Alpha virt. eigenvalues --    1.01991   1.02559   1.02768   1.03040   1.03116
 Alpha virt. eigenvalues --    1.03649   1.04151   1.04427   1.05028   1.05459
 Alpha virt. eigenvalues --    1.05861   1.06598   1.06770   1.07307   1.07909
 Alpha virt. eigenvalues --    1.08177   1.08433   1.08889   1.09450   1.09760
 Alpha virt. eigenvalues --    1.10327   1.10665   1.11174   1.11668   1.11918
 Alpha virt. eigenvalues --    1.12242   1.12594   1.13040   1.13175   1.13867
 Alpha virt. eigenvalues --    1.14378   1.14703   1.15501   1.16029   1.16394
 Alpha virt. eigenvalues --    1.16687   1.16910   1.17044   1.18096   1.18546
 Alpha virt. eigenvalues --    1.18902   1.19228   1.20170   1.20995   1.21225
 Alpha virt. eigenvalues --    1.21381   1.21853   1.22332   1.22799   1.23332
 Alpha virt. eigenvalues --    1.23767   1.23989   1.24281   1.24455   1.24988
 Alpha virt. eigenvalues --    1.25402   1.25687   1.26338   1.26831   1.27055
 Alpha virt. eigenvalues --    1.27208   1.27670   1.27926   1.28545   1.28620
 Alpha virt. eigenvalues --    1.28867   1.29484   1.30115   1.30266   1.30534
 Alpha virt. eigenvalues --    1.30682   1.31163   1.31380   1.31947   1.32323
 Alpha virt. eigenvalues --    1.33227   1.33616   1.34022   1.34342   1.34873
 Alpha virt. eigenvalues --    1.35392   1.35948   1.36082   1.36381   1.36469
 Alpha virt. eigenvalues --    1.36588   1.37239   1.37339   1.37976   1.38349
 Alpha virt. eigenvalues --    1.38534   1.38805   1.39011   1.39776   1.39936
 Alpha virt. eigenvalues --    1.40145   1.40296   1.40722   1.41754   1.42065
 Alpha virt. eigenvalues --    1.42145   1.43370   1.43615   1.44143   1.44477
 Alpha virt. eigenvalues --    1.44713   1.45545   1.46212   1.46663   1.47155
 Alpha virt. eigenvalues --    1.47467   1.47591   1.47847   1.48847   1.49095
 Alpha virt. eigenvalues --    1.49265   1.49713   1.50098   1.50247   1.50470
 Alpha virt. eigenvalues --    1.50538   1.50676   1.51093   1.51469   1.51547
 Alpha virt. eigenvalues --    1.52130   1.52394   1.52692   1.52943   1.53153
 Alpha virt. eigenvalues --    1.53608   1.54041   1.54457   1.54533   1.54955
 Alpha virt. eigenvalues --    1.55530   1.55897   1.56627   1.56726   1.57143
 Alpha virt. eigenvalues --    1.57268   1.57514   1.57863   1.58816   1.59056
 Alpha virt. eigenvalues --    1.59243   1.59404   1.59504   1.60255   1.60669
 Alpha virt. eigenvalues --    1.60980   1.61612   1.61641   1.62098   1.62259
 Alpha virt. eigenvalues --    1.62884   1.63337   1.63848   1.63908   1.63985
 Alpha virt. eigenvalues --    1.64522   1.64728   1.64860   1.65326   1.65740
 Alpha virt. eigenvalues --    1.66241   1.66350   1.66646   1.66851   1.67240
 Alpha virt. eigenvalues --    1.67391   1.67604   1.67855   1.68177   1.68655
 Alpha virt. eigenvalues --    1.68792   1.68834   1.69230   1.69373   1.69499
 Alpha virt. eigenvalues --    1.69848   1.70081   1.70273   1.70438   1.70861
 Alpha virt. eigenvalues --    1.71076   1.71467   1.71542   1.71677   1.72104
 Alpha virt. eigenvalues --    1.72121   1.72363   1.72480   1.72620   1.72838
 Alpha virt. eigenvalues --    1.72920   1.73320   1.73683   1.73867   1.74104
 Alpha virt. eigenvalues --    1.74253   1.74645   1.74908   1.75033   1.75092
 Alpha virt. eigenvalues --    1.75314   1.75422   1.75825   1.75884   1.76107
 Alpha virt. eigenvalues --    1.76199   1.76382   1.76490   1.76959   1.77110
 Alpha virt. eigenvalues --    1.77304   1.77501   1.77575   1.78042   1.78272
 Alpha virt. eigenvalues --    1.78536   1.78969   1.79026   1.79259   1.79522
 Alpha virt. eigenvalues --    1.79761   1.80104   1.80573   1.80800   1.80992
 Alpha virt. eigenvalues --    1.81133   1.81339   1.81664   1.81780   1.82004
 Alpha virt. eigenvalues --    1.82405   1.82531   1.82933   1.83097   1.83424
 Alpha virt. eigenvalues --    1.83635   1.83766   1.83963   1.84064   1.84496
 Alpha virt. eigenvalues --    1.84614   1.84935   1.85138   1.85438   1.85658
 Alpha virt. eigenvalues --    1.85798   1.86291   1.86504   1.86934   1.87003
 Alpha virt. eigenvalues --    1.87222   1.87515   1.87837   1.88148   1.88262
 Alpha virt. eigenvalues --    1.88842   1.88913   1.89144   1.89263   1.89618
 Alpha virt. eigenvalues --    1.89838   1.90164   1.90240   1.90319   1.90377
 Alpha virt. eigenvalues --    1.90545   1.90815   1.91041   1.91186   1.91952
 Alpha virt. eigenvalues --    1.92109   1.92250   1.92341   1.92775   1.92921
 Alpha virt. eigenvalues --    1.93062   1.93376   1.93777   1.94087   1.94322
 Alpha virt. eigenvalues --    1.94508   1.94554   1.94753   1.94930   1.95436
 Alpha virt. eigenvalues --    1.95528   1.95835   1.96218   1.96661   1.97001
 Alpha virt. eigenvalues --    1.97325   1.97621   1.97763   1.98234   1.98553
 Alpha virt. eigenvalues --    1.98805   1.99081   1.99643   1.99905   2.00017
 Alpha virt. eigenvalues --    2.00567   2.01014   2.01066   2.01262   2.01423
 Alpha virt. eigenvalues --    2.01800   2.01818   2.02497   2.02750   2.03149
 Alpha virt. eigenvalues --    2.03201   2.03624   2.03740   2.04238   2.04752
 Alpha virt. eigenvalues --    2.04897   2.05167   2.05932   2.06344   2.06664
 Alpha virt. eigenvalues --    2.06975   2.07265   2.07631   2.08144   2.08305
 Alpha virt. eigenvalues --    2.08619   2.09030   2.10038   2.10343   2.10564
 Alpha virt. eigenvalues --    2.10690   2.11004   2.11516   2.11813   2.11906
 Alpha virt. eigenvalues --    2.12147   2.12801   2.13087   2.13554   2.14413
 Alpha virt. eigenvalues --    2.14666   2.15489   2.15759   2.16021   2.16428
 Alpha virt. eigenvalues --    2.16495   2.16721   2.17563   2.17686   2.17773
 Alpha virt. eigenvalues --    2.18017   2.18606   2.19270   2.19556   2.19629
 Alpha virt. eigenvalues --    2.20019   2.20137   2.20555   2.20942   2.21252
 Alpha virt. eigenvalues --    2.21563   2.21768   2.22220   2.22549   2.22836
 Alpha virt. eigenvalues --    2.23515   2.23537   2.23840   2.24105   2.24371
 Alpha virt. eigenvalues --    2.24768   2.25120   2.25448   2.26454   2.26550
 Alpha virt. eigenvalues --    2.27165   2.27460   2.27653   2.27988   2.28166
 Alpha virt. eigenvalues --    2.28465   2.28573   2.29052   2.29114   2.29572
 Alpha virt. eigenvalues --    2.29818   2.30015   2.30095   2.30270   2.31040
 Alpha virt. eigenvalues --    2.31202   2.31565   2.32545   2.33104   2.33402
 Alpha virt. eigenvalues --    2.34116   2.34985   2.35104   2.35230   2.35436
 Alpha virt. eigenvalues --    2.36465   2.36867   2.37085   2.37198   2.37426
 Alpha virt. eigenvalues --    2.37718   2.38218   2.38398   2.38732   2.39111
 Alpha virt. eigenvalues --    2.39351   2.40118   2.40208   2.40537   2.41058
 Alpha virt. eigenvalues --    2.41537   2.42135   2.42387   2.42554   2.42724
 Alpha virt. eigenvalues --    2.43273   2.43669   2.44309   2.44897   2.44976
 Alpha virt. eigenvalues --    2.45283   2.45502   2.46261   2.46687   2.46724
 Alpha virt. eigenvalues --    2.47265   2.47741   2.47930   2.48388   2.49631
 Alpha virt. eigenvalues --    2.49849   2.50137   2.50450   2.51210   2.52080
 Alpha virt. eigenvalues --    2.52232   2.52327   2.52758   2.53014   2.53890
 Alpha virt. eigenvalues --    2.54455   2.55001   2.55238   2.55810   2.55891
 Alpha virt. eigenvalues --    2.56040   2.56697   2.57767   2.58219   2.58949
 Alpha virt. eigenvalues --    2.59373   2.59478   2.60181   2.60737   2.60972
 Alpha virt. eigenvalues --    2.61550   2.61669   2.62000   2.62399   2.62482
 Alpha virt. eigenvalues --    2.62887   2.63145   2.63874   2.63991   2.64267
 Alpha virt. eigenvalues --    2.64670   2.64773   2.65174   2.65510   2.65886
 Alpha virt. eigenvalues --    2.66045   2.66519   2.66810   2.67106   2.67932
 Alpha virt. eigenvalues --    2.68898   2.69305   2.69636   2.69788   2.69887
 Alpha virt. eigenvalues --    2.70440   2.70703   2.71076   2.71261   2.71693
 Alpha virt. eigenvalues --    2.72100   2.72811   2.73113   2.73633   2.73748
 Alpha virt. eigenvalues --    2.74322   2.74935   2.75545   2.75950   2.75990
 Alpha virt. eigenvalues --    2.76536   2.76570   2.76676   2.77281   2.78132
 Alpha virt. eigenvalues --    2.79141   2.79635   2.80602   2.80813   2.81456
 Alpha virt. eigenvalues --    2.82357   2.82699   2.82919   2.83006   2.83504
 Alpha virt. eigenvalues --    2.84462   2.84641   2.84800   2.85060   2.85243
 Alpha virt. eigenvalues --    2.85867   2.86493   2.86862   2.87146   2.87618
 Alpha virt. eigenvalues --    2.88023   2.88262   2.88555   2.89462   2.89598
 Alpha virt. eigenvalues --    2.89821   2.90145   2.90789   2.91626   2.91704
 Alpha virt. eigenvalues --    2.91828   2.92638   2.93066   2.93492   2.94236
 Alpha virt. eigenvalues --    2.94825   2.94886   2.95471   2.96414   2.96803
 Alpha virt. eigenvalues --    2.97157   2.97165   2.98291   2.98687   2.99128
 Alpha virt. eigenvalues --    2.99260   2.99985   3.00768   3.01505   3.02836
 Alpha virt. eigenvalues --    3.02901   3.03533   3.03795   3.04507   3.04920
 Alpha virt. eigenvalues --    3.05724   3.06045   3.06620   3.07761   3.08595
 Alpha virt. eigenvalues --    3.09077   3.09115   3.09289   3.10320   3.10482
 Alpha virt. eigenvalues --    3.10809   3.11626   3.12435   3.13152   3.14442
 Alpha virt. eigenvalues --    3.15808   3.16295   3.17447   3.17756   3.17784
 Alpha virt. eigenvalues --    3.18320   3.19112   3.19854   3.20661   3.22967
 Alpha virt. eigenvalues --    3.23988   3.25468   3.30651   3.31245   3.33883
 Alpha virt. eigenvalues --    3.34919   3.37227   3.40721   3.41892   3.44201
 Alpha virt. eigenvalues --    3.46073   3.51206   3.51882   3.55874   3.60578
 Alpha virt. eigenvalues --    3.61730   3.62795   3.67953   3.68738   3.79985
          Condensed to atoms (all electrons):
 Mulliken charges:
               1
     1  C   -0.096709
     2  C   -0.095425
     3  C   -0.108412
     4  C   -0.094015
     5  N   -0.181158
     6  C   -0.052908
     7  C   -0.041774
     8  C   -0.135424
     9  C    0.069403
    10  C    0.061419
    11  C    0.108267
    12  C   -0.050712
    13  C    0.197361
    14  O   -0.266976
    15  O   -0.318943
    16  N   -0.053583
    17  C    0.088234
    18  C   -0.118403
    19  C    0.098721
    20  C    0.147742
    21  C   -0.095426
    22  C   -0.124251
    23  C    0.031715
    24  N   -0.141813
    25  C    0.017495
    26  C   -0.169693
    27  C   -0.113954
    28  C   -0.006618
    29  C    0.099212
    30  C    0.043822
    31  C   -0.077183
    32  N   -0.094584
    33  C    0.134427
    34  C   -0.132916
    35  C    0.006531
    36  C    0.137952
    37  C   -0.044909
    38  C    0.032954
    39  O   -0.192923
    40  C    0.028960
    41  C    0.158755
    42  O   -0.214928
    43  O   -0.164189
    44  C    0.179902
    45  C    0.189082
    46  C   -0.012585
    47  C   -0.144356
    48  C    0.062777
    49  C    0.015660
    50  C   -0.043783
    51  C    0.015387
    52  C   -0.034493
    53  C    0.069111
    54  C   -0.046603
    55  C    0.158468
    56  C    0.077526
    57  C   -0.006249
    58  C   -0.060839
    59  C    0.020469
    60  C    0.105440
    61  C   -0.103001
    62  C   -0.083249
    63  C    0.087263
    64  C    0.027052
    65  H    0.015761
    66  H   -0.018037
    67  H    0.010052
    68  H    0.020833
    69  H    0.013524
    70  H   -0.005998
    71  H    0.017970
    72  H    0.031646
    73  H   -0.013145
    74  H    0.030249
    75  H    0.070632
    76  H    0.028069
    77  H    0.066042
    78  H    0.059387
    79  H    0.066969
    80  H    0.026784
    81  H    0.021069
    82  H   -0.002041
    83  H    0.042690
    84  H    0.033055
    85  H    0.014184
    86  H    0.019883
    87  H    0.038263
    88  H    0.033928
    89  H    0.035000
    90  H    0.030715
    91  H    0.051385
    92  H    0.059504
    93  H    0.069687
    94  H    0.049070
    95  H    0.038566
    96  H    0.046814
    97  H    0.018795
    98  H    0.038943
    99  H    0.035389
   100  H   -0.036717
   101  H    0.026531
   102  H    0.036054
   103  H    0.015097
   104  H    0.020986
   105  H    0.028443
   106  H    0.026543
   107  H    0.003084
   108  H    0.001368
   109  H    0.007736
   110  H   -0.032284
   111  H   -0.012691
   112  H    0.017050
   113  H   -0.006697
   114  H   -0.016228
   115  H   -0.005233
   116  H    0.000897
   117  H   -0.024554
   118  H   -0.050547
   119  H   -0.048704
   120  H   -0.034760
   121  H    0.000374
   122  H    0.033759
   123  H    0.017417
   124  H   -0.007519
   125  H   -0.034001
   126  H   -0.007657
   127  H   -0.014673
   128  H    0.005838
   129  H   -0.001736
   130  H   -0.017585
   131  H   -0.032146
   132  H    0.014719
   133  H    0.000185
   134  H    0.030996
   135  H    0.005176
   136  H    0.017820
   137  H    0.081343
   138  H    0.148561
 Sum of Mulliken charges =  -0.00000
 Mulliken charges with hydrogens summed into heavy atoms:
               1
     1  C   -0.096709
     2  C   -0.079664
     3  C   -0.126449
     4  C   -0.083963
     5  N   -0.181158
     6  C   -0.052908
     7  C   -0.020942
     8  C   -0.121900
     9  C    0.069403
    10  C    0.105037
    11  C    0.125371
    12  C    0.047990
    13  C    0.197361
    14  O   -0.266976
    15  O   -0.318943
    16  N    0.027760
    17  C    0.088234
    18  C   -0.118403
    19  C    0.098721
    20  C    0.147742
    21  C    0.096972
    22  C   -0.097467
    23  C    0.050743
    24  N   -0.141813
    25  C    0.017495
    26  C   -0.169693
    27  C   -0.113954
    28  C   -0.006618
    29  C    0.189141
    30  C    0.101968
    31  C    0.022460
    32  N    0.053977
    33  C    0.134427
    34  C   -0.132916
    35  C    0.006531
    36  C    0.137952
    37  C    0.135667
    38  C    0.032954
    39  O   -0.192923
    40  C    0.078030
    41  C    0.158755
    42  O   -0.214928
    43  O   -0.164189
    44  C    0.284077
    45  C    0.263415
    46  C   -0.049301
    47  C   -0.144356
    48  C    0.140459
    49  C    0.065089
    50  C   -0.014156
    51  C    0.024491
    52  C   -0.066777
    53  C    0.066774
    54  C   -0.068065
    55  C    0.134811
    56  C   -0.021725
    57  C   -0.041009
    58  C   -0.009288
    59  C   -0.021051
    60  C    0.083110
    61  C   -0.098899
    62  C   -0.100834
    63  C    0.070021
    64  C    0.081044
 Electronic spatial extent (au):  <R**2>=         177573.4717
 Charge=             -0.0000 electrons
 Dipole moment (field-independent basis, Debye):
    X=              2.7055    Y=              1.9141    Z=              0.1647  Tot=              3.3183
 Quadrupole moment (field-independent basis, Debye-Ang):
   XX=           -369.3207   YY=           -378.1222   ZZ=           -396.1502
   XY=            -24.1719   XZ=              1.4207   YZ=             -4.5665
 Traceless Quadrupole moment (field-independent basis, Debye-Ang):
   XX=             11.8770   YY=              3.0755   ZZ=            -14.9525
   XY=            -24.1719   XZ=              1.4207   YZ=             -4.5665
 Octapole moment (field-independent basis, Debye-Ang**2):
  XXX=           -701.2817  YYY=             21.9973  ZZZ=              6.3844  XYY=           -101.0520
  XXY=            121.4407  XXZ=           -298.8076  XZZ=             25.8740  YZZ=            -45.6746
  YYZ=             86.2916  XYZ=            -31.1772
 Hexadecapole moment (field-independent basis, Debye-Ang**3):
 XXXX=        -228602.1720 YYYY=         -17742.4613 ZZZZ=          -4391.4282 XXXY=          -2279.1090
 XXXZ=           -716.9295 YYYX=           -921.6624 YYYZ=           -404.3723 ZZZX=            -86.5973
 ZZZY=           -149.5778 XXYY=         -40227.0899 XXZZ=         -39023.5561 YYZZ=          -3569.9578
 XXYZ=             -2.4717 YYXZ=           -185.4428 ZZXY=             40.8527
 N-N= 8.283890616233D+03 E-N=-2.290196928473D+04  KE= 2.700311050661D+03
 1\1\GINC-RYZEN-SSD1\SP\RB3LYP TD-FC\SVP\C55H74N4O5\PADAWAN\15-Aug-2019
 \0\\# td=(NStates=1) B3LYP/SVP\\TD\\0,1\C,0,-5.0923920897,-1.971386944
 7,0.4353321583\C,0,-4.721148273,2.7651767467,1.5101676929\C,0,-9.35597
 48411,3.3548416805,-0.1848130975\C,0,-9.8106329144,-1.4506066553,-0.86
 44825937\N,0,-5.2514818962,0.3462810892,0.9555830163\C,0,-4.5149795956
 ,-0.7689258762,0.8352496106\C,0,-2.9813198857,-0.5626867522,1.12675592
 5\C,0,-3.0924433967,0.883853503,1.8049149969\C,0,-4.4484798061,1.38807
 5853,1.3873006415\C,0,-2.9652830262,0.7783861396,3.4379536534\C,0,-2.0
 955648993,-0.5613611502,-0.1194253348\C,0,-0.6271811062,-0.6915380086,
 0.4512628914\C,0,0.3421687228,-0.9557324905,-0.7321690741\O,0,0.031652
 9012,-1.0911388038,-1.9269251471\O,0,1.6209971749,-0.9450909276,-0.277
 7227643\N,0,-7.0860717882,2.7100257445,0.6129918932\C,0,-5.954439625,3
 .4004967822,1.0776518906\C,0,-6.2318844609,4.7673448183,0.9702185736\C
 ,0,-7.5073738019,5.0493662596,0.4706122913\C,0,-8.0541008605,3.6922278
 217,0.2014814844\C,0,-5.2417233287,5.8984836308,1.3765736613\C,0,-8.16
 45830465,6.3098507028,0.2827433286\C,0,-9.0304205649,6.6253018208,-0.6
 764362599\N,0,-9.135096909,0.9270211767,-0.487105686\C,0,-9.8348852659
 ,2.098473149,-0.5086896797\C,0,-11.2485310911,1.9064342829,-0.91271534
 28\C,0,-11.3488003205,0.5543594773,-1.1606161232\C,0,-10.0010768161,0.
 0574586965,-0.8535388343\C,0,-12.2633005273,3.0173743065,-0.9981942485
 \C,0,-12.5487249699,-0.3272718256,-1.5159038254\C,0,-12.59150362,-0.33
 36180082,-3.1187490593\N,0,-7.4627894046,-1.2292672412,-0.3398103261\C
 ,0,-8.5752635119,-2.0948260968,-0.7127882072\C,0,-8.1242560328,-3.3747
 020717,-0.6664903875\C,0,-6.7915511833,-3.3876546498,-0.2651786232\C,0
 ,-6.4374722868,-2.0618479839,-0.0021780637\C,0,-9.0138853736,-4.633746
 7747,-1.1115036572\C,0,-5.6343395555,-4.26223145,0.1383065003\O,0,-5.6
 228741435,-5.4905755663,0.0599029107\C,0,-4.3586114657,-3.4015672694,0
 .5039556452\C,0,-3.8035827731,-3.8864123364,1.8881006954\O,0,-3.974070
 0187,-3.3062415801,2.9165921232\O,0,-3.1723297487,-4.8950397853,1.6197
 077138\C,0,-2.7063141617,-5.5852094262,2.7630527756\C,0,2.6543154749,-
 1.1621249031,-1.2478889942\C,0,3.9671008199,-0.8765522786,-0.505707183
 9\C,0,4.9374760478,0.0172307707,-0.9446498696\C,0,4.9437448847,0.70363
 42051,-2.3162341624\C,0,6.2032940415,-0.0265200237,-0.1306845316\C,0,7
 .4956337906,-0.3820975429,-1.091306484\C,0,8.7236158386,-0.3166668736,
 -0.1933642163\C,0,10.0357654312,-0.7041048931,-0.9761585958\C,0,10.083
 4021336,-2.2542305889,-1.2550996247\C,0,11.3554362182,-0.2321728879,-0
 .0975322212\C,0,12.6883674213,-0.4655450329,-0.6834462218\C,0,13.78259
 46667,-0.0037230754,0.1820545681\C,0,15.1628981109,-0.2631493507,-0.39
 03828741\C,0,15.6125985875,-1.767500912,-0.4106107966\C,0,16.172499847
 2,0.5320241136,0.4862718916\C,0,17.6948663253,0.6006157955,-0.02350685
 85\C,0,18.5508649375,1.4943680558,0.6954382367\C,0,20.0683867346,1.741
 6497903,0.1434171021\C,0,20.0958105106,2.386528084,-1.2519816072\C,0,2
 0.8106015258,2.5460983459,1.267613162\H,0,-3.8446626339,3.4408704713,1
 .8927315115\H,0,-10.1618237674,4.1135507916,-0.3741560895\H,0,-10.6683
 451744,-2.0242284328,-1.3353434282\H,0,-2.5411401655,-1.3206124253,1.8
 555473494\H,0,-2.1787584434,1.6361835695,1.6171912175\H,0,-2.006278143
 7,0.6816355853,3.7614728726\H,0,-3.3550688072,1.7719018338,3.949494050
 6\H,0,-3.6057711565,-0.0457838761,3.645823428\H,0,-2.2390733612,-1.386
 0424819,-0.7300198583\H,0,-2.1539813367,0.3061780921,-0.8745661173\H,0
 ,-0.2592502484,0.3289670226,1.0957956101\H,0,-0.6089539083,-1.57429660
 97,1.0916562846\H,0,-4.0463692943,5.5666648041,0.9470178398\H,0,-5.698
 0110199,7.0848136001,0.848590456\H,0,-5.3201337904,5.9060204514,2.6038
 814487\H,0,-7.9775778567,7.1542824619,1.0340447108\H,0,-9.4404594387,5
 .9930572912,-1.4424136374\H,0,-9.4247367529,7.5484101263,-0.4697866828
 \H,0,-12.4644309905,3.4149919977,0.0342010215\H,0,-11.8270616285,3.591
 8341481,-1.7829455121\H,0,-13.3109784978,2.6808437026,-1.3167347204\H,
 0,-12.4698918151,-1.3495550818,-1.1431888927\H,0,-13.464437186,0.29926
 95884,-0.9225659339\H,0,-12.6157360886,0.7117381889,-3.7246613095\H,0,
 -11.5391401217,-0.7011195084,-3.5673775345\H,0,-13.4646045337,-0.97931
 52896,-3.4680706658\H,0,-10.1004575926,-4.4593780297,-0.4096467686\H,0
 ,-9.2163735476,-4.7267196855,-2.2163121518\H,0,-8.4488665922,-5.670467
 8267,-0.7708517387\H,0,-3.7578115085,-3.5438617375,-0.3744605059\H,0,-
 2.1032971977,-6.5078173854,2.4111268167\H,0,-2.1057471464,-4.946294368
 4,3.4464490952\H,0,-3.448075863,-6.0665936594,3.2875702772\H,0,2.24764
 65565,-2.1596627074,-1.6818753208\H,0,2.3719090338,-0.3595973977,-2.06
 66542847\H,0,4.0011715531,-1.2237004405,0.4325522996\H,0,5.8240076653,
 1.7032780256,-2.2733099184\H,0,5.4690138652,0.1914951047,-3.0844415113
 \H,0,3.9286993551,0.8071935253,-2.4135967166\H,0,6.3758976869,0.963689
 5129,0.3806628659\H,0,5.8794357694,-0.9066662519,0.697619456\H,0,7.435
 1241655,-1.4711111565,-1.5985447006\H,0,7.5632760787,0.3535108557,-1.8
 978486426\H,0,8.6582802696,0.774135265,0.1644877073\H,0,8.585451275,-0
 .9784749345,0.6998828412\H,0,10.0416610314,-0.2978995917,-1.9376144843
 \H,0,9.2278599736,-2.4984485077,-1.9064598715\H,0,10.9666635274,-2.390
 8607625,-1.8712428699\H,0,9.8458730291,-2.7981716947,-0.4033938609\H,0
 ,11.2166658567,0.8488225061,0.1959830609\H,0,11.2442419936,-0.63002148
 76,1.0492254442\H,0,12.7884453525,-1.5685907381,-0.6772711699\H,0,12.7
 450148181,-0.0786851414,-1.6442077393\H,0,13.7085318887,0.9660069965,0
 .535798754\H,0,13.8656213976,-0.4639193459,1.1140909853\H,0,15.0483963
 37,-0.1331601162,-1.4206687167\H,0,14.8819935944,-2.3780960934,-0.9691
 709376\H,0,16.6365103873,-1.8748833278,-0.9909604886\H,0,15.5979525129
 ,-2.3886484834,0.6279154928\H,0,15.7073879304,1.6364967384,0.582282071
 8\H,0,16.2289492176,0.3058543945,1.4737493717\H,0,18.0431703943,-0.406
 5391325,-0.0558102657\H,0,17.6052232477,0.9833612992,-1.0450018048\H,0
 ,18.0133230382,2.5770464323,0.8175382488\H,0,18.6920422184,1.024661302
 9,1.8734486005\H,0,20.2920074305,0.717782512,-0.0825253154\H,0,19.6292
 156188,3.2542475569,-1.2727122454\H,0,21.2293514523,2.5697325771,-1.43
 34486683\H,0,19.6890271385,1.7286629029,-1.9562608073\H,0,20.861491162
 2,1.8924087912,2.1444483726\H,0,21.990912933,2.8221403306,0.904172317\
 H,0,20.4421118739,3.5639760681,1.3012127257\H,0,-6.9859923817,1.775491
 8212,0.6154047973\H,0,-7.4038717538,-0.2207469503,-0.4545987801\\Versi
 on=ES64L-G16RevA.03\State=1-A\HF=-2733.0043156\RMSD=3.008e-09\PG=C01 [
 X(C55H74N4O5)]\\@


 I take a simple view of life: keep your eyes open and get on with it.
 -- Laurence Olivier
 Job cpu time:       1 days  9 hours 54 minutes 50.3 seconds.
 Elapsed time:       0 days  8 hours 31 minutes 55.9 seconds.
 File lengths (MBytes):  RWF=   6378 Int=      0 D2E=      0 Chk=    163 Scr=      1
 Normal termination of Gaussian 16 at Thu Aug 15 18:06:40 2019.
