 Entering Gaussian System, Link 0=g16
 Input=Geometria-173-.com
 Output=Geometria-173-.log
 Initial command:
 /usr/local/g16/l1.exe "/home/padawan/israel-mol/pheophytin/spectra/emi/Gau-48001.inp" -scrdir="/home/padawan/israel-mol/pheophytin/spectra/emi/"
 Entering Link 1 = /usr/local/g16/l1.exe PID=     48003.
  
 Copyright (c) 1988,1990,1992,1993,1995,1998,2003,2009,2016,
            Gaussian, Inc.  All Rights Reserved.
  
 This is part of the Gaussian(R) 16 program.  It is based on
 the Gaussian(R) 09 system (copyright 2009, Gaussian, Inc.),
 the Gaussian(R) 03 system (copyright 2003, Gaussian, Inc.),
 the Gaussian(R) 98 system (copyright 1998, Gaussian, Inc.),
 the Gaussian(R) 94 system (copyright 1995, Gaussian, Inc.),
 the Gaussian 92(TM) system (copyright 1992, Gaussian, Inc.),
 the Gaussian 90(TM) system (copyright 1990, Gaussian, Inc.),
 the Gaussian 88(TM) system (copyright 1988, Gaussian, Inc.),
 the Gaussian 86(TM) system (copyright 1986, Carnegie Mellon
 University), and the Gaussian 82(TM) system (copyright 1983,
 Carnegie Mellon University). Gaussian is a federally registered
 trademark of Gaussian, Inc.
  
 This software contains proprietary and confidential information,
 including trade secrets, belonging to Gaussian, Inc.
  
 This software is provided under written license and may be
 used, copied, transmitted, or stored only in accord with that
 written license.
  
 The following legend is applicable only to US Government
 contracts under FAR:
  
                    RESTRICTED RIGHTS LEGEND
  
 Use, reproduction and disclosure by the US Government is
 subject to restrictions as set forth in subparagraphs (a)
 and (c) of the Commercial Computer Software - Restricted
 Rights clause in FAR 52.227-19.
  
 Gaussian, Inc.
 340 Quinnipiac St., Bldg. 40, Wallingford CT 06492
  
  
 ---------------------------------------------------------------
 Warning -- This program may not be used in any manner that
 competes with the business of Gaussian, Inc. or will provide
 assistance to any competitor of Gaussian, Inc.  The licensee
 of this program is prohibited from giving any competitor of
 Gaussian, Inc. access to this program.  By using this program,
 the user acknowledges that Gaussian, Inc. is engaged in the
 business of creating and licensing software in the field of
 computational chemistry and represents and warrants to the
 licensee that it is not a competitor of Gaussian, Inc. and that
 it will not use this program in any manner prohibited above.
 ---------------------------------------------------------------
  

 Cite this work as:
 Gaussian 16, Revision A.03,
 M. J. Frisch, G. W. Trucks, H. B. Schlegel, G. E. Scuseria, 
 M. A. Robb, J. R. Cheeseman, G. Scalmani, V. Barone, 
 G. A. Petersson, H. Nakatsuji, X. Li, M. Caricato, A. V. Marenich, 
 J. Bloino, B. G. Janesko, R. Gomperts, B. Mennucci, H. P. Hratchian, 
 J. V. Ortiz, A. F. Izmaylov, J. L. Sonnenberg, D. Williams-Young, 
 F. Ding, F. Lipparini, F. Egidi, J. Goings, B. Peng, A. Petrone, 
 T. Henderson, D. Ranasinghe, V. G. Zakrzewski, J. Gao, N. Rega, 
 G. Zheng, W. Liang, M. Hada, M. Ehara, K. Toyota, R. Fukuda, 
 J. Hasegawa, M. Ishida, T. Nakajima, Y. Honda, O. Kitao, H. Nakai, 
 T. Vreven, K. Throssell, J. A. Montgomery, Jr., J. E. Peralta, 
 F. Ogliaro, M. J. Bearpark, J. J. Heyd, E. N. Brothers, K. N. Kudin, 
 V. N. Staroverov, T. A. Keith, R. Kobayashi, J. Normand, 
 K. Raghavachari, A. P. Rendell, J. C. Burant, S. S. Iyengar, 
 J. Tomasi, M. Cossi, J. M. Millam, M. Klene, C. Adamo, R. Cammi, 
 J. W. Ochterski, R. L. Martin, K. Morokuma, O. Farkas, 
 J. B. Foresman, and D. J. Fox, Gaussian, Inc., Wallingford CT, 2016.
 
 ******************************************
 Gaussian 16:  ES64L-G16RevA.03 25-Dec-2016
                16-Aug-2019 
 ******************************************
 %nproc=4
 Will use up to    4 processors via shared memory.
 %Mem=2GB
 --------------------------
 # td=(NStates=1) B3LYP/SVP
 --------------------------
 1/38=1,172=1/1;
 2/12=2,17=6,18=5,40=1/2;
 3/5=18,7=101,11=9,25=1,30=1,74=-5/1,2,3,8;
 4//1;
 5/5=2,38=5/2;
 8/6=1,10=1,108=1/1;
 9/41=1,42=1,70=2/14;
 6/7=2,8=2,9=2,10=2/1;
 99/5=1,9=1/99;
 --
 TD
 --
 Symbolic Z-matrix:
 Charge =  0 Multiplicity = 1
 6                    -5.11104  -2.02405   0.40988 
 6                    -4.65578   2.67907   1.36968 
 6                    -9.20841   3.48878  -0.25037 
 6                    -9.88175  -1.36397  -0.91957 
 7                    -5.1261    0.35137   0.88973 
 6                    -4.5139   -0.85023   0.82722 
 6                    -3.02867  -0.61258   1.334 
 6                    -2.97912   0.78841   1.92368 
 6                    -4.30488   1.2773    1.33181 
 6                    -2.9393    0.7468    3.44626 
 6                    -2.04085  -1.01202   0.24378 
 6                    -0.59245  -0.96554   0.56741 
 6                     0.36348  -1.20882  -0.54354 
 8                     0.11995  -1.60696  -1.64569 
 8                     1.68374  -0.93788  -0.20265 
 7                    -6.89564   2.66054   0.43571 
 6                    -5.77196   3.31198   0.95392 
 6                    -6.03842   4.80321   1.04502 
 6                    -7.26587   5.00283   0.49964 
 6                    -7.85833   3.67557   0.14127 
 6                    -4.99428   5.74858   1.46673 
 6                    -7.89226   6.23727   0.3547 
 6                    -8.80824   6.79525  -0.58457 
 7                    -9.11602   1.00794  -0.50195 
 6                    -9.74998   2.12387  -0.6269 
 6                    -11.23874   2.01187  -0.94771 
 6                    -11.40932   0.70084  -1.13331 
 6                    -10.10576  -0.00723  -0.86146 
 6                    -12.10621   3.12414  -1.10862 
 6                    -12.65186  -0.04723  -1.53853 
 6                    -12.73602  -0.32126  -3.0727 
 7                    -7.48459  -1.27336  -0.22418 
 6                    -8.64747  -1.95832  -0.67548 
 6                    -8.22541  -3.47112  -0.64236 
 6                    -6.94633  -3.44265  -0.20156 
 6                    -6.42915  -2.07042  -0.04313 
 6                    -9.10133  -4.68872  -1.01108 
 6                    -5.88226  -4.3118    0.16058 
 8                    -5.94413  -5.51887  -0.02343 
 6                    -4.59142  -3.44411   0.47124 
 6                    -3.98175  -3.90211   1.72194 
 8                    -4.23888  -3.49958   2.8918 
 8                    -3.16162  -4.89679   1.39117 
 6                    -2.65644  -5.64974   2.50934 
 6                     2.64409  -1.16096  -1.14699 
 6                     3.92892  -0.6763   -0.48586 
 6                     4.84984  -0.00234  -1.18284 
 6                     4.81862   0.5582   -2.66794 
 6                     6.14485   0.26499  -0.51176 
 6                     7.47613  -0.31294  -1.08488 
 6                     8.73001   0.0348   -0.33683 
 6                     10.01798  -0.6144   -0.83277 
 6                     10.1298  -2.17047  -0.80852 
 6                     11.22321   0.02213  -0.12833 
 6                     12.56806  -0.55787  -0.50881 
 6                     13.71897   0.19577   0.14905 
 6                     15.18817  -0.02533  -0.34754 
 6                     15.55758  -1.55312  -0.25956 
 6                     16.07171   0.97302   0.41493 
 6                     17.51186   0.81313  -0.12578 
 6                     18.49716   1.72723   0.61006 
 6                     19.95884   1.64514   0.22377 
 6                     20.18316   2.05021  -1.29105 
 6                     20.8902   2.33463   1.22257 
 1                    -3.91416   3.4357    1.6694 
 1                    -10.04346   4.13556  -0.13492 
 1                    -10.62028  -1.86846  -1.32447 
 1                    -2.91619  -1.33957   2.29404 
 1                    -2.09061   1.41882   1.62398 
 1                    -2.04833   0.28551   3.79551 
 1                    -3.09176   1.7162    3.93694 
 1                    -3.7729    0.08016   3.97995 
 1                    -2.16341  -1.99204   0.01993 
 1                    -2.15887  -0.57621  -0.85806 
 1                    -0.18574   0.05544   0.95748 
 1                    -0.3355   -1.4636    1.55277 
 1                    -4.03827   5.56159   0.93556 
 1                    -5.27616   6.87772   0.99226 
 1                    -4.66447   5.64986   2.59118 
 1                    -7.55926   6.99964   1.08636 
 1                    -9.2901    6.22048  -1.32592 
 1                    -8.92713   7.97546  -0.39651 
 1                    -11.99348   3.72813  -0.19811 
 1                    -11.87568   3.68797  -1.98338 
 1                    -13.17704   3.12442  -1.3837 
 1                    -13.12347  -1.01239  -0.93796 
 1                    -13.51921   0.74001  -1.46267 
 1                    -12.90389   0.78192  -3.40644 
 1                    -11.83192  -0.76708  -3.52055 
 1                    -13.51308  -0.73915  -3.35063 
 1                    -9.86683  -4.74798  -0.34285 
 1                    -9.71712  -4.80843  -1.89399 
 1                    -8.34926  -5.59012  -0.96296 
 1                    -3.80551  -3.62573  -0.29424 
 1                    -1.81341  -6.35595   2.1569 
 1                    -2.00345  -4.84704   2.9354 
 1                    -3.42913  -6.17956   3.011 
 1                     2.46513  -2.10531  -1.52169 
 1                     2.52904  -0.4366   -2.04368 
 1                     4.17687  -1.12361   0.63596 
 1                     5.32868   1.52174  -2.82412 
 1                     5.30892  -0.2749   -3.41701 
 1                     3.74797   0.73315  -2.94206 
 1                     6.20367   1.23944  -0.19337 
 1                     6.02937  -0.14434   0.43322 
 1                     7.23173  -1.50284  -1.19341 
 1                     7.6168    0.23731  -2.12837 
 1                     8.98548   1.07572  -0.15008 
 1                     8.63603  -0.32122   0.75621 
 1                     10.20599  -0.28051  -1.91133 
 1                     9.24261  -2.60009  -1.30796 
 1                     10.86964  -2.68788  -1.35891 
 1                     10.08312  -2.46426   0.17478 
 1                     11.14582   1.23312  -0.31383 
 1                     11.14489  -0.22244   0.98865 
 1                     12.95413  -1.56638  -0.2502 
 1                     13.00852  -0.39846  -1.48931 
 1                     13.61348   1.18902  -0.08914 
 1                     13.75907   0.10012   1.36005 
 1                     15.25447   0.08174  -1.44812 
 1                     15.14351  -2.21458  -0.9914 
 1                     16.55749  -1.90946  -0.45162 
 1                     15.46811  -1.97831   0.73387 
 1                     15.72605   1.98236   0.19254 
 1                     16.00548   0.75861   1.53356 
 1                     17.89034  -0.29381  -0.01234 
 1                     17.26201   1.06215  -1.16972 
 1                     18.12807   2.81713   0.64422 
 1                     18.35224   1.59065   1.91704 
 1                     20.27539   0.45425   0.21245 
 1                     20.15585   3.26442  -1.42377 
 1                     21.28559   1.72392  -1.62323 
 1                     19.45209   1.51028  -2.03305 
 1                     20.82309   1.76408   2.16203 
 1                     21.99663   2.28923   0.90612 
 1                     20.67375   3.21331   1.573 
 1                    -6.99396   1.62702   0.47614 
 1                    -7.46103  -0.18569  -0.10815 
 
 Stoichiometry    C55H74N4O5
 Framework group  C1[X(C55H74N4O5)]
 Deg. of freedom   408
 Full point group                 C1      NOp   1
 Largest Abelian subgroup         C1      NOp   1
 Largest concise Abelian subgroup C1      NOp   1
                         Standard orientation:                         
 ---------------------------------------------------------------------
 Center     Atomic      Atomic             Coordinates (Angstroms)
 Number     Number       Type             X           Y           Z
 ---------------------------------------------------------------------
      1          6           0       -5.119379   -2.010881    0.389640
      2          6           0       -4.644963    2.679304    1.402022
      3          6           0       -9.195581    3.525030   -0.205225
      4          6           0       -9.888445   -1.317190   -0.928535
      5          7           0       -5.124762    0.359024    0.896236
      6          6           0       -4.517326   -0.844188    0.819711
      7          6           0       -3.030805   -0.618077    1.327967
      8          6           0       -2.975321    0.775979    1.933358
      9          6           0       -4.299585    1.276694    1.348075
     10          6           0       -2.934533    0.717053    3.455348
     11          6           0       -2.045363   -1.009060    0.232543
     12          6           0       -0.596551   -0.971899    0.555542
     13          6           0        0.357592   -1.206383   -0.558835
     14          8           0        0.111686   -1.591121   -1.665207
     15          8           0        1.679159   -0.944473   -0.215946
     16          7           0       -6.885572    2.680071    0.469664
     17          6           0       -5.758960    3.321223    0.994294
     18          6           0       -6.019495    4.812364    1.102398
     19          6           0       -7.246562    5.022923    0.560266
     20          6           0       -7.844490    3.702110    0.187429
     21          6           0       -4.971347    5.748827    1.533920
     22          6           0       -7.868209    6.261362    0.429743
     23          6           0       -8.782693    6.833469   -0.502457
     24          7           0       -9.113103    1.046845   -0.484815
     25          6           0       -9.742776    2.166581   -0.596688
     26          6           0      -11.232205    2.064041   -0.917567
     27          6           0      -11.408059    0.755863   -1.117799
     28          6           0      -10.107086    0.039676   -0.854966
     29          6           0      -12.095430    3.181440   -1.065247
     30          6           0      -12.653823    0.017268   -1.530439
     31          6           0      -12.740198   -0.239114   -3.067541
     32          7           0       -7.490434   -1.243809   -0.234053
     33          6           0       -8.656325   -1.919083   -0.692134
     34          6           0       -8.240173   -3.433800   -0.676389
     35          6           0       -6.960665   -3.415304   -0.236306
     36          6           0       -6.437994   -2.046980   -0.062829
     37          6           0       -9.121143   -4.643730   -1.058123
     38          6           0       -5.899751   -4.292635    0.115182
     39          8           0       -5.966483   -5.497305   -0.082364
     40          6           0       -4.605288   -3.433565    0.434589
     41          6           0       -3.996488   -3.908018    1.679571
     42          8           0       -4.251165   -3.517693    2.854090
     43          8           0       -3.180509   -4.902104    1.336969
     44          6           0       -2.677457   -5.669577    2.446179
     45          6           0        2.637927   -1.160656   -1.163498
     46          6           0        3.925131   -0.688508   -0.497955
     47          6           0        4.848170   -0.010343   -1.188029
     48          6           0        4.818052    0.567019   -2.666689
     49          6           0        6.144717    0.244336   -0.514996
     50          6           0        7.473298   -0.332302   -1.095631
     51          6           0        8.729082    0.002073   -0.344699
     52          6           0       10.014135   -0.646525   -0.848940
     53          6           0       10.119862   -2.203201   -0.842315
     54          6           0       11.222373   -0.022699   -0.138311
     55          6           0       12.564648   -0.603638   -0.526363
     56          6           0       13.718996    0.138030    0.139043
     57          6           0       15.186951   -0.083199   -0.361161
     58          6           0       15.550433   -1.613321   -0.290690
     59          6           0       16.074964    0.903022    0.411819
     60          6           0       17.514072    0.743601   -0.131792
     61          6           0       18.503497    1.645490    0.613524
     62          6           0       19.964553    1.562039    0.225180
     63          6           0       20.189340    1.983281   -1.285146
     64          6           0       20.899355    2.236574    1.230957
     65          1           0       -3.900157    3.429602    1.709662
     66          1           0      -10.028004    4.173739   -0.081840
     67          1           0      -10.629248   -1.814194   -1.338518
     68          1           0       -2.920458   -1.356279    2.279670
     69          1           0       -2.084566    1.406243    1.640087
     70          1           0       -2.045123    0.248366    3.798669
     71          1           0       -3.082828    1.681443    3.957038
     72          1           0       -3.770343    0.047703    3.982139
     73          1           0       -2.171928   -1.986014   -0.002245
     74          1           0       -2.162493   -0.560404   -0.864228
     75          1           0       -0.185556    0.043015    0.956769
     76          1           0       -0.340824   -1.482035    1.535022
     77          1           0       -4.016471    5.564102    0.999919
     78          1           0       -5.249148    6.884342    1.072428
     79          1           0       -4.641092    5.636155    2.656924
     80          1           0       -7.531679    7.014121    1.169685
     81          1           0       -9.267359    6.268983   -1.249863
     82          1           0       -8.896812    8.011945   -0.301018
     83          1           0      -11.979655    3.774681   -0.148085
     84          1           0      -11.863331    3.754186   -1.933780
     85          1           0      -13.166444    3.189004   -1.339471
     86          1           0      -13.128771   -0.952744   -0.940414
     87          1           0      -13.518030    0.806999   -1.445034
     88          1           0      -12.903994    0.868399   -3.388691
     89          1           0      -11.838187   -0.683391   -3.521095
     90          1           0      -13.519098   -0.650805   -3.349546
     91          1           0       -9.886373   -4.707516   -0.389998
     92          1           0       -9.738052   -4.751065   -1.941838
     93          1           0       -8.372571   -5.548549   -1.020752
     94          1           0       -3.820656   -3.609618   -0.333511
     95          1           0       -1.837464   -6.375070    2.085145
     96          1           0       -2.021006   -4.874300    2.880744
     97          1           0       -3.451851   -6.201999    2.942449
     98          1           0        2.454981   -2.100008   -1.548676
     99          1           0        2.525054   -0.425781   -2.051881
    100          1           0        4.172159   -1.149399    0.618556
    101          1           0        5.331767    1.530255   -2.812407
    102          1           0        5.304521   -0.259498   -3.425489
    103          1           0        3.747893    0.749233   -2.937978
    104          1           0        6.207597    1.214896   -0.185694
    105          1           0        6.028336   -0.175163    0.425408
    106          1           0        7.224155   -1.519941   -1.217379
    107          1           0        7.615351    0.229120   -2.132971
    108          1           0        8.988777    1.039812   -0.146437
    109          1           0        8.634517   -0.365871    0.744331
    110          1           0       10.202646   -0.301239   -1.923815
    111          1           0        9.230628   -2.623686   -1.345862
    112          1           0       10.857265   -2.717264   -1.399079
    113          1           0       10.072759   -2.507867    0.137657
    114          1           0       11.149592    1.190597   -0.310095
    115          1           0       11.143922   -0.279538    0.975898
    116          1           0       12.946958   -1.616499   -0.279437
    117          1           0       13.005008   -0.434905   -1.505354
    118          1           0       13.617229    1.134309   -0.087862
    119          1           0       13.759621    0.028580    1.348851
    120          1           0       15.252850    0.036006   -1.460520
    121          1           0       15.133226   -2.264865   -1.029619
    122          1           0       16.548795   -1.971382   -0.487540
    123          1           0       15.460030   -2.049326    0.697947
    124          1           0       15.733100    1.916153    0.201087
    125          1           0       16.008720    0.676279    1.528004
    126          1           0       17.888289   -0.366015   -0.031129
    127          1           0       17.264428    1.005350   -1.172670
    128          1           0       18.138715    2.736371    0.660254
    129          1           0       18.359011    1.494752    1.918998
    130          1           0       20.276422    0.370118    0.200201
    131          1           0       20.166693    3.199001   -1.404155
    132          1           0       21.290233    1.656437   -1.621850
    133          1           0       19.455612    1.454610   -2.032611
    134          1           0       20.830702    1.655737    2.163982
    135          1           0       22.005367    2.190414    0.913150
    136          1           0       20.686608    3.112093    1.591438
    137          1           0       -6.987915    1.646550    0.498519
    138          1           0       -7.462518   -0.157618   -0.105798
 ---------------------------------------------------------------------
 Rotational constants (GHZ):           0.0627250           0.0062210           0.0058343
 Standard basis: SVP (5D, 7F)
 There are  1330 symmetry adapted cartesian basis functions of A   symmetry.
 There are  1266 symmetry adapted basis functions of A   symmetry.
  1266 basis functions,  2118 primitive gaussians,  1330 cartesian basis functions
   236 alpha electrons      236 beta electrons
       nuclear repulsion energy      8295.2641456193 Hartrees.
 NAtoms=  138 NActive=  138 NUniq=  138 SFac= 1.00D+00 NAtFMM=   60 NAOKFM=T Big=T
 Integral buffers will be    131072 words long.
 Regular integral format.
 Two-electron integral symmetry is turned on.
 One-electron integrals computed using PRISM.
 NBasis=  1266 RedAO= T EigKep=  3.16D-04  NBF=  1266
 NBsUse=  1266 1.00D-06 EigRej= -1.00D+00 NBFU=  1266
 ExpMin= 1.22D-01 ExpMax= 2.27D+03 ExpMxC= 3.41D+02 IAcc=3 IRadAn=         5 AccDes= 0.00D+00
 Harris functional with IExCor=  402 and IRadAn=       5 diagonalized for initial guess.
 HarFok:  IExCor=  402 AccDes= 0.00D+00 IRadAn=         5 IDoV= 1 UseB2=F ITyADJ=14
 ICtDFT=  3500011 ScaDFX=  1.000000  1.000000  1.000000  1.000000
 FoFCou: FMM=F IPFlag=           0 FMFlag=      100000 FMFlg1=        2001
         NFxFlg=           0 DoJE=T BraDBF=F KetDBF=T FulRan=T
         wScrn=  0.000000 ICntrl=       500 IOpCl=  0 I1Cent=   200000004 NGrid=           0
         NMat0=    1 NMatS0=      1 NMatT0=    0 NMatD0=    1 NMtDS0=    0 NMtDT0=    0
 Petite list used in FoFCou.
 Requested convergence on RMS density matrix=1.00D-08 within 128 cycles.
 Requested convergence on MAX density matrix=1.00D-06.
 Requested convergence on             energy=1.00D-06.
 No special actions if energy rises.
 Integral accuracy reduced to 1.0D-05 until final iterations.
 Initial convergence to 1.0D-05 achieved.  Increase integral accuracy.
 SCF Done:  E(RB3LYP) =  -2733.07129703     A.U. after   17 cycles
            NFock= 17  Conv=0.36D-08     -V/T= 2.0117
 DoSCS=F DFT=T ScalE2(SS,OS)=  1.000000  1.000000
 ExpMin= 1.22D-01 ExpMax= 2.27D+03 ExpMxC= 3.41D+02 IAcc=3 IRadAn=         5 AccDes= 0.00D+00
 HarFok:  IExCor=  205 AccDes= 0.00D+00 IRadAn=         5 IDoV=-2 UseB2=F ITyADJ=14
 ICtDFT= 12500011 ScaDFX=  1.000000  1.000000  1.000000  1.000000
 GSVD:  LWork=       -4608 too small for GESVD, short by       21440 words or       21440 for optimal perf.
 Range of M.O.s used for correlation:    65  1266
 NBasis=  1266 NAE=   236 NBE=   236 NFC=    64 NFV=     0
 NROrb=   1202 NOA=   172 NOB=   172 NVA=  1030 NVB=  1030

 **** Warning!!: The smallest alpha delta epsilon is  0.87694664D-01

 Orbital symmetries:
       Occupied  (A) (A) (A) (A) (A) (A) (A) (A) (A) (A) (A) (A)
                 (A) (A) (A) (A) (A) (A) (A) (A) (A) (A) (A) (A)
                 (A) (A) (A) (A) (A) (A) (A) (A) (A) (A) (A) (A)
                 (A) (A) (A) (A) (A) (A) (A) (A) (A) (A) (A) (A)
                 (A) (A) (A) (A) (A) (A) (A) (A) (A) (A) (A) (A)
                 (A) (A) (A) (A) (A) (A) (A) (A) (A) (A) (A) (A)
                 (A) (A) (A) (A) (A) (A) (A) (A) (A) (A) (A) (A)
                 (A) (A) (A) (A) (A) (A) (A) (A) (A) (A) (A) (A)
                 (A) (A) (A) (A) (A) (A) (A) (A) (A) (A) (A) (A)
                 (A) (A) (A) (A) (A) (A) (A) (A) (A) (A) (A) (A)
                 (A) (A) (A) (A) (A) (A) (A) (A) (A) (A) (A) (A)
                 (A) (A) (A) (A) (A) (A) (A) (A) (A) (A) (A) (A)
                 (A) (A) (A) (A) (A) (A) (A) (A) (A) (A) (A) (A)
                 (A) (A) (A) (A) (A) (A) (A) (A) (A) (A) (A) (A)
                 (A) (A) (A) (A) (A) (A) (A) (A) (A) (A) (A) (A)
                 (A) (A) (A) (A) (A) (A) (A) (A) (A) (A) (A) (A)
                 (A) (A) (A) (A) (A) (A) (A) (A) (A) (A) (A) (A)
                 (A) (A) (A) (A) (A) (A) (A) (A) (A) (A) (A) (A)
                 (A) (A) (A) (A) (A) (A) (A) (A) (A) (A) (A) (A)
                 (A) (A) (A) (A) (A) (A) (A) (A)
       Virtual   (A) (A) (A) (A) (A) (A) (A) (A) (A) (A) (A) (A)
                 (A) (A) (A) (A) (A) (A) (A) (A) (A) (A) (A) (A)
                 (A) (A) (A) (A) (A) (A) (A) (A) (A) (A) (A) (A)
                 (A) (A) (A) (A) (A) (A) (A) (A) (A) (A) (A) (A)
                 (A) (A) (A) (A) (A) (A) (A) (A) (A) (A) (A) (A)
                 (A) (A) (A) (A) (A) (A) (A) (A) (A) (A) (A) (A)
                 (A) (A) (A) (A) (A) (A) (A) (A) (A) (A) (A) (A)
                 (A) (A) (A) (A) (A) (A) (A) (A) (A) (A) (A) (A)
                 (A) (A) (A) (A) (A) (A) (A) (A) (A) (A) (A) (A)
                 (A) (A) (A) (A) (A) (A) (A) (A) (A) (A) (A) (A)
                 (A) (A) (A) (A) (A) (A) (A) (A) (A) (A) (A) (A)
                 (A) (A) (A) (A) (A) (A) (A) (A) (A) (A) (A) (A)
                 (A) (A) (A) (A) (A) (A) (A) (A) (A) (A) (A) (A)
                 (A) (A) (A) (A) (A) (A) (A) (A) (A) (A) (A) (A)
                 (A) (A) (A) (A) (A) (A) (A) (A) (A) (A) (A) (A)
                 (A) (A) (A) (A) (A) (A) (A) (A) (A) (A) (A) (A)
                 (A) (A) (A) (A) (A) (A) (A) (A) (A) (A) (A) (A)
                 (A) (A) (A) (A) (A) (A) (A) (A) (A) (A) (A) (A)
                 (A) (A) (A) (A) (A) (A) (A) (A) (A) (A) (A) (A)
                 (A) (A) (A) (A) (A) (A) (A) (A) (A) (A) (A) (A)
                 (A) (A) (A) (A) (A) (A) (A) (A) (A) (A) (A) (A)
                 (A) (A) (A) (A) (A) (A) (A) (A) (A) (A) (A) (A)
                 (A) (A) (A) (A) (A) (A) (A) (A) (A) (A) (A) (A)
                 (A) (A) (A) (A) (A) (A) (A) (A) (A) (A) (A) (A)
                 (A) (A) (A) (A) (A) (A) (A) (A) (A) (A) (A) (A)
                 (A) (A) (A) (A) (A) (A) (A) (A) (A) (A) (A) (A)
                 (A) (A) (A) (A) (A) (A) (A) (A) (A) (A) (A) (A)
                 (A) (A) (A) (A) (A) (A) (A) (A) (A) (A) (A) (A)
                 (A) (A) (A) (A) (A) (A) (A) (A) (A) (A) (A) (A)
                 (A) (A) (A) (A) (A) (A) (A) (A) (A) (A) (A) (A)
                 (A) (A) (A) (A) (A) (A) (A) (A) (A) (A) (A) (A)
                 (A) (A) (A) (A) (A) (A) (A) (A) (A) (A) (A) (A)
                 (A) (A) (A) (A) (A) (A) (A) (A) (A) (A) (A) (A)
                 (A) (A) (A) (A) (A) (A) (A) (A) (A) (A) (A) (A)
                 (A) (A) (A) (A) (A) (A) (A) (A) (A) (A) (A) (A)
                 (A) (A) (A) (A) (A) (A) (A) (A) (A) (A) (A) (A)
                 (A) (A) (A) (A) (A) (A) (A) (A) (A) (A) (A) (A)
                 (A) (A) (A) (A) (A) (A) (A) (A) (A) (A) (A) (A)
                 (A) (A) (A) (A) (A) (A) (A) (A) (A) (A) (A) (A)
                 (A) (A) (A) (A) (A) (A) (A) (A) (A) (A) (A) (A)
                 (A) (A) (A) (A) (A) (A) (A) (A) (A) (A) (A) (A)
                 (A) (A) (A) (A) (A) (A) (A) (A) (A) (A) (A) (A)
                 (A) (A) (A) (A) (A) (A) (A) (A) (A) (A) (A) (A)
                 (A) (A) (A) (A) (A) (A) (A) (A) (A) (A) (A) (A)
                 (A) (A) (A) (A) (A) (A) (A) (A) (A) (A) (A) (A)
                 (A) (A) (A) (A) (A) (A) (A) (A) (A) (A) (A) (A)
                 (A) (A) (A) (A) (A) (A) (A) (A) (A) (A) (A) (A)
                 (A) (A) (A) (A) (A) (A) (A) (A) (A) (A) (A) (A)
                 (A) (A) (A) (A) (A) (A) (A) (A) (A) (A) (A) (A)
                 (A) (A) (A) (A) (A) (A) (A) (A) (A) (A) (A) (A)
                 (A) (A) (A) (A) (A) (A) (A) (A) (A) (A) (A) (A)
                 (A) (A) (A) (A) (A) (A) (A) (A) (A) (A) (A) (A)
                 (A) (A) (A) (A) (A) (A) (A) (A) (A) (A) (A) (A)
                 (A) (A) (A) (A) (A) (A) (A) (A) (A) (A) (A) (A)
                 (A) (A) (A) (A) (A) (A) (A) (A) (A) (A) (A) (A)
                 (A) (A) (A) (A) (A) (A) (A) (A) (A) (A) (A) (A)
                 (A) (A) (A) (A) (A) (A) (A) (A) (A) (A) (A) (A)
                 (A) (A) (A) (A) (A) (A) (A) (A) (A) (A) (A) (A)
                 (A) (A) (A) (A) (A) (A) (A) (A) (A) (A) (A) (A)
                 (A) (A) (A) (A) (A) (A) (A) (A) (A) (A) (A) (A)
                 (A) (A) (A) (A) (A) (A) (A) (A) (A) (A) (A) (A)
                 (A) (A) (A) (A) (A) (A) (A) (A) (A) (A) (A) (A)
                 (A) (A) (A) (A) (A) (A) (A) (A) (A) (A) (A) (A)
                 (A) (A) (A) (A) (A) (A) (A) (A) (A) (A) (A) (A)
                 (A) (A) (A) (A) (A) (A) (A) (A) (A) (A) (A) (A)
                 (A) (A) (A) (A) (A) (A) (A) (A) (A) (A) (A) (A)
                 (A) (A) (A) (A) (A) (A) (A) (A) (A) (A) (A) (A)
                 (A) (A) (A) (A) (A) (A) (A) (A) (A) (A) (A) (A)
                 (A) (A) (A) (A) (A) (A) (A) (A) (A) (A) (A) (A)
                 (A) (A) (A) (A) (A) (A) (A) (A) (A) (A) (A) (A)
                 (A) (A) (A) (A) (A) (A) (A) (A) (A) (A) (A) (A)
                 (A) (A) (A) (A) (A) (A) (A) (A) (A) (A) (A) (A)
                 (A) (A) (A) (A) (A) (A) (A) (A) (A) (A) (A) (A)
                 (A) (A) (A) (A) (A) (A) (A) (A) (A) (A) (A) (A)
                 (A) (A) (A) (A) (A) (A) (A) (A) (A) (A) (A) (A)
                 (A) (A) (A) (A) (A) (A) (A) (A) (A) (A) (A) (A)
                 (A) (A) (A) (A) (A) (A) (A) (A) (A) (A) (A) (A)
                 (A) (A) (A) (A) (A) (A) (A) (A) (A) (A) (A) (A)
                 (A) (A) (A) (A) (A) (A) (A) (A) (A) (A) (A) (A)
                 (A) (A) (A) (A) (A) (A) (A) (A) (A) (A) (A) (A)
                 (A) (A) (A) (A) (A) (A) (A) (A) (A) (A) (A) (A)
                 (A) (A) (A) (A) (A) (A) (A) (A) (A) (A) (A) (A)
                 (A) (A) (A) (A) (A) (A) (A) (A) (A) (A) (A) (A)
                 (A) (A) (A) (A) (A) (A) (A) (A) (A) (A) (A) (A)
                 (A) (A) (A) (A) (A) (A) (A) (A) (A) (A) (A) (A)
                 (A) (A) (A) (A) (A) (A) (A) (A) (A) (A)
     4 initial guesses have been made.
 Convergence on wavefunction:    0.001000000000000
 Iteration     1 Dimension     4 NMult     0 NNew      4
 CISAX will form     4 AO SS matrices at one time.
 Iteration     2 Dimension     6 NMult     4 NNew      2
 Iteration     3 Dimension     8 NMult     6 NNew      2
 Iteration     4 Dimension    10 NMult     8 NNew      2
 Iteration     5 Dimension    12 NMult    10 NNew      2
 Iteration     6 Dimension    14 NMult    12 NNew      2
 Iteration     7 Dimension    16 NMult    14 NNew      2
 ***********************************************************************
 Excited states from <AA,BB:AA,BB> singles matrix:
 ***********************************************************************
 
 Ground to excited state transition densities written to RWF  633
 Ground to excited state transition electric dipole moments (Au):
       state          X           Y           Z        Dip. S.      Osc.
         1        -0.1497     -1.8558     -0.2302      3.5194      0.1784
 Ground to excited state transition velocity dipole moments (Au):
       state          X           Y           Z        Dip. S.      Osc.
         1         0.0109      0.1371      0.0181      0.0192      0.1687
 Ground to excited state transition magnetic dipole moments (Au):
       state          X           Y           Z
         1         0.1003      0.3069     -2.3525
 Ground to excited state transition velocity quadrupole moments (Au):
       state          XX          YY          ZZ          XY          XZ          YZ
         1        -0.3080      0.3101      0.0389     -1.8094     -0.2098      0.0490
 <0|del|b> * <b|rxdel|0> + <0|del|b> * <b|delr+rdel|0>
 Rotatory Strengths (R) in cgs (10**-40 erg-esu-cm/Gauss)
       state          XX          YY          ZZ    R(velocity)    E-M Angle
         1       -21.3790    -38.1847     64.5130      1.6498       89.91
 1/2[<0|r|b>*<b|rxdel|0> + (<0|rxdel|b>*<b|r|0>)*]
 Rotatory Strengths (R) in cgs (10**-40 erg-esu-cm/Gauss)
       state          XX          YY          ZZ     R(length)
         1        10.6188    402.7465   -382.8811     10.1614
  1/2[<0|del|b>*<b|r|0> + (<0|r|b>*<b|del|0>)*] (Au)
       state          X           Y           Z        Dip. S.   Osc.(frdel)
         1        -0.0016     -0.2544     -0.0042      0.2602      0.1735

 Excitation energies and oscillator strengths:
 
 Excited State   1:      Singlet-A      2.0692 eV  599.18 nm  f=0.1784  <S**2>=0.000
     235 -> 238        0.28406
     236 -> 237        0.64293
 This state for optimization and/or second-order correction.
 Total Energy, E(TD-HF/TD-DFT) =  -2732.99525442    
 Copying the excited state density for this state as the 1-particle RhoCI density.
 SavETr:  write IOETrn=   770 NScale= 10 NData=  16 NLR=1 NState=    1 LETran=      28.
 Hyperfine terms turned off by default for NAtoms > 100.

 **********************************************************************

            Population analysis using the SCF density.

 **********************************************************************

 Orbital symmetries:
       Occupied  (A) (A) (A) (A) (A) (A) (A) (A) (A) (A) (A) (A)
                 (A) (A) (A) (A) (A) (A) (A) (A) (A) (A) (A) (A)
                 (A) (A) (A) (A) (A) (A) (A) (A) (A) (A) (A) (A)
                 (A) (A) (A) (A) (A) (A) (A) (A) (A) (A) (A) (A)
                 (A) (A) (A) (A) (A) (A) (A) (A) (A) (A) (A) (A)
                 (A) (A) (A) (A) (A) (A) (A) (A) (A) (A) (A) (A)
                 (A) (A) (A) (A) (A) (A) (A) (A) (A) (A) (A) (A)
                 (A) (A) (A) (A) (A) (A) (A) (A) (A) (A) (A) (A)
                 (A) (A) (A) (A) (A) (A) (A) (A) (A) (A) (A) (A)
                 (A) (A) (A) (A) (A) (A) (A) (A) (A) (A) (A) (A)
                 (A) (A) (A) (A) (A) (A) (A) (A) (A) (A) (A) (A)
                 (A) (A) (A) (A) (A) (A) (A) (A) (A) (A) (A) (A)
                 (A) (A) (A) (A) (A) (A) (A) (A) (A) (A) (A) (A)
                 (A) (A) (A) (A) (A) (A) (A) (A) (A) (A) (A) (A)
                 (A) (A) (A) (A) (A) (A) (A) (A) (A) (A) (A) (A)
                 (A) (A) (A) (A) (A) (A) (A) (A) (A) (A) (A) (A)
                 (A) (A) (A) (A) (A) (A) (A) (A) (A) (A) (A) (A)
                 (A) (A) (A) (A) (A) (A) (A) (A) (A) (A) (A) (A)
                 (A) (A) (A) (A) (A) (A) (A) (A) (A) (A) (A) (A)
                 (A) (A) (A) (A) (A) (A) (A) (A)
       Virtual   (A) (A) (A) (A) (A) (A) (A) (A) (A) (A) (A) (A)
                 (A) (A) (A) (A) (A) (A) (A) (A) (A) (A) (A) (A)
                 (A) (A) (A) (A) (A) (A) (A) (A) (A) (A) (A) (A)
                 (A) (A) (A) (A) (A) (A) (A) (A) (A) (A) (A) (A)
                 (A) (A) (A) (A) (A) (A) (A) (A) (A) (A) (A) (A)
                 (A) (A) (A) (A) (A) (A) (A) (A) (A) (A) (A) (A)
                 (A) (A) (A) (A) (A) (A) (A) (A) (A) (A) (A) (A)
                 (A) (A) (A) (A) (A) (A) (A) (A) (A) (A) (A) (A)
                 (A) (A) (A) (A) (A) (A) (A) (A) (A) (A) (A) (A)
                 (A) (A) (A) (A) (A) (A) (A) (A) (A) (A) (A) (A)
                 (A) (A) (A) (A) (A) (A) (A) (A) (A) (A) (A) (A)
                 (A) (A) (A) (A) (A) (A) (A) (A) (A) (A) (A) (A)
                 (A) (A) (A) (A) (A) (A) (A) (A) (A) (A) (A) (A)
                 (A) (A) (A) (A) (A) (A) (A) (A) (A) (A) (A) (A)
                 (A) (A) (A) (A) (A) (A) (A) (A) (A) (A) (A) (A)
                 (A) (A) (A) (A) (A) (A) (A) (A) (A) (A) (A) (A)
                 (A) (A) (A) (A) (A) (A) (A) (A) (A) (A) (A) (A)
                 (A) (A) (A) (A) (A) (A) (A) (A) (A) (A) (A) (A)
                 (A) (A) (A) (A) (A) (A) (A) (A) (A) (A) (A) (A)
                 (A) (A) (A) (A) (A) (A) (A) (A) (A) (A) (A) (A)
                 (A) (A) (A) (A) (A) (A) (A) (A) (A) (A) (A) (A)
                 (A) (A) (A) (A) (A) (A) (A) (A) (A) (A) (A) (A)
                 (A) (A) (A) (A) (A) (A) (A) (A) (A) (A) (A) (A)
                 (A) (A) (A) (A) (A) (A) (A) (A) (A) (A) (A) (A)
                 (A) (A) (A) (A) (A) (A) (A) (A) (A) (A) (A) (A)
                 (A) (A) (A) (A) (A) (A) (A) (A) (A) (A) (A) (A)
                 (A) (A) (A) (A) (A) (A) (A) (A) (A) (A) (A) (A)
                 (A) (A) (A) (A) (A) (A) (A) (A) (A) (A) (A) (A)
                 (A) (A) (A) (A) (A) (A) (A) (A) (A) (A) (A) (A)
                 (A) (A) (A) (A) (A) (A) (A) (A) (A) (A) (A) (A)
                 (A) (A) (A) (A) (A) (A) (A) (A) (A) (A) (A) (A)
                 (A) (A) (A) (A) (A) (A) (A) (A) (A) (A) (A) (A)
                 (A) (A) (A) (A) (A) (A) (A) (A) (A) (A) (A) (A)
                 (A) (A) (A) (A) (A) (A) (A) (A) (A) (A) (A) (A)
                 (A) (A) (A) (A) (A) (A) (A) (A) (A) (A) (A) (A)
                 (A) (A) (A) (A) (A) (A) (A) (A) (A) (A) (A) (A)
                 (A) (A) (A) (A) (A) (A) (A) (A) (A) (A) (A) (A)
                 (A) (A) (A) (A) (A) (A) (A) (A) (A) (A) (A) (A)
                 (A) (A) (A) (A) (A) (A) (A) (A) (A) (A) (A) (A)
                 (A) (A) (A) (A) (A) (A) (A) (A) (A) (A) (A) (A)
                 (A) (A) (A) (A) (A) (A) (A) (A) (A) (A) (A) (A)
                 (A) (A) (A) (A) (A) (A) (A) (A) (A) (A) (A) (A)
                 (A) (A) (A) (A) (A) (A) (A) (A) (A) (A) (A) (A)
                 (A) (A) (A) (A) (A) (A) (A) (A) (A) (A) (A) (A)
                 (A) (A) (A) (A) (A) (A) (A) (A) (A) (A) (A) (A)
                 (A) (A) (A) (A) (A) (A) (A) (A) (A) (A) (A) (A)
                 (A) (A) (A) (A) (A) (A) (A) (A) (A) (A) (A) (A)
                 (A) (A) (A) (A) (A) (A) (A) (A) (A) (A) (A) (A)
                 (A) (A) (A) (A) (A) (A) (A) (A) (A) (A) (A) (A)
                 (A) (A) (A) (A) (A) (A) (A) (A) (A) (A) (A) (A)
                 (A) (A) (A) (A) (A) (A) (A) (A) (A) (A) (A) (A)
                 (A) (A) (A) (A) (A) (A) (A) (A) (A) (A) (A) (A)
                 (A) (A) (A) (A) (A) (A) (A) (A) (A) (A) (A) (A)
                 (A) (A) (A) (A) (A) (A) (A) (A) (A) (A) (A) (A)
                 (A) (A) (A) (A) (A) (A) (A) (A) (A) (A) (A) (A)
                 (A) (A) (A) (A) (A) (A) (A) (A) (A) (A) (A) (A)
                 (A) (A) (A) (A) (A) (A) (A) (A) (A) (A) (A) (A)
                 (A) (A) (A) (A) (A) (A) (A) (A) (A) (A) (A) (A)
                 (A) (A) (A) (A) (A) (A) (A) (A) (A) (A) (A) (A)
                 (A) (A) (A) (A) (A) (A) (A) (A) (A) (A) (A) (A)
                 (A) (A) (A) (A) (A) (A) (A) (A) (A) (A) (A) (A)
                 (A) (A) (A) (A) (A) (A) (A) (A) (A) (A) (A) (A)
                 (A) (A) (A) (A) (A) (A) (A) (A) (A) (A) (A) (A)
                 (A) (A) (A) (A) (A) (A) (A) (A) (A) (A) (A) (A)
                 (A) (A) (A) (A) (A) (A) (A) (A) (A) (A) (A) (A)
                 (A) (A) (A) (A) (A) (A) (A) (A) (A) (A) (A) (A)
                 (A) (A) (A) (A) (A) (A) (A) (A) (A) (A) (A) (A)
                 (A) (A) (A) (A) (A) (A) (A) (A) (A) (A) (A) (A)
                 (A) (A) (A) (A) (A) (A) (A) (A) (A) (A) (A) (A)
                 (A) (A) (A) (A) (A) (A) (A) (A) (A) (A) (A) (A)
                 (A) (A) (A) (A) (A) (A) (A) (A) (A) (A) (A) (A)
                 (A) (A) (A) (A) (A) (A) (A) (A) (A) (A) (A) (A)
                 (A) (A) (A) (A) (A) (A) (A) (A) (A) (A) (A) (A)
                 (A) (A) (A) (A) (A) (A) (A) (A) (A) (A) (A) (A)
                 (A) (A) (A) (A) (A) (A) (A) (A) (A) (A) (A) (A)
                 (A) (A) (A) (A) (A) (A) (A) (A) (A) (A) (A) (A)
                 (A) (A) (A) (A) (A) (A) (A) (A) (A) (A) (A) (A)
                 (A) (A) (A) (A) (A) (A) (A) (A) (A) (A) (A) (A)
                 (A) (A) (A) (A) (A) (A) (A) (A) (A) (A) (A) (A)
                 (A) (A) (A) (A) (A) (A) (A) (A) (A) (A) (A) (A)
                 (A) (A) (A) (A) (A) (A) (A) (A) (A) (A) (A) (A)
                 (A) (A) (A) (A) (A) (A) (A) (A) (A) (A) (A) (A)
                 (A) (A) (A) (A) (A) (A) (A) (A) (A) (A) (A) (A)
                 (A) (A) (A) (A) (A) (A) (A) (A) (A) (A) (A) (A)
                 (A) (A) (A) (A) (A) (A) (A) (A) (A) (A) (A) (A)
                 (A) (A) (A) (A) (A) (A) (A) (A) (A) (A)
 The electronic state is 1-A.
 Alpha  occ. eigenvalues --  -19.18664 -19.16295 -19.12883 -19.12105 -19.11814
 Alpha  occ. eigenvalues --  -14.38063 -14.37302 -14.32630 -14.30718 -10.31719
 Alpha  occ. eigenvalues --  -10.31642 -10.27320 -10.25302 -10.25098 -10.24061
 Alpha  occ. eigenvalues --  -10.24019 -10.23723 -10.23483 -10.23291 -10.23198
 Alpha  occ. eigenvalues --  -10.22397 -10.22229 -10.21985 -10.21497 -10.21378
 Alpha  occ. eigenvalues --  -10.21378 -10.21349 -10.21275 -10.21236 -10.20968
 Alpha  occ. eigenvalues --  -10.20950 -10.20831 -10.20830 -10.20822 -10.20572
 Alpha  occ. eigenvalues --  -10.20520 -10.20516 -10.20421 -10.20181 -10.20061
 Alpha  occ. eigenvalues --  -10.19975 -10.19859 -10.19682 -10.19619 -10.19376
 Alpha  occ. eigenvalues --  -10.19318 -10.19291 -10.19103 -10.19099 -10.19032
 Alpha  occ. eigenvalues --  -10.18828 -10.18827 -10.18766 -10.18733 -10.18461
 Alpha  occ. eigenvalues --  -10.18461 -10.18183 -10.17560 -10.17537 -10.17336
 Alpha  occ. eigenvalues --  -10.17060 -10.17017 -10.16740 -10.16675  -1.09927
 Alpha  occ. eigenvalues --   -1.09825  -1.02113  -1.01433  -0.98591  -0.97296
 Alpha  occ. eigenvalues --   -0.96337  -0.95317  -0.92906  -0.85093  -0.82820
 Alpha  occ. eigenvalues --   -0.82399  -0.82058  -0.81625  -0.80613  -0.80554
 Alpha  occ. eigenvalues --   -0.80149  -0.79421  -0.79268  -0.79104  -0.78388
 Alpha  occ. eigenvalues --   -0.76788  -0.76390  -0.75807  -0.74966  -0.74726
 Alpha  occ. eigenvalues --   -0.73725  -0.72979  -0.72353  -0.71494  -0.70664
 Alpha  occ. eigenvalues --   -0.69879  -0.69810  -0.69143  -0.68374  -0.68057
 Alpha  occ. eigenvalues --   -0.67747  -0.67226  -0.66221  -0.65448  -0.65115
 Alpha  occ. eigenvalues --   -0.64010  -0.63403  -0.62574  -0.62227  -0.61542
 Alpha  occ. eigenvalues --   -0.61409  -0.58932  -0.58482  -0.57991  -0.57095
 Alpha  occ. eigenvalues --   -0.56230  -0.55922  -0.55719  -0.55492  -0.55376
 Alpha  occ. eigenvalues --   -0.55299  -0.54697  -0.53666  -0.53461  -0.53150
 Alpha  occ. eigenvalues --   -0.52679  -0.51912  -0.51450  -0.50936  -0.50591
 Alpha  occ. eigenvalues --   -0.50088  -0.50022  -0.49255  -0.48958  -0.48645
 Alpha  occ. eigenvalues --   -0.48409  -0.47767  -0.47639  -0.47323  -0.47070
 Alpha  occ. eigenvalues --   -0.46793  -0.46731  -0.46089  -0.46039  -0.45652
 Alpha  occ. eigenvalues --   -0.45450  -0.45297  -0.44800  -0.44707  -0.44518
 Alpha  occ. eigenvalues --   -0.44312  -0.44251  -0.44240  -0.44019  -0.43921
 Alpha  occ. eigenvalues --   -0.43541  -0.43347  -0.42948  -0.42672  -0.42594
 Alpha  occ. eigenvalues --   -0.42311  -0.42184  -0.41848  -0.41603  -0.41572
 Alpha  occ. eigenvalues --   -0.41300  -0.40889  -0.40553  -0.40533  -0.40287
 Alpha  occ. eigenvalues --   -0.40187  -0.40107  -0.39699  -0.39533  -0.39416
 Alpha  occ. eigenvalues --   -0.39259  -0.38825  -0.38722  -0.38555  -0.38301
 Alpha  occ. eigenvalues --   -0.38119  -0.38063  -0.37922  -0.37797  -0.37568
 Alpha  occ. eigenvalues --   -0.37494  -0.37270  -0.37095  -0.36805  -0.36564
 Alpha  occ. eigenvalues --   -0.36496  -0.36281  -0.35794  -0.35716  -0.35444
 Alpha  occ. eigenvalues --   -0.35134  -0.35031  -0.34859  -0.34766  -0.34652
 Alpha  occ. eigenvalues --   -0.34445  -0.34312  -0.34161  -0.33618  -0.33371
 Alpha  occ. eigenvalues --   -0.33169  -0.32915  -0.32629  -0.32474  -0.32149
 Alpha  occ. eigenvalues --   -0.31910  -0.31755  -0.31664  -0.31445  -0.31333
 Alpha  occ. eigenvalues --   -0.31022  -0.30884  -0.30348  -0.30323  -0.29920
 Alpha  occ. eigenvalues --   -0.29229  -0.29080  -0.28632  -0.28447  -0.27967
 Alpha  occ. eigenvalues --   -0.27623  -0.27393  -0.26793  -0.26454  -0.26102
 Alpha  occ. eigenvalues --   -0.24891  -0.24578  -0.23879  -0.23559  -0.20171
 Alpha  occ. eigenvalues --   -0.18207
 Alpha virt. eigenvalues --   -0.09438  -0.07978  -0.04918  -0.02912  -0.00857
 Alpha virt. eigenvalues --   -0.00408   0.00033   0.00545   0.01757   0.03477
 Alpha virt. eigenvalues --    0.03695   0.03781   0.03950   0.04296   0.05035
 Alpha virt. eigenvalues --    0.05157   0.05357   0.05456   0.05887   0.05904
 Alpha virt. eigenvalues --    0.06209   0.06456   0.06827   0.07062   0.07143
 Alpha virt. eigenvalues --    0.07319   0.07406   0.07602   0.08042   0.08410
 Alpha virt. eigenvalues --    0.08455   0.08512   0.08584   0.08847   0.09009
 Alpha virt. eigenvalues --    0.09064   0.09283   0.09506   0.09673   0.09838
 Alpha virt. eigenvalues --    0.10187   0.10216   0.10307   0.10434   0.10859
 Alpha virt. eigenvalues --    0.11100   0.11279   0.11466   0.11585   0.11630
 Alpha virt. eigenvalues --    0.11869   0.11960   0.12065   0.12245   0.12287
 Alpha virt. eigenvalues --    0.12536   0.12676   0.12770   0.12836   0.13032
 Alpha virt. eigenvalues --    0.13218   0.13349   0.13388   0.13613   0.13700
 Alpha virt. eigenvalues --    0.13746   0.14263   0.14380   0.14733   0.15060
 Alpha virt. eigenvalues --    0.15099   0.15170   0.15271   0.15567   0.15684
 Alpha virt. eigenvalues --    0.15882   0.16050   0.16115   0.16277   0.16543
 Alpha virt. eigenvalues --    0.16642   0.16821   0.17354   0.17479   0.17851
 Alpha virt. eigenvalues --    0.18227   0.18296   0.18322   0.18500   0.18814
 Alpha virt. eigenvalues --    0.19097   0.19211   0.19355   0.19611   0.19638
 Alpha virt. eigenvalues --    0.20308   0.20353   0.20877   0.20930   0.21309
 Alpha virt. eigenvalues --    0.21500   0.21584   0.21659   0.21791   0.22188
 Alpha virt. eigenvalues --    0.22362   0.22544   0.22694   0.23000   0.23176
 Alpha virt. eigenvalues --    0.23356   0.23561   0.24121   0.24248   0.24655
 Alpha virt. eigenvalues --    0.24890   0.25045   0.25164   0.25282   0.25554
 Alpha virt. eigenvalues --    0.25945   0.26391   0.26504   0.27172   0.27412
 Alpha virt. eigenvalues --    0.27636   0.28020   0.28393   0.28667   0.28895
 Alpha virt. eigenvalues --    0.29087   0.29671   0.30217   0.30287   0.30495
 Alpha virt. eigenvalues --    0.31147   0.32105   0.32710   0.33073   0.33210
 Alpha virt. eigenvalues --    0.33535   0.33679   0.33933   0.34386   0.35052
 Alpha virt. eigenvalues --    0.35362   0.35684   0.36458   0.36790   0.37026
 Alpha virt. eigenvalues --    0.37632   0.37877   0.38165   0.38480   0.38655
 Alpha virt. eigenvalues --    0.38870   0.38934   0.39362   0.39379   0.39862
 Alpha virt. eigenvalues --    0.40064   0.40346   0.40789   0.40876   0.41184
 Alpha virt. eigenvalues --    0.41380   0.41530   0.42002   0.42133   0.42246
 Alpha virt. eigenvalues --    0.42373   0.42481   0.42650   0.42810   0.43104
 Alpha virt. eigenvalues --    0.43513   0.43663   0.43984   0.44042   0.44098
 Alpha virt. eigenvalues --    0.44191   0.44405   0.45042   0.45267   0.45438
 Alpha virt. eigenvalues --    0.45734   0.45865   0.46025   0.46283   0.46381
 Alpha virt. eigenvalues --    0.46573   0.46785   0.46987   0.47216   0.47482
 Alpha virt. eigenvalues --    0.47936   0.48159   0.48372   0.48468   0.48631
 Alpha virt. eigenvalues --    0.49060   0.49444   0.49736   0.49843   0.50013
 Alpha virt. eigenvalues --    0.50374   0.50607   0.50667   0.50956   0.51170
 Alpha virt. eigenvalues --    0.51526   0.51606   0.51716   0.52020   0.52206
 Alpha virt. eigenvalues --    0.52742   0.53377   0.53769   0.54036   0.54146
 Alpha virt. eigenvalues --    0.54583   0.54680   0.54921   0.55043   0.55372
 Alpha virt. eigenvalues --    0.55536   0.55749   0.56049   0.56324   0.56565
 Alpha virt. eigenvalues --    0.56748   0.57066   0.57134   0.57245   0.57407
 Alpha virt. eigenvalues --    0.57497   0.57729   0.58243   0.58413   0.58718
 Alpha virt. eigenvalues --    0.58920   0.59094   0.59305   0.59354   0.59428
 Alpha virt. eigenvalues --    0.59546   0.59714   0.59984   0.60456   0.60473
 Alpha virt. eigenvalues --    0.60483   0.60680   0.60850   0.60882   0.61013
 Alpha virt. eigenvalues --    0.61270   0.61299   0.61411   0.61587   0.61983
 Alpha virt. eigenvalues --    0.62024   0.62251   0.62340   0.62479   0.62648
 Alpha virt. eigenvalues --    0.62770   0.62963   0.63109   0.63146   0.63625
 Alpha virt. eigenvalues --    0.63741   0.63754   0.63981   0.64143   0.64284
 Alpha virt. eigenvalues --    0.64437   0.64506   0.64645   0.64897   0.65060
 Alpha virt. eigenvalues --    0.65252   0.65318   0.65334   0.65488   0.65515
 Alpha virt. eigenvalues --    0.65644   0.65711   0.65742   0.65868   0.65994
 Alpha virt. eigenvalues --    0.66096   0.66216   0.66328   0.66380   0.66515
 Alpha virt. eigenvalues --    0.66694   0.66909   0.67113   0.67168   0.67277
 Alpha virt. eigenvalues --    0.67444   0.67489   0.67671   0.67701   0.67770
 Alpha virt. eigenvalues --    0.67958   0.68177   0.68207   0.68262   0.68457
 Alpha virt. eigenvalues --    0.68527   0.68621   0.68908   0.69063   0.69157
 Alpha virt. eigenvalues --    0.69283   0.69353   0.69369   0.69711   0.69836
 Alpha virt. eigenvalues --    0.69911   0.70046   0.70399   0.70598   0.70804
 Alpha virt. eigenvalues --    0.70999   0.71083   0.71180   0.71355   0.71458
 Alpha virt. eigenvalues --    0.71607   0.71740   0.71867   0.71907   0.72039
 Alpha virt. eigenvalues --    0.72253   0.72487   0.72744   0.72894   0.73117
 Alpha virt. eigenvalues --    0.73279   0.73391   0.73845   0.73944   0.74048
 Alpha virt. eigenvalues --    0.74211   0.74466   0.74595   0.74910   0.75200
 Alpha virt. eigenvalues --    0.75867   0.76023   0.76110   0.76196   0.76389
 Alpha virt. eigenvalues --    0.76476   0.76707   0.76792   0.76919   0.77036
 Alpha virt. eigenvalues --    0.77143   0.77357   0.77700   0.77900   0.78120
 Alpha virt. eigenvalues --    0.78343   0.78512   0.79298   0.79846   0.79959
 Alpha virt. eigenvalues --    0.80167   0.80502   0.81123   0.81341   0.81821
 Alpha virt. eigenvalues --    0.82066   0.82142   0.82472   0.82886   0.83355
 Alpha virt. eigenvalues --    0.84232   0.84243   0.84519   0.84754   0.86031
 Alpha virt. eigenvalues --    0.86316   0.87075   0.87480   0.87872   0.88172
 Alpha virt. eigenvalues --    0.88399   0.88869   0.89443   0.89961   0.90917
 Alpha virt. eigenvalues --    0.91429   0.91486   0.92452   0.92801   0.93275
 Alpha virt. eigenvalues --    0.93754   0.94275   0.94692   0.95481   0.95657
 Alpha virt. eigenvalues --    0.95842   0.96113   0.97296   0.97490   0.97717
 Alpha virt. eigenvalues --    0.98205   0.98458   0.98814   0.99096   0.99320
 Alpha virt. eigenvalues --    0.99742   1.00268   1.00475   1.01237   1.01648
 Alpha virt. eigenvalues --    1.02385   1.02560   1.02799   1.03302   1.03886
 Alpha virt. eigenvalues --    1.04940   1.05241   1.05600   1.05729   1.05990
 Alpha virt. eigenvalues --    1.06588   1.06768   1.07247   1.07572   1.08095
 Alpha virt. eigenvalues --    1.08981   1.09140   1.09421   1.10084   1.10407
 Alpha virt. eigenvalues --    1.10671   1.10874   1.10959   1.11959   1.12314
 Alpha virt. eigenvalues --    1.12710   1.12962   1.13414   1.13680   1.14448
 Alpha virt. eigenvalues --    1.14704   1.14735   1.14987   1.15538   1.16284
 Alpha virt. eigenvalues --    1.16442   1.16672   1.17246   1.17516   1.17661
 Alpha virt. eigenvalues --    1.18214   1.18578   1.18698   1.19142   1.19560
 Alpha virt. eigenvalues --    1.20931   1.21271   1.21997   1.22247   1.22521
 Alpha virt. eigenvalues --    1.22786   1.23239   1.23788   1.23829   1.24331
 Alpha virt. eigenvalues --    1.24638   1.25265   1.25416   1.25785   1.25911
 Alpha virt. eigenvalues --    1.26567   1.26881   1.26981   1.27272   1.27947
 Alpha virt. eigenvalues --    1.28069   1.28438   1.28828   1.29200   1.29820
 Alpha virt. eigenvalues --    1.30284   1.30604   1.31330   1.31492   1.31985
 Alpha virt. eigenvalues --    1.32276   1.32822   1.33313   1.33696   1.34001
 Alpha virt. eigenvalues --    1.34354   1.34591   1.34751   1.35829   1.36556
 Alpha virt. eigenvalues --    1.36869   1.37158   1.37820   1.38181   1.38664
 Alpha virt. eigenvalues --    1.38936   1.38961   1.39443   1.40345   1.40813
 Alpha virt. eigenvalues --    1.41611   1.41769   1.43236   1.43479   1.43609
 Alpha virt. eigenvalues --    1.44324   1.44602   1.44892   1.45199   1.45420
 Alpha virt. eigenvalues --    1.45806   1.46514   1.46669   1.47226   1.47713
 Alpha virt. eigenvalues --    1.48212   1.48456   1.48765   1.48938   1.49077
 Alpha virt. eigenvalues --    1.49605   1.50368   1.50596   1.51212   1.51412
 Alpha virt. eigenvalues --    1.51438   1.52000   1.52323   1.52684   1.53541
 Alpha virt. eigenvalues --    1.53813   1.54104   1.54177   1.54738   1.55115
 Alpha virt. eigenvalues --    1.55617   1.55887   1.56099   1.56425   1.56865
 Alpha virt. eigenvalues --    1.56997   1.57392   1.57692   1.58512   1.58554
 Alpha virt. eigenvalues --    1.58730   1.58971   1.59267   1.59765   1.60081
 Alpha virt. eigenvalues --    1.60518   1.60585   1.61546   1.61829   1.62098
 Alpha virt. eigenvalues --    1.62373   1.62563   1.62770   1.63462   1.64070
 Alpha virt. eigenvalues --    1.64309   1.64926   1.65524   1.65706   1.65833
 Alpha virt. eigenvalues --    1.66065   1.66358   1.66484   1.66928   1.67100
 Alpha virt. eigenvalues --    1.67298   1.67426   1.67840   1.67982   1.68324
 Alpha virt. eigenvalues --    1.68497   1.68637   1.69015   1.69161   1.69410
 Alpha virt. eigenvalues --    1.69528   1.69717   1.70357   1.70577   1.70856
 Alpha virt. eigenvalues --    1.70970   1.71305   1.71599   1.71895   1.72091
 Alpha virt. eigenvalues --    1.72327   1.72380   1.72650   1.72945   1.72966
 Alpha virt. eigenvalues --    1.73247   1.73553   1.73644   1.73919   1.74070
 Alpha virt. eigenvalues --    1.74647   1.74677   1.75151   1.75335   1.75535
 Alpha virt. eigenvalues --    1.75800   1.76206   1.76328   1.76399   1.76769
 Alpha virt. eigenvalues --    1.77025   1.77348   1.77427   1.77587   1.77792
 Alpha virt. eigenvalues --    1.77887   1.78262   1.78445   1.78524   1.78680
 Alpha virt. eigenvalues --    1.78879   1.78999   1.79462   1.79600   1.79858
 Alpha virt. eigenvalues --    1.80304   1.80339   1.80553   1.80850   1.80989
 Alpha virt. eigenvalues --    1.81252   1.81455   1.82019   1.82061   1.82075
 Alpha virt. eigenvalues --    1.82426   1.82698   1.82808   1.83012   1.83483
 Alpha virt. eigenvalues --    1.83719   1.84064   1.84357   1.84532   1.84767
 Alpha virt. eigenvalues --    1.85031   1.85034   1.85115   1.85782   1.85855
 Alpha virt. eigenvalues --    1.86164   1.86373   1.86569   1.86688   1.86832
 Alpha virt. eigenvalues --    1.87077   1.87461   1.87665   1.87850   1.88049
 Alpha virt. eigenvalues --    1.88281   1.88572   1.88811   1.88987   1.89063
 Alpha virt. eigenvalues --    1.89324   1.90095   1.90409   1.90589   1.90705
 Alpha virt. eigenvalues --    1.90979   1.91364   1.91574   1.91763   1.91879
 Alpha virt. eigenvalues --    1.92095   1.92184   1.92463   1.92764   1.92891
 Alpha virt. eigenvalues --    1.92913   1.93070   1.93204   1.93595   1.93788
 Alpha virt. eigenvalues --    1.94139   1.94159   1.94359   1.94497   1.94995
 Alpha virt. eigenvalues --    1.95124   1.95448   1.95575   1.95882   1.96249
 Alpha virt. eigenvalues --    1.96408   1.96587   1.96762   1.97000   1.97132
 Alpha virt. eigenvalues --    1.97708   1.98325   1.98428   1.98527   1.98722
 Alpha virt. eigenvalues --    1.98859   1.99114   1.99406   2.00256   2.00303
 Alpha virt. eigenvalues --    2.00805   2.01223   2.01583   2.01691   2.01771
 Alpha virt. eigenvalues --    2.02128   2.02144   2.02569   2.03046   2.03581
 Alpha virt. eigenvalues --    2.03840   2.04428   2.04782   2.04861   2.05555
 Alpha virt. eigenvalues --    2.05709   2.05803   2.06125   2.06314   2.06441
 Alpha virt. eigenvalues --    2.06779   2.06911   2.07275   2.07683   2.07966
 Alpha virt. eigenvalues --    2.08438   2.09032   2.09557   2.09907   2.09951
 Alpha virt. eigenvalues --    2.10100   2.10202   2.10578   2.11086   2.11330
 Alpha virt. eigenvalues --    2.11772   2.12018   2.13208   2.13316   2.13633
 Alpha virt. eigenvalues --    2.13983   2.14400   2.15498   2.15607   2.15867
 Alpha virt. eigenvalues --    2.16488   2.17158   2.17250   2.17397   2.18126
 Alpha virt. eigenvalues --    2.18177   2.18442   2.18699   2.19211   2.19451
 Alpha virt. eigenvalues --    2.20001   2.20115   2.20568   2.20675   2.21435
 Alpha virt. eigenvalues --    2.21782   2.22254   2.22564   2.22696   2.23116
 Alpha virt. eigenvalues --    2.23465   2.23782   2.24285   2.25169   2.25295
 Alpha virt. eigenvalues --    2.25432   2.25822   2.26140   2.26427   2.27251
 Alpha virt. eigenvalues --    2.27875   2.28026   2.28320   2.28946   2.29240
 Alpha virt. eigenvalues --    2.29511   2.30798   2.30921   2.31340   2.31809
 Alpha virt. eigenvalues --    2.32197   2.32311   2.32943   2.33350   2.33542
 Alpha virt. eigenvalues --    2.34018   2.34102   2.34361   2.34752   2.34966
 Alpha virt. eigenvalues --    2.35361   2.35639   2.35873   2.36211   2.36295
 Alpha virt. eigenvalues --    2.37485   2.37655   2.38160   2.38746   2.38857
 Alpha virt. eigenvalues --    2.39236   2.39616   2.39741   2.40502   2.40623
 Alpha virt. eigenvalues --    2.40791   2.41678   2.41817   2.42249   2.43096
 Alpha virt. eigenvalues --    2.43462   2.43603   2.44124   2.44314   2.44765
 Alpha virt. eigenvalues --    2.44930   2.45272   2.45611   2.46030   2.46239
 Alpha virt. eigenvalues --    2.46752   2.46925   2.47679   2.48155   2.48641
 Alpha virt. eigenvalues --    2.49045   2.49518   2.50323   2.50866   2.51295
 Alpha virt. eigenvalues --    2.51396   2.51949   2.52643   2.52907   2.53145
 Alpha virt. eigenvalues --    2.54049   2.54110   2.54459   2.54838   2.55324
 Alpha virt. eigenvalues --    2.55836   2.56180   2.57133   2.57354   2.57584
 Alpha virt. eigenvalues --    2.57855   2.58407   2.58567   2.59341   2.59442
 Alpha virt. eigenvalues --    2.59783   2.60252   2.60448   2.60824   2.61257
 Alpha virt. eigenvalues --    2.61305   2.61842   2.62218   2.62632   2.63066
 Alpha virt. eigenvalues --    2.63406   2.63603   2.63874   2.64037   2.64136
 Alpha virt. eigenvalues --    2.64943   2.66063   2.66436   2.66961   2.67483
 Alpha virt. eigenvalues --    2.67547   2.67642   2.68081   2.68885   2.69038
 Alpha virt. eigenvalues --    2.69925   2.70502   2.70600   2.70655   2.71265
 Alpha virt. eigenvalues --    2.71615   2.72114   2.73061   2.73446   2.74052
 Alpha virt. eigenvalues --    2.74703   2.74879   2.75145   2.75206   2.75636
 Alpha virt. eigenvalues --    2.76124   2.76559   2.77301   2.77381   2.77796
 Alpha virt. eigenvalues --    2.78138   2.78728   2.78832   2.79041   2.80015
 Alpha virt. eigenvalues --    2.80276   2.80878   2.81737   2.82147   2.82412
 Alpha virt. eigenvalues --    2.82679   2.83236   2.83827   2.84176   2.84311
 Alpha virt. eigenvalues --    2.85121   2.85568   2.85960   2.86115   2.86779
 Alpha virt. eigenvalues --    2.87042   2.87233   2.87323   2.88019   2.88451
 Alpha virt. eigenvalues --    2.88659   2.88879   2.89482   2.90089   2.90721
 Alpha virt. eigenvalues --    2.91077   2.91405   2.91563   2.92753   2.92942
 Alpha virt. eigenvalues --    2.93202   2.93726   2.94127   2.95039   2.95457
 Alpha virt. eigenvalues --    2.95528   2.96056   2.96660   2.97182   2.97585
 Alpha virt. eigenvalues --    2.98654   2.98806   2.99600   2.99692   3.00332
 Alpha virt. eigenvalues --    3.00665   3.01617   3.02086   3.02194   3.02925
 Alpha virt. eigenvalues --    3.03563   3.03869   3.04477   3.04675   3.04857
 Alpha virt. eigenvalues --    3.06505   3.06820   3.07071   3.07597   3.08290
 Alpha virt. eigenvalues --    3.08417   3.09748   3.10340   3.12280   3.12578
 Alpha virt. eigenvalues --    3.12849   3.13846   3.14301   3.14760   3.15037
 Alpha virt. eigenvalues --    3.16935   3.18306   3.18345   3.19733   3.19820
 Alpha virt. eigenvalues --    3.20422   3.20833   3.21856   3.22336   3.23072
 Alpha virt. eigenvalues --    3.24005   3.24144   3.27836   3.28522   3.34547
 Alpha virt. eigenvalues --    3.37410   3.37649   3.40720   3.43611   3.46198
 Alpha virt. eigenvalues --    3.49238   3.49559   3.50421   3.53104   3.57483
 Alpha virt. eigenvalues --    3.62240   3.63031   3.64869   3.66058   3.66382
          Condensed to atoms (all electrons):
 Mulliken charges:
               1
     1  C    0.028436
     2  C   -0.054093
     3  C   -0.089946
     4  C    0.005117
     5  N   -0.142515
     6  C   -0.069704
     7  C   -0.075587
     8  C   -0.021745
     9  C   -0.000683
    10  C    0.036180
    11  C    0.133378
    12  C   -0.023624
    13  C    0.172412
    14  O   -0.213711
    15  O   -0.323744
    16  N   -0.124427
    17  C    0.083418
    18  C   -0.076092
    19  C    0.106108
    20  C    0.196383
    21  C    0.003826
    22  C   -0.155211
    23  C   -0.031559
    24  N   -0.229722
    25  C   -0.023852
    26  C   -0.102613
    27  C   -0.027155
    28  C    0.046363
    29  C    0.081918
    30  C   -0.064913
    31  C    0.093917
    32  N   -0.084381
    33  C    0.094784
    34  C   -0.134864
    35  C    0.024890
    36  C    0.058272
    37  C    0.096370
    38  C    0.046306
    39  O   -0.186808
    40  C    0.000594
    41  C    0.197345
    42  O   -0.277642
    43  O   -0.297346
    44  C    0.186818
    45  C    0.282785
    46  C   -0.120942
    47  C   -0.141083
    48  C    0.020241
    49  C    0.159859
    50  C   -0.008815
    51  C    0.051531
    52  C   -0.084893
    53  C    0.102732
    54  C   -0.008583
    55  C    0.087806
    56  C   -0.007221
    57  C   -0.100818
    58  C    0.028644
    59  C    0.036400
    60  C    0.019659
    61  C   -0.033717
    62  C   -0.088353
    63  C   -0.066445
    64  C    0.107138
    65  H   -0.042826
    66  H   -0.026522
    67  H   -0.086842
    68  H    0.042778
    69  H    0.010983
    70  H    0.007342
    71  H    0.010131
    72  H    0.037748
    73  H   -0.034143
    74  H    0.031569
    75  H    0.027952
    76  H    0.031839
    77  H    0.036668
    78  H    0.049438
    79  H    0.053364
    80  H    0.009920
    81  H    0.016402
    82  H    0.052677
    83  H    0.035053
    84  H    0.012467
    85  H    0.000835
    86  H    0.035053
    87  H    0.002979
    88  H    0.002416
    89  H    0.025225
    90  H   -0.058029
    91  H   -0.005601
    92  H    0.012820
    93  H    0.064551
    94  H    0.069306
    95  H    0.034149
    96  H    0.031453
    97  H    0.054991
    98  H   -0.005686
    99  H   -0.000743
   100  H    0.034421
   101  H    0.026669
   102  H    0.058796
   103  H    0.021992
   104  H   -0.032710
   105  H   -0.061541
   106  H    0.035754
   107  H    0.009422
   108  H   -0.015858
   109  H   -0.019315
   110  H   -0.014054
   111  H   -0.014504
   112  H    0.004704
   113  H   -0.020451
   114  H    0.021047
   115  H    0.002191
   116  H    0.007033
   117  H   -0.027655
   118  H   -0.044547
   119  H   -0.002070
   120  H   -0.008076
   121  H   -0.002025
   122  H   -0.021294
   123  H   -0.006211
   124  H   -0.002372
   125  H    0.006175
   126  H    0.025320
   127  H    0.004602
   128  H   -0.002988
   129  H   -0.005437
   130  H    0.007750
   131  H    0.025442
   132  H    0.024432
   133  H    0.037682
   134  H   -0.006159
   135  H    0.014067
   136  H   -0.040435
   137  H    0.157232
   138  H    0.186425
 Sum of Mulliken charges =  -0.00000
 Mulliken charges with hydrogens summed into heavy atoms:
               1
     1  C    0.028436
     2  C   -0.096919
     3  C   -0.116468
     4  C   -0.081725
     5  N   -0.142515
     6  C   -0.069704
     7  C   -0.032809
     8  C   -0.010762
     9  C   -0.000683
    10  C    0.091402
    11  C    0.130804
    12  C    0.036167
    13  C    0.172412
    14  O   -0.213711
    15  O   -0.323744
    16  N    0.032805
    17  C    0.083418
    18  C   -0.076092
    19  C    0.106108
    20  C    0.196383
    21  C    0.143297
    22  C   -0.145292
    23  C    0.037520
    24  N   -0.229722
    25  C   -0.023852
    26  C   -0.102613
    27  C   -0.027155
    28  C    0.046363
    29  C    0.130274
    30  C   -0.026882
    31  C    0.063529
    32  N    0.102044
    33  C    0.094784
    34  C   -0.134864
    35  C    0.024890
    36  C    0.058272
    37  C    0.168140
    38  C    0.046306
    39  O   -0.186808
    40  C    0.069900
    41  C    0.197345
    42  O   -0.277642
    43  O   -0.297346
    44  C    0.307412
    45  C    0.276356
    46  C   -0.086521
    47  C   -0.141083
    48  C    0.127698
    49  C    0.065608
    50  C    0.036361
    51  C    0.016358
    52  C   -0.098947
    53  C    0.072480
    54  C    0.014655
    55  C    0.067183
    56  C   -0.053838
    57  C   -0.108893
    58  C   -0.000886
    59  C    0.040203
    60  C    0.049581
    61  C   -0.042141
    62  C   -0.080602
    63  C    0.021112
    64  C    0.074611
 Electronic spatial extent (au):  <R**2>=         177005.4067
 Charge=             -0.0000 electrons
 Dipole moment (field-independent basis, Debye):
    X=              1.6439    Y=              4.3155    Z=              0.6166  Tot=              4.6590
 Quadrupole moment (field-independent basis, Debye-Ang):
   XX=           -360.1094   YY=           -377.7212   ZZ=           -397.8215
   XY=            -28.4766   XZ=             10.0012   YZ=             -0.4872
 Traceless Quadrupole moment (field-independent basis, Debye-Ang):
   XX=             18.4413   YY=              0.8295   ZZ=            -19.2708
   XY=            -28.4766   XZ=             10.0012   YZ=             -0.4872
 Octapole moment (field-independent basis, Debye-Ang**2):
  XXX=           -727.5983  YYY=             79.0421  ZZZ=              6.8368  XYY=            -71.4167
  XXY=            107.0773  XXZ=           -255.6772  XZZ=             19.6962  YZZ=            -19.4512
  YYZ=             62.0392  XYZ=            -15.6565
 Hexadecapole moment (field-independent basis, Debye-Ang**3):
 XXXX=        -220718.3801 YYYY=         -17723.5688 ZZZZ=          -4312.3731 XXXY=          -1805.8005
 XXXZ=           2529.9386 YYYX=          -1167.4722 YYYZ=           -272.7293 ZZZX=             22.5945
 ZZZY=            -21.3582 XXYY=         -39815.5224 XXZZ=         -38919.7721 YYZZ=          -3687.2544
 XXYZ=            426.2978 YYXZ=             13.0554 ZZXY=             31.6927
 N-N= 8.295264145619D+03 E-N=-2.292518214963D+04  KE= 2.701371329816D+03
 1\1\GINC-RYZEN-SSD1\SP\RB3LYP TD-FC\SVP\C55H74N4O5\PADAWAN\16-Aug-2019
 \0\\# td=(NStates=1) B3LYP/SVP\\TD\\0,1\C,0,-5.1110439549,-2.024052211
 2,0.4098796131\C,0,-4.6557817364,2.6790681358,1.3696836445\C,0,-9.2084
 100846,3.4887750738,-0.2503696532\C,0,-9.8817500261,-1.3639679914,-0.9
 195681022\N,0,-5.1260993579,0.3513715983,0.8897264306\C,0,-4.513899487
 5,-0.850234007,0.8272188075\C,0,-3.0286746212,-0.6125817417,1.33399664
 91\C,0,-2.9791220646,0.788413959,1.9236768731\C,0,-4.3048754456,1.2773
 047759,1.3318050919\C,0,-2.9393004279,0.7468029813,3.4462644844\C,0,-2
 .0408494277,-1.0120162157,0.2437809858\C,0,-0.5924476329,-0.9655354083
 ,0.5674145066\C,0,0.363480854,-1.2088177991,-0.5435402112\O,0,0.119951
 7311,-1.6069603859,-1.6456870233\O,0,1.6837434495,-0.9378802065,-0.202
 6452565\N,0,-6.8956427453,2.660540796,0.4357141654\C,0,-5.7719613771,3
 .3119779303,0.9539195174\C,0,-6.038415114,4.8032084046,1.0450160533\C,
 0,-7.2658696515,5.0028316062,0.4996351936\C,0,-7.8583312835,3.67556615
 55,0.1412654628\C,0,-4.9942785843,5.7485786403,1.4667326772\C,0,-7.892
 2558138,6.237273445,0.3547005244\C,0,-8.8082383466,6.7952488155,-0.584
 567073\N,0,-9.1160150008,1.0079392685,-0.5019471701\C,0,-9.7499767751,
 2.1238656883,-0.6269015009\C,0,-11.238740112,2.011874827,-0.9477088422
 \C,0,-11.4093163721,0.7008441258,-1.1333133929\C,0,-10.1057572841,-0.0
 072277722,-0.8614596264\C,0,-12.1062148187,3.1241449836,-1.1086152906\
 C,0,-12.6518552829,-0.0472338218,-1.5385260876\C,0,-12.7360180714,-0.3
 212567721,-3.0727044548\N,0,-7.4845915849,-1.2733616507,-0.224178763\C
 ,0,-8.6474707326,-1.9583224464,-0.6754844768\C,0,-8.2254061478,-3.4711
 217137,-0.6423579743\C,0,-6.9463266609,-3.4426501493,-0.2015622615\C,0
 ,-6.4291514547,-2.070418841,-0.0431321591\C,0,-9.1013341185,-4.6887222
 722,-1.0110836152\C,0,-5.8822643479,-4.3117964065,0.1605787275\O,0,-5.
 9441262687,-5.5188683955,-0.0234254221\C,0,-4.5914247471,-3.4441115239
 ,0.4712423738\C,0,-3.9817505899,-3.9021139066,1.7219440797\O,0,-4.2388
 764993,-3.499580914,2.891799644\O,0,-3.1616186776,-4.8967899603,1.3911
 748605\C,0,-2.6564391742,-5.6497358789,2.509337404\C,0,2.6440944528,-1
 .1609647871,-1.1469889042\C,0,3.9289170015,-0.6763022536,-0.4858551987
 \C,0,4.8498372839,-0.0023411865,-1.182843689\C,0,4.8186223724,0.558199
 6617,-2.6679393329\C,0,6.1448481969,0.2649891272,-0.5117626394\C,0,7.4
 761318404,-0.3129406272,-1.084875841\C,0,8.7300064776,0.0347982729,-0.
 3368285628\C,0,10.0179836531,-0.6143959222,-0.8327742573\C,0,10.129796
 7731,-2.170472213,-0.8085249672\C,0,11.2232129959,0.0221325427,-0.1283
 253005\C,0,12.5680553901,-0.5578742658,-0.5088087581\C,0,13.718968304,
 0.1957668736,0.1490512677\C,0,15.1881706382,-0.0253255684,-0.347538589
 7\C,0,15.5575830859,-1.5531194738,-0.2595556911\C,0,16.0717097682,0.97
 3018213,0.4149347579\C,0,17.5118580245,0.8131270466,-0.1257770855\C,0,
 18.497159567,1.7272313421,0.6100596989\C,0,19.9588357795,1.6451401393,
 0.2237651369\C,0,20.1831592454,2.0502144526,-1.2910455136\C,0,20.89019
 94855,2.3346271988,1.2225686576\H,0,-3.9141595836,3.4356999543,1.66939
 91782\H,0,-10.0434619312,4.1355629928,-0.1349221661\H,0,-10.6202803679
 ,-1.8684628563,-1.3244723411\H,0,-2.9161876703,-1.3395743215,2.2940411
 988\H,0,-2.0906096286,1.4188218333,1.6239818966\H,0,-2.0483323491,0.28
 55059723,3.7955062759\H,0,-3.0917624765,1.7161962632,3.9369427955\H,0,
 -3.7728978692,0.0801587182,3.9799468404\H,0,-2.1634057945,-1.992043082
 ,0.0199251362\H,0,-2.1588718258,-0.5762101467,-0.8580644671\H,0,-0.185
 7428977,0.0554396699,0.9574817787\H,0,-0.3354965626,-1.4635955396,1.55
 27723962\H,0,-4.0382684842,5.561594297,0.9355566937\H,0,-5.2761588347,
 6.877722891,0.9922648235\H,0,-4.6644682238,5.6498648359,2.5911801786\H
 ,0,-7.5592560245,6.9996369974,1.0863599423\H,0,-9.2901044032,6.2204800
 335,-1.3259219882\H,0,-8.9271269919,7.9754628316,-0.396509355\H,0,-11.
 9934838958,3.7281333118,-0.1981122098\H,0,-11.8756764899,3.6879737621,
 -1.9833755551\H,0,-13.1770351035,3.12441806,-1.383701417\H,0,-13.12346
 71726,-1.0123913654,-0.9379583696\H,0,-13.5192126636,0.7400136628,-1.4
 626699443\H,0,-12.9038949045,0.7819152066,-3.4064394873\H,0,-11.831919
 3996,-0.767076104,-3.520552852\H,0,-13.5130793811,-0.7391512732,-3.350
 6289216\H,0,-9.8668342302,-4.7479768896,-0.3428500889\H,0,-9.717123622
 6,-4.8084278563,-1.8939899196\H,0,-8.3492566312,-5.5901197919,-0.96296
 09496\H,0,-3.8055062779,-3.6257299243,-0.294242484\H,0,-1.8134082088,-
 6.3559521989,2.1569013941\H,0,-2.0034469164,-4.8470444434,2.9353979901
 \H,0,-3.4291339688,-6.1795649565,3.0110026205\H,0,2.4651283046,-2.1053
 072718,-1.5216893022\H,0,2.5290447474,-0.4365950975,-2.0436819875\H,0,
 4.1768691228,-1.1236104315,0.6359626407\H,0,5.3286781323,1.5217398718,
 -2.8241249999\H,0,5.3089178556,-0.274901535,-3.4170147686\H,0,3.747971
 2823,0.7331461205,-2.9420595629\H,0,6.2036704641,1.2394370876,-0.19337
 45379\H,0,6.0293707629,-0.1443400193,0.4332230164\H,0,7.2317338265,-1.
 5028443298,-1.1934141875\H,0,7.6168014312,0.2373092355,-2.1283716949\H
 ,0,8.9854829899,1.075715423,-0.1500837499\H,0,8.6360263325,-0.32121920
 89,0.7562084737\H,0,10.205987464,-0.2805078525,-1.9113318561\H,0,9.242
 6114487,-2.6000886717,-1.3079600215\H,0,10.8696438254,-2.6878804644,-1
 .3589116368\H,0,10.0831167535,-2.4642583033,0.1747839569\H,0,11.145818
 772,1.2331209359,-0.3138279202\H,0,11.1448920586,-0.2224407296,0.98864
 93866\H,0,12.9541319212,-1.5663805171,-0.2501984626\H,0,13.0085211687,
 -0.3984571186,-1.4893122497\H,0,13.6134823837,1.1890192977,-0.08914374
 03\H,0,13.7590707426,0.1001170577,1.3600455808\H,0,15.2544669441,0.081
 7413739,-1.4481214619\H,0,15.143509746,-2.2145797418,-0.9914031608\H,0
 ,16.5574924855,-1.9094567852,-0.4516165543\H,0,15.4681095286,-1.978307
 4493,0.7338660879\H,0,15.7260497966,1.9823613248,0.1925430979\H,0,16.0
 054768704,0.7586096701,1.5335553523\H,0,17.8903351108,-0.2938078594,-0
 .0123359183\H,0,17.2620089263,1.062149178,-1.169724277\H,0,18.12807451
 34,2.8171304407,0.6442209171\H,0,18.352238238,1.5906479016,1.917042959
 9\H,0,20.2753857684,0.4542461583,0.2124541825\H,0,20.155848282,3.26441
 8574,-1.4237673509\H,0,21.2855870759,1.7239179956,-1.6232276462\H,0,19
 .4520934451,1.5102810647,-2.033048486\H,0,20.8230873218,1.7640759579,2
 .1620301308\H,0,21.9966335051,2.2892270393,0.9061225121\H,0,20.6737450
 372,3.2133110016,1.5729999044\H,0,-6.9939631788,1.6270169737,0.4761408
 709\H,0,-7.4610274693,-0.1856934449,-0.1081541356\\Version=ES64L-G16Re
 vA.03\State=1-A\HF=-2733.071297\RMSD=3.571e-09\PG=C01 [X(C55H74N4O5)]\
 \@


 WE HAVE LEFT UNDONE THOSE THINGS WHICH WE OUGHT TO HAVE DONE,
 AND WE HAVE DONE THOSE THINGS WHICH WE OUGHT NOT TO HAVE DONE.
                   BOOK OF COMMON PRAYER                      
 Job cpu time:       1 days  7 hours  5 minutes 11.9 seconds.
 Elapsed time:       0 days  7 hours 49 minutes 13.4 seconds.
 File lengths (MBytes):  RWF=   6378 Int=      0 D2E=      0 Chk=    163 Scr=      1
 Normal termination of Gaussian 16 at Fri Aug 16 23:29:51 2019.
