 Entering Gaussian System, Link 0=g16
 Input=Geometria-306-.com
 Output=Geometria-306-.log
 Initial command:
 /usr/local/g16/l1.exe "/home/padawan/israel-mol/pheophytin/spectra/emi/Gau-13631.inp" -scrdir="/home/padawan/israel-mol/pheophytin/spectra/emi/"
 Entering Link 1 = /usr/local/g16/l1.exe PID=     13633.
  
 Copyright (c) 1988,1990,1992,1993,1995,1998,2003,2009,2016,
            Gaussian, Inc.  All Rights Reserved.
  
 This is part of the Gaussian(R) 16 program.  It is based on
 the Gaussian(R) 09 system (copyright 2009, Gaussian, Inc.),
 the Gaussian(R) 03 system (copyright 2003, Gaussian, Inc.),
 the Gaussian(R) 98 system (copyright 1998, Gaussian, Inc.),
 the Gaussian(R) 94 system (copyright 1995, Gaussian, Inc.),
 the Gaussian 92(TM) system (copyright 1992, Gaussian, Inc.),
 the Gaussian 90(TM) system (copyright 1990, Gaussian, Inc.),
 the Gaussian 88(TM) system (copyright 1988, Gaussian, Inc.),
 the Gaussian 86(TM) system (copyright 1986, Carnegie Mellon
 University), and the Gaussian 82(TM) system (copyright 1983,
 Carnegie Mellon University). Gaussian is a federally registered
 trademark of Gaussian, Inc.
  
 This software contains proprietary and confidential information,
 including trade secrets, belonging to Gaussian, Inc.
  
 This software is provided under written license and may be
 used, copied, transmitted, or stored only in accord with that
 written license.
  
 The following legend is applicable only to US Government
 contracts under FAR:
  
                    RESTRICTED RIGHTS LEGEND
  
 Use, reproduction and disclosure by the US Government is
 subject to restrictions as set forth in subparagraphs (a)
 and (c) of the Commercial Computer Software - Restricted
 Rights clause in FAR 52.227-19.
  
 Gaussian, Inc.
 340 Quinnipiac St., Bldg. 40, Wallingford CT 06492
  
  
 ---------------------------------------------------------------
 Warning -- This program may not be used in any manner that
 competes with the business of Gaussian, Inc. or will provide
 assistance to any competitor of Gaussian, Inc.  The licensee
 of this program is prohibited from giving any competitor of
 Gaussian, Inc. access to this program.  By using this program,
 the user acknowledges that Gaussian, Inc. is engaged in the
 business of creating and licensing software in the field of
 computational chemistry and represents and warrants to the
 licensee that it is not a competitor of Gaussian, Inc. and that
 it will not use this program in any manner prohibited above.
 ---------------------------------------------------------------
  

 Cite this work as:
 Gaussian 16, Revision A.03,
 M. J. Frisch, G. W. Trucks, H. B. Schlegel, G. E. Scuseria, 
 M. A. Robb, J. R. Cheeseman, G. Scalmani, V. Barone, 
 G. A. Petersson, H. Nakatsuji, X. Li, M. Caricato, A. V. Marenich, 
 J. Bloino, B. G. Janesko, R. Gomperts, B. Mennucci, H. P. Hratchian, 
 J. V. Ortiz, A. F. Izmaylov, J. L. Sonnenberg, D. Williams-Young, 
 F. Ding, F. Lipparini, F. Egidi, J. Goings, B. Peng, A. Petrone, 
 T. Henderson, D. Ranasinghe, V. G. Zakrzewski, J. Gao, N. Rega, 
 G. Zheng, W. Liang, M. Hada, M. Ehara, K. Toyota, R. Fukuda, 
 J. Hasegawa, M. Ishida, T. Nakajima, Y. Honda, O. Kitao, H. Nakai, 
 T. Vreven, K. Throssell, J. A. Montgomery, Jr., J. E. Peralta, 
 F. Ogliaro, M. J. Bearpark, J. J. Heyd, E. N. Brothers, K. N. Kudin, 
 V. N. Staroverov, T. A. Keith, R. Kobayashi, J. Normand, 
 K. Raghavachari, A. P. Rendell, J. C. Burant, S. S. Iyengar, 
 J. Tomasi, M. Cossi, J. M. Millam, M. Klene, C. Adamo, R. Cammi, 
 J. W. Ochterski, R. L. Martin, K. Morokuma, O. Farkas, 
 J. B. Foresman, and D. J. Fox, Gaussian, Inc., Wallingford CT, 2016.
 
 ******************************************
 Gaussian 16:  ES64L-G16RevA.03 25-Dec-2016
                22-Aug-2019 
 ******************************************
 %nproc=4
 Will use up to    4 processors via shared memory.
 %Mem=2GB
 --------------------------
 # td=(NStates=1) B3LYP/SVP
 --------------------------
 1/38=1,172=1/1;
 2/12=2,17=6,18=5,40=1/2;
 3/5=18,7=101,11=9,25=1,30=1,74=-5/1,2,3,8;
 4//1;
 5/5=2,38=5/2;
 8/6=1,10=1,108=1/1;
 9/41=1,42=1,70=2/14;
 6/7=2,8=2,9=2,10=2/1;
 99/5=1,9=1/99;
 --
 TD
 --
 Symbolic Z-matrix:
 Charge =  0 Multiplicity = 1
 6                    -5.18617  -2.13925   0.43347 
 6                    -4.50878   2.64249   1.60164 
 6                    -8.96373   3.49295  -0.32043 
 6                    -9.79001  -1.24853  -1.01518 
 7                    -5.09254   0.3065    0.80168 
 6                    -4.58804  -0.87084   0.86528 
 6                    -3.21092  -0.85429   1.28378 
 6                    -3.08948   0.57667   1.95057 
 6                    -4.32491   1.23309   1.35113 
 6                    -2.99469   0.55517   3.44825 
 6                    -2.02144  -1.09669   0.27784 
 6                    -0.62967  -1.08429   0.70795 
 6                     0.46364  -1.43689  -0.2709 
 8                     0.1064   -1.85578  -1.42974 
 8                     1.71769  -1.25262   0.08487 
 7                    -6.88096   2.73951   0.61868 
 6                    -5.65197   3.30158   1.06871 
 6                    -5.79267   4.72551   1.05053 
 6                    -6.98713   5.02375   0.46222 
 6                    -7.70004   3.76165   0.16715 
 6                    -4.80214   5.68309   1.56894 
 6                    -7.59055   6.32455   0.31479 
 6                    -8.46391   6.89842  -0.48493 
 7                    -9.03846   1.03685  -0.60377 
 6                    -9.59302   2.23651  -0.62957 
 6                    -11.01414   2.16584  -1.1622 
 6                    -11.32477   0.80954  -1.31087 
 6                    -10.02822   0.2226   -0.98808 
 6                    -11.81133   3.39078  -1.51407 
 6                    -12.55454   0.16847  -1.72097 
 6                    -12.61593  -0.13339  -3.23649 
 7                    -7.54968  -1.22996  -0.22289 
 6                    -8.6549   -1.91768  -0.58103 
 6                    -8.3319   -3.3062   -0.73879 
 6                    -7.05799  -3.475    -0.24395 
 6                    -6.56078  -2.11691   0.16006 
 6                    -9.32424  -4.40818  -1.04655 
 6                    -5.93782  -4.39191  -0.11108 
 8                    -5.81944  -5.62296  -0.31131 
 6                    -4.67966  -3.49155   0.47474 
 6                    -4.14575  -3.96736   1.72843 
 8                    -4.29198  -3.43662   2.8091 
 8                    -3.27961  -4.97546   1.58693 
 6                    -2.98512  -5.555     2.83839 
 6                     2.7554   -1.49751  -0.89086 
 6                     4.01159  -1.05932  -0.43447 
 6                     4.79677  -0.07041  -0.96029 
 6                     4.5831    0.52634  -2.30447 
 6                     6.16469   0.24854  -0.38294 
 6                     7.35065  -0.60646  -0.92048 
 6                     8.59792  -0.24344  -0.18564 
 6                     9.92429  -0.75484  -0.85732 
 6                     10.02179  -2.28703  -0.92328 
 6                     11.11166  -0.2071   -0.08068 
 6                     12.5857  -0.51714  -0.58562 
 6                     13.72384   0.08242   0.18181 
 6                     15.10022  -0.05693  -0.41914 
 6                     15.67171  -1.60021  -0.38416 
 6                     16.04516   0.89813   0.38093 
 6                     17.52895   1.02829  -0.17705 
 6                     18.31842   1.93472   0.62 
 6                     19.8044   2.1411   -0.1051 
 6                     19.7918   2.77558  -1.49686 
 6                     20.78806   2.92168   0.79703 
 1                    -3.71744   3.28785   1.98436 
 1                    -9.53607   4.3536   -0.35868 
 1                    -10.62475  -1.9412   -1.64764 
 1                    -3.21437  -1.73611   2.0534 
 1                    -2.15746   1.14813   1.56461 
 1                    -2.19198  -0.02353   4.06313 
 1                    -2.81469   1.69428   3.68301 
 1                    -4.00757   0.09436   3.98022 
 1                    -1.97173  -2.10485  -0.33556 
 1                    -2.07572  -0.68663  -0.70443 
 1                    -0.23239  -0.02413   0.98502 
 1                    -0.44157  -1.55931   1.51314 
 1                    -3.92162   5.7489    0.94853 
 1                    -5.10996   6.85644   1.41783 
 1                    -4.69159   5.44977   2.55414 
 1                    -7.18508   7.08224   0.97082 
 1                    -8.69682   6.18161  -1.25012 
 1                    -8.71796   7.9291   -0.44126 
 1                    -11.72713   3.99797  -0.62429 
 1                    -11.48229   4.02521  -2.57804 
 1                    -12.73675   3.01156  -1.58224 
 1                    -12.7219  -0.81752  -1.17727 
 1                    -13.53437   0.71944  -1.52982 
 1                    -12.41978   0.57914  -3.80886 
 1                    -11.65699  -0.74577  -3.71008 
 1                    -13.37916  -0.70486  -3.50657 
 1                    -10.14485  -4.38098  -0.29428 
 1                    -9.76201  -4.37561  -2.12291 
 1                    -8.79521  -5.37986  -1.21726 
 1                    -3.87208  -3.50873  -0.3866 
 1                    -2.26381  -6.40781   2.6394 
 1                    -2.51327  -5.03578   3.70868 
 1                    -3.87624  -5.7989    3.42272 
 1                     2.86486  -2.55166  -0.82244 
 1                     2.37099  -1.32743  -1.86777 
 1                     4.32442  -1.46711   0.60023 
 1                     4.5393    1.56476  -2.33432 
 1                     5.48262   0.19515  -2.78828 
 1                     3.67404   0.32012  -2.83641 
 1                     6.5757    1.34882  -0.48753 
 1                     5.98999   0.28258   0.70408 
 1                     7.12574  -1.75376  -0.79521 
 1                     7.55868  -0.45159  -1.97176 
 1                     8.75197   0.88192  -0.08824 
 1                     8.55722  -0.53388   0.87359 
 1                     9.97289  -0.29314  -1.82903 
 1                     9.24371  -2.75919  -1.43766 
 1                     10.73731  -2.69501  -1.54689 
 1                     10.309   -2.81955   0.20175 
 1                     11.14812   1.02292   0.20015 
 1                     11.28511  -0.61375   0.94646 
 1                     12.72545  -1.65583  -0.76419 
 1                     12.4722   0.02989  -1.54889 
 1                     13.25131   0.9812    0.43781 
 1                     13.69206  -0.37919   1.00458 
 1                     15.20105   0.18661  -1.53454 
 1                     14.66305  -2.17928  -0.86425 
 1                     16.39911  -1.92174  -1.01392 
 1                     15.64189  -2.21755   0.60649 
 1                     15.73402   1.83923   0.48874 
 1                     16.09074   0.45338   1.45104 
 1                     17.97813  -0.01828  -0.0903 
 1                     17.45756   1.3314   -1.22041 
 1                     17.61498   2.91064   0.78364 
 1                     18.43096   1.60976   1.6367 
 1                     20.19253   1.08387  -0.29959 
 1                     19.45471   4.01506  -1.30392 
 1                     20.85966   2.87347  -2.07998 
 1                     19.10172   2.35671  -1.96749 
 1                     21.15255   2.53011   1.78196 
 1                     21.78827   3.06404   0.33146 
 1                     20.49631   3.95301   1.06535 
 1                    -7.15057   1.84766   0.82086 
 1                    -7.40054  -0.18872  -0.1955 
 
 Stoichiometry    C55H74N4O5
 Framework group  C1[X(C55H74N4O5)]
 Deg. of freedom   408
 Full point group                 C1      NOp   1
 Largest Abelian subgroup         C1      NOp   1
 Largest concise Abelian subgroup C1      NOp   1
                         Standard orientation:                         
 ---------------------------------------------------------------------
 Center     Atomic      Atomic             Coordinates (Angstroms)
 Number     Number       Type             X           Y           Z
 ---------------------------------------------------------------------
      1          6           0       -5.205719   -2.103141    0.377742
      2          6           0       -4.480228    2.639696    1.669153
      3          6           0       -8.925812    3.584664   -0.230316
      4          6           0       -9.799906   -1.128643   -1.047432
      5          7           0       -5.087409    0.331198    0.809060
      6          6           0       -4.594881   -0.852439    0.842208
      7          6           0       -3.217783   -0.860672    1.261006
      8          6           0       -3.082032    0.551265    1.964570
      9          6           0       -4.310580    1.235449    1.382289
     10          6           0       -2.987862    0.490093    3.461199
     11          6           0       -2.030543   -1.089037    0.249148
     12          6           0       -0.638839   -1.101860    0.679441
     13          6           0        0.451109   -1.440101   -0.308191
     14          8           0        0.089956   -1.825244   -1.477469
     15          8           0        1.706862   -1.277812    0.052241
     16          7           0       -6.851042    2.786129    0.689016
     17          6           0       -5.616540    3.323889    1.153437
     18          6           0       -5.742802    4.749170    1.172073
     19          6           0       -6.934021    5.074614    0.591665
     20          6           0       -7.659596    3.827856    0.264053
     21          6           0       -4.742760    5.682940    1.715082
     22          6           0       -7.524185    6.384838    0.477907
     23          6           0       -8.391478    6.988011   -0.306710
     24          7           0       -9.025347    1.137600   -0.577065
     25          6           0       -9.567721    2.343080   -0.571848
     26          6           0      -10.989337    2.300615   -1.106138
     27          6           0      -11.313652    0.951835   -1.289828
     28          6           0      -10.023205    0.343625   -0.982312
     29          6           0      -11.773977    3.542260   -1.426222
     30          6           0      -12.549741    0.334071   -1.716380
     31          6           0      -12.613777    0.072135   -3.239195
     32          7           0       -7.559714   -1.153271   -0.254909
     33          6           0       -8.671752   -1.820266   -0.630716
     34          6           0       -8.362789   -3.207443   -0.824323
     35          6           0       -7.090790   -3.401891   -0.334001
     36          6           0       -6.579962   -2.059809    0.104986
     37          6           0       -9.366160   -4.290992   -1.160480
     38          6           0       -5.980006   -4.333237   -0.224875
     39          8           0       -5.874054   -5.559829   -0.456871
     40          6           0       -4.712950   -3.461113    0.384040
     41          6           0       -4.184221   -3.974567    1.625015
     42          8           0       -4.325363   -3.470493    2.719041
     43          8           0       -3.328304   -4.987396    1.457505
     44          6           0       -3.040041   -5.602051    2.693561
     45          6           0        2.742300   -1.507896   -0.929492
     46          6           0        4.002741   -1.094408   -0.461912
     47          6           0        4.798049   -0.100241   -0.961983
     48          6           0        4.590796    0.533191   -2.290288
     49          6           0        6.168972    0.189791   -0.376566
     50          6           0        7.346353   -0.663000   -0.936022
     51          6           0        8.597043   -0.331759   -0.192036
     52          6           0        9.918346   -0.839040   -0.876696
     53          6           0       10.000326   -2.369926   -0.982247
     54          6           0       11.110992   -0.323625   -0.086147
     55          6           0       12.581947   -0.635431   -0.598918
     56          6           0       13.725897   -0.067483    0.183767
     57          6           0       15.100960   -0.205187   -0.420574
     58          6           0       15.656778   -1.754573   -0.425504
     59          6           0       16.055307    0.719243    0.403927
     60          6           0       17.540493    0.848737   -0.150493
     61          6           0       18.338893    1.726213    0.669736
     62          6           0       19.827082    1.936197   -0.049772
     63          6           0       19.821287    2.606539   -1.424660
     64          6           0       20.818355    2.683179    0.872241
     65          1           0       -3.682497    3.266883    2.068441
     66          1           0       -9.489397    4.451781   -0.246314
     67          1           0      -10.641450   -1.796238   -1.697604
     68          1           0       -3.230370   -1.762023    2.007565
     69          1           0       -2.144159    1.123039    1.593518
     70          1           0       -2.191224   -0.112425    4.060916
     71          1           0       -2.796403    1.620871    3.725326
     72          1           0       -4.005508    0.025970    3.981061
     73          1           0       -1.990883   -2.081453   -0.390117
     74          1           0       -2.080406   -0.653186   -0.722196
     75          1           0       -0.230909   -0.053299    0.983838
     76          1           0       -0.455775   -1.599418    1.472081
     77          1           0       -3.861448    5.755841    1.096584
     78          1           0       -5.038638    6.862863    1.594351
     79          1           0       -4.634847    5.423121    2.693915
     80          1           0       -7.111239    7.121159    1.153312
     81          1           0       -8.631423    6.293618   -1.090186
     82          1           0       -8.635076    8.019739   -0.236415
     83          1           0      -11.683872    4.125358   -0.521049
     84          1           0      -11.438241    4.200614   -2.473430
     85          1           0      -12.703179    3.174324   -1.504187
     86          1           0      -12.727231   -0.663898   -1.198354
     87          1           0      -13.523999    0.889822   -1.511049
     88          1           0      -12.410264    0.797203   -3.792948
     89          1           0      -11.660969   -0.537490   -3.728452
     90          1           0      -13.382685   -0.484396   -3.523970
     91          1           0      -10.186661   -4.274930   -0.407763
     92          1           0       -9.803288   -4.226171   -2.235647
     93          1           0       -8.846961   -5.263241   -1.356250
     94          1           0       -3.905352   -3.464205   -0.477454
     95          1           0       -2.327356   -6.456699    2.472594
     96          1           0       -2.563186   -5.110320    3.576983
     97          1           0       -3.933741   -5.851932    3.271386
     98          1           0        2.841058   -2.564521   -0.888345
     99          1           0        2.359900   -1.308734   -1.901683
    100          1           0        4.311152   -1.531966    0.561901
    101          1           0        4.557528    1.572434   -2.293273
    102          1           0        5.487042    0.205519   -2.782490
    103          1           0        3.679843    0.350025   -2.827385
    104          1           0        6.591135    1.288186   -0.452675
    105          1           0        5.994329    0.197491    0.710969
    106          1           0        7.109801   -1.810816   -0.840464
    107          1           0        7.556222   -0.483118   -1.982942
    108          1           0        8.762457    0.789083   -0.065565
    109          1           0        8.553111   -0.649060    0.859334
    110          1           0        9.971884   -0.352888   -1.836150
    111          1           0        9.217647   -2.820720   -1.508676
    112          1           0       10.711849   -2.768876   -1.616195
    113          1           0       10.281825   -2.934237    0.128634
    114          1           0       11.159833    0.898291    0.226395
    115          1           0       11.280029   -0.758431    0.930133
    116          1           0       12.710203   -1.770481   -0.806871
    117          1           0       12.474256   -0.062562   -1.547726
    118          1           0       13.262426    0.829125    0.462910
    119          1           0       13.689224   -0.549860    0.994323
    120          1           0       15.204554    0.066075   -1.529307
    121          1           0       14.642430   -2.310777   -0.920416
    122          1           0       16.381045   -2.067064   -1.063365
    123          1           0       15.620429   -2.396982    0.548855
    124          1           0       15.753692    1.660342    0.536032
    125          1           0       16.096087    0.246535    1.462176
    126          1           0       17.979027   -0.204223   -0.090828
    127          1           0       17.472458    1.179426   -1.185665
    128          1           0       17.645334    2.704653    0.858552
    129          1           0       18.447854    1.373950    1.677700
    130          1           0       20.204530    0.880468   -0.271527
    131          1           0       19.496718    3.843976   -1.199740
    132          1           0       20.890246    2.708650   -2.005053
    133          1           0       19.127124    2.206991   -1.905975
    134          1           0       21.178594    2.262608    1.846727
    135          1           0       21.820085    2.827392    0.410514
    136          1           0       20.536995    3.710140    1.167137
    137          1           0       -7.129726    1.892129    0.868060
    138          1           0       -7.400043   -0.114659   -0.200610
 ---------------------------------------------------------------------
 Rotational constants (GHZ):           0.0604105           0.0063077           0.0058959
 Standard basis: SVP (5D, 7F)
 There are  1330 symmetry adapted cartesian basis functions of A   symmetry.
 There are  1266 symmetry adapted basis functions of A   symmetry.
  1266 basis functions,  2118 primitive gaussians,  1330 cartesian basis functions
   236 alpha electrons      236 beta electrons
       nuclear repulsion energy      8319.0389703345 Hartrees.
 NAtoms=  138 NActive=  138 NUniq=  138 SFac= 1.00D+00 NAtFMM=   60 NAOKFM=T Big=T
 Integral buffers will be    131072 words long.
 Regular integral format.
 Two-electron integral symmetry is turned on.
 One-electron integrals computed using PRISM.
 NBasis=  1266 RedAO= T EigKep=  3.18D-04  NBF=  1266
 NBsUse=  1266 1.00D-06 EigRej= -1.00D+00 NBFU=  1266
 ExpMin= 1.22D-01 ExpMax= 2.27D+03 ExpMxC= 3.41D+02 IAcc=3 IRadAn=         5 AccDes= 0.00D+00
 Harris functional with IExCor=  402 and IRadAn=       5 diagonalized for initial guess.
 HarFok:  IExCor=  402 AccDes= 0.00D+00 IRadAn=         5 IDoV= 1 UseB2=F ITyADJ=14
 ICtDFT=  3500011 ScaDFX=  1.000000  1.000000  1.000000  1.000000
 FoFCou: FMM=F IPFlag=           0 FMFlag=      100000 FMFlg1=        2001
         NFxFlg=           0 DoJE=T BraDBF=F KetDBF=T FulRan=T
         wScrn=  0.000000 ICntrl=       500 IOpCl=  0 I1Cent=   200000004 NGrid=           0
         NMat0=    1 NMatS0=      1 NMatT0=    0 NMatD0=    1 NMtDS0=    0 NMtDT0=    0
 Petite list used in FoFCou.
 Requested convergence on RMS density matrix=1.00D-08 within 128 cycles.
 Requested convergence on MAX density matrix=1.00D-06.
 Requested convergence on             energy=1.00D-06.
 No special actions if energy rises.
 Integral accuracy reduced to 1.0D-05 until final iterations.
 Initial convergence to 1.0D-05 achieved.  Increase integral accuracy.
 SCF Done:  E(RB3LYP) =  -2732.97539304     A.U. after   17 cycles
            NFock= 17  Conv=0.38D-08     -V/T= 2.0112
 DoSCS=F DFT=T ScalE2(SS,OS)=  1.000000  1.000000
 ExpMin= 1.22D-01 ExpMax= 2.27D+03 ExpMxC= 3.41D+02 IAcc=3 IRadAn=         5 AccDes= 0.00D+00
 HarFok:  IExCor=  205 AccDes= 0.00D+00 IRadAn=         5 IDoV=-2 UseB2=F ITyADJ=14
 ICtDFT= 12500011 ScaDFX=  1.000000  1.000000  1.000000  1.000000
 GSVD:  LWork=       -4608 too small for GESVD, short by       21440 words or       21440 for optimal perf.
 Range of M.O.s used for correlation:    65  1266
 NBasis=  1266 NAE=   236 NBE=   236 NFC=    64 NFV=     0
 NROrb=   1202 NOA=   172 NOB=   172 NVA=  1030 NVB=  1030

 **** Warning!!: The smallest alpha delta epsilon is  0.83840674D-01

 Orbital symmetries:
       Occupied  (A) (A) (A) (A) (A) (A) (A) (A) (A) (A) (A) (A)
                 (A) (A) (A) (A) (A) (A) (A) (A) (A) (A) (A) (A)
                 (A) (A) (A) (A) (A) (A) (A) (A) (A) (A) (A) (A)
                 (A) (A) (A) (A) (A) (A) (A) (A) (A) (A) (A) (A)
                 (A) (A) (A) (A) (A) (A) (A) (A) (A) (A) (A) (A)
                 (A) (A) (A) (A) (A) (A) (A) (A) (A) (A) (A) (A)
                 (A) (A) (A) (A) (A) (A) (A) (A) (A) (A) (A) (A)
                 (A) (A) (A) (A) (A) (A) (A) (A) (A) (A) (A) (A)
                 (A) (A) (A) (A) (A) (A) (A) (A) (A) (A) (A) (A)
                 (A) (A) (A) (A) (A) (A) (A) (A) (A) (A) (A) (A)
                 (A) (A) (A) (A) (A) (A) (A) (A) (A) (A) (A) (A)
                 (A) (A) (A) (A) (A) (A) (A) (A) (A) (A) (A) (A)
                 (A) (A) (A) (A) (A) (A) (A) (A) (A) (A) (A) (A)
                 (A) (A) (A) (A) (A) (A) (A) (A) (A) (A) (A) (A)
                 (A) (A) (A) (A) (A) (A) (A) (A) (A) (A) (A) (A)
                 (A) (A) (A) (A) (A) (A) (A) (A) (A) (A) (A) (A)
                 (A) (A) (A) (A) (A) (A) (A) (A) (A) (A) (A) (A)
                 (A) (A) (A) (A) (A) (A) (A) (A) (A) (A) (A) (A)
                 (A) (A) (A) (A) (A) (A) (A) (A) (A) (A) (A) (A)
                 (A) (A) (A) (A) (A) (A) (A) (A)
       Virtual   (A) (A) (A) (A) (A) (A) (A) (A) (A) (A) (A) (A)
                 (A) (A) (A) (A) (A) (A) (A) (A) (A) (A) (A) (A)
                 (A) (A) (A) (A) (A) (A) (A) (A) (A) (A) (A) (A)
                 (A) (A) (A) (A) (A) (A) (A) (A) (A) (A) (A) (A)
                 (A) (A) (A) (A) (A) (A) (A) (A) (A) (A) (A) (A)
                 (A) (A) (A) (A) (A) (A) (A) (A) (A) (A) (A) (A)
                 (A) (A) (A) (A) (A) (A) (A) (A) (A) (A) (A) (A)
                 (A) (A) (A) (A) (A) (A) (A) (A) (A) (A) (A) (A)
                 (A) (A) (A) (A) (A) (A) (A) (A) (A) (A) (A) (A)
                 (A) (A) (A) (A) (A) (A) (A) (A) (A) (A) (A) (A)
                 (A) (A) (A) (A) (A) (A) (A) (A) (A) (A) (A) (A)
                 (A) (A) (A) (A) (A) (A) (A) (A) (A) (A) (A) (A)
                 (A) (A) (A) (A) (A) (A) (A) (A) (A) (A) (A) (A)
                 (A) (A) (A) (A) (A) (A) (A) (A) (A) (A) (A) (A)
                 (A) (A) (A) (A) (A) (A) (A) (A) (A) (A) (A) (A)
                 (A) (A) (A) (A) (A) (A) (A) (A) (A) (A) (A) (A)
                 (A) (A) (A) (A) (A) (A) (A) (A) (A) (A) (A) (A)
                 (A) (A) (A) (A) (A) (A) (A) (A) (A) (A) (A) (A)
                 (A) (A) (A) (A) (A) (A) (A) (A) (A) (A) (A) (A)
                 (A) (A) (A) (A) (A) (A) (A) (A) (A) (A) (A) (A)
                 (A) (A) (A) (A) (A) (A) (A) (A) (A) (A) (A) (A)
                 (A) (A) (A) (A) (A) (A) (A) (A) (A) (A) (A) (A)
                 (A) (A) (A) (A) (A) (A) (A) (A) (A) (A) (A) (A)
                 (A) (A) (A) (A) (A) (A) (A) (A) (A) (A) (A) (A)
                 (A) (A) (A) (A) (A) (A) (A) (A) (A) (A) (A) (A)
                 (A) (A) (A) (A) (A) (A) (A) (A) (A) (A) (A) (A)
                 (A) (A) (A) (A) (A) (A) (A) (A) (A) (A) (A) (A)
                 (A) (A) (A) (A) (A) (A) (A) (A) (A) (A) (A) (A)
                 (A) (A) (A) (A) (A) (A) (A) (A) (A) (A) (A) (A)
                 (A) (A) (A) (A) (A) (A) (A) (A) (A) (A) (A) (A)
                 (A) (A) (A) (A) (A) (A) (A) (A) (A) (A) (A) (A)
                 (A) (A) (A) (A) (A) (A) (A) (A) (A) (A) (A) (A)
                 (A) (A) (A) (A) (A) (A) (A) (A) (A) (A) (A) (A)
                 (A) (A) (A) (A) (A) (A) (A) (A) (A) (A) (A) (A)
                 (A) (A) (A) (A) (A) (A) (A) (A) (A) (A) (A) (A)
                 (A) (A) (A) (A) (A) (A) (A) (A) (A) (A) (A) (A)
                 (A) (A) (A) (A) (A) (A) (A) (A) (A) (A) (A) (A)
                 (A) (A) (A) (A) (A) (A) (A) (A) (A) (A) (A) (A)
                 (A) (A) (A) (A) (A) (A) (A) (A) (A) (A) (A) (A)
                 (A) (A) (A) (A) (A) (A) (A) (A) (A) (A) (A) (A)
                 (A) (A) (A) (A) (A) (A) (A) (A) (A) (A) (A) (A)
                 (A) (A) (A) (A) (A) (A) (A) (A) (A) (A) (A) (A)
                 (A) (A) (A) (A) (A) (A) (A) (A) (A) (A) (A) (A)
                 (A) (A) (A) (A) (A) (A) (A) (A) (A) (A) (A) (A)
                 (A) (A) (A) (A) (A) (A) (A) (A) (A) (A) (A) (A)
                 (A) (A) (A) (A) (A) (A) (A) (A) (A) (A) (A) (A)
                 (A) (A) (A) (A) (A) (A) (A) (A) (A) (A) (A) (A)
                 (A) (A) (A) (A) (A) (A) (A) (A) (A) (A) (A) (A)
                 (A) (A) (A) (A) (A) (A) (A) (A) (A) (A) (A) (A)
                 (A) (A) (A) (A) (A) (A) (A) (A) (A) (A) (A) (A)
                 (A) (A) (A) (A) (A) (A) (A) (A) (A) (A) (A) (A)
                 (A) (A) (A) (A) (A) (A) (A) (A) (A) (A) (A) (A)
                 (A) (A) (A) (A) (A) (A) (A) (A) (A) (A) (A) (A)
                 (A) (A) (A) (A) (A) (A) (A) (A) (A) (A) (A) (A)
                 (A) (A) (A) (A) (A) (A) (A) (A) (A) (A) (A) (A)
                 (A) (A) (A) (A) (A) (A) (A) (A) (A) (A) (A) (A)
                 (A) (A) (A) (A) (A) (A) (A) (A) (A) (A) (A) (A)
                 (A) (A) (A) (A) (A) (A) (A) (A) (A) (A) (A) (A)
                 (A) (A) (A) (A) (A) (A) (A) (A) (A) (A) (A) (A)
                 (A) (A) (A) (A) (A) (A) (A) (A) (A) (A) (A) (A)
                 (A) (A) (A) (A) (A) (A) (A) (A) (A) (A) (A) (A)
                 (A) (A) (A) (A) (A) (A) (A) (A) (A) (A) (A) (A)
                 (A) (A) (A) (A) (A) (A) (A) (A) (A) (A) (A) (A)
                 (A) (A) (A) (A) (A) (A) (A) (A) (A) (A) (A) (A)
                 (A) (A) (A) (A) (A) (A) (A) (A) (A) (A) (A) (A)
                 (A) (A) (A) (A) (A) (A) (A) (A) (A) (A) (A) (A)
                 (A) (A) (A) (A) (A) (A) (A) (A) (A) (A) (A) (A)
                 (A) (A) (A) (A) (A) (A) (A) (A) (A) (A) (A) (A)
                 (A) (A) (A) (A) (A) (A) (A) (A) (A) (A) (A) (A)
                 (A) (A) (A) (A) (A) (A) (A) (A) (A) (A) (A) (A)
                 (A) (A) (A) (A) (A) (A) (A) (A) (A) (A) (A) (A)
                 (A) (A) (A) (A) (A) (A) (A) (A) (A) (A) (A) (A)
                 (A) (A) (A) (A) (A) (A) (A) (A) (A) (A) (A) (A)
                 (A) (A) (A) (A) (A) (A) (A) (A) (A) (A) (A) (A)
                 (A) (A) (A) (A) (A) (A) (A) (A) (A) (A) (A) (A)
                 (A) (A) (A) (A) (A) (A) (A) (A) (A) (A) (A) (A)
                 (A) (A) (A) (A) (A) (A) (A) (A) (A) (A) (A) (A)
                 (A) (A) (A) (A) (A) (A) (A) (A) (A) (A) (A) (A)
                 (A) (A) (A) (A) (A) (A) (A) (A) (A) (A) (A) (A)
                 (A) (A) (A) (A) (A) (A) (A) (A) (A) (A) (A) (A)
                 (A) (A) (A) (A) (A) (A) (A) (A) (A) (A) (A) (A)
                 (A) (A) (A) (A) (A) (A) (A) (A) (A) (A) (A) (A)
                 (A) (A) (A) (A) (A) (A) (A) (A) (A) (A) (A) (A)
                 (A) (A) (A) (A) (A) (A) (A) (A) (A) (A) (A) (A)
                 (A) (A) (A) (A) (A) (A) (A) (A) (A) (A) (A) (A)
                 (A) (A) (A) (A) (A) (A) (A) (A) (A) (A)
     4 initial guesses have been made.
 Convergence on wavefunction:    0.001000000000000
 Iteration     1 Dimension     4 NMult     0 NNew      4
 CISAX will form     4 AO SS matrices at one time.
 Iteration     2 Dimension     6 NMult     4 NNew      2
 Iteration     3 Dimension     8 NMult     6 NNew      2
 Iteration     4 Dimension    10 NMult     8 NNew      2
 Iteration     5 Dimension    12 NMult    10 NNew      2
 Iteration     6 Dimension    14 NMult    12 NNew      2
 Iteration     7 Dimension    16 NMult    14 NNew      2
 Iteration     8 Dimension    18 NMult    16 NNew      2
 ***********************************************************************
 Excited states from <AA,BB:AA,BB> singles matrix:
 ***********************************************************************
 
 Ground to excited state transition densities written to RWF  633
 Ground to excited state transition electric dipole moments (Au):
       state          X           Y           Z        Dip. S.      Osc.
         1        -0.1524     -1.7430     -0.2619      3.1299      0.1504
 Ground to excited state transition velocity dipole moments (Au):
       state          X           Y           Z        Dip. S.      Osc.
         1         0.0107      0.1225      0.0191      0.0155      0.1431
 Ground to excited state transition magnetic dipole moments (Au):
       state          X           Y           Z
         1         0.3347      0.4022     -2.6315
 Ground to excited state transition velocity quadrupole moments (Au):
       state          XX          YY          ZZ          XY          XZ          YZ
         1        -0.3194      0.2015      0.0269     -1.5521     -0.2272      0.0604
 <0|del|b> * <b|rxdel|0> + <0|del|b> * <b|delr+rdel|0>
 Rotatory Strengths (R) in cgs (10**-40 erg-esu-cm/Gauss)
       state          XX          YY          ZZ    R(velocity)    E-M Angle
         1       -14.1227    -80.4691    119.4625      8.2903       89.56
 1/2[<0|r|b>*<b|rxdel|0> + (<0|rxdel|b>*<b|r|0>)*]
 Rotatory Strengths (R) in cgs (10**-40 erg-esu-cm/Gauss)
       state          XX          YY          ZZ     R(length)
         1        36.0663    495.7370   -487.3991     14.8014
  1/2[<0|del|b>*<b|r|0> + (<0|r|b>*<b|del|0>)*] (Au)
       state          X           Y           Z        Dip. S.   Osc.(frdel)
         1        -0.0016     -0.2135     -0.0050      0.2201      0.1467

 Excitation energies and oscillator strengths:
 
 Excited State   1:      Singlet-A      1.9618 eV  632.00 nm  f=0.1504  <S**2>=0.000
     235 -> 238        0.31542
     236 -> 237        0.62156
 This state for optimization and/or second-order correction.
 Total Energy, E(TD-HF/TD-DFT) =  -2732.90329937    
 Copying the excited state density for this state as the 1-particle RhoCI density.
 SavETr:  write IOETrn=   770 NScale= 10 NData=  16 NLR=1 NState=    1 LETran=      28.
 Hyperfine terms turned off by default for NAtoms > 100.

 **********************************************************************

            Population analysis using the SCF density.

 **********************************************************************

 Orbital symmetries:
       Occupied  (A) (A) (A) (A) (A) (A) (A) (A) (A) (A) (A) (A)
                 (A) (A) (A) (A) (A) (A) (A) (A) (A) (A) (A) (A)
                 (A) (A) (A) (A) (A) (A) (A) (A) (A) (A) (A) (A)
                 (A) (A) (A) (A) (A) (A) (A) (A) (A) (A) (A) (A)
                 (A) (A) (A) (A) (A) (A) (A) (A) (A) (A) (A) (A)
                 (A) (A) (A) (A) (A) (A) (A) (A) (A) (A) (A) (A)
                 (A) (A) (A) (A) (A) (A) (A) (A) (A) (A) (A) (A)
                 (A) (A) (A) (A) (A) (A) (A) (A) (A) (A) (A) (A)
                 (A) (A) (A) (A) (A) (A) (A) (A) (A) (A) (A) (A)
                 (A) (A) (A) (A) (A) (A) (A) (A) (A) (A) (A) (A)
                 (A) (A) (A) (A) (A) (A) (A) (A) (A) (A) (A) (A)
                 (A) (A) (A) (A) (A) (A) (A) (A) (A) (A) (A) (A)
                 (A) (A) (A) (A) (A) (A) (A) (A) (A) (A) (A) (A)
                 (A) (A) (A) (A) (A) (A) (A) (A) (A) (A) (A) (A)
                 (A) (A) (A) (A) (A) (A) (A) (A) (A) (A) (A) (A)
                 (A) (A) (A) (A) (A) (A) (A) (A) (A) (A) (A) (A)
                 (A) (A) (A) (A) (A) (A) (A) (A) (A) (A) (A) (A)
                 (A) (A) (A) (A) (A) (A) (A) (A) (A) (A) (A) (A)
                 (A) (A) (A) (A) (A) (A) (A) (A) (A) (A) (A) (A)
                 (A) (A) (A) (A) (A) (A) (A) (A)
       Virtual   (A) (A) (A) (A) (A) (A) (A) (A) (A) (A) (A) (A)
                 (A) (A) (A) (A) (A) (A) (A) (A) (A) (A) (A) (A)
                 (A) (A) (A) (A) (A) (A) (A) (A) (A) (A) (A) (A)
                 (A) (A) (A) (A) (A) (A) (A) (A) (A) (A) (A) (A)
                 (A) (A) (A) (A) (A) (A) (A) (A) (A) (A) (A) (A)
                 (A) (A) (A) (A) (A) (A) (A) (A) (A) (A) (A) (A)
                 (A) (A) (A) (A) (A) (A) (A) (A) (A) (A) (A) (A)
                 (A) (A) (A) (A) (A) (A) (A) (A) (A) (A) (A) (A)
                 (A) (A) (A) (A) (A) (A) (A) (A) (A) (A) (A) (A)
                 (A) (A) (A) (A) (A) (A) (A) (A) (A) (A) (A) (A)
                 (A) (A) (A) (A) (A) (A) (A) (A) (A) (A) (A) (A)
                 (A) (A) (A) (A) (A) (A) (A) (A) (A) (A) (A) (A)
                 (A) (A) (A) (A) (A) (A) (A) (A) (A) (A) (A) (A)
                 (A) (A) (A) (A) (A) (A) (A) (A) (A) (A) (A) (A)
                 (A) (A) (A) (A) (A) (A) (A) (A) (A) (A) (A) (A)
                 (A) (A) (A) (A) (A) (A) (A) (A) (A) (A) (A) (A)
                 (A) (A) (A) (A) (A) (A) (A) (A) (A) (A) (A) (A)
                 (A) (A) (A) (A) (A) (A) (A) (A) (A) (A) (A) (A)
                 (A) (A) (A) (A) (A) (A) (A) (A) (A) (A) (A) (A)
                 (A) (A) (A) (A) (A) (A) (A) (A) (A) (A) (A) (A)
                 (A) (A) (A) (A) (A) (A) (A) (A) (A) (A) (A) (A)
                 (A) (A) (A) (A) (A) (A) (A) (A) (A) (A) (A) (A)
                 (A) (A) (A) (A) (A) (A) (A) (A) (A) (A) (A) (A)
                 (A) (A) (A) (A) (A) (A) (A) (A) (A) (A) (A) (A)
                 (A) (A) (A) (A) (A) (A) (A) (A) (A) (A) (A) (A)
                 (A) (A) (A) (A) (A) (A) (A) (A) (A) (A) (A) (A)
                 (A) (A) (A) (A) (A) (A) (A) (A) (A) (A) (A) (A)
                 (A) (A) (A) (A) (A) (A) (A) (A) (A) (A) (A) (A)
                 (A) (A) (A) (A) (A) (A) (A) (A) (A) (A) (A) (A)
                 (A) (A) (A) (A) (A) (A) (A) (A) (A) (A) (A) (A)
                 (A) (A) (A) (A) (A) (A) (A) (A) (A) (A) (A) (A)
                 (A) (A) (A) (A) (A) (A) (A) (A) (A) (A) (A) (A)
                 (A) (A) (A) (A) (A) (A) (A) (A) (A) (A) (A) (A)
                 (A) (A) (A) (A) (A) (A) (A) (A) (A) (A) (A) (A)
                 (A) (A) (A) (A) (A) (A) (A) (A) (A) (A) (A) (A)
                 (A) (A) (A) (A) (A) (A) (A) (A) (A) (A) (A) (A)
                 (A) (A) (A) (A) (A) (A) (A) (A) (A) (A) (A) (A)
                 (A) (A) (A) (A) (A) (A) (A) (A) (A) (A) (A) (A)
                 (A) (A) (A) (A) (A) (A) (A) (A) (A) (A) (A) (A)
                 (A) (A) (A) (A) (A) (A) (A) (A) (A) (A) (A) (A)
                 (A) (A) (A) (A) (A) (A) (A) (A) (A) (A) (A) (A)
                 (A) (A) (A) (A) (A) (A) (A) (A) (A) (A) (A) (A)
                 (A) (A) (A) (A) (A) (A) (A) (A) (A) (A) (A) (A)
                 (A) (A) (A) (A) (A) (A) (A) (A) (A) (A) (A) (A)
                 (A) (A) (A) (A) (A) (A) (A) (A) (A) (A) (A) (A)
                 (A) (A) (A) (A) (A) (A) (A) (A) (A) (A) (A) (A)
                 (A) (A) (A) (A) (A) (A) (A) (A) (A) (A) (A) (A)
                 (A) (A) (A) (A) (A) (A) (A) (A) (A) (A) (A) (A)
                 (A) (A) (A) (A) (A) (A) (A) (A) (A) (A) (A) (A)
                 (A) (A) (A) (A) (A) (A) (A) (A) (A) (A) (A) (A)
                 (A) (A) (A) (A) (A) (A) (A) (A) (A) (A) (A) (A)
                 (A) (A) (A) (A) (A) (A) (A) (A) (A) (A) (A) (A)
                 (A) (A) (A) (A) (A) (A) (A) (A) (A) (A) (A) (A)
                 (A) (A) (A) (A) (A) (A) (A) (A) (A) (A) (A) (A)
                 (A) (A) (A) (A) (A) (A) (A) (A) (A) (A) (A) (A)
                 (A) (A) (A) (A) (A) (A) (A) (A) (A) (A) (A) (A)
                 (A) (A) (A) (A) (A) (A) (A) (A) (A) (A) (A) (A)
                 (A) (A) (A) (A) (A) (A) (A) (A) (A) (A) (A) (A)
                 (A) (A) (A) (A) (A) (A) (A) (A) (A) (A) (A) (A)
                 (A) (A) (A) (A) (A) (A) (A) (A) (A) (A) (A) (A)
                 (A) (A) (A) (A) (A) (A) (A) (A) (A) (A) (A) (A)
                 (A) (A) (A) (A) (A) (A) (A) (A) (A) (A) (A) (A)
                 (A) (A) (A) (A) (A) (A) (A) (A) (A) (A) (A) (A)
                 (A) (A) (A) (A) (A) (A) (A) (A) (A) (A) (A) (A)
                 (A) (A) (A) (A) (A) (A) (A) (A) (A) (A) (A) (A)
                 (A) (A) (A) (A) (A) (A) (A) (A) (A) (A) (A) (A)
                 (A) (A) (A) (A) (A) (A) (A) (A) (A) (A) (A) (A)
                 (A) (A) (A) (A) (A) (A) (A) (A) (A) (A) (A) (A)
                 (A) (A) (A) (A) (A) (A) (A) (A) (A) (A) (A) (A)
                 (A) (A) (A) (A) (A) (A) (A) (A) (A) (A) (A) (A)
                 (A) (A) (A) (A) (A) (A) (A) (A) (A) (A) (A) (A)
                 (A) (A) (A) (A) (A) (A) (A) (A) (A) (A) (A) (A)
                 (A) (A) (A) (A) (A) (A) (A) (A) (A) (A) (A) (A)
                 (A) (A) (A) (A) (A) (A) (A) (A) (A) (A) (A) (A)
                 (A) (A) (A) (A) (A) (A) (A) (A) (A) (A) (A) (A)
                 (A) (A) (A) (A) (A) (A) (A) (A) (A) (A) (A) (A)
                 (A) (A) (A) (A) (A) (A) (A) (A) (A) (A) (A) (A)
                 (A) (A) (A) (A) (A) (A) (A) (A) (A) (A) (A) (A)
                 (A) (A) (A) (A) (A) (A) (A) (A) (A) (A) (A) (A)
                 (A) (A) (A) (A) (A) (A) (A) (A) (A) (A) (A) (A)
                 (A) (A) (A) (A) (A) (A) (A) (A) (A) (A) (A) (A)
                 (A) (A) (A) (A) (A) (A) (A) (A) (A) (A) (A) (A)
                 (A) (A) (A) (A) (A) (A) (A) (A) (A) (A) (A) (A)
                 (A) (A) (A) (A) (A) (A) (A) (A) (A) (A) (A) (A)
                 (A) (A) (A) (A) (A) (A) (A) (A) (A) (A) (A) (A)
                 (A) (A) (A) (A) (A) (A) (A) (A) (A) (A)
 The electronic state is 1-A.
 Alpha  occ. eigenvalues --  -19.18576 -19.18420 -19.12649 -19.12422 -19.10937
 Alpha  occ. eigenvalues --  -14.37196 -14.36742 -14.32105 -14.30062 -10.31585
 Alpha  occ. eigenvalues --  -10.31434 -10.28926 -10.24181 -10.24102 -10.23846
 Alpha  occ. eigenvalues --  -10.23669 -10.23613 -10.23435 -10.23280 -10.22956
 Alpha  occ. eigenvalues --  -10.21923 -10.21886 -10.21746 -10.21390 -10.21346
 Alpha  occ. eigenvalues --  -10.20875 -10.20780 -10.20764 -10.20647 -10.20487
 Alpha  occ. eigenvalues --  -10.20437 -10.20392 -10.20263 -10.20258 -10.20205
 Alpha  occ. eigenvalues --  -10.20191 -10.20169 -10.20136 -10.20078 -10.19909
 Alpha  occ. eigenvalues --  -10.19785 -10.19766 -10.19641 -10.19518 -10.19438
 Alpha  occ. eigenvalues --  -10.19420 -10.19251 -10.19129 -10.19099 -10.19082
 Alpha  occ. eigenvalues --  -10.18993 -10.18985 -10.18903 -10.18837 -10.18721
 Alpha  occ. eigenvalues --  -10.18555 -10.18538 -10.18220 -10.18075 -10.17880
 Alpha  occ. eigenvalues --  -10.17703 -10.17606 -10.16831 -10.16126  -1.11132
 Alpha  occ. eigenvalues --   -1.09722  -1.00879  -1.00701  -0.98490  -0.97552
 Alpha  occ. eigenvalues --   -0.97207  -0.96940  -0.94626  -0.85273  -0.83364
 Alpha  occ. eigenvalues --   -0.82964  -0.82212  -0.81266  -0.81067  -0.80789
 Alpha  occ. eigenvalues --   -0.80416  -0.80173  -0.79687  -0.78298  -0.78114
 Alpha  occ. eigenvalues --   -0.77471  -0.76621  -0.76158  -0.75751  -0.75075
 Alpha  occ. eigenvalues --   -0.74439  -0.73238  -0.73023  -0.72077  -0.71649
 Alpha  occ. eigenvalues --   -0.70143  -0.69980  -0.68918  -0.68396  -0.67687
 Alpha  occ. eigenvalues --   -0.67417  -0.67383  -0.66601  -0.65922  -0.65799
 Alpha  occ. eigenvalues --   -0.64248  -0.63470  -0.63262  -0.62854  -0.61615
 Alpha  occ. eigenvalues --   -0.61377  -0.58962  -0.58820  -0.57936  -0.57437
 Alpha  occ. eigenvalues --   -0.57249  -0.56919  -0.56550  -0.56431  -0.56060
 Alpha  occ. eigenvalues --   -0.55598  -0.55538  -0.54943  -0.54227  -0.54152
 Alpha  occ. eigenvalues --   -0.52825  -0.52457  -0.52050  -0.51739  -0.50662
 Alpha  occ. eigenvalues --   -0.50504  -0.49966  -0.49159  -0.48999  -0.48893
 Alpha  occ. eigenvalues --   -0.48415  -0.48135  -0.47777  -0.47446  -0.47335
 Alpha  occ. eigenvalues --   -0.47025  -0.46481  -0.46419  -0.46182  -0.45961
 Alpha  occ. eigenvalues --   -0.45614  -0.45414  -0.45281  -0.45083  -0.44901
 Alpha  occ. eigenvalues --   -0.44767  -0.44588  -0.44377  -0.43731  -0.43552
 Alpha  occ. eigenvalues --   -0.43305  -0.43229  -0.43116  -0.42889  -0.42500
 Alpha  occ. eigenvalues --   -0.42291  -0.42264  -0.42090  -0.41989  -0.41670
 Alpha  occ. eigenvalues --   -0.41525  -0.41156  -0.40924  -0.40740  -0.40461
 Alpha  occ. eigenvalues --   -0.40368  -0.40311  -0.40107  -0.39864  -0.39632
 Alpha  occ. eigenvalues --   -0.39344  -0.39221  -0.39048  -0.39042  -0.38091
 Alpha  occ. eigenvalues --   -0.38025  -0.37875  -0.37597  -0.37545  -0.37423
 Alpha  occ. eigenvalues --   -0.37258  -0.37129  -0.36956  -0.36828  -0.36610
 Alpha  occ. eigenvalues --   -0.36502  -0.36294  -0.36054  -0.35876  -0.35844
 Alpha  occ. eigenvalues --   -0.35605  -0.35209  -0.34988  -0.34879  -0.34723
 Alpha  occ. eigenvalues --   -0.34622  -0.34239  -0.34104  -0.33928  -0.33805
 Alpha  occ. eigenvalues --   -0.33680  -0.32948  -0.32814  -0.32312  -0.32242
 Alpha  occ. eigenvalues --   -0.31860  -0.31734  -0.31674  -0.31514  -0.31325
 Alpha  occ. eigenvalues --   -0.31014  -0.30849  -0.30309  -0.30013  -0.29804
 Alpha  occ. eigenvalues --   -0.29109  -0.28675  -0.28388  -0.28119  -0.28074
 Alpha  occ. eigenvalues --   -0.27280  -0.26979  -0.26606  -0.26467  -0.25358
 Alpha  occ. eigenvalues --   -0.24960  -0.24762  -0.24302  -0.22669  -0.19939
 Alpha  occ. eigenvalues --   -0.18445
 Alpha virt. eigenvalues --   -0.10061  -0.08439  -0.05083  -0.01581  -0.01194
 Alpha virt. eigenvalues --   -0.01028   0.00214   0.00382   0.02294   0.03685
 Alpha virt. eigenvalues --    0.04270   0.04295   0.04595   0.04750   0.05212
 Alpha virt. eigenvalues --    0.05385   0.05562   0.05737   0.05967   0.06427
 Alpha virt. eigenvalues --    0.06436   0.06843   0.06989   0.07111   0.07311
 Alpha virt. eigenvalues --    0.07526   0.07675   0.07847   0.07961   0.08017
 Alpha virt. eigenvalues --    0.08066   0.08342   0.08564   0.08718   0.08952
 Alpha virt. eigenvalues --    0.09293   0.09457   0.09577   0.09726   0.09779
 Alpha virt. eigenvalues --    0.09925   0.10127   0.10208   0.10470   0.10661
 Alpha virt. eigenvalues --    0.10733   0.10801   0.10970   0.11100   0.11390
 Alpha virt. eigenvalues --    0.11888   0.11948   0.12094   0.12113   0.12389
 Alpha virt. eigenvalues --    0.12534   0.12656   0.13139   0.13251   0.13350
 Alpha virt. eigenvalues --    0.13555   0.13708   0.13786   0.13968   0.14184
 Alpha virt. eigenvalues --    0.14223   0.14381   0.14431   0.14799   0.14860
 Alpha virt. eigenvalues --    0.14991   0.15293   0.15441   0.15723   0.15784
 Alpha virt. eigenvalues --    0.15850   0.15938   0.16422   0.16445   0.16818
 Alpha virt. eigenvalues --    0.17045   0.17239   0.17286   0.17586   0.17726
 Alpha virt. eigenvalues --    0.18022   0.18302   0.18476   0.18779   0.18884
 Alpha virt. eigenvalues --    0.19064   0.19165   0.19764   0.19808   0.20122
 Alpha virt. eigenvalues --    0.20172   0.20730   0.21094   0.21423   0.21502
 Alpha virt. eigenvalues --    0.21633   0.21731   0.22193   0.22368   0.22623
 Alpha virt. eigenvalues --    0.22774   0.22808   0.23271   0.23618   0.23812
 Alpha virt. eigenvalues --    0.24010   0.24229   0.24487   0.24628   0.24948
 Alpha virt. eigenvalues --    0.25297   0.25514   0.25678   0.26004   0.26146
 Alpha virt. eigenvalues --    0.26281   0.26450   0.26643   0.27194   0.27591
 Alpha virt. eigenvalues --    0.27633   0.27721   0.29059   0.29288   0.29658
 Alpha virt. eigenvalues --    0.29934   0.30116   0.30436   0.30875   0.31617
 Alpha virt. eigenvalues --    0.31974   0.32510   0.32594   0.32924   0.33185
 Alpha virt. eigenvalues --    0.33262   0.33647   0.34266   0.34601   0.34985
 Alpha virt. eigenvalues --    0.35109   0.35733   0.35832   0.36479   0.36655
 Alpha virt. eigenvalues --    0.36885   0.37288   0.37534   0.37880   0.38308
 Alpha virt. eigenvalues --    0.38861   0.38983   0.39120   0.39562   0.39795
 Alpha virt. eigenvalues --    0.40099   0.40589   0.40692   0.40716   0.40968
 Alpha virt. eigenvalues --    0.41538   0.41800   0.41933   0.42055   0.42137
 Alpha virt. eigenvalues --    0.42362   0.42504   0.42652   0.42790   0.42990
 Alpha virt. eigenvalues --    0.43066   0.43351   0.43456   0.43717   0.43893
 Alpha virt. eigenvalues --    0.44078   0.44423   0.44830   0.44914   0.45315
 Alpha virt. eigenvalues --    0.45349   0.45893   0.46281   0.46369   0.46504
 Alpha virt. eigenvalues --    0.46946   0.47284   0.47372   0.47498   0.47856
 Alpha virt. eigenvalues --    0.47983   0.48208   0.48485   0.48521   0.48722
 Alpha virt. eigenvalues --    0.48934   0.49009   0.49071   0.49566   0.50165
 Alpha virt. eigenvalues --    0.50233   0.50407   0.50655   0.50935   0.51772
 Alpha virt. eigenvalues --    0.51892   0.52082   0.52307   0.52904   0.53084
 Alpha virt. eigenvalues --    0.53490   0.53510   0.53661   0.53983   0.54187
 Alpha virt. eigenvalues --    0.54336   0.55070   0.55265   0.55398   0.55644
 Alpha virt. eigenvalues --    0.55842   0.55998   0.56274   0.56512   0.56566
 Alpha virt. eigenvalues --    0.56844   0.57367   0.57419   0.57631   0.57696
 Alpha virt. eigenvalues --    0.57804   0.58296   0.58409   0.58685   0.58802
 Alpha virt. eigenvalues --    0.59063   0.59255   0.59267   0.59430   0.59618
 Alpha virt. eigenvalues --    0.59778   0.60019   0.60267   0.60359   0.60619
 Alpha virt. eigenvalues --    0.60755   0.60852   0.61076   0.61184   0.61278
 Alpha virt. eigenvalues --    0.61433   0.61708   0.61839   0.61969   0.62139
 Alpha virt. eigenvalues --    0.62223   0.62345   0.62370   0.62621   0.62887
 Alpha virt. eigenvalues --    0.63031   0.63136   0.63223   0.63340   0.63451
 Alpha virt. eigenvalues --    0.63576   0.63644   0.63833   0.63908   0.64230
 Alpha virt. eigenvalues --    0.64503   0.64571   0.64595   0.64927   0.65021
 Alpha virt. eigenvalues --    0.65084   0.65178   0.65304   0.65435   0.65611
 Alpha virt. eigenvalues --    0.65736   0.65937   0.66096   0.66147   0.66200
 Alpha virt. eigenvalues --    0.66306   0.66445   0.66612   0.66864   0.66975
 Alpha virt. eigenvalues --    0.67210   0.67217   0.67350   0.67483   0.67544
 Alpha virt. eigenvalues --    0.67774   0.67836   0.67942   0.68078   0.68196
 Alpha virt. eigenvalues --    0.68312   0.68363   0.68428   0.68571   0.68831
 Alpha virt. eigenvalues --    0.68914   0.69105   0.69208   0.69296   0.69442
 Alpha virt. eigenvalues --    0.69701   0.69845   0.70087   0.70205   0.70505
 Alpha virt. eigenvalues --    0.70650   0.70831   0.71056   0.71153   0.71256
 Alpha virt. eigenvalues --    0.71327   0.71521   0.71594   0.71626   0.71777
 Alpha virt. eigenvalues --    0.71819   0.72112   0.72259   0.72519   0.72701
 Alpha virt. eigenvalues --    0.72910   0.73027   0.73207   0.73555   0.73695
 Alpha virt. eigenvalues --    0.74156   0.74434   0.74526   0.74555   0.74726
 Alpha virt. eigenvalues --    0.74900   0.75070   0.75329   0.75561   0.75715
 Alpha virt. eigenvalues --    0.75810   0.76237   0.76409   0.76491   0.76799
 Alpha virt. eigenvalues --    0.76966   0.77358   0.77651   0.77808   0.77904
 Alpha virt. eigenvalues --    0.78343   0.78717   0.78888   0.79142   0.79399
 Alpha virt. eigenvalues --    0.79758   0.79851   0.80217   0.80276   0.80645
 Alpha virt. eigenvalues --    0.80811   0.81270   0.81386   0.81676   0.82056
 Alpha virt. eigenvalues --    0.82447   0.83151   0.83593   0.83999   0.84226
 Alpha virt. eigenvalues --    0.85115   0.85385   0.85523   0.85838   0.86165
 Alpha virt. eigenvalues --    0.86772   0.87127   0.87432   0.87798   0.89133
 Alpha virt. eigenvalues --    0.89617   0.89693   0.90239   0.90439   0.90996
 Alpha virt. eigenvalues --    0.91548   0.92043   0.92403   0.92573   0.93582
 Alpha virt. eigenvalues --    0.94064   0.94464   0.94559   0.95432   0.95923
 Alpha virt. eigenvalues --    0.96022   0.96535   0.97118   0.97187   0.97471
 Alpha virt. eigenvalues --    0.98086   0.98296   0.98563   0.98949   0.99171
 Alpha virt. eigenvalues --    0.99977   1.00370   1.00783   1.01104   1.01175
 Alpha virt. eigenvalues --    1.01662   1.02291   1.03154   1.03338   1.03755
 Alpha virt. eigenvalues --    1.04078   1.04253   1.04575   1.04922   1.05416
 Alpha virt. eigenvalues --    1.05795   1.06147   1.06612   1.06726   1.07124
 Alpha virt. eigenvalues --    1.07767   1.08519   1.08975   1.09074   1.09415
 Alpha virt. eigenvalues --    1.09931   1.10635   1.10901   1.11039   1.11824
 Alpha virt. eigenvalues --    1.11940   1.12404   1.12498   1.13331   1.13662
 Alpha virt. eigenvalues --    1.13920   1.14087   1.14421   1.14975   1.15498
 Alpha virt. eigenvalues --    1.15761   1.16485   1.16939   1.16997   1.17469
 Alpha virt. eigenvalues --    1.18075   1.18351   1.19046   1.19539   1.19769
 Alpha virt. eigenvalues --    1.20031   1.20457   1.20863   1.21625   1.21844
 Alpha virt. eigenvalues --    1.22170   1.22606   1.23702   1.24279   1.24502
 Alpha virt. eigenvalues --    1.24657   1.24895   1.25297   1.25637   1.25893
 Alpha virt. eigenvalues --    1.26337   1.26767   1.27471   1.28329   1.28712
 Alpha virt. eigenvalues --    1.28860   1.29195   1.29866   1.30099   1.30647
 Alpha virt. eigenvalues --    1.30751   1.31463   1.31800   1.31947   1.32257
 Alpha virt. eigenvalues --    1.32959   1.33080   1.34070   1.34317   1.34870
 Alpha virt. eigenvalues --    1.35369   1.36119   1.36471   1.36798   1.37275
 Alpha virt. eigenvalues --    1.37712   1.37835   1.38010   1.38208   1.38953
 Alpha virt. eigenvalues --    1.39153   1.39485   1.39630   1.40245   1.40353
 Alpha virt. eigenvalues --    1.40769   1.41742   1.41847   1.42708   1.42901
 Alpha virt. eigenvalues --    1.43580   1.44010   1.44485   1.44993   1.45040
 Alpha virt. eigenvalues --    1.46021   1.46420   1.46986   1.47617   1.48075
 Alpha virt. eigenvalues --    1.48265   1.48589   1.48931   1.49019   1.49531
 Alpha virt. eigenvalues --    1.49743   1.50420   1.50607   1.50731   1.50980
 Alpha virt. eigenvalues --    1.51728   1.51902   1.52262   1.52312   1.52910
 Alpha virt. eigenvalues --    1.53218   1.53335   1.53953   1.54338   1.54680
 Alpha virt. eigenvalues --    1.54797   1.54874   1.55240   1.55477   1.56168
 Alpha virt. eigenvalues --    1.56500   1.56858   1.56969   1.57184   1.57678
 Alpha virt. eigenvalues --    1.58075   1.58418   1.58752   1.59108   1.59284
 Alpha virt. eigenvalues --    1.59787   1.61180   1.61793   1.62151   1.62385
 Alpha virt. eigenvalues --    1.62717   1.62869   1.63188   1.63390   1.63747
 Alpha virt. eigenvalues --    1.64015   1.64270   1.64794   1.65156   1.65516
 Alpha virt. eigenvalues --    1.65844   1.66262   1.66460   1.66693   1.67218
 Alpha virt. eigenvalues --    1.67406   1.67809   1.67891   1.68163   1.68319
 Alpha virt. eigenvalues --    1.68569   1.68993   1.69565   1.69599   1.69640
 Alpha virt. eigenvalues --    1.69956   1.70108   1.70907   1.71321   1.71723
 Alpha virt. eigenvalues --    1.71822   1.72085   1.72487   1.72640   1.72715
 Alpha virt. eigenvalues --    1.73021   1.73576   1.73760   1.73894   1.74060
 Alpha virt. eigenvalues --    1.74643   1.74666   1.74775   1.74952   1.75389
 Alpha virt. eigenvalues --    1.75539   1.75756   1.75958   1.76337   1.76768
 Alpha virt. eigenvalues --    1.76788   1.77008   1.77195   1.77294   1.77584
 Alpha virt. eigenvalues --    1.77645   1.78312   1.78674   1.78826   1.79114
 Alpha virt. eigenvalues --    1.79150   1.79312   1.79505   1.79570   1.79800
 Alpha virt. eigenvalues --    1.80279   1.80535   1.80650   1.80759   1.81206
 Alpha virt. eigenvalues --    1.81262   1.81416   1.81496   1.81658   1.81760
 Alpha virt. eigenvalues --    1.82001   1.82021   1.82220   1.82433   1.82746
 Alpha virt. eigenvalues --    1.82829   1.82883   1.82910   1.82940   1.83390
 Alpha virt. eigenvalues --    1.83503   1.83843   1.84116   1.84195   1.84393
 Alpha virt. eigenvalues --    1.84696   1.85049   1.85421   1.85461   1.85773
 Alpha virt. eigenvalues --    1.85803   1.86228   1.86435   1.86603   1.86805
 Alpha virt. eigenvalues --    1.87144   1.87164   1.87370   1.87778   1.87906
 Alpha virt. eigenvalues --    1.88117   1.88708   1.88788   1.88961   1.89023
 Alpha virt. eigenvalues --    1.89470   1.89622   1.90197   1.90271   1.90759
 Alpha virt. eigenvalues --    1.90809   1.90892   1.91326   1.91436   1.91790
 Alpha virt. eigenvalues --    1.92089   1.92379   1.92592   1.92717   1.92944
 Alpha virt. eigenvalues --    1.93181   1.93539   1.93872   1.93929   1.94067
 Alpha virt. eigenvalues --    1.94302   1.94512   1.94708   1.94949   1.95048
 Alpha virt. eigenvalues --    1.95290   1.95697   1.96418   1.96549   1.96848
 Alpha virt. eigenvalues --    1.97349   1.97646   1.98023   1.98331   1.98451
 Alpha virt. eigenvalues --    1.98694   1.98864   1.99156   1.99270   1.99603
 Alpha virt. eigenvalues --    1.99850   2.00018   2.00363   2.00725   2.01053
 Alpha virt. eigenvalues --    2.01200   2.01907   2.02146   2.02461   2.02775
 Alpha virt. eigenvalues --    2.02969   2.03136   2.03712   2.03804   2.04386
 Alpha virt. eigenvalues --    2.04516   2.05131   2.05529   2.05813   2.06141
 Alpha virt. eigenvalues --    2.06409   2.06586   2.07106   2.07359   2.07984
 Alpha virt. eigenvalues --    2.08289   2.08788   2.09022   2.09348   2.09730
 Alpha virt. eigenvalues --    2.09840   2.10095   2.10535   2.10889   2.11178
 Alpha virt. eigenvalues --    2.11713   2.12014   2.12131   2.12555   2.13207
 Alpha virt. eigenvalues --    2.14302   2.14331   2.14857   2.15365   2.15832
 Alpha virt. eigenvalues --    2.15904   2.16288   2.16697   2.16762   2.17052
 Alpha virt. eigenvalues --    2.17523   2.17640   2.17838   2.18806   2.19461
 Alpha virt. eigenvalues --    2.19829   2.20373   2.20650   2.20802   2.20920
 Alpha virt. eigenvalues --    2.21358   2.21547   2.21968   2.22139   2.22980
 Alpha virt. eigenvalues --    2.23571   2.23920   2.24100   2.24635   2.24678
 Alpha virt. eigenvalues --    2.25699   2.26023   2.26123   2.26309   2.26599
 Alpha virt. eigenvalues --    2.26899   2.27386   2.27891   2.28267   2.28456
 Alpha virt. eigenvalues --    2.28858   2.29418   2.29539   2.29945   2.30547
 Alpha virt. eigenvalues --    2.30563   2.31189   2.31286   2.31352   2.31689
 Alpha virt. eigenvalues --    2.32389   2.32820   2.33061   2.33463   2.34044
 Alpha virt. eigenvalues --    2.34272   2.34496   2.34760   2.34998   2.35350
 Alpha virt. eigenvalues --    2.36335   2.36802   2.37111   2.37275   2.38122
 Alpha virt. eigenvalues --    2.38439   2.38806   2.38815   2.39704   2.39773
 Alpha virt. eigenvalues --    2.39995   2.40091   2.40125   2.41047   2.41369
 Alpha virt. eigenvalues --    2.41619   2.42469   2.42583   2.42598   2.43082
 Alpha virt. eigenvalues --    2.43274   2.43529   2.43880   2.44033   2.44759
 Alpha virt. eigenvalues --    2.45589   2.46107   2.46793   2.47100   2.47689
 Alpha virt. eigenvalues --    2.48102   2.48694   2.49023   2.49425   2.49707
 Alpha virt. eigenvalues --    2.50246   2.50488   2.50805   2.51139   2.51255
 Alpha virt. eigenvalues --    2.52067   2.52375   2.53003   2.53334   2.53647
 Alpha virt. eigenvalues --    2.53807   2.54937   2.55134   2.55240   2.55333
 Alpha virt. eigenvalues --    2.55650   2.55893   2.56017   2.56281   2.56532
 Alpha virt. eigenvalues --    2.56742   2.57847   2.58175   2.58780   2.59089
 Alpha virt. eigenvalues --    2.59279   2.59883   2.60131   2.60517   2.60802
 Alpha virt. eigenvalues --    2.61346   2.61613   2.62327   2.63312   2.63625
 Alpha virt. eigenvalues --    2.64182   2.65007   2.65845   2.65903   2.66176
 Alpha virt. eigenvalues --    2.66527   2.66721   2.66742   2.67451   2.68307
 Alpha virt. eigenvalues --    2.68911   2.69223   2.69669   2.69920   2.70389
 Alpha virt. eigenvalues --    2.70748   2.71344   2.71577   2.72073   2.72303
 Alpha virt. eigenvalues --    2.72548   2.72684   2.73461   2.73669   2.74675
 Alpha virt. eigenvalues --    2.74755   2.75243   2.75409   2.75852   2.76180
 Alpha virt. eigenvalues --    2.76501   2.77202   2.77586   2.78508   2.79074
 Alpha virt. eigenvalues --    2.79780   2.80122   2.80530   2.80976   2.81517
 Alpha virt. eigenvalues --    2.81644   2.82461   2.82810   2.83511   2.83646
 Alpha virt. eigenvalues --    2.84207   2.84843   2.85350   2.85774   2.85997
 Alpha virt. eigenvalues --    2.86214   2.86625   2.86982   2.87650   2.88154
 Alpha virt. eigenvalues --    2.89014   2.89025   2.89203   2.90724   2.90986
 Alpha virt. eigenvalues --    2.91250   2.91319   2.92576   2.92666   2.93044
 Alpha virt. eigenvalues --    2.93219   2.93664   2.94188   2.94891   2.95062
 Alpha virt. eigenvalues --    2.95290   2.95419   2.95755   2.96217   2.96410
 Alpha virt. eigenvalues --    2.96740   2.97359   2.98466   2.99735   3.00072
 Alpha virt. eigenvalues --    3.00367   3.01350   3.01620   3.01758   3.02239
 Alpha virt. eigenvalues --    3.02559   3.03389   3.03769   3.05218   3.05882
 Alpha virt. eigenvalues --    3.06429   3.06795   3.06913   3.07076   3.07734
 Alpha virt. eigenvalues --    3.07990   3.08208   3.08987   3.09425   3.09661
 Alpha virt. eigenvalues --    3.09714   3.11122   3.11885   3.12968   3.13070
 Alpha virt. eigenvalues --    3.13424   3.14944   3.15714   3.15810   3.16197
 Alpha virt. eigenvalues --    3.18187   3.18498   3.18727   3.18783   3.21016
 Alpha virt. eigenvalues --    3.21429   3.23366   3.25205   3.26587   3.27302
 Alpha virt. eigenvalues --    3.32925   3.34063   3.35629   3.36100   3.36272
 Alpha virt. eigenvalues --    3.36703   3.37943   3.40268   3.41636   3.47085
 Alpha virt. eigenvalues --    3.48047   3.49896   3.51550   3.55441   3.59819
 Alpha virt. eigenvalues --    3.61120   3.61894   3.62772   3.65636   3.66937
          Condensed to atoms (all electrons):
 Mulliken charges:
               1
     1  C   -0.084662
     2  C   -0.086688
     3  C   -0.057985
     4  C   -0.140666
     5  N   -0.081528
     6  C   -0.043679
     7  C   -0.026721
     8  C   -0.055886
     9  C    0.013045
    10  C   -0.019060
    11  C    0.053008
    12  C    0.139273
    13  C    0.153310
    14  O   -0.325214
    15  O   -0.288608
    16  N   -0.067925
    17  C    0.109268
    18  C   -0.140039
    19  C    0.127620
    20  C    0.061605
    21  C    0.106371
    22  C   -0.121311
    23  C    0.017060
    24  N   -0.165104
    25  C    0.062692
    26  C   -0.202624
    27  C   -0.041019
    28  C    0.016525
    29  C    0.139469
    30  C    0.029215
    31  C    0.108818
    32  N   -0.065129
    33  C    0.102768
    34  C   -0.145906
    35  C    0.012672
    36  C    0.067261
    37  C    0.062395
    38  C    0.076725
    39  O   -0.195994
    40  C   -0.014966
    41  C    0.216720
    42  O   -0.243033
    43  O   -0.255712
    44  C    0.179443
    45  C    0.369624
    46  C   -0.126627
    47  C   -0.128995
    48  C    0.144250
    49  C   -0.005214
    50  C    0.064957
    51  C    0.001670
    52  C    0.016073
    53  C    0.050629
    54  C   -0.086217
    55  C   -0.034473
    56  C    0.202541
    57  C   -0.042682
    58  C   -0.028141
    59  C    0.052318
    60  C    0.015988
    61  C    0.025398
    62  C   -0.088777
    63  C    0.050247
    64  C    0.030748
    65  H   -0.006801
    66  H   -0.063714
    67  H    0.042666
    68  H    0.047996
    69  H    0.014635
    70  H    0.037811
    71  H    0.016877
    72  H    0.041765
    73  H    0.010214
    74  H   -0.023272
    75  H    0.014323
    76  H   -0.048592
    77  H    0.028905
    78  H    0.026780
    79  H    0.021490
    80  H   -0.021966
    81  H    0.009427
    82  H    0.015311
    83  H    0.019263
    84  H    0.055964
    85  H   -0.034608
    86  H    0.008637
    87  H    0.015756
    88  H   -0.055297
    89  H   -0.009571
    90  H   -0.017715
    91  H    0.055017
    92  H    0.024913
    93  H    0.038399
    94  H    0.092883
    95  H    0.036138
    96  H    0.016125
    97  H    0.013238
    98  H   -0.011873
    99  H    0.011335
   100  H    0.005791
   101  H   -0.007612
   102  H    0.010493
   103  H   -0.001720
   104  H    0.004277
   105  H    0.005623
   106  H    0.023907
   107  H   -0.005024
   108  H   -0.005518
   109  H   -0.009454
   110  H   -0.013380
   111  H   -0.018632
   112  H   -0.015020
   113  H    0.029222
   114  H    0.006980
   115  H   -0.012008
   116  H    0.021191
   117  H   -0.017050
   118  H   -0.040103
   119  H   -0.085090
   120  H    0.003119
   121  H   -0.006628
   122  H    0.005828
   123  H    0.025783
   124  H   -0.046127
   125  H   -0.007130
   126  H    0.003136
   127  H    0.003223
   128  H   -0.001241
   129  H   -0.011557
   130  H    0.005758
   131  H    0.009387
   132  H    0.043383
   133  H   -0.062111
   134  H   -0.001825
   135  H   -0.007906
   136  H    0.002537
   137  H    0.107136
   138  H    0.166776
 Sum of Mulliken charges =  -0.00000
 Mulliken charges with hydrogens summed into heavy atoms:
               1
     1  C   -0.084662
     2  C   -0.093488
     3  C   -0.121699
     4  C   -0.098000
     5  N   -0.081528
     6  C   -0.043679
     7  C    0.021275
     8  C   -0.041251
     9  C    0.013045
    10  C    0.077393
    11  C    0.039950
    12  C    0.105003
    13  C    0.153310
    14  O   -0.325214
    15  O   -0.288608
    16  N    0.039210
    17  C    0.109268
    18  C   -0.140039
    19  C    0.127620
    20  C    0.061605
    21  C    0.183546
    22  C   -0.143277
    23  C    0.041799
    24  N   -0.165104
    25  C    0.062692
    26  C   -0.202624
    27  C   -0.041019
    28  C    0.016525
    29  C    0.180088
    30  C    0.053608
    31  C    0.026236
    32  N    0.101647
    33  C    0.102768
    34  C   -0.145906
    35  C    0.012672
    36  C    0.067261
    37  C    0.180725
    38  C    0.076725
    39  O   -0.195994
    40  C    0.077917
    41  C    0.216720
    42  O   -0.243033
    43  O   -0.255712
    44  C    0.244945
    45  C    0.369087
    46  C   -0.120836
    47  C   -0.128995
    48  C    0.145410
    49  C    0.004686
    50  C    0.083840
    51  C   -0.013302
    52  C    0.002693
    53  C    0.046200
    54  C   -0.091244
    55  C   -0.030332
    56  C    0.077347
    57  C   -0.039563
    58  C   -0.003159
    59  C   -0.000938
    60  C    0.022346
    61  C    0.012600
    62  C   -0.083018
    63  C    0.040907
    64  C    0.023554
 Electronic spatial extent (au):  <R**2>=         175220.1074
 Charge=              0.0000 electrons
 Dipole moment (field-independent basis, Debye):
    X=              2.6193    Y=              4.3313    Z=              0.9959  Tot=              5.1587
 Quadrupole moment (field-independent basis, Debye-Ang):
   XX=           -357.1152   YY=           -387.9526   ZZ=           -391.9473
   XY=            -28.0702   XZ=              2.8844   YZ=             -2.4492
 Traceless Quadrupole moment (field-independent basis, Debye-Ang):
   XX=             21.8899   YY=             -8.9476   ZZ=            -12.9423
   XY=            -28.0702   XZ=              2.8844   YZ=             -2.4492
 Octapole moment (field-independent basis, Debye-Ang**2):
  XXX=           -594.6118  YYY=            161.0957  ZZZ=              5.0794  XYY=            -68.3582
  XXY=           -104.5095  XXZ=           -208.7490  XZZ=              3.7917  YZZ=            -36.9282
  YYZ=             77.2817  XYZ=            -13.6550
 Hexadecapole moment (field-independent basis, Debye-Ang**3):
 XXXX=        -217957.0132 YYYY=         -18702.5706 ZZZZ=          -4353.3015 XXXY=          -2210.6623
 XXXZ=           1197.3733 YYYX=          -1579.6018 YYYZ=           -249.7507 ZZZX=             52.7063
 ZZZY=           -117.5857 XXYY=         -40483.0055 XXZZ=         -37899.4159 YYZZ=          -3769.2379
 XXYZ=            306.7895 YYXZ=           -114.0545 ZZXY=            100.2006
 N-N= 8.319038970335D+03 E-N=-2.297328156656D+04  KE= 2.702821822061D+03
 1\1\GINC-RYZEN-SSD1\SP\RB3LYP TD-FC\SVP\C55H74N4O5\PADAWAN\23-Aug-2019
 \0\\# td=(NStates=1) B3LYP/SVP\\TD\\0,1\C,0,-5.1861714676,-2.139253731
 4,0.4334719723\C,0,-4.5087770359,2.6424944784,1.6016368398\C,0,-8.9637
 256162,3.4929454908,-0.3204266589\C,0,-9.7900108522,-1.2485264472,-1.0
 151776632\N,0,-5.0925360016,0.3064971108,0.8016776258\C,0,-4.588036901
 3,-0.8708360672,0.8652826139\C,0,-3.210922846,-0.8542859121,1.28378162
 76\C,0,-3.0894831007,0.5766727849,1.9505695624\C,0,-4.3249074488,1.233
 0903544,1.3511270241\C,0,-2.9946859665,0.5551738184,3.4482546835\C,0,-
 2.0214374865,-1.0966946836,0.2778443921\C,0,-0.6296713552,-1.084287283
 5,0.70794856\C,0,0.46364087,-1.4368906064,-0.2709029475\O,0,0.10640037
 59,-1.8557752674,-1.4297354281\O,0,1.7176868439,-1.2526216807,0.084873
 4953\N,0,-6.8809612771,2.7395086928,0.6186824622\C,0,-5.6519693779,3.3
 015768902,1.0687109965\C,0,-5.7926705396,4.7255106349,1.0505266044\C,0
 ,-6.9871317777,5.0237536984,0.4622214522\C,0,-7.7000354539,3.761654764
 4,0.1671480511\C,0,-4.8021393703,5.6830920916,1.5689428982\C,0,-7.5905
 456428,6.3245521729,0.314786533\C,0,-8.4639139142,6.8984191325,-0.4849
 27109\N,0,-9.038457245,1.0368521598,-0.6037673521\C,0,-9.5930210795,2.
 2365069524,-0.6295717679\C,0,-11.0141376518,2.1658402235,-1.1622002913
 \C,0,-11.3247679173,0.8095449959,-1.3108711487\C,0,-10.0282195304,0.22
 25952101,-0.9880822886\C,0,-11.8113253297,3.3907816473,-1.5140658357\C
 ,0,-12.554535551,0.1684677484,-1.7209743324\C,0,-12.6159260622,-0.1333
 879852,-3.2364908335\N,0,-7.5496780935,-1.2299573102,-0.222888634\C,0,
 -8.6549014756,-1.917678382,-0.5810250309\C,0,-8.3318967969,-3.30619522
 1,-0.7387876173\C,0,-7.057987827,-3.4750033846,-0.2439464999\C,0,-6.56
 07846181,-2.1169134904,0.1600581599\C,0,-9.3242364087,-4.4081842184,-1
 .0465471615\C,0,-5.9378199035,-4.3919144183,-0.1110784382\O,0,-5.81944
 38005,-5.6229588046,-0.311314211\C,0,-4.679663571,-3.4915462673,0.4747
 427239\C,0,-4.1457469895,-3.9673604312,1.7284347288\O,0,-4.2919818099,
 -3.4366246184,2.8091013741\O,0,-3.2796104767,-4.9754578271,1.586934436
 4\C,0,-2.9851220425,-5.5549964049,2.8383903093\C,0,2.755395583,-1.4975
 084414,-0.8908632916\C,0,4.0115852683,-1.0593205555,-0.4344700602\C,0,
 4.7967719774,-0.0704079932,-0.9602914337\C,0,4.5830988201,0.5263364753
 ,-2.3044729863\C,0,6.1646901811,0.248537482,-0.3829397571\C,0,7.350649
 2921,-0.6064599791,-0.9204794013\C,0,8.5979232693,-0.2434395509,-0.185
 6434442\C,0,9.9242942841,-0.7548399666,-0.8573167116\C,0,10.021785972,
 -2.2870338692,-0.9232764423\C,0,11.1116618408,-0.2071003806,-0.0806805
 361\C,0,12.5856971543,-0.5171401924,-0.5856164388\C,0,13.7238387911,0.
 0824155385,0.1818145441\C,0,15.1002218433,-0.0569287287,-0.4191357494\
 C,0,15.671714499,-1.6002141833,-0.3841581513\C,0,16.0451571129,0.89813
 07243,0.3809313575\C,0,17.5289497337,1.0282885628,-0.177052213\C,0,18.
 3184216932,1.9347220912,0.620000693\C,0,19.8044003359,2.1410997353,-0.
 1050977494\C,0,19.7918001095,2.7755769889,-1.4968560946\C,0,20.7880592
 715,2.9216759037,0.7970261033\H,0,-3.7174399116,3.2878451688,1.9843606
 744\H,0,-9.5360711921,4.353604797,-0.3586845424\H,0,-10.624750815,-1.9
 4120013,-1.6476446584\H,0,-3.2143674882,-1.7361139755,2.0533971344\H,0
 ,-2.1574563132,1.1481347646,1.564605959\H,0,-2.1919767136,-0.023534931
 8,4.0631330386\H,0,-2.8146947698,1.694284072,3.6830074019\H,0,-4.00757
 13365,0.0943601383,3.9802168674\H,0,-1.9717266266,-2.1048543631,-0.335
 5604123\H,0,-2.075723511,-0.6866311888,-0.7044291036\H,0,-0.2323875622
 ,-0.0241282869,0.985024533\H,0,-0.4415671696,-1.5593051105,1.513138432
 8\H,0,-3.9216168191,5.7489030279,0.9485279908\H,0,-5.109962215,6.85644
 07628,1.4178273797\H,0,-4.6915909361,5.4497748269,2.5541364742\H,0,-7.
 1850786068,7.0822352572,0.9708183881\H,0,-8.6968150743,6.1816061461,-1
 .2501244084\H,0,-8.7179560748,7.9290981951,-0.4412638305\H,0,-11.72712
 72601,3.9979702955,-0.6242948281\H,0,-11.482287151,4.0252074854,-2.578
 035021\H,0,-12.7367510751,3.0115567739,-1.582241271\H,0,-12.7218970156
 ,-0.8175218785,-1.177272301\H,0,-13.5343741797,0.7194416056,-1.5298166
 59\H,0,-12.4197764926,0.5791449296,-3.8088597294\H,0,-11.6569919069,-0
 .7457739738,-3.7100818049\H,0,-13.3791559888,-0.7048578439,-3.50657451
 62\H,0,-10.144852032,-4.3809801899,-0.2942752314\H,0,-9.762008111,-4.3
 75614575,-2.1229128119\H,0,-8.7952112266,-5.3798587658,-1.2172563791\H
 ,0,-3.8720829356,-3.5087282241,-0.38660172\H,0,-2.2638132493,-6.407807
 3844,2.639399644\H,0,-2.5132678985,-5.0357833173,3.7086753178\H,0,-3.8
 762386793,-5.7988968897,3.4227237926\H,0,2.8648582776,-2.5516619073,-0
 .8224393772\H,0,2.3709889418,-1.3274341814,-1.8677743967\H,0,4.3244238
 783,-1.467114782,0.6002290673\H,0,4.5392991944,1.5647641742,-2.3343160
 19\H,0,5.4826152253,0.1951454697,-2.7882818953\H,0,3.6740438896,0.3201
 248184,-2.8364089978\H,0,6.5756976669,1.3488180257,-0.4875339538\H,0,5
 .9899868245,0.282582673,0.7040801021\H,0,7.1257432274,-1.7537594213,-0
 .7952143675\H,0,7.5586756187,-0.4515896544,-1.9717560333\H,0,8.7519696
 386,0.8819160431,-0.0882375653\H,0,8.5572184517,-0.533880475,0.8735902
 119\H,0,9.9728941547,-0.2931391156,-1.8290336263\H,0,9.2437115588,-2.7
 591945823,-1.4376629918\H,0,10.7373105921,-2.6950111775,-1.5468904346\
 H,0,10.3089993417,-2.8195538329,0.2017466532\H,0,11.148119002,1.022919
 9158,0.2001534779\H,0,11.28510608,-0.6137498605,0.9464551672\H,0,12.72
 54490529,-1.6558294619,-0.7641898618\H,0,12.4721975364,0.0298857157,-1
 .5488882073\H,0,13.2513061661,0.9811985157,0.437808955\H,0,13.69206404
 19,-0.3791908731,1.0045800342\H,0,15.2010516026,0.186611861,-1.5345401
 038\H,0,14.6630517002,-2.1792762114,-0.8642504455\H,0,16.399106647,-1.
 9217380133,-1.0139227849\H,0,15.6418869063,-2.2175513737,0.6064933506\
 H,0,15.7340205937,1.8392270114,0.4887427179\H,0,16.0907353962,0.453379
 147,1.4510371005\H,0,17.9781338907,-0.0182803066,-0.0903037151\H,0,17.
 4575584812,1.3313961027,-1.2204093455\H,0,17.6149832042,2.9106397917,0
 .7836448595\H,0,18.4309561098,1.6097598128,1.6367049261\H,0,20.1925274
 825,1.0838691206,-0.2995870216\H,0,19.454708168,4.0150636385,-1.303915
 3657\H,0,20.8596644836,2.8734729511,-2.0799833217\H,0,19.1017184076,2.
 3567057072,-1.9674919304\H,0,21.1525502681,2.5301125616,1.781962124\H,
 0,21.788272669,3.0640445211,0.3314550453\H,0,20.4963072934,3.953014972
 ,1.0653491393\H,0,-7.1505688394,1.8476590379,0.8208553423\H,0,-7.40054
 14207,-0.188723748,-0.1955028705\\Version=ES64L-G16RevA.03\State=1-A\H
 F=-2732.975393\RMSD=3.781e-09\PG=C01 [X(C55H74N4O5)]\\@


 Age does not diminish the extreme disappointment of
 having a scoop of ice cream fall from the cone.
 -- Jim Fiebig
 Job cpu time:       1 days 11 hours 42 minutes 52.5 seconds.
 Elapsed time:       0 days  8 hours 59 minutes 46.6 seconds.
 File lengths (MBytes):  RWF=   6378 Int=      0 D2E=      0 Chk=    163 Scr=      1
 Normal termination of Gaussian 16 at Fri Aug 23 05:01:00 2019.
