 Entering Gaussian System, Link 0=g16
 Input=Geometria-28-.com
 Output=Geometria-28-.log
 Initial command:
 /usr/local/g16/l1.exe "/home/padawan/israel-mol/pheophytin/spectra/emi/Gau-19237.inp" -scrdir="/home/padawan/israel-mol/pheophytin/spectra/emi/"
 Entering Link 1 = /usr/local/g16/l1.exe PID=     19239.
  
 Copyright (c) 1988,1990,1992,1993,1995,1998,2003,2009,2016,
            Gaussian, Inc.  All Rights Reserved.
  
 This is part of the Gaussian(R) 16 program.  It is based on
 the Gaussian(R) 09 system (copyright 2009, Gaussian, Inc.),
 the Gaussian(R) 03 system (copyright 2003, Gaussian, Inc.),
 the Gaussian(R) 98 system (copyright 1998, Gaussian, Inc.),
 the Gaussian(R) 94 system (copyright 1995, Gaussian, Inc.),
 the Gaussian 92(TM) system (copyright 1992, Gaussian, Inc.),
 the Gaussian 90(TM) system (copyright 1990, Gaussian, Inc.),
 the Gaussian 88(TM) system (copyright 1988, Gaussian, Inc.),
 the Gaussian 86(TM) system (copyright 1986, Carnegie Mellon
 University), and the Gaussian 82(TM) system (copyright 1983,
 Carnegie Mellon University). Gaussian is a federally registered
 trademark of Gaussian, Inc.
  
 This software contains proprietary and confidential information,
 including trade secrets, belonging to Gaussian, Inc.
  
 This software is provided under written license and may be
 used, copied, transmitted, or stored only in accord with that
 written license.
  
 The following legend is applicable only to US Government
 contracts under FAR:
  
                    RESTRICTED RIGHTS LEGEND
  
 Use, reproduction and disclosure by the US Government is
 subject to restrictions as set forth in subparagraphs (a)
 and (c) of the Commercial Computer Software - Restricted
 Rights clause in FAR 52.227-19.
  
 Gaussian, Inc.
 340 Quinnipiac St., Bldg. 40, Wallingford CT 06492
  
  
 ---------------------------------------------------------------
 Warning -- This program may not be used in any manner that
 competes with the business of Gaussian, Inc. or will provide
 assistance to any competitor of Gaussian, Inc.  The licensee
 of this program is prohibited from giving any competitor of
 Gaussian, Inc. access to this program.  By using this program,
 the user acknowledges that Gaussian, Inc. is engaged in the
 business of creating and licensing software in the field of
 computational chemistry and represents and warrants to the
 licensee that it is not a competitor of Gaussian, Inc. and that
 it will not use this program in any manner prohibited above.
 ---------------------------------------------------------------
  

 Cite this work as:
 Gaussian 16, Revision A.03,
 M. J. Frisch, G. W. Trucks, H. B. Schlegel, G. E. Scuseria, 
 M. A. Robb, J. R. Cheeseman, G. Scalmani, V. Barone, 
 G. A. Petersson, H. Nakatsuji, X. Li, M. Caricato, A. V. Marenich, 
 J. Bloino, B. G. Janesko, R. Gomperts, B. Mennucci, H. P. Hratchian, 
 J. V. Ortiz, A. F. Izmaylov, J. L. Sonnenberg, D. Williams-Young, 
 F. Ding, F. Lipparini, F. Egidi, J. Goings, B. Peng, A. Petrone, 
 T. Henderson, D. Ranasinghe, V. G. Zakrzewski, J. Gao, N. Rega, 
 G. Zheng, W. Liang, M. Hada, M. Ehara, K. Toyota, R. Fukuda, 
 J. Hasegawa, M. Ishida, T. Nakajima, Y. Honda, O. Kitao, H. Nakai, 
 T. Vreven, K. Throssell, J. A. Montgomery, Jr., J. E. Peralta, 
 F. Ogliaro, M. J. Bearpark, J. J. Heyd, E. N. Brothers, K. N. Kudin, 
 V. N. Staroverov, T. A. Keith, R. Kobayashi, J. Normand, 
 K. Raghavachari, A. P. Rendell, J. C. Burant, S. S. Iyengar, 
 J. Tomasi, M. Cossi, J. M. Millam, M. Klene, C. Adamo, R. Cammi, 
 J. W. Ochterski, R. L. Martin, K. Morokuma, O. Farkas, 
 J. B. Foresman, and D. J. Fox, Gaussian, Inc., Wallingford CT, 2016.
 
 ******************************************
 Gaussian 16:  ES64L-G16RevA.03 25-Dec-2016
                 9-Aug-2019 
 ******************************************
 %nproc=4
 Will use up to    4 processors via shared memory.
 %Mem=2GB
 --------------------------
 # td=(NStates=1) B3LYP/SVP
 --------------------------
 1/38=1,172=1/1;
 2/12=2,17=6,18=5,40=1/2;
 3/5=18,7=101,11=9,25=1,30=1,74=-5/1,2,3,8;
 4//1;
 5/5=2,38=5/2;
 8/6=1,10=1,108=1/1;
 9/41=1,42=1,70=2/14;
 6/7=2,8=2,9=2,10=2/1;
 99/5=1,9=1/99;
 --
 TD
 --
 Symbolic Z-matrix:
 Charge =  0 Multiplicity = 1
 6                    -5.10507  -1.89385   0.4014 
 6                    -4.76601   2.74303   1.34911 
 6                    -9.44956   3.25667  -0.11877 
 6                    -9.8938   -1.50601  -0.88964 
 7                    -5.13579   0.40964   0.82627 
 6                    -4.48941  -0.67826   0.77359 
 6                    -2.97498  -0.53668   1.27521 
 6                    -2.97996   0.91107   1.67976 
 6                    -4.36718   1.4992    1.22744 
 6                    -2.77027   1.09649   3.24268 
 6                    -2.06495  -0.84097   0.12791 
 6                    -0.56278  -0.63076   0.53052 
 6                     0.41471  -0.97     -0.62305 
 8                     0.06746  -1.33813  -1.7261 
 8                     1.63559  -0.7163   -0.32289 
 7                    -7.10673   2.74137   0.57405 
 6                    -5.91299   3.36676   0.93959 
 6                    -6.31652   4.76333   0.95112 
 6                    -7.57494   4.95029   0.44712 
 6                    -8.03723   3.56806   0.19748 
 6                    -5.46101   5.88095   1.34941 
 6                    -8.34043   6.23947   0.44872 
 6                    -9.33304   6.74152  -0.42792 
 7                    -9.25491   0.87503  -0.51701 
 6                    -9.99891   1.96923  -0.46604 
 6                    -11.33109   1.76374  -0.94731 
 6                    -11.55113   0.41284  -1.09155 
 6                    -10.15927  -0.12855  -0.81997 
 6                    -12.38213   2.90547  -0.96193 
 6                    -12.77798  -0.16476  -1.61159 
 6                    -12.80261  -0.38744  -3.11544 
 7                    -7.47276  -1.32166  -0.21515 
 6                    -8.58918  -2.06131  -0.64036 
 6                    -8.15022  -3.37933  -0.6264 
 6                    -6.78457  -3.33355  -0.22277 
 6                    -6.40873  -2.02401  -0.00111 
 6                    -9.02599  -4.60351  -0.83095 
 6                    -5.69333  -4.24317   0.07712 
 8                    -5.59517  -5.47754  -0.12326 
 6                    -4.49504  -3.24342   0.38052 
 6                    -3.85527  -3.86151   1.66911 
 8                    -4.04969  -3.3512    2.80578 
 8                    -2.95855  -4.8209    1.45293 
 6                    -2.27118  -5.56646   2.54155 
 6                     2.6793   -0.9385   -1.2835 
 6                     4.02156  -0.65793  -0.56855 
 6                     4.94634   0.1332   -1.12621 
 6                     4.8947    0.91638  -2.47636 
 6                     6.21731   0.36058  -0.40477 
 6                     7.51121  -0.24956  -1.11984 
 6                     8.83464  -0.26407  -0.23209 
 6                     10.0453  -0.88841  -0.76897 
 6                     9.98553  -2.37482  -0.8138 
 6                     11.26203  -0.37895  -0.03622 
 6                     12.64022  -0.48499  -0.52151 
 6                     13.81605  -0.07279   0.34739 
 6                     15.20039  -0.32214  -0.31346 
 6                     15.75538  -1.7692   -0.33135 
 6                     16.22388   0.596     0.45842 
 6                     17.71095   0.54895  -0.0255 
 6                     18.68986   1.53989   0.60365 
 6                     20.1357   1.52915   0.23628 
 6                     20.31405   2.06945  -1.25726 
 6                     21.05246   2.34482   1.16908 
 1                    -4.1057    3.43057   1.75107 
 1                    -10.30586   4.09642  -0.08162 
 1                    -10.8067  -2.19828  -0.9451 
 1                    -2.74687  -1.04345   2.07227 
 1                    -2.1538    1.60871   1.14535 
 1                    -1.62136   0.79041   3.40952 
 1                    -3.08995   2.13145   3.68363 
 1                    -3.51176   0.43162   3.74235 
 1                    -2.1486   -1.95553  -0.08582 
 1                    -2.08769  -0.18959  -0.75882 
 1                    -0.33364   0.43593   0.84039 
 1                    -0.33213  -1.21754   1.3858 
 1                    -4.5267    6.2572    0.71722 
 1                    -5.97868   6.7495    1.55451 
 1                    -4.90617   5.39072   2.22213 
 1                    -7.92395   6.93321   1.30716 
 1                    -9.49536   6.09001  -1.43088 
 1                    -9.57981   7.81253  -0.38397 
 1                    -12.8129   3.28292   0.09269 
 1                    -11.94134   3.81217  -1.60134 
 1                    -13.31959   2.39775  -1.32663 
 1                    -12.76356  -1.11814  -1.21406 
 1                    -13.54471   0.45022  -1.32655 
 1                    -12.5178   0.62186  -3.70357 
 1                    -12.01467  -0.96465  -3.57357 
 1                    -13.85101  -0.84131  -3.30106 
 1                    -9.73563  -4.56626   0.05187 
 1                    -9.6056   -4.29168  -1.7273 
 1                    -8.61658  -5.45393  -0.94214 
 1                    -3.66545  -3.35096  -0.42596 
 1                    -1.35255  -6.19403   2.0923 
 1                    -2.07016  -4.72367   3.52043 
 1                    -3.07723  -6.34588   2.97706 
 1                     2.69482  -1.88524  -1.97053 
 1                     2.61866  -0.27866  -2.14479 
 1                     4.1485   -1.10663   0.37204 
 1                     5.46594   1.96325  -2.40974 
 1                     5.37331   0.32153  -3.40758 
 1                     3.77839   1.09502  -2.83299 
 1                     6.24932   1.52586  -0.07131 
 1                     6.16552   0.13351   0.57857 
 1                     7.08403  -1.26906  -1.47189 
 1                     7.6744    0.41788  -2.00154 
 1                     8.97231   0.84293  -0.30496 
 1                     8.74759  -0.66462   0.7091 
 1                     10.28548  -0.61215  -1.80505 
 1                     9.23692  -2.64404  -1.55031 
 1                     10.98232  -2.78541  -1.08575 
 1                     9.60031  -2.74239   0.0796 
 1                     11.06862   0.62493   0.2371 
 1                     11.25981  -0.74447   0.95305 
 1                     12.81511  -1.55503  -0.6664 
 1                     12.56547   0.0684   -1.52345 
 1                     13.85804   1.10247   0.48094 
 1                     13.69733  -0.85583   1.285 
 1                     15.07618   0.01674  -1.34682 
 1                     15.0278  -2.21229  -0.91985 
 1                     16.72719  -1.69459  -0.76539 
 1                     15.69815  -2.21855   0.61136 
 1                     15.8342   1.63814   0.4389 
 1                     16.31629   0.27165   1.721 
 1                     18.38827  -0.4022    0.09979 
 1                     17.76065   0.65529  -1.07366 
 1                     18.31929   2.63214   0.62315 
 1                     18.45834   1.14594   1.57524 
 1                     20.58357   0.43771   0.23291 
 1                     19.88351   3.16066  -1.43339 
 1                     21.40238   2.05779  -1.5444 
 1                     19.75469   1.39331  -1.93127 
 1                     21.15567   1.83761   2.20943 
 1                     21.96539   2.61313   0.70178 
 1                     20.70688   3.43932   1.33215 
 1                    -7.12781   1.69563   0.68786 
 1                    -7.49649  -0.40299  -0.1981 
 
 Stoichiometry    C55H74N4O5
 Framework group  C1[X(C55H74N4O5)]
 Deg. of freedom   408
 Full point group                 C1      NOp   1
 Largest Abelian subgroup         C1      NOp   1
 Largest concise Abelian subgroup C1      NOp   1
                         Standard orientation:                         
 ---------------------------------------------------------------------
 Center     Atomic      Atomic             Coordinates (Angstroms)
 Number     Number       Type             X           Y           Z
 ---------------------------------------------------------------------
      1          6           0       -5.097015   -1.915498    0.413401
      2          6           0       -4.776384    2.725314    1.348211
      3          6           0       -9.464095    3.215090   -0.114536
      4          6           0       -9.889123   -1.551493   -0.872019
      5          7           0       -5.136949    0.388970    0.832139
      6          6           0       -4.486015   -0.696304    0.781482
      7          6           0       -2.971515   -0.546947    1.280615
      8          6           0       -2.982101    0.901851    1.681291
      9          6           0       -4.372432    1.482861    1.229325
     10          6           0       -2.771052    1.092360    3.243418
     11          6           0       -2.061781   -0.850441    0.132871
     12          6           0       -0.559969   -0.632768    0.532832
     13          6           0        0.417367   -0.970949   -0.621179
     14          8           0        0.070169   -1.343513   -1.722752
     15          8           0        1.637571   -0.711249   -0.323394
     16          7           0       -7.118142    2.711615    0.576404
     17          6           0       -5.926563    3.343059    0.938609
     18          6           0       -6.336024    4.737927    0.946955
     19          6           0       -7.595918    4.918173    0.444206
     20          6           0       -8.052664    3.533324    0.198915
     21          6           0       -5.484722    5.860238    1.341064
     22          6           0       -8.366884    6.204094    0.443413
     23          6           0       -9.362828    6.699562   -0.433192
     24          7           0       -9.259856    0.833232   -0.506663
     25          6           0      -10.008437    1.924396   -0.457590
     26          6           0      -11.340390    1.711952   -0.936461
     27          6           0      -11.554879    0.359741   -1.076775
     28          6           0      -10.160357   -0.174990   -0.805673
     29          6           0      -12.396301    2.849163   -0.952684
     30          6           0      -12.779972   -0.224455   -1.593565
     31          6           0      -12.805731   -0.451285   -3.096773
     32          7           0       -7.467962   -1.355035   -0.201390
     33          6           0       -8.581814   -2.100571   -0.623068
     34          6           0       -8.137224   -3.416670   -0.606181
     35          6           0       -6.771229   -3.363997   -0.204579
     36          6           0       -6.400659   -2.052285    0.013055
     37          6           0       -9.008056   -4.645109   -0.806232
     38          6           0       -5.675711   -4.268161    0.096238
     39          8           0       -5.572581   -5.502641   -0.100965
     40          6           0       -4.481269   -3.262516    0.395297
     41          6           0       -3.837104   -3.874415    1.684645
     42          8           0       -4.032129   -3.361881    2.820214
     43          8           0       -2.936609   -4.830564    1.469795
     44          6           0       -2.244577   -5.570263    2.559454
     45          6           0        2.680893   -0.931594   -1.284858
     46          6           0        4.022929   -0.643398   -0.572528
     47          6           0        4.943566    0.150158   -1.133584
     48          6           0        4.886738    0.929475   -2.485757
     49          6           0        6.214547    0.384873   -0.414525
     50          6           0        7.510046   -0.221682   -1.129750
     51          6           0        8.834748   -0.228178   -0.243801
     52          6           0       10.047313   -0.848807   -0.780685
     53          6           0        9.993813   -2.335572   -0.821445
     54          6           0       11.262873   -0.332206   -0.050991
     55          6           0       12.640838   -0.433688   -0.537911
     56          6           0       13.816094   -0.014164    0.328249
     57          6           0       15.200575   -0.259395   -0.333848
     58          6           0       15.761693   -1.704131   -0.348637
     59          6           0       16.221213    0.665154    0.434141
     60          6           0       17.707795    0.623127   -0.051711
     61          6           0       18.683346    1.619908    0.573418
     62          6           0       20.128716    1.614324    0.204069
     63          6           0       20.302708    2.151362   -1.291159
     64          6           0       21.043273    2.436387    1.133412
     65          1           0       -4.118449    3.416728    1.747405
     66          1           0      -10.323903    4.051286   -0.078449
     67          1           0      -10.799142   -2.247778   -0.924365
     68          1           0       -2.740155   -1.050600    2.078711
     69          1           0       -2.159647    1.601563    1.143869
     70          1           0       -1.620617    0.791615    3.409476
     71          1           0       -3.094524    2.127132    3.682029
     72          1           0       -3.509016    0.425694    3.745896
     73          1           0       -2.140984   -1.965917   -0.077749
     74          1           0       -2.088516   -0.201550   -0.755573
     75          1           0       -0.334937    0.435714    0.839523
     76          1           0       -0.325638   -1.216262    1.389356
     77          1           0       -4.552895    6.238759    0.706576
     78          1           0       -6.005804    6.727125    1.544554
     79          1           0       -4.926607    5.374714    2.214326
     80          1           0       -7.952180    6.901898    1.299414
     81          1           0       -9.523758    6.044670   -1.434177
     82          1           0       -9.614093    7.769621   -0.391767
     83          1           0      -12.827214    3.227605    0.101515
     84          1           0      -11.960254    3.756001   -1.595130
     85          1           0      -13.332090    2.336476   -1.314716
     86          1           0      -12.760951   -1.176700   -1.193494
     87          1           0      -13.548916    0.388023   -1.309104
     88          1           0      -12.526020    0.557636   -3.688001
     89          1           0      -12.015967   -1.026360   -3.554447
     90          1           0      -13.852443   -0.910103   -3.279725
     91          1           0       -9.716636   -4.608500    0.077464
     92          1           0       -9.590227   -4.338147   -1.702617
     93          1           0       -8.595191   -5.494068   -0.915714
     94          1           0       -3.652347   -3.368695   -0.412042
     95          1           0       -1.323905   -6.195125    2.110617
     96          1           0       -2.045800   -4.724004    3.535787
     97          1           0       -3.046701   -6.351934    2.998168
     98          1           0        2.699499   -1.880094   -1.969371
     99          1           0        2.616266   -0.274331   -2.147828
    100          1           0        4.153072   -1.089025    0.369084
    101          1           0        5.453611    1.978948   -2.422740
    102          1           0        5.366597    0.334168   -3.416047
    103          1           0        3.769193    1.102416   -2.841314
    104          1           0        6.242057    1.551167   -0.084234
    105          1           0        6.165087    0.160226    0.569491
    106          1           0        7.086728   -1.243928   -1.478475
    107          1           0        7.669183    0.444076   -2.013461
    108          1           0        8.967611    0.879201   -0.319830
    109          1           0        8.750700   -0.626567    0.698582
    110          1           0       10.284888   -0.574310   -1.817837
    111          1           0        9.245341   -2.609950   -1.556200
    112          1           0       10.991959   -2.742647   -1.093686
    113          1           0        9.611387   -2.702369    0.073471
    114          1           0       11.065573    0.671571    0.219899
    115          1           0       11.263577   -0.695079    0.939249
    116          1           0       12.820075   -1.503363   -0.680176
    117          1           0       12.562349    0.116682   -1.541222
    118          1           0       13.853265    1.161619    0.458592
    119          1           0       13.702004   -0.795178    1.268115
    120          1           0       15.073499    0.076177   -1.367945
    121          1           0       15.035191   -2.151888   -0.934930
    122          1           0       16.732575   -1.626551   -0.784219
    123          1           0       15.707673   -2.151187    0.595359
    124          1           0       15.827072    1.705568    0.412368
    125          1           0       16.316734    0.344593    1.697462
    126          1           0       18.389336   -0.324794    0.075180
    127          1           0       17.755600    0.726859   -1.100228
    128          1           0       18.308164    2.710621    0.590504
    129          1           0       18.454842    1.227590    1.546380
    130          1           0       20.581214    0.524799    0.203002
    131          1           0       19.867285    3.240256   -1.469612
    132          1           0       21.390678    2.143563   -1.579775
    133          1           0       19.745304    1.471045   -1.962573
    134          1           0       21.150077    1.932422    2.174975
    135          1           0       21.954413    2.707321    0.664127
    136          1           0       20.693266    3.529847    1.294020
    137          1           0       -7.134608    1.666109    0.693050
    138          1           0       -7.495578   -0.436431   -0.186774
 ---------------------------------------------------------------------
 Rotational constants (GHZ):           0.0647342           0.0061238           0.0057559
 Standard basis: SVP (5D, 7F)
 There are  1330 symmetry adapted cartesian basis functions of A   symmetry.
 There are  1266 symmetry adapted basis functions of A   symmetry.
  1266 basis functions,  2118 primitive gaussians,  1330 cartesian basis functions
   236 alpha electrons      236 beta electrons
       nuclear repulsion energy      8282.1092381570 Hartrees.
 NAtoms=  138 NActive=  138 NUniq=  138 SFac= 1.00D+00 NAtFMM=   60 NAOKFM=T Big=T
 Integral buffers will be    131072 words long.
 Regular integral format.
 Two-electron integral symmetry is turned on.
 One-electron integrals computed using PRISM.
 NBasis=  1266 RedAO= T EigKep=  2.16D-04  NBF=  1266
 NBsUse=  1266 1.00D-06 EigRej= -1.00D+00 NBFU=  1266
 ExpMin= 1.22D-01 ExpMax= 2.27D+03 ExpMxC= 3.41D+02 IAcc=3 IRadAn=         5 AccDes= 0.00D+00
 Harris functional with IExCor=  402 and IRadAn=       5 diagonalized for initial guess.
 HarFok:  IExCor=  402 AccDes= 0.00D+00 IRadAn=         5 IDoV= 1 UseB2=F ITyADJ=14
 ICtDFT=  3500011 ScaDFX=  1.000000  1.000000  1.000000  1.000000
 FoFCou: FMM=F IPFlag=           0 FMFlag=      100000 FMFlg1=        2001
         NFxFlg=           0 DoJE=T BraDBF=F KetDBF=T FulRan=T
         wScrn=  0.000000 ICntrl=       500 IOpCl=  0 I1Cent=   200000004 NGrid=           0
         NMat0=    1 NMatS0=      1 NMatT0=    0 NMatD0=    1 NMtDS0=    0 NMtDT0=    0
 Petite list used in FoFCou.
 Requested convergence on RMS density matrix=1.00D-08 within 128 cycles.
 Requested convergence on MAX density matrix=1.00D-06.
 Requested convergence on             energy=1.00D-06.
 No special actions if energy rises.
 Integral accuracy reduced to 1.0D-05 until final iterations.
 Initial convergence to 1.0D-05 achieved.  Increase integral accuracy.
 SCF Done:  E(RB3LYP) =  -2733.08139432     A.U. after   17 cycles
            NFock= 17  Conv=0.43D-08     -V/T= 2.0116
 DoSCS=F DFT=T ScalE2(SS,OS)=  1.000000  1.000000
 ExpMin= 1.22D-01 ExpMax= 2.27D+03 ExpMxC= 3.41D+02 IAcc=3 IRadAn=         5 AccDes= 0.00D+00
 HarFok:  IExCor=  205 AccDes= 0.00D+00 IRadAn=         5 IDoV=-2 UseB2=F ITyADJ=14
 ICtDFT= 12500011 ScaDFX=  1.000000  1.000000  1.000000  1.000000
 GSVD:  LWork=       -4608 too small for GESVD, short by       21440 words or       21440 for optimal perf.
 Range of M.O.s used for correlation:    65  1266
 NBasis=  1266 NAE=   236 NBE=   236 NFC=    64 NFV=     0
 NROrb=   1202 NOA=   172 NOB=   172 NVA=  1030 NVB=  1030

 **** Warning!!: The smallest alpha delta epsilon is  0.82792022D-01

 Orbital symmetries:
       Occupied  (A) (A) (A) (A) (A) (A) (A) (A) (A) (A) (A) (A)
                 (A) (A) (A) (A) (A) (A) (A) (A) (A) (A) (A) (A)
                 (A) (A) (A) (A) (A) (A) (A) (A) (A) (A) (A) (A)
                 (A) (A) (A) (A) (A) (A) (A) (A) (A) (A) (A) (A)
                 (A) (A) (A) (A) (A) (A) (A) (A) (A) (A) (A) (A)
                 (A) (A) (A) (A) (A) (A) (A) (A) (A) (A) (A) (A)
                 (A) (A) (A) (A) (A) (A) (A) (A) (A) (A) (A) (A)
                 (A) (A) (A) (A) (A) (A) (A) (A) (A) (A) (A) (A)
                 (A) (A) (A) (A) (A) (A) (A) (A) (A) (A) (A) (A)
                 (A) (A) (A) (A) (A) (A) (A) (A) (A) (A) (A) (A)
                 (A) (A) (A) (A) (A) (A) (A) (A) (A) (A) (A) (A)
                 (A) (A) (A) (A) (A) (A) (A) (A) (A) (A) (A) (A)
                 (A) (A) (A) (A) (A) (A) (A) (A) (A) (A) (A) (A)
                 (A) (A) (A) (A) (A) (A) (A) (A) (A) (A) (A) (A)
                 (A) (A) (A) (A) (A) (A) (A) (A) (A) (A) (A) (A)
                 (A) (A) (A) (A) (A) (A) (A) (A) (A) (A) (A) (A)
                 (A) (A) (A) (A) (A) (A) (A) (A) (A) (A) (A) (A)
                 (A) (A) (A) (A) (A) (A) (A) (A) (A) (A) (A) (A)
                 (A) (A) (A) (A) (A) (A) (A) (A) (A) (A) (A) (A)
                 (A) (A) (A) (A) (A) (A) (A) (A)
       Virtual   (A) (A) (A) (A) (A) (A) (A) (A) (A) (A) (A) (A)
                 (A) (A) (A) (A) (A) (A) (A) (A) (A) (A) (A) (A)
                 (A) (A) (A) (A) (A) (A) (A) (A) (A) (A) (A) (A)
                 (A) (A) (A) (A) (A) (A) (A) (A) (A) (A) (A) (A)
                 (A) (A) (A) (A) (A) (A) (A) (A) (A) (A) (A) (A)
                 (A) (A) (A) (A) (A) (A) (A) (A) (A) (A) (A) (A)
                 (A) (A) (A) (A) (A) (A) (A) (A) (A) (A) (A) (A)
                 (A) (A) (A) (A) (A) (A) (A) (A) (A) (A) (A) (A)
                 (A) (A) (A) (A) (A) (A) (A) (A) (A) (A) (A) (A)
                 (A) (A) (A) (A) (A) (A) (A) (A) (A) (A) (A) (A)
                 (A) (A) (A) (A) (A) (A) (A) (A) (A) (A) (A) (A)
                 (A) (A) (A) (A) (A) (A) (A) (A) (A) (A) (A) (A)
                 (A) (A) (A) (A) (A) (A) (A) (A) (A) (A) (A) (A)
                 (A) (A) (A) (A) (A) (A) (A) (A) (A) (A) (A) (A)
                 (A) (A) (A) (A) (A) (A) (A) (A) (A) (A) (A) (A)
                 (A) (A) (A) (A) (A) (A) (A) (A) (A) (A) (A) (A)
                 (A) (A) (A) (A) (A) (A) (A) (A) (A) (A) (A) (A)
                 (A) (A) (A) (A) (A) (A) (A) (A) (A) (A) (A) (A)
                 (A) (A) (A) (A) (A) (A) (A) (A) (A) (A) (A) (A)
                 (A) (A) (A) (A) (A) (A) (A) (A) (A) (A) (A) (A)
                 (A) (A) (A) (A) (A) (A) (A) (A) (A) (A) (A) (A)
                 (A) (A) (A) (A) (A) (A) (A) (A) (A) (A) (A) (A)
                 (A) (A) (A) (A) (A) (A) (A) (A) (A) (A) (A) (A)
                 (A) (A) (A) (A) (A) (A) (A) (A) (A) (A) (A) (A)
                 (A) (A) (A) (A) (A) (A) (A) (A) (A) (A) (A) (A)
                 (A) (A) (A) (A) (A) (A) (A) (A) (A) (A) (A) (A)
                 (A) (A) (A) (A) (A) (A) (A) (A) (A) (A) (A) (A)
                 (A) (A) (A) (A) (A) (A) (A) (A) (A) (A) (A) (A)
                 (A) (A) (A) (A) (A) (A) (A) (A) (A) (A) (A) (A)
                 (A) (A) (A) (A) (A) (A) (A) (A) (A) (A) (A) (A)
                 (A) (A) (A) (A) (A) (A) (A) (A) (A) (A) (A) (A)
                 (A) (A) (A) (A) (A) (A) (A) (A) (A) (A) (A) (A)
                 (A) (A) (A) (A) (A) (A) (A) (A) (A) (A) (A) (A)
                 (A) (A) (A) (A) (A) (A) (A) (A) (A) (A) (A) (A)
                 (A) (A) (A) (A) (A) (A) (A) (A) (A) (A) (A) (A)
                 (A) (A) (A) (A) (A) (A) (A) (A) (A) (A) (A) (A)
                 (A) (A) (A) (A) (A) (A) (A) (A) (A) (A) (A) (A)
                 (A) (A) (A) (A) (A) (A) (A) (A) (A) (A) (A) (A)
                 (A) (A) (A) (A) (A) (A) (A) (A) (A) (A) (A) (A)
                 (A) (A) (A) (A) (A) (A) (A) (A) (A) (A) (A) (A)
                 (A) (A) (A) (A) (A) (A) (A) (A) (A) (A) (A) (A)
                 (A) (A) (A) (A) (A) (A) (A) (A) (A) (A) (A) (A)
                 (A) (A) (A) (A) (A) (A) (A) (A) (A) (A) (A) (A)
                 (A) (A) (A) (A) (A) (A) (A) (A) (A) (A) (A) (A)
                 (A) (A) (A) (A) (A) (A) (A) (A) (A) (A) (A) (A)
                 (A) (A) (A) (A) (A) (A) (A) (A) (A) (A) (A) (A)
                 (A) (A) (A) (A) (A) (A) (A) (A) (A) (A) (A) (A)
                 (A) (A) (A) (A) (A) (A) (A) (A) (A) (A) (A) (A)
                 (A) (A) (A) (A) (A) (A) (A) (A) (A) (A) (A) (A)
                 (A) (A) (A) (A) (A) (A) (A) (A) (A) (A) (A) (A)
                 (A) (A) (A) (A) (A) (A) (A) (A) (A) (A) (A) (A)
                 (A) (A) (A) (A) (A) (A) (A) (A) (A) (A) (A) (A)
                 (A) (A) (A) (A) (A) (A) (A) (A) (A) (A) (A) (A)
                 (A) (A) (A) (A) (A) (A) (A) (A) (A) (A) (A) (A)
                 (A) (A) (A) (A) (A) (A) (A) (A) (A) (A) (A) (A)
                 (A) (A) (A) (A) (A) (A) (A) (A) (A) (A) (A) (A)
                 (A) (A) (A) (A) (A) (A) (A) (A) (A) (A) (A) (A)
                 (A) (A) (A) (A) (A) (A) (A) (A) (A) (A) (A) (A)
                 (A) (A) (A) (A) (A) (A) (A) (A) (A) (A) (A) (A)
                 (A) (A) (A) (A) (A) (A) (A) (A) (A) (A) (A) (A)
                 (A) (A) (A) (A) (A) (A) (A) (A) (A) (A) (A) (A)
                 (A) (A) (A) (A) (A) (A) (A) (A) (A) (A) (A) (A)
                 (A) (A) (A) (A) (A) (A) (A) (A) (A) (A) (A) (A)
                 (A) (A) (A) (A) (A) (A) (A) (A) (A) (A) (A) (A)
                 (A) (A) (A) (A) (A) (A) (A) (A) (A) (A) (A) (A)
                 (A) (A) (A) (A) (A) (A) (A) (A) (A) (A) (A) (A)
                 (A) (A) (A) (A) (A) (A) (A) (A) (A) (A) (A) (A)
                 (A) (A) (A) (A) (A) (A) (A) (A) (A) (A) (A) (A)
                 (A) (A) (A) (A) (A) (A) (A) (A) (A) (A) (A) (A)
                 (A) (A) (A) (A) (A) (A) (A) (A) (A) (A) (A) (A)
                 (A) (A) (A) (A) (A) (A) (A) (A) (A) (A) (A) (A)
                 (A) (A) (A) (A) (A) (A) (A) (A) (A) (A) (A) (A)
                 (A) (A) (A) (A) (A) (A) (A) (A) (A) (A) (A) (A)
                 (A) (A) (A) (A) (A) (A) (A) (A) (A) (A) (A) (A)
                 (A) (A) (A) (A) (A) (A) (A) (A) (A) (A) (A) (A)
                 (A) (A) (A) (A) (A) (A) (A) (A) (A) (A) (A) (A)
                 (A) (A) (A) (A) (A) (A) (A) (A) (A) (A) (A) (A)
                 (A) (A) (A) (A) (A) (A) (A) (A) (A) (A) (A) (A)
                 (A) (A) (A) (A) (A) (A) (A) (A) (A) (A) (A) (A)
                 (A) (A) (A) (A) (A) (A) (A) (A) (A) (A) (A) (A)
                 (A) (A) (A) (A) (A) (A) (A) (A) (A) (A) (A) (A)
                 (A) (A) (A) (A) (A) (A) (A) (A) (A) (A) (A) (A)
                 (A) (A) (A) (A) (A) (A) (A) (A) (A) (A) (A) (A)
                 (A) (A) (A) (A) (A) (A) (A) (A) (A) (A) (A) (A)
                 (A) (A) (A) (A) (A) (A) (A) (A) (A) (A) (A) (A)
                 (A) (A) (A) (A) (A) (A) (A) (A) (A) (A)
     4 initial guesses have been made.
 Convergence on wavefunction:    0.001000000000000
 Iteration     1 Dimension     4 NMult     0 NNew      4
 CISAX will form     4 AO SS matrices at one time.
 New state      1 was old state      2
 Iteration     2 Dimension     6 NMult     4 NNew      2
 Iteration     3 Dimension     8 NMult     6 NNew      2
 Iteration     4 Dimension    10 NMult     8 NNew      2
 Iteration     5 Dimension    12 NMult    10 NNew      2
 Iteration     6 Dimension    14 NMult    12 NNew      2
 Iteration     7 Dimension    16 NMult    14 NNew      2
 Iteration     8 Dimension    18 NMult    16 NNew      2
 Iteration     9 Dimension    20 NMult    18 NNew      2
 ***********************************************************************
 Excited states from <AA,BB:AA,BB> singles matrix:
 ***********************************************************************
 
 Ground to excited state transition densities written to RWF  633
 Ground to excited state transition electric dipole moments (Au):
       state          X           Y           Z        Dip. S.      Osc.
         1         0.2631     -2.0794     -0.1123      4.4059      0.2238
 Ground to excited state transition velocity dipole moments (Au):
       state          X           Y           Z        Dip. S.      Osc.
         1        -0.0190      0.1545      0.0083      0.0243      0.2125
 Ground to excited state transition magnetic dipole moments (Au):
       state          X           Y           Z
         1         0.0887      0.1985     -2.6839
 Ground to excited state transition velocity quadrupole moments (Au):
       state          XX          YY          ZZ          XY          XZ          YZ
         1         0.4514      0.3548      0.0216     -2.0286     -0.0751      0.0756
 <0|del|b> * <b|rxdel|0> + <0|del|b> * <b|delr+rdel|0>
 Rotatory Strengths (R) in cgs (10**-40 erg-esu-cm/Gauss)
       state          XX          YY          ZZ    R(velocity)    E-M Angle
         1        15.3550    -39.6372     87.2912     21.0030       89.07
 1/2[<0|r|b>*<b|rxdel|0> + (<0|rxdel|b>*<b|r|0>)*]
 Rotatory Strengths (R) in cgs (10**-40 erg-esu-cm/Gauss)
       state          XX          YY          ZZ     R(length)
         1       -16.5031    291.8589   -213.1607     20.7317
  1/2[<0|del|b>*<b|r|0> + (<0|r|b>*<b|del|0>)*] (Au)
       state          X           Y           Z        Dip. S.   Osc.(frdel)
         1        -0.0050     -0.3212     -0.0009      0.3272      0.2181

 Excitation energies and oscillator strengths:
 
 Excited State   1:      Singlet-A      2.0736 eV  597.91 nm  f=0.2238  <S**2>=0.000
     235 -> 237       -0.30272
     235 -> 238        0.24150
     236 -> 237        0.55991
     236 -> 238        0.18459
 This state for optimization and/or second-order correction.
 Total Energy, E(TD-HF/TD-DFT) =  -2733.00519038    
 Copying the excited state density for this state as the 1-particle RhoCI density.
 SavETr:  write IOETrn=   770 NScale= 10 NData=  16 NLR=1 NState=    1 LETran=      28.
 Hyperfine terms turned off by default for NAtoms > 100.

 **********************************************************************

            Population analysis using the SCF density.

 **********************************************************************

 Orbital symmetries:
       Occupied  (A) (A) (A) (A) (A) (A) (A) (A) (A) (A) (A) (A)
                 (A) (A) (A) (A) (A) (A) (A) (A) (A) (A) (A) (A)
                 (A) (A) (A) (A) (A) (A) (A) (A) (A) (A) (A) (A)
                 (A) (A) (A) (A) (A) (A) (A) (A) (A) (A) (A) (A)
                 (A) (A) (A) (A) (A) (A) (A) (A) (A) (A) (A) (A)
                 (A) (A) (A) (A) (A) (A) (A) (A) (A) (A) (A) (A)
                 (A) (A) (A) (A) (A) (A) (A) (A) (A) (A) (A) (A)
                 (A) (A) (A) (A) (A) (A) (A) (A) (A) (A) (A) (A)
                 (A) (A) (A) (A) (A) (A) (A) (A) (A) (A) (A) (A)
                 (A) (A) (A) (A) (A) (A) (A) (A) (A) (A) (A) (A)
                 (A) (A) (A) (A) (A) (A) (A) (A) (A) (A) (A) (A)
                 (A) (A) (A) (A) (A) (A) (A) (A) (A) (A) (A) (A)
                 (A) (A) (A) (A) (A) (A) (A) (A) (A) (A) (A) (A)
                 (A) (A) (A) (A) (A) (A) (A) (A) (A) (A) (A) (A)
                 (A) (A) (A) (A) (A) (A) (A) (A) (A) (A) (A) (A)
                 (A) (A) (A) (A) (A) (A) (A) (A) (A) (A) (A) (A)
                 (A) (A) (A) (A) (A) (A) (A) (A) (A) (A) (A) (A)
                 (A) (A) (A) (A) (A) (A) (A) (A) (A) (A) (A) (A)
                 (A) (A) (A) (A) (A) (A) (A) (A) (A) (A) (A) (A)
                 (A) (A) (A) (A) (A) (A) (A) (A)
       Virtual   (A) (A) (A) (A) (A) (A) (A) (A) (A) (A) (A) (A)
                 (A) (A) (A) (A) (A) (A) (A) (A) (A) (A) (A) (A)
                 (A) (A) (A) (A) (A) (A) (A) (A) (A) (A) (A) (A)
                 (A) (A) (A) (A) (A) (A) (A) (A) (A) (A) (A) (A)
                 (A) (A) (A) (A) (A) (A) (A) (A) (A) (A) (A) (A)
                 (A) (A) (A) (A) (A) (A) (A) (A) (A) (A) (A) (A)
                 (A) (A) (A) (A) (A) (A) (A) (A) (A) (A) (A) (A)
                 (A) (A) (A) (A) (A) (A) (A) (A) (A) (A) (A) (A)
                 (A) (A) (A) (A) (A) (A) (A) (A) (A) (A) (A) (A)
                 (A) (A) (A) (A) (A) (A) (A) (A) (A) (A) (A) (A)
                 (A) (A) (A) (A) (A) (A) (A) (A) (A) (A) (A) (A)
                 (A) (A) (A) (A) (A) (A) (A) (A) (A) (A) (A) (A)
                 (A) (A) (A) (A) (A) (A) (A) (A) (A) (A) (A) (A)
                 (A) (A) (A) (A) (A) (A) (A) (A) (A) (A) (A) (A)
                 (A) (A) (A) (A) (A) (A) (A) (A) (A) (A) (A) (A)
                 (A) (A) (A) (A) (A) (A) (A) (A) (A) (A) (A) (A)
                 (A) (A) (A) (A) (A) (A) (A) (A) (A) (A) (A) (A)
                 (A) (A) (A) (A) (A) (A) (A) (A) (A) (A) (A) (A)
                 (A) (A) (A) (A) (A) (A) (A) (A) (A) (A) (A) (A)
                 (A) (A) (A) (A) (A) (A) (A) (A) (A) (A) (A) (A)
                 (A) (A) (A) (A) (A) (A) (A) (A) (A) (A) (A) (A)
                 (A) (A) (A) (A) (A) (A) (A) (A) (A) (A) (A) (A)
                 (A) (A) (A) (A) (A) (A) (A) (A) (A) (A) (A) (A)
                 (A) (A) (A) (A) (A) (A) (A) (A) (A) (A) (A) (A)
                 (A) (A) (A) (A) (A) (A) (A) (A) (A) (A) (A) (A)
                 (A) (A) (A) (A) (A) (A) (A) (A) (A) (A) (A) (A)
                 (A) (A) (A) (A) (A) (A) (A) (A) (A) (A) (A) (A)
                 (A) (A) (A) (A) (A) (A) (A) (A) (A) (A) (A) (A)
                 (A) (A) (A) (A) (A) (A) (A) (A) (A) (A) (A) (A)
                 (A) (A) (A) (A) (A) (A) (A) (A) (A) (A) (A) (A)
                 (A) (A) (A) (A) (A) (A) (A) (A) (A) (A) (A) (A)
                 (A) (A) (A) (A) (A) (A) (A) (A) (A) (A) (A) (A)
                 (A) (A) (A) (A) (A) (A) (A) (A) (A) (A) (A) (A)
                 (A) (A) (A) (A) (A) (A) (A) (A) (A) (A) (A) (A)
                 (A) (A) (A) (A) (A) (A) (A) (A) (A) (A) (A) (A)
                 (A) (A) (A) (A) (A) (A) (A) (A) (A) (A) (A) (A)
                 (A) (A) (A) (A) (A) (A) (A) (A) (A) (A) (A) (A)
                 (A) (A) (A) (A) (A) (A) (A) (A) (A) (A) (A) (A)
                 (A) (A) (A) (A) (A) (A) (A) (A) (A) (A) (A) (A)
                 (A) (A) (A) (A) (A) (A) (A) (A) (A) (A) (A) (A)
                 (A) (A) (A) (A) (A) (A) (A) (A) (A) (A) (A) (A)
                 (A) (A) (A) (A) (A) (A) (A) (A) (A) (A) (A) (A)
                 (A) (A) (A) (A) (A) (A) (A) (A) (A) (A) (A) (A)
                 (A) (A) (A) (A) (A) (A) (A) (A) (A) (A) (A) (A)
                 (A) (A) (A) (A) (A) (A) (A) (A) (A) (A) (A) (A)
                 (A) (A) (A) (A) (A) (A) (A) (A) (A) (A) (A) (A)
                 (A) (A) (A) (A) (A) (A) (A) (A) (A) (A) (A) (A)
                 (A) (A) (A) (A) (A) (A) (A) (A) (A) (A) (A) (A)
                 (A) (A) (A) (A) (A) (A) (A) (A) (A) (A) (A) (A)
                 (A) (A) (A) (A) (A) (A) (A) (A) (A) (A) (A) (A)
                 (A) (A) (A) (A) (A) (A) (A) (A) (A) (A) (A) (A)
                 (A) (A) (A) (A) (A) (A) (A) (A) (A) (A) (A) (A)
                 (A) (A) (A) (A) (A) (A) (A) (A) (A) (A) (A) (A)
                 (A) (A) (A) (A) (A) (A) (A) (A) (A) (A) (A) (A)
                 (A) (A) (A) (A) (A) (A) (A) (A) (A) (A) (A) (A)
                 (A) (A) (A) (A) (A) (A) (A) (A) (A) (A) (A) (A)
                 (A) (A) (A) (A) (A) (A) (A) (A) (A) (A) (A) (A)
                 (A) (A) (A) (A) (A) (A) (A) (A) (A) (A) (A) (A)
                 (A) (A) (A) (A) (A) (A) (A) (A) (A) (A) (A) (A)
                 (A) (A) (A) (A) (A) (A) (A) (A) (A) (A) (A) (A)
                 (A) (A) (A) (A) (A) (A) (A) (A) (A) (A) (A) (A)
                 (A) (A) (A) (A) (A) (A) (A) (A) (A) (A) (A) (A)
                 (A) (A) (A) (A) (A) (A) (A) (A) (A) (A) (A) (A)
                 (A) (A) (A) (A) (A) (A) (A) (A) (A) (A) (A) (A)
                 (A) (A) (A) (A) (A) (A) (A) (A) (A) (A) (A) (A)
                 (A) (A) (A) (A) (A) (A) (A) (A) (A) (A) (A) (A)
                 (A) (A) (A) (A) (A) (A) (A) (A) (A) (A) (A) (A)
                 (A) (A) (A) (A) (A) (A) (A) (A) (A) (A) (A) (A)
                 (A) (A) (A) (A) (A) (A) (A) (A) (A) (A) (A) (A)
                 (A) (A) (A) (A) (A) (A) (A) (A) (A) (A) (A) (A)
                 (A) (A) (A) (A) (A) (A) (A) (A) (A) (A) (A) (A)
                 (A) (A) (A) (A) (A) (A) (A) (A) (A) (A) (A) (A)
                 (A) (A) (A) (A) (A) (A) (A) (A) (A) (A) (A) (A)
                 (A) (A) (A) (A) (A) (A) (A) (A) (A) (A) (A) (A)
                 (A) (A) (A) (A) (A) (A) (A) (A) (A) (A) (A) (A)
                 (A) (A) (A) (A) (A) (A) (A) (A) (A) (A) (A) (A)
                 (A) (A) (A) (A) (A) (A) (A) (A) (A) (A) (A) (A)
                 (A) (A) (A) (A) (A) (A) (A) (A) (A) (A) (A) (A)
                 (A) (A) (A) (A) (A) (A) (A) (A) (A) (A) (A) (A)
                 (A) (A) (A) (A) (A) (A) (A) (A) (A) (A) (A) (A)
                 (A) (A) (A) (A) (A) (A) (A) (A) (A) (A) (A) (A)
                 (A) (A) (A) (A) (A) (A) (A) (A) (A) (A) (A) (A)
                 (A) (A) (A) (A) (A) (A) (A) (A) (A) (A) (A) (A)
                 (A) (A) (A) (A) (A) (A) (A) (A) (A) (A) (A) (A)
                 (A) (A) (A) (A) (A) (A) (A) (A) (A) (A) (A) (A)
                 (A) (A) (A) (A) (A) (A) (A) (A) (A) (A)
 The electronic state is 1-A.
 Alpha  occ. eigenvalues --  -19.18829 -19.18253 -19.11512 -19.11217 -19.11161
 Alpha  occ. eigenvalues --  -14.38129 -14.36105 -14.32043 -14.29927 -10.31839
 Alpha  occ. eigenvalues --  -10.30962 -10.28613 -10.27229 -10.25651 -10.24762
 Alpha  occ. eigenvalues --  -10.23899 -10.23489 -10.22849 -10.22833 -10.22613
 Alpha  occ. eigenvalues --  -10.22201 -10.22159 -10.22148 -10.21763 -10.21556
 Alpha  occ. eigenvalues --  -10.21498 -10.21471 -10.21025 -10.21016 -10.20981
 Alpha  occ. eigenvalues --  -10.20923 -10.20756 -10.20663 -10.20569 -10.20533
 Alpha  occ. eigenvalues --  -10.20480 -10.20344 -10.20282 -10.20150 -10.20036
 Alpha  occ. eigenvalues --  -10.20012 -10.19876 -10.19623 -10.19471 -10.19239
 Alpha  occ. eigenvalues --  -10.19099 -10.19006 -10.18946 -10.18926 -10.18672
 Alpha  occ. eigenvalues --  -10.18637 -10.18631 -10.18481 -10.18418 -10.18273
 Alpha  occ. eigenvalues --  -10.18264 -10.18260 -10.18189 -10.17911 -10.17850
 Alpha  occ. eigenvalues --  -10.17704 -10.16833 -10.16430 -10.16074  -1.11722
 Alpha  occ. eigenvalues --   -1.07883  -1.00779  -1.00082  -0.99875  -0.99456
 Alpha  occ. eigenvalues --   -0.97461  -0.95381  -0.93955  -0.85471  -0.83607
 Alpha  occ. eigenvalues --   -0.82378  -0.82221  -0.81883  -0.81549  -0.81232
 Alpha  occ. eigenvalues --   -0.81075  -0.80897  -0.79831  -0.78555  -0.77438
 Alpha  occ. eigenvalues --   -0.76468  -0.75993  -0.74861  -0.74582  -0.73825
 Alpha  occ. eigenvalues --   -0.73538  -0.73087  -0.72633  -0.71970  -0.71080
 Alpha  occ. eigenvalues --   -0.70386  -0.69015  -0.68732  -0.68459  -0.67820
 Alpha  occ. eigenvalues --   -0.67221  -0.66780  -0.66648  -0.66315  -0.65843
 Alpha  occ. eigenvalues --   -0.64040  -0.62851  -0.62655  -0.62512  -0.62246
 Alpha  occ. eigenvalues --   -0.61044  -0.59584  -0.58722  -0.58367  -0.58045
 Alpha  occ. eigenvalues --   -0.57137  -0.56761  -0.56288  -0.56153  -0.55281
 Alpha  occ. eigenvalues --   -0.54737  -0.54415  -0.53956  -0.53913  -0.53370
 Alpha  occ. eigenvalues --   -0.52795  -0.52417  -0.51634  -0.51140  -0.50203
 Alpha  occ. eigenvalues --   -0.50067  -0.49298  -0.49154  -0.48825  -0.48502
 Alpha  occ. eigenvalues --   -0.47832  -0.47625  -0.47424  -0.47242  -0.47096
 Alpha  occ. eigenvalues --   -0.47045  -0.46578  -0.46337  -0.46072  -0.45781
 Alpha  occ. eigenvalues --   -0.45595  -0.45460  -0.45188  -0.44941  -0.44892
 Alpha  occ. eigenvalues --   -0.44627  -0.44184  -0.44120  -0.43516  -0.43302
 Alpha  occ. eigenvalues --   -0.43221  -0.43152  -0.42944  -0.42727  -0.42312
 Alpha  occ. eigenvalues --   -0.42281  -0.42181  -0.41834  -0.41391  -0.41281
 Alpha  occ. eigenvalues --   -0.40950  -0.40877  -0.40819  -0.40605  -0.40506
 Alpha  occ. eigenvalues --   -0.40287  -0.40079  -0.39952  -0.39767  -0.39592
 Alpha  occ. eigenvalues --   -0.39408  -0.39261  -0.38979  -0.38637  -0.38407
 Alpha  occ. eigenvalues --   -0.38247  -0.38111  -0.37664  -0.37580  -0.37330
 Alpha  occ. eigenvalues --   -0.37119  -0.36938  -0.36823  -0.36744  -0.36643
 Alpha  occ. eigenvalues --   -0.36606  -0.36496  -0.36047  -0.35841  -0.35657
 Alpha  occ. eigenvalues --   -0.35569  -0.35381  -0.35244  -0.34874  -0.34735
 Alpha  occ. eigenvalues --   -0.34550  -0.34491  -0.33851  -0.33748  -0.33719
 Alpha  occ. eigenvalues --   -0.33355  -0.33264  -0.33170  -0.32827  -0.32529
 Alpha  occ. eigenvalues --   -0.32195  -0.31948  -0.31802  -0.31732  -0.31368
 Alpha  occ. eigenvalues --   -0.30887  -0.30501  -0.30434  -0.30376  -0.30172
 Alpha  occ. eigenvalues --   -0.29831  -0.29397  -0.29239  -0.28905  -0.27419
 Alpha  occ. eigenvalues --   -0.27087  -0.26905  -0.26316  -0.26090  -0.25617
 Alpha  occ. eigenvalues --   -0.25177  -0.24080  -0.23820  -0.22904  -0.20045
 Alpha  occ. eigenvalues --   -0.19101
 Alpha virt. eigenvalues --   -0.10822  -0.07563  -0.04295  -0.02847  -0.00447
 Alpha virt. eigenvalues --   -0.00240   0.00236   0.01360   0.02497   0.03751
 Alpha virt. eigenvalues --    0.03896   0.04075   0.04230   0.04275   0.04703
 Alpha virt. eigenvalues --    0.04806   0.05153   0.05372   0.05460   0.05774
 Alpha virt. eigenvalues --    0.05985   0.06364   0.06665   0.06797   0.06951
 Alpha virt. eigenvalues --    0.07008   0.07353   0.07706   0.07838   0.08187
 Alpha virt. eigenvalues --    0.08218   0.08409   0.08729   0.08815   0.08938
 Alpha virt. eigenvalues --    0.09066   0.09301   0.09524   0.09874   0.10161
 Alpha virt. eigenvalues --    0.10223   0.10248   0.10361   0.10596   0.10707
 Alpha virt. eigenvalues --    0.10894   0.11051   0.11243   0.11302   0.11474
 Alpha virt. eigenvalues --    0.11611   0.11804   0.12053   0.12130   0.12260
 Alpha virt. eigenvalues --    0.12370   0.12486   0.12609   0.12840   0.12959
 Alpha virt. eigenvalues --    0.12980   0.13404   0.13441   0.13448   0.13662
 Alpha virt. eigenvalues --    0.13779   0.14266   0.14470   0.14537   0.14582
 Alpha virt. eigenvalues --    0.14837   0.14924   0.15356   0.15412   0.15861
 Alpha virt. eigenvalues --    0.15968   0.16163   0.16649   0.16929   0.17053
 Alpha virt. eigenvalues --    0.17369   0.17564   0.17652   0.17800   0.17983
 Alpha virt. eigenvalues --    0.18117   0.18198   0.18635   0.18774   0.18963
 Alpha virt. eigenvalues --    0.19121   0.19491   0.19613   0.19846   0.19900
 Alpha virt. eigenvalues --    0.20267   0.20274   0.20351   0.20472   0.20723
 Alpha virt. eigenvalues --    0.20959   0.21611   0.21704   0.21830   0.22018
 Alpha virt. eigenvalues --    0.22138   0.22736   0.22911   0.23099   0.23267
 Alpha virt. eigenvalues --    0.23607   0.23786   0.23990   0.24110   0.24634
 Alpha virt. eigenvalues --    0.24653   0.24846   0.25231   0.25451   0.25927
 Alpha virt. eigenvalues --    0.25963   0.26280   0.26701   0.27527   0.27927
 Alpha virt. eigenvalues --    0.27981   0.28122   0.28662   0.29054   0.29246
 Alpha virt. eigenvalues --    0.29379   0.29564   0.29933   0.30269   0.30893
 Alpha virt. eigenvalues --    0.31379   0.32048   0.32232   0.32421   0.33074
 Alpha virt. eigenvalues --    0.33295   0.33461   0.34138   0.35170   0.35286
 Alpha virt. eigenvalues --    0.35969   0.36363   0.36479   0.36847   0.37258
 Alpha virt. eigenvalues --    0.37411   0.38146   0.38279   0.38843   0.38950
 Alpha virt. eigenvalues --    0.39432   0.39661   0.39770   0.40035   0.40189
 Alpha virt. eigenvalues --    0.40442   0.40595   0.40889   0.40940   0.41303
 Alpha virt. eigenvalues --    0.41419   0.41475   0.41549   0.41850   0.42171
 Alpha virt. eigenvalues --    0.42395   0.42596   0.42675   0.42827   0.42940
 Alpha virt. eigenvalues --    0.43311   0.43386   0.43556   0.43576   0.44012
 Alpha virt. eigenvalues --    0.44049   0.44263   0.44453   0.44616   0.44904
 Alpha virt. eigenvalues --    0.45054   0.45406   0.45674   0.45823   0.46075
 Alpha virt. eigenvalues --    0.46280   0.46433   0.46823   0.47339   0.47645
 Alpha virt. eigenvalues --    0.48013   0.48149   0.48488   0.48652   0.48951
 Alpha virt. eigenvalues --    0.49125   0.49158   0.49390   0.49790   0.49965
 Alpha virt. eigenvalues --    0.50223   0.50404   0.50895   0.50953   0.51199
 Alpha virt. eigenvalues --    0.51670   0.51799   0.51975   0.52186   0.52344
 Alpha virt. eigenvalues --    0.52488   0.53139   0.53486   0.53814   0.54035
 Alpha virt. eigenvalues --    0.54235   0.54427   0.54770   0.54856   0.54974
 Alpha virt. eigenvalues --    0.55237   0.55363   0.55522   0.55621   0.56021
 Alpha virt. eigenvalues --    0.56282   0.56428   0.56753   0.56790   0.56892
 Alpha virt. eigenvalues --    0.57344   0.57689   0.57874   0.58009   0.58319
 Alpha virt. eigenvalues --    0.58396   0.58523   0.58871   0.58955   0.59033
 Alpha virt. eigenvalues --    0.59256   0.59578   0.59692   0.59847   0.59940
 Alpha virt. eigenvalues --    0.59979   0.60265   0.60488   0.60541   0.60631
 Alpha virt. eigenvalues --    0.60747   0.60875   0.61176   0.61294   0.61365
 Alpha virt. eigenvalues --    0.61663   0.61817   0.61959   0.62336   0.62391
 Alpha virt. eigenvalues --    0.62491   0.62647   0.62757   0.62958   0.63357
 Alpha virt. eigenvalues --    0.63379   0.63546   0.63658   0.63722   0.63903
 Alpha virt. eigenvalues --    0.63977   0.64215   0.64251   0.64320   0.64463
 Alpha virt. eigenvalues --    0.64627   0.64666   0.64760   0.64938   0.65038
 Alpha virt. eigenvalues --    0.65287   0.65378   0.65502   0.65517   0.65647
 Alpha virt. eigenvalues --    0.65752   0.65844   0.65936   0.66093   0.66281
 Alpha virt. eigenvalues --    0.66303   0.66630   0.66744   0.66785   0.67082
 Alpha virt. eigenvalues --    0.67197   0.67274   0.67489   0.67653   0.67833
 Alpha virt. eigenvalues --    0.68020   0.68041   0.68121   0.68289   0.68393
 Alpha virt. eigenvalues --    0.68633   0.68804   0.69039   0.69202   0.69245
 Alpha virt. eigenvalues --    0.69296   0.69613   0.69669   0.69920   0.70009
 Alpha virt. eigenvalues --    0.70255   0.70337   0.70418   0.70574   0.70742
 Alpha virt. eigenvalues --    0.70887   0.71016   0.71082   0.71278   0.71390
 Alpha virt. eigenvalues --    0.71621   0.71635   0.71855   0.72025   0.72296
 Alpha virt. eigenvalues --    0.72347   0.72798   0.72864   0.73040   0.73194
 Alpha virt. eigenvalues --    0.73534   0.73576   0.73906   0.74056   0.74158
 Alpha virt. eigenvalues --    0.74212   0.74352   0.74713   0.74751   0.74990
 Alpha virt. eigenvalues --    0.75209   0.75426   0.75543   0.75714   0.76014
 Alpha virt. eigenvalues --    0.76513   0.76569   0.76839   0.76940   0.77146
 Alpha virt. eigenvalues --    0.77534   0.77639   0.77903   0.77924   0.78336
 Alpha virt. eigenvalues --    0.78478   0.78622   0.79008   0.79617   0.79728
 Alpha virt. eigenvalues --    0.79748   0.79998   0.80257   0.81021   0.81248
 Alpha virt. eigenvalues --    0.81360   0.81603   0.82709   0.82769   0.83264
 Alpha virt. eigenvalues --    0.83513   0.83759   0.84137   0.84740   0.85204
 Alpha virt. eigenvalues --    0.86291   0.86643   0.86792   0.87138   0.87634
 Alpha virt. eigenvalues --    0.88626   0.88795   0.89715   0.89835   0.90365
 Alpha virt. eigenvalues --    0.90546   0.90694   0.91416   0.91998   0.92179
 Alpha virt. eigenvalues --    0.92648   0.93172   0.94006   0.94170   0.95071
 Alpha virt. eigenvalues --    0.95457   0.95894   0.96097   0.96328   0.96570
 Alpha virt. eigenvalues --    0.96822   0.97562   0.98358   0.98763   0.99291
 Alpha virt. eigenvalues --    0.99509   0.99971   1.00630   1.00694   1.00877
 Alpha virt. eigenvalues --    1.01765   1.02127   1.02314   1.02668   1.02992
 Alpha virt. eigenvalues --    1.03362   1.03792   1.04063   1.04334   1.04624
 Alpha virt. eigenvalues --    1.05219   1.05976   1.06395   1.06671   1.07105
 Alpha virt. eigenvalues --    1.07304   1.08005   1.08242   1.08791   1.08967
 Alpha virt. eigenvalues --    1.09625   1.10111   1.10140   1.11178   1.12373
 Alpha virt. eigenvalues --    1.12649   1.13289   1.13400   1.14008   1.14600
 Alpha virt. eigenvalues --    1.14795   1.14988   1.15891   1.16298   1.17014
 Alpha virt. eigenvalues --    1.17258   1.17461   1.17600   1.17849   1.18098
 Alpha virt. eigenvalues --    1.19185   1.19598   1.19838   1.20175   1.20548
 Alpha virt. eigenvalues --    1.21168   1.21472   1.21935   1.22315   1.22618
 Alpha virt. eigenvalues --    1.23073   1.23764   1.23883   1.24831   1.25705
 Alpha virt. eigenvalues --    1.25901   1.26336   1.26636   1.27092   1.27369
 Alpha virt. eigenvalues --    1.27561   1.28003   1.28485   1.29040   1.29227
 Alpha virt. eigenvalues --    1.29961   1.30494   1.30869   1.31136   1.31377
 Alpha virt. eigenvalues --    1.31819   1.31927   1.32647   1.32738   1.32916
 Alpha virt. eigenvalues --    1.33424   1.33678   1.33905   1.34819   1.34856
 Alpha virt. eigenvalues --    1.34991   1.35680   1.35932   1.36088   1.36274
 Alpha virt. eigenvalues --    1.36825   1.37449   1.38191   1.38822   1.39558
 Alpha virt. eigenvalues --    1.40087   1.40345   1.40755   1.41375   1.41632
 Alpha virt. eigenvalues --    1.42015   1.42364   1.42843   1.43414   1.43895
 Alpha virt. eigenvalues --    1.44013   1.44079   1.44696   1.44845   1.45025
 Alpha virt. eigenvalues --    1.46131   1.46270   1.46493   1.47478   1.47632
 Alpha virt. eigenvalues --    1.48109   1.48138   1.48504   1.48898   1.48968
 Alpha virt. eigenvalues --    1.49090   1.49548   1.50631   1.50660   1.51093
 Alpha virt. eigenvalues --    1.51377   1.51563   1.51726   1.52098   1.52335
 Alpha virt. eigenvalues --    1.52872   1.53009   1.53361   1.53381   1.53803
 Alpha virt. eigenvalues --    1.54708   1.55062   1.55666   1.56046   1.56355
 Alpha virt. eigenvalues --    1.56692   1.56740   1.57168   1.57298   1.57573
 Alpha virt. eigenvalues --    1.57926   1.58436   1.59204   1.59446   1.59790
 Alpha virt. eigenvalues --    1.59977   1.60116   1.60678   1.60919   1.61362
 Alpha virt. eigenvalues --    1.61581   1.61897   1.62492   1.62634   1.62696
 Alpha virt. eigenvalues --    1.63289   1.63805   1.64564   1.64803   1.65027
 Alpha virt. eigenvalues --    1.65307   1.65546   1.65760   1.65859   1.65917
 Alpha virt. eigenvalues --    1.66679   1.67127   1.67213   1.67510   1.67845
 Alpha virt. eigenvalues --    1.68153   1.68259   1.68363   1.68588   1.68945
 Alpha virt. eigenvalues --    1.69304   1.69523   1.69783   1.70116   1.70212
 Alpha virt. eigenvalues --    1.70346   1.70467   1.70763   1.71388   1.71560
 Alpha virt. eigenvalues --    1.71882   1.72001   1.72193   1.72205   1.72474
 Alpha virt. eigenvalues --    1.72575   1.72712   1.73200   1.73328   1.73683
 Alpha virt. eigenvalues --    1.73853   1.74102   1.74200   1.74223   1.74894
 Alpha virt. eigenvalues --    1.75051   1.75487   1.75562   1.75883   1.75986
 Alpha virt. eigenvalues --    1.76173   1.76534   1.76761   1.76771   1.77439
 Alpha virt. eigenvalues --    1.77887   1.78116   1.78311   1.78372   1.78578
 Alpha virt. eigenvalues --    1.79021   1.79180   1.79242   1.79404   1.79508
 Alpha virt. eigenvalues --    1.79743   1.79907   1.79977   1.80306   1.80493
 Alpha virt. eigenvalues --    1.80638   1.80776   1.80867   1.81234   1.81311
 Alpha virt. eigenvalues --    1.81597   1.81619   1.82228   1.82248   1.82530
 Alpha virt. eigenvalues --    1.82636   1.82869   1.83147   1.83191   1.83678
 Alpha virt. eigenvalues --    1.83966   1.84234   1.84422   1.85037   1.85415
 Alpha virt. eigenvalues --    1.85790   1.85866   1.86004   1.86043   1.86421
 Alpha virt. eigenvalues --    1.86607   1.86894   1.87163   1.87292   1.87490
 Alpha virt. eigenvalues --    1.87547   1.87714   1.88054   1.88478   1.88787
 Alpha virt. eigenvalues --    1.89009   1.89220   1.89547   1.89788   1.89859
 Alpha virt. eigenvalues --    1.90088   1.90102   1.90581   1.90907   1.90988
 Alpha virt. eigenvalues --    1.91350   1.91754   1.91872   1.92106   1.92626
 Alpha virt. eigenvalues --    1.92823   1.92938   1.93085   1.93138   1.93260
 Alpha virt. eigenvalues --    1.93437   1.94061   1.94113   1.94520   1.94693
 Alpha virt. eigenvalues --    1.95210   1.95402   1.95580   1.96039   1.96594
 Alpha virt. eigenvalues --    1.96893   1.97069   1.97270   1.97457   1.97838
 Alpha virt. eigenvalues --    1.97949   1.98312   1.98825   1.98944   1.99008
 Alpha virt. eigenvalues --    1.99775   1.99853   2.00198   2.00778   2.01008
 Alpha virt. eigenvalues --    2.01213   2.01306   2.01789   2.02151   2.03038
 Alpha virt. eigenvalues --    2.03074   2.03336   2.03795   2.03885   2.03937
 Alpha virt. eigenvalues --    2.04271   2.04629   2.04979   2.05356   2.05667
 Alpha virt. eigenvalues --    2.05943   2.06332   2.06710   2.06918   2.07145
 Alpha virt. eigenvalues --    2.07413   2.07824   2.08237   2.08499   2.09063
 Alpha virt. eigenvalues --    2.09322   2.09809   2.10189   2.10288   2.10389
 Alpha virt. eigenvalues --    2.10767   2.11059   2.11153   2.11708   2.12033
 Alpha virt. eigenvalues --    2.12239   2.12510   2.12949   2.13243   2.13551
 Alpha virt. eigenvalues --    2.14177   2.14583   2.15543   2.15676   2.15863
 Alpha virt. eigenvalues --    2.15904   2.16659   2.17652   2.18200   2.18254
 Alpha virt. eigenvalues --    2.18425   2.18703   2.18996   2.19417   2.19543
 Alpha virt. eigenvalues --    2.20432   2.20817   2.21241   2.21570   2.21708
 Alpha virt. eigenvalues --    2.21962   2.22607   2.22921   2.22993   2.23209
 Alpha virt. eigenvalues --    2.24162   2.24701   2.24814   2.25782   2.26277
 Alpha virt. eigenvalues --    2.26695   2.26747   2.26972   2.27402   2.27700
 Alpha virt. eigenvalues --    2.28050   2.28403   2.29295   2.29582   2.29709
 Alpha virt. eigenvalues --    2.30396   2.30520   2.30656   2.31105   2.31243
 Alpha virt. eigenvalues --    2.32157   2.32358   2.32722   2.32840   2.33142
 Alpha virt. eigenvalues --    2.33647   2.33764   2.34117   2.34483   2.34770
 Alpha virt. eigenvalues --    2.34976   2.35469   2.35511   2.36406   2.36522
 Alpha virt. eigenvalues --    2.36974   2.37288   2.37780   2.38328   2.38354
 Alpha virt. eigenvalues --    2.38799   2.39160   2.39313   2.39446   2.39679
 Alpha virt. eigenvalues --    2.39903   2.40253   2.40938   2.41329   2.42161
 Alpha virt. eigenvalues --    2.42274   2.42719   2.42870   2.43520   2.43733
 Alpha virt. eigenvalues --    2.43908   2.44249   2.44897   2.44940   2.45031
 Alpha virt. eigenvalues --    2.45559   2.46139   2.46232   2.46722   2.47829
 Alpha virt. eigenvalues --    2.48167   2.48746   2.49025   2.49208   2.49467
 Alpha virt. eigenvalues --    2.49676   2.50597   2.51060   2.51264   2.51611
 Alpha virt. eigenvalues --    2.52820   2.53138   2.54169   2.54465   2.54840
 Alpha virt. eigenvalues --    2.55330   2.55477   2.56719   2.57112   2.57520
 Alpha virt. eigenvalues --    2.57583   2.58045   2.58170   2.59458   2.60423
 Alpha virt. eigenvalues --    2.60812   2.60854   2.61403   2.61414   2.61906
 Alpha virt. eigenvalues --    2.62614   2.62677   2.63636   2.63781   2.63836
 Alpha virt. eigenvalues --    2.64134   2.64296   2.65227   2.65395   2.65960
 Alpha virt. eigenvalues --    2.66533   2.66890   2.67644   2.67873   2.68025
 Alpha virt. eigenvalues --    2.68394   2.68955   2.69157   2.69830   2.69910
 Alpha virt. eigenvalues --    2.70015   2.70403   2.71100   2.72011   2.73052
 Alpha virt. eigenvalues --    2.73601   2.73627   2.73840   2.74146   2.74759
 Alpha virt. eigenvalues --    2.74887   2.75075   2.76063   2.76510   2.76801
 Alpha virt. eigenvalues --    2.77047   2.77102   2.77560   2.78179   2.78411
 Alpha virt. eigenvalues --    2.78725   2.78813   2.79361   2.79490   2.79821
 Alpha virt. eigenvalues --    2.80012   2.80129   2.80749   2.81913   2.82198
 Alpha virt. eigenvalues --    2.82305   2.83229   2.83288   2.83788   2.84071
 Alpha virt. eigenvalues --    2.84479   2.84698   2.85334   2.86030   2.86397
 Alpha virt. eigenvalues --    2.87133   2.87210   2.87483   2.87935   2.88508
 Alpha virt. eigenvalues --    2.88692   2.88793   2.89383   2.89650   2.89889
 Alpha virt. eigenvalues --    2.90175   2.90772   2.90853   2.91301   2.91379
 Alpha virt. eigenvalues --    2.92251   2.92455   2.93814   2.94639   2.94858
 Alpha virt. eigenvalues --    2.94970   2.95924   2.96257   2.96747   2.97057
 Alpha virt. eigenvalues --    2.97591   2.98435   2.98886   2.99481   2.99749
 Alpha virt. eigenvalues --    3.00552   3.00936   3.00956   3.01489   3.01558
 Alpha virt. eigenvalues --    3.02618   3.02886   3.04246   3.04946   3.05217
 Alpha virt. eigenvalues --    3.05329   3.05874   3.06659   3.07457   3.07725
 Alpha virt. eigenvalues --    3.07964   3.09911   3.11373   3.11681   3.12003
 Alpha virt. eigenvalues --    3.13058   3.14400   3.14596   3.15399   3.15532
 Alpha virt. eigenvalues --    3.15696   3.17082   3.17647   3.18710   3.20319
 Alpha virt. eigenvalues --    3.21098   3.22445   3.22782   3.23566   3.24752
 Alpha virt. eigenvalues --    3.25179   3.26549   3.27451   3.29687   3.31198
 Alpha virt. eigenvalues --    3.34824   3.37282   3.38190   3.44124   3.46588
 Alpha virt. eigenvalues --    3.47749   3.55084   3.57340   3.58307   3.60320
 Alpha virt. eigenvalues --    3.62427   3.63441   3.63914   3.70395   3.75159
          Condensed to atoms (all electrons):
 Mulliken charges:
               1
     1  C    0.053431
     2  C   -0.028642
     3  C   -0.121758
     4  C   -0.110589
     5  N   -0.137955
     6  C   -0.137354
     7  C    0.154444
     8  C   -0.118247
     9  C    0.034018
    10  C   -0.013917
    11  C    0.040948
    12  C   -0.006839
    13  C    0.153105
    14  O   -0.253691
    15  O   -0.243744
    16  N   -0.021986
    17  C    0.088110
    18  C   -0.106349
    19  C    0.015919
    20  C    0.076848
    21  C    0.062630
    22  C   -0.090535
    23  C   -0.066219
    24  N   -0.200789
    25  C    0.025987
    26  C   -0.125811
    27  C   -0.144102
    28  C    0.050843
    29  C    0.002840
    30  C    0.203173
    31  C   -0.031690
    32  N    0.109627
    33  C    0.074895
    34  C   -0.182506
    35  C   -0.002260
    36  C    0.054634
    37  C    0.211115
    38  C    0.069119
    39  O   -0.216911
    40  C   -0.102135
    41  C    0.218110
    42  O   -0.283094
    43  O   -0.294494
    44  C    0.062250
    45  C    0.257229
    46  C   -0.061037
    47  C   -0.105421
    48  C   -0.043623
    49  C    0.073440
    50  C   -0.005164
    51  C    0.065799
    52  C   -0.043218
    53  C    0.101927
    54  C    0.083820
    55  C    0.035976
    56  C   -0.001768
    57  C   -0.108753
    58  C    0.137973
    59  C   -0.016499
    60  C    0.014374
    61  C    0.039381
    62  C   -0.113293
    63  C   -0.025191
    64  C    0.040260
    65  H   -0.064227
    66  H    0.040238
    67  H    0.017851
    68  H   -0.066665
    69  H    0.019017
    70  H    0.042522
    71  H    0.028523
    72  H    0.036109
    73  H    0.029500
    74  H    0.019292
    75  H    0.033113
    76  H    0.007003
    77  H    0.042482
    78  H   -0.014449
    79  H    0.022147
    80  H    0.039470
    81  H    0.062744
    82  H    0.041218
    83  H    0.045509
    84  H    0.053117
    85  H    0.007516
    86  H   -0.031575
    87  H   -0.019633
    88  H    0.017980
    89  H    0.007006
    90  H    0.033355
    91  H    0.036575
    92  H    0.018047
    93  H   -0.030591
    94  H    0.089145
    95  H    0.083760
    96  H    0.083517
    97  H    0.069619
    98  H    0.045435
    99  H   -0.018637
   100  H   -0.023105
   101  H    0.047640
   102  H    0.053526
   103  H    0.041564
   104  H   -0.002581
   105  H   -0.057542
   106  H    0.020066
   107  H    0.012918
   108  H    0.005019
   109  H   -0.023677
   110  H   -0.038960
   111  H   -0.007895
   112  H    0.012492
   113  H   -0.027722
   114  H   -0.055418
   115  H   -0.065293
   116  H   -0.018412
   117  H   -0.007182
   118  H    0.010968
   119  H    0.017429
   120  H   -0.011093
   121  H   -0.021514
   122  H    0.012786
   123  H   -0.010079
   124  H    0.007005
   125  H    0.012519
   126  H    0.005720
   127  H   -0.028879
   128  H   -0.004627
   129  H   -0.022703
   130  H    0.005764
   131  H    0.022430
   132  H    0.018952
   133  H    0.013781
   134  H    0.028043
   135  H   -0.010978
   136  H   -0.001343
   137  H    0.167080
   138  H    0.050632
 Sum of Mulliken charges =  -0.00000
 Mulliken charges with hydrogens summed into heavy atoms:
               1
     1  C    0.053431
     2  C   -0.092869
     3  C   -0.081520
     4  C   -0.092738
     5  N   -0.137955
     6  C   -0.137354
     7  C    0.087778
     8  C   -0.099230
     9  C    0.034018
    10  C    0.093238
    11  C    0.089739
    12  C    0.033276
    13  C    0.153105
    14  O   -0.253691
    15  O   -0.243744
    16  N    0.145094
    17  C    0.088110
    18  C   -0.106349
    19  C    0.015919
    20  C    0.076848
    21  C    0.112810
    22  C   -0.051065
    23  C    0.037743
    24  N   -0.200789
    25  C    0.025987
    26  C   -0.125811
    27  C   -0.144102
    28  C    0.050843
    29  C    0.108982
    30  C    0.151965
    31  C    0.026651
    32  N    0.160258
    33  C    0.074895
    34  C   -0.182506
    35  C   -0.002260
    36  C    0.054634
    37  C    0.235146
    38  C    0.069119
    39  O   -0.216911
    40  C   -0.012991
    41  C    0.218110
    42  O   -0.283094
    43  O   -0.294494
    44  C    0.299146
    45  C    0.284027
    46  C   -0.084142
    47  C   -0.105421
    48  C    0.099107
    49  C    0.013317
    50  C    0.027821
    51  C    0.047141
    52  C   -0.082178
    53  C    0.078802
    54  C   -0.036891
    55  C    0.010383
    56  C    0.026628
    57  C   -0.119846
    58  C    0.119165
    59  C    0.003025
    60  C   -0.008785
    61  C    0.012051
    62  C   -0.107529
    63  C    0.029971
    64  C    0.055981
 Electronic spatial extent (au):  <R**2>=         179209.6790
 Charge=             -0.0000 electrons
 Dipole moment (field-independent basis, Debye):
    X=              2.1338    Y=              3.9680    Z=              0.7913  Tot=              4.5743
 Quadrupole moment (field-independent basis, Debye-Ang):
   XX=           -350.3430   YY=           -384.0846   ZZ=           -399.3954
   XY=            -21.8946   XZ=             -2.2145   YZ=             -3.3291
 Traceless Quadrupole moment (field-independent basis, Debye-Ang):
   XX=             27.5980   YY=             -6.1436   ZZ=            -21.4544
   XY=            -21.8946   XZ=             -2.2145   YZ=             -3.3291
 Octapole moment (field-independent basis, Debye-Ang**2):
  XXX=           -581.4454  YYY=             97.4694  ZZZ=             -1.6463  XYY=            -61.4429
  XXY=              3.6593  XXZ=           -209.4000  XZZ=             21.0070  YZZ=            -27.6173
  YYZ=             72.1523  XYZ=            -64.4908
 Hexadecapole moment (field-independent basis, Debye-Ang**3):
 XXXX=        -221108.4971 YYYY=         -17306.7449 ZZZZ=          -4133.0136 XXXY=            340.5090
 XXXZ=           -844.6532 YYYX=          -1125.8160 YYYZ=           -314.7772 ZZZX=            -87.1980
 ZZZY=            -61.5427 XXYY=         -41026.4442 XXZZ=         -40088.6575 YYZZ=          -3584.1007
 XXYZ=           -132.5785 YYXZ=           -139.0612 ZZXY=              6.0801
 N-N= 8.282109238157D+03 E-N=-2.289906556510D+04  KE= 2.701801143596D+03
 1\1\GINC-RYZEN-SSD1\SP\RB3LYP TD-FC\SVP\C55H74N4O5\PADAWAN\10-Aug-2019
 \0\\# td=(NStates=1) B3LYP/SVP\\TD\\0,1\C,0,-5.1050733578,-1.893849190
 9,0.401398765\C,0,-4.7660127595,2.7430345325,1.3491115873\C,0,-9.44956
 42,3.2566718635,-0.1187664928\C,0,-9.8938012312,-1.5060121958,-0.88963
 51089\N,0,-5.135790327,0.4096374248,0.826270085\C,0,-4.4894070383,-0.6
 782568093,0.7735934449\C,0,-2.9749792516,-0.5366841519,1.2752107705\C,
 0,-2.9799621486,0.9110662242,1.6797624816\C,0,-4.3671816763,1.49919696
 51,1.2274446559\C,0,-2.7702735253,1.0964879498,3.2426841264\C,0,-2.064
 951838,-0.840969111,0.1279093986\C,0,-0.5627846666,-0.630761931,0.5305
 208172\C,0,0.4147059765,-0.9700039177,-0.623048162\O,0,0.0674564815,-1
 .3381335033,-1.7260950641\O,0,1.6355886341,-0.7162980483,-0.3228872807
 \N,0,-7.1067338544,2.7413688788,0.5740479988\C,0,-5.9129854795,3.36676
 34088,0.9395880842\C,0,-6.3165229248,4.7633344172,0.9511166634\C,0,-7.
 5749405586,4.9502863516,0.4471199421\C,0,-8.0372291733,3.5680554044,0.
 1974810844\C,0,-5.4610052569,5.8809518776,1.349410945\C,0,-8.340430631
 3,6.2394736651,0.4487199263\C,0,-9.3330408269,6.7415234429,-0.42792140
 84\N,0,-9.2549088902,0.8750259772,-0.5170086763\C,0,-9.9989116686,1.96
 92302247,-0.4660354142\C,0,-11.3310893469,1.7637400135,-0.9473088022\C
 ,0,-11.5511305536,0.4128353249,-1.0915492165\C,0,-10.1592726357,-0.128
 5499044,-0.8199654769\C,0,-12.3821324104,2.9054731164,-0.9619306222\C,
 0,-12.7779778952,-0.164755574,-1.6115933943\C,0,-12.8026147311,-0.3874
 433907,-3.1154387283\N,0,-7.4727604017,-1.3216564801,-0.2151478599\C,0
 ,-8.589184904,-2.0613127455,-0.6403609645\C,0,-8.1502186291,-3.3793325
 348,-0.6263963781\C,0,-6.7845704852,-3.3335492392,-0.2227743827\C,0,-6
 .4087294125,-2.0240142005,-0.0011079567\C,0,-9.0259865838,-4.603513751
 4,-0.8309456014\C,0,-5.693325454,-4.2431695439,0.0771203816\O,0,-5.595
 1713732,-5.4775442631,-0.1232554051\C,0,-4.4950351081,-3.2434214548,0.
 3805233019\C,0,-3.8552679416,-3.8615098462,1.6691087962\O,0,-4.0496875
 805,-3.3511960755,2.8057810421\O,0,-2.9585483705,-4.8209023715,1.45293
 10361\C,0,-2.2711806484,-5.5664575511,2.5415506254\C,0,2.6792979732,-0
 .9385025409,-1.2835025556\C,0,4.0215562654,-0.6579304164,-0.5685534685
 \C,0,4.9463369339,0.1332023678,-1.1262080254\C,0,4.8946999802,0.916375
 4792,-2.476360175\C,0,6.2173054426,0.3605786862,-0.4047719403\C,0,7.51
 12053477,-0.2495642895,-1.1198393373\C,0,8.8346369407,-0.2640716141,-0
 .2320880887\C,0,10.0452963843,-0.8884133239,-0.7689678767\C,0,9.985532
 3466,-2.3748226481,-0.8137954942\C,0,11.2620268773,-0.3789475654,-0.03
 62160896\C,0,12.6402226069,-0.4849869771,-0.5215100282\C,0,13.81604801
 2,-0.0727899821,0.3473911017\C,0,15.2003918603,-0.3221352493,-0.313455
 1813\C,0,15.7553828659,-1.769201082,-0.3313528708\C,0,16.2238849857,0.
 5960005113,0.4584191063\C,0,17.7109479335,0.548950629,-0.0254970575\C,
 0,18.6898588369,1.5398926083,0.6036490578\C,0,20.1357034662,1.52914854
 02,0.236276388\C,0,20.3140523347,2.0694463758,-1.2572621352\C,0,21.052
 4557112,2.3448182179,1.169083309\H,0,-4.1056987375,3.4305694412,1.7510
 67345\H,0,-10.3058581708,4.0964190784,-0.0816168356\H,0,-10.8066990098
 ,-2.1982758376,-0.9451044043\H,0,-2.7468707386,-1.0434547096,2.0722690
 216\H,0,-2.1537959472,1.6087108222,1.1453540338\H,0,-1.6213596519,0.79
 04064623,3.4095176771\H,0,-3.0899522955,2.1314477884,3.6836274639\H,0,
 -3.5117617556,0.4316238647,3.742353081\H,0,-2.1486043143,-1.9555294306
 ,-0.0858154378\H,0,-2.0876947081,-0.1895914848,-0.7588245432\H,0,-0.33
 36376872,0.4359277187,0.8403900695\H,0,-0.3321262255,-1.2175409341,1.3
 857956986\H,0,-4.5266973271,6.257203858,0.7172248605\H,0,-5.9786790867
 ,6.7495000687,1.5545110481\H,0,-4.9061723942,5.3907189213,2.2221332739
 \H,0,-7.9239524941,6.9332103547,1.3071620225\H,0,-9.4953649293,6.09000
 69862,-1.4308824842\H,0,-9.5798122604,7.812526538,-0.3839681009\H,0,-1
 2.812895837,3.2829187904,0.0926868701\H,0,-11.9413430566,3.8121661813,
 -1.6013373512\H,0,-13.3195893589,2.3977453927,-1.3266257095\H,0,-12.76
 3561182,-1.1181419405,-1.2140559794\H,0,-13.5447052128,0.4502246839,-1
 .3265463319\H,0,-12.5177962946,0.621859201,-3.7035692003\H,0,-12.01466
 76745,-0.964645861,-3.5735681535\H,0,-13.8510131745,-0.8413114892,-3.3
 010639651\H,0,-9.7356311099,-4.5662587178,0.051869383\H,0,-9.605602470
 4,-4.2916761811,-1.7273032509\H,0,-8.6165833638,-5.4539261725,-0.94213
 88674\H,0,-3.6654522725,-3.3509624475,-0.4259556554\H,0,-1.3525521232,
 -6.1940260063,2.0923049345\H,0,-2.0701635881,-4.7236721062,3.520426492
 9\H,0,-3.0772287783,-6.3458815882,2.9770592261\H,0,2.6948212739,-1.885
 2352646,-1.9705341867\H,0,2.6186637093,-0.2786593039,-2.1447920985\H,0
 ,4.1484962855,-1.1066287334,0.372036248\H,0,5.4659418587,1.9632540232,
 -2.4097435618\H,0,5.3733142952,0.321528108,-3.4075838255\H,0,3.7783943
 246,1.0950223081,-2.8329886558\H,0,6.2493150286,1.5258557295,-0.071312
 3316\H,0,6.1655243782,0.1335077655,0.5785675509\H,0,7.084029056,-1.269
 0609515,-1.4718920353\H,0,7.6743971908,0.4178772923,-2.0015390116\H,0,
 8.9723116728,0.8429321447,-0.3049592374\H,0,8.7475874886,-0.6646235494
 ,0.7091037633\H,0,10.2854754128,-0.6121510168,-1.805051228\H,0,9.23692
 08797,-2.6440430671,-1.5503142569\H,0,10.9823150925,-2.7854102174,-1.0
 85754321\H,0,9.6003084726,-2.7423861161,0.0796044389\H,0,11.0686210522
 ,0.6249301168,0.2370971723\H,0,11.2598135508,-0.7444729328,0.953045826
 3\H,0,12.8151080188,-1.5550293819,-0.6664000828\H,0,12.5654668633,0.06
 83995671,-1.5234456631\H,0,13.8580368392,1.1024706429,0.4809432684\H,0
 ,13.697334569,-0.8558285369,1.284998076\H,0,15.0761791153,0.0167448743
 ,-1.3468213319\H,0,15.0277981748,-2.2122895128,-0.9198460051\H,0,16.72
 71894552,-1.694585298,-0.7653879314\H,0,15.6981525329,-2.2185514737,0.
 6113638377\H,0,15.8342006117,1.6381369024,0.4388977334\H,0,16.31628795
 15,0.2716509742,1.7210040972\H,0,18.3882749048,-0.4021986985,0.0997852
 938\H,0,17.7606487903,0.6552884919,-1.0736646711\H,0,18.3192936353,2.6
 321419419,0.6231488099\H,0,18.4583388481,1.1459434311,1.5752387795\H,0
 ,20.5835665865,0.4377145052,0.2329062277\H,0,19.8835110483,3.160658197
 9,-1.433388313\H,0,21.4023787551,2.0577913829,-1.5443997634\H,0,19.754
 6937052,1.3933093675,-1.931268308\H,0,21.1556705802,1.8376133116,2.209
 4348713\H,0,21.9653903807,2.6131294295,0.701782078\H,0,20.7068783505,3
 .4393236029,1.332145819\H,0,-7.1278065632,1.6956338354,0.687862043\H,0
 ,-7.4964910157,-0.4029851741,-0.1981031305\\Version=ES64L-G16RevA.03\S
 tate=1-A\HF=-2733.0813943\RMSD=4.339e-09\PG=C01 [X(C55H74N4O5)]\\@


 THERE'S SMALL CHOICE IN A BOWL OF ROTTEN APPLES.
                     SHAKESPEARE
 Job cpu time:       1 days 13 hours  7 minutes 54.6 seconds.
 Elapsed time:       0 days  9 hours 20 minutes 27.2 seconds.
 File lengths (MBytes):  RWF=   6378 Int=      0 D2E=      0 Chk=    163 Scr=      1
 Normal termination of Gaussian 16 at Sat Aug 10 07:13:03 2019.
