 Entering Gaussian System, Link 0=g16
 Input=Geometria-61-.com
 Output=Geometria-61-.log
 Initial command:
 /usr/local/g16/l1.exe "/home/padawan/israel-mol/pheophytin/spectra/emi/Gau-25406.inp" -scrdir="/home/padawan/israel-mol/pheophytin/spectra/emi/"
 Entering Link 1 = /usr/local/g16/l1.exe PID=     25408.
  
 Copyright (c) 1988,1990,1992,1993,1995,1998,2003,2009,2016,
            Gaussian, Inc.  All Rights Reserved.
  
 This is part of the Gaussian(R) 16 program.  It is based on
 the Gaussian(R) 09 system (copyright 2009, Gaussian, Inc.),
 the Gaussian(R) 03 system (copyright 2003, Gaussian, Inc.),
 the Gaussian(R) 98 system (copyright 1998, Gaussian, Inc.),
 the Gaussian(R) 94 system (copyright 1995, Gaussian, Inc.),
 the Gaussian 92(TM) system (copyright 1992, Gaussian, Inc.),
 the Gaussian 90(TM) system (copyright 1990, Gaussian, Inc.),
 the Gaussian 88(TM) system (copyright 1988, Gaussian, Inc.),
 the Gaussian 86(TM) system (copyright 1986, Carnegie Mellon
 University), and the Gaussian 82(TM) system (copyright 1983,
 Carnegie Mellon University). Gaussian is a federally registered
 trademark of Gaussian, Inc.
  
 This software contains proprietary and confidential information,
 including trade secrets, belonging to Gaussian, Inc.
  
 This software is provided under written license and may be
 used, copied, transmitted, or stored only in accord with that
 written license.
  
 The following legend is applicable only to US Government
 contracts under FAR:
  
                    RESTRICTED RIGHTS LEGEND
  
 Use, reproduction and disclosure by the US Government is
 subject to restrictions as set forth in subparagraphs (a)
 and (c) of the Commercial Computer Software - Restricted
 Rights clause in FAR 52.227-19.
  
 Gaussian, Inc.
 340 Quinnipiac St., Bldg. 40, Wallingford CT 06492
  
  
 ---------------------------------------------------------------
 Warning -- This program may not be used in any manner that
 competes with the business of Gaussian, Inc. or will provide
 assistance to any competitor of Gaussian, Inc.  The licensee
 of this program is prohibited from giving any competitor of
 Gaussian, Inc. access to this program.  By using this program,
 the user acknowledges that Gaussian, Inc. is engaged in the
 business of creating and licensing software in the field of
 computational chemistry and represents and warrants to the
 licensee that it is not a competitor of Gaussian, Inc. and that
 it will not use this program in any manner prohibited above.
 ---------------------------------------------------------------
  

 Cite this work as:
 Gaussian 16, Revision A.03,
 M. J. Frisch, G. W. Trucks, H. B. Schlegel, G. E. Scuseria, 
 M. A. Robb, J. R. Cheeseman, G. Scalmani, V. Barone, 
 G. A. Petersson, H. Nakatsuji, X. Li, M. Caricato, A. V. Marenich, 
 J. Bloino, B. G. Janesko, R. Gomperts, B. Mennucci, H. P. Hratchian, 
 J. V. Ortiz, A. F. Izmaylov, J. L. Sonnenberg, D. Williams-Young, 
 F. Ding, F. Lipparini, F. Egidi, J. Goings, B. Peng, A. Petrone, 
 T. Henderson, D. Ranasinghe, V. G. Zakrzewski, J. Gao, N. Rega, 
 G. Zheng, W. Liang, M. Hada, M. Ehara, K. Toyota, R. Fukuda, 
 J. Hasegawa, M. Ishida, T. Nakajima, Y. Honda, O. Kitao, H. Nakai, 
 T. Vreven, K. Throssell, J. A. Montgomery, Jr., J. E. Peralta, 
 F. Ogliaro, M. J. Bearpark, J. J. Heyd, E. N. Brothers, K. N. Kudin, 
 V. N. Staroverov, T. A. Keith, R. Kobayashi, J. Normand, 
 K. Raghavachari, A. P. Rendell, J. C. Burant, S. S. Iyengar, 
 J. Tomasi, M. Cossi, J. M. Millam, M. Klene, C. Adamo, R. Cammi, 
 J. W. Ochterski, R. L. Martin, K. Morokuma, O. Farkas, 
 J. B. Foresman, and D. J. Fox, Gaussian, Inc., Wallingford CT, 2016.
 
 ******************************************
 Gaussian 16:  ES64L-G16RevA.03 25-Dec-2016
                11-Aug-2019 
 ******************************************
 %nproc=4
 Will use up to    4 processors via shared memory.
 %Mem=2GB
 --------------------------
 # td=(NStates=1) B3LYP/SVP
 --------------------------
 1/38=1,172=1/1;
 2/12=2,17=6,18=5,40=1/2;
 3/5=18,7=101,11=9,25=1,30=1,74=-5/1,2,3,8;
 4//1;
 5/5=2,38=5/2;
 8/6=1,10=1,108=1/1;
 9/41=1,42=1,70=2/14;
 6/7=2,8=2,9=2,10=2/1;
 99/5=1,9=1/99;
 --
 TD
 --
 Symbolic Z-matrix:
 Charge =  0 Multiplicity = 1
 6                    -5.06079  -2.02587   0.42273 
 6                    -4.71031   2.69059   1.35884 
 6                    -9.24875   3.34555  -0.23095 
 6                    -9.71544  -1.33118  -0.94489 
 7                    -5.20225   0.40045   0.73923 
 6                    -4.54967  -0.8137    0.83573 
 6                    -3.07917  -0.67767   1.39131 
 6                    -3.08275   0.74704   1.96625 
 6                    -4.44601   1.34924   1.39061 
 6                    -3.06465   0.64707   3.42163 
 6                    -2.02878  -0.90594   0.19533 
 6                    -0.54243  -0.90192   0.67173 
 6                     0.35354  -1.12386  -0.50468 
 8                     0.05863  -1.49337  -1.65096 
 8                     1.6122   -0.89402  -0.08968 
 7                    -6.9235    2.73333   0.52895 
 6                    -5.81101   3.42175   1.01197 
 6                    -6.08497   4.82191   1.09057 
 6                    -7.30804   5.00166   0.49045 
 6                    -7.90575   3.65115   0.12022 
 6                    -5.17069   5.87695   1.48145 
 6                    -7.967     6.2756    0.36161 
 6                    -8.93378   6.74895  -0.51161 
 7                    -9.15061   0.92546  -0.64434 
 6                    -9.8489    2.19892  -0.6346 
 6                    -11.2328   2.06042  -1.16462 
 6                    -11.30192   0.65797  -1.29973 
 6                    -9.99189   0.09626  -0.91113 
 6                    -12.19142   3.15147  -1.34081 
 6                    -12.51239  -0.10798  -1.67594 
 6                    -12.51131  -0.43401  -3.22182 
 7                    -7.43982  -1.23203  -0.28102 
 6                    -8.5406   -1.97929  -0.64038 
 6                    -8.17702  -3.46863  -0.63453 
 6                    -6.86544  -3.37366  -0.27586 
 6                    -6.48041  -2.11816   0.04962 
 6                    -9.16116  -4.54541  -0.99116 
 6                    -5.75665  -4.32023   0.07322 
 8                    -5.79291  -5.55037   0.21163 
 6                    -4.53859  -3.36781   0.49997 
 6                    -4.0517   -3.92617   1.88592 
 8                    -4.11311  -3.35617   2.91739 
 8                    -3.40878  -5.08683   1.63617 
 6                    -2.86722  -5.61106   2.86848 
 6                     2.68452  -1.01796  -1.16567 
 6                     3.89814  -0.89314  -0.52634 
 6                     4.91408  -0.06286  -0.82534 
 6                     4.86854   0.8271   -2.08453 
 6                     6.25277  -0.12951  -0.16141 
 6                     7.48718  -0.52912  -0.97703 
 6                     8.74733  -0.35907  -0.10414 
 6                     10.05912  -0.71128  -0.85699 
 6                     10.1216  -2.06294  -1.52435 
 6                     11.28348  -0.28128  -0.14082 
 6                     12.66947  -0.57577  -0.84053 
 6                     13.75191   0.11437  -0.04126 
 6                     15.19115  -0.04856  -0.60331 
 6                     15.62857  -1.51998  -0.71743 
 6                     16.19726   0.75068   0.44815 
 6                     17.64087   0.78815  -0.18045 
 6                     18.45782   1.8187    0.59635 
 6                     19.97226   1.74435   0.27211 
 6                     20.26306   2.46512  -1.17704 
 6                     20.86061   2.38165   1.36056 
 1                    -3.94482   3.38968   2.06385 
 1                    -9.78846   4.29261  -0.05278 
 1                    -10.64294  -1.87157  -1.11042 
 1                    -3.15016  -1.59855   2.10895 
 1                    -2.24469   1.54848   1.60978 
 1                    -2.12796   0.25833   3.98337 
 1                    -3.42145   1.74815   3.78054 
 1                    -4.04663  -0.111     3.74992 
 1                    -2.17544  -1.74472  -0.31073 
 1                    -1.93804  -0.12278  -0.68271 
 1                    -0.06248  -0.03186   1.14019 
 1                    -0.46511  -1.66847   1.42243 
 1                    -4.22871   5.83569   0.86797 
 1                    -5.36849   6.93364   1.19072 
 1                    -4.67844   5.80311   2.39703 
 1                    -7.67772   7.01354   1.04252 
 1                    -9.43798   5.86794  -1.23298 
 1                    -9.26382   7.74403  -0.67551 
 1                    -12.41603   3.62237  -0.35495 
 1                    -11.8789   3.93706  -2.12052 
 1                    -13.03969   2.8944   -1.80535 
 1                    -12.52863  -1.05599  -1.18896 
 1                    -13.23567   0.63606  -1.62223 
 1                    -12.56434   0.52469  -3.74436 
 1                    -11.81886  -1.27241  -3.70531 
 1                    -13.4458  -0.87953  -3.46561 
 1                    -10.24094  -4.36612  -0.53831 
 1                    -9.41152  -4.43846  -2.1297 
 1                    -8.72903  -5.56004  -0.90448 
 1                    -3.66543  -3.51406  -0.13653 
 1                    -2.15622  -6.33535   2.45128 
 1                    -2.42529  -4.90141   3.57672 
 1                    -3.69993  -5.97013   3.4444 
 1                     2.59517  -2.0617   -1.63742 
 1                     2.28574  -0.325    -1.978 
 1                     4.31869  -1.5353    0.38277 
 1                     5.10157   1.90799  -1.97518 
 1                     5.46136   0.43354  -2.88727 
 1                     3.95419   0.74894  -2.59271 
 1                     6.30967   0.87157   0.30018 
 1                     6.15984  -0.79684   0.8108 
 1                     7.47621  -1.74826  -1.30925 
 1                     7.4       0.27681  -1.93908 
 1                     8.88203   0.6136    0.41908 
 1                     8.33581  -0.86683   0.76715 
 1                     9.76336   0.23648  -1.6573 
 1                     9.10307  -2.01131  -2.11723 
 1                     11.08393  -2.30001  -2.29995 
 1                     10.12326  -2.80205  -0.5896 
 1                     11.28306   0.76083  -0.09078 
 1                     11.3773  -0.8894    0.66042 
 1                     12.69043  -1.74322  -1.13415 
 1                     12.81593   0.04567  -1.80607 
 1                     13.33165   1.07128   0.07672 
 1                     13.6614  -0.24872   0.97215 
 1                     15.14674   0.62945  -1.55348 
 1                     14.9796  -2.13631  -1.41905 
 1                     16.57745  -1.87306  -1.11102 
 1                     15.56889  -1.98697   0.35971 
 1                     15.77294   1.67813   0.47339 
 1                     16.14046   0.24778   1.39423 
 1                     17.9954  -0.23342  -0.32192 
 1                     17.49316   1.28244  -1.09075 
 1                     18.10048   2.91936   0.53335 
 1                     18.50441   1.59927   1.69653 
 1                     20.17361   0.72518  -0.03111 
 1                     19.87939   3.51334  -1.24045 
 1                     21.41719   2.35141  -1.3554 
 1                     19.46028   2.03972  -1.89444 
 1                     20.7742   1.54583   2.27012 
 1                     21.95035   2.3456    0.79741 
 1                     20.56439   3.39726   1.57693 
 1                    -6.83276   1.76479   0.28371 
 1                    -7.36686  -0.1515   -0.27565 
 
 Stoichiometry    C55H74N4O5
 Framework group  C1[X(C55H74N4O5)]
 Deg. of freedom   408
 Full point group                 C1      NOp   1
 Largest Abelian subgroup         C1      NOp   1
 Largest concise Abelian subgroup C1      NOp   1
                         Standard orientation:                         
 ---------------------------------------------------------------------
 Center     Atomic      Atomic             Coordinates (Angstroms)
 Number     Number       Type             X           Y           Z
 ---------------------------------------------------------------------
      1          6           0       -5.066182   -2.018769    0.380222
      2          6           0       -4.700587    2.677382    1.408161
      3          6           0       -9.235228    3.378623   -0.172724
      4          6           0       -9.717112   -1.281731   -0.977870
      5          7           0       -5.199702    0.401409    0.743700
      6          6           0       -4.551353   -0.816607    0.817171
      7          6           0       -3.080938   -0.696424    1.376631
      8          6           0       -3.080240    0.716844    1.979153
      9          6           0       -4.440880    1.334775    1.414089
     10          6           0       -3.063901    0.588547    3.432332
     11          6           0       -2.030162   -0.904991    0.177389
     12          6           0       -0.544277   -0.915313    0.655138
     13          6           0        0.352083   -1.117407   -0.524550
     14          8           0        0.057034   -1.463557   -1.678066
     15          8           0        1.611108   -0.899975   -0.104023
     16          7           0       -6.912806    2.743805    0.577247
     17          6           0       -5.798454    3.418902    1.074562
     18          6           0       -6.067735    4.818199    1.180121
     19          6           0       -7.289605    5.013759    0.582500
     20          6           0       -7.891532    3.672752    0.185543
     21          6           0       -5.150253    5.862314    1.592272
     22          6           0       -7.944105    6.292202    0.477847
     23          6           0       -8.908416    6.785742   -0.386886
     24          7           0       -9.144904    0.966704   -0.632996
     25          6           0       -9.838870    2.242115   -0.599138
     26          6           0      -11.222717    2.118669   -1.133007
     27          6           0      -11.296468    0.719354   -1.295417
     28          6           0       -9.988734    0.145727   -0.916623
     29          6           0      -12.177455    3.216204   -1.288824
     30          6           0      -12.509172   -0.034998   -1.687546
     31          6           0      -12.507686   -0.330920   -3.239470
     32          7           0       -7.441811   -1.203272   -0.310132
     33          6           0       -8.544776   -1.939647   -0.684948
     34          6           0       -8.186267   -3.430050   -0.707717
     35          6           0       -6.874719   -3.346553   -0.346078
     36          6           0       -6.485740   -2.098940    0.004093
     37          6           0       -9.173711   -4.496323   -1.086111
     38          6           0       -5.769497   -4.303506   -0.014457
     39          8           0       -5.810072   -5.535977    0.099979
     40          6           0       -4.548622   -3.363735    0.431830
     41          6           0       -4.064983   -3.950580    1.807111
     42          8           0       -4.125468   -3.400529    2.849413
     43          8           0       -3.425774   -5.108359    1.535430
     44          6           0       -2.887198   -5.658292    2.757812
     45          6           0        2.684052   -1.006646   -1.181240
     46          6           0        3.897471   -0.898427   -0.538500
     47          6           0        4.916518   -0.065962   -0.820377
     48          6           0        4.875225    0.848448   -2.062073
     49          6           0        6.254320   -0.150080   -0.156651
     50          6           0        7.488164   -0.537980   -0.978759
     51          6           0        8.748028   -0.389233   -0.101583
     52          6           0       10.059347   -0.731219   -0.859945
     53          6           0       10.117882   -2.069864   -1.553398
     54          6           0       11.284463   -0.319408   -0.134438
     55          6           0       12.670123   -0.604975   -0.838485
     56          6           0       13.754127    0.065792   -0.024962
     57          6           0       15.193353   -0.091096   -0.588770
     58          6           0       15.625880   -1.561505   -0.731071
     59          6           0       16.201148    0.684108    0.478945
     60          6           0       17.645488    0.728864   -0.147495
     61          6           0       18.465172    1.741319    0.649936
     62          6           0       19.979668    1.668111    0.325691
     63          6           0       20.274330    2.415909   -1.108913
     64          6           0       20.869116    2.281098    1.427134
     65          1           0       -3.933419    3.360014    2.127320
     66          1           0       -9.771882    4.323878    0.023325
     67          1           0      -10.646280   -1.815627   -1.154718
     68          1           0       -3.155759   -1.630833    2.076169
     69          1           0       -2.239106    1.522198    1.639092
     70          1           0       -2.129083    0.185765    3.987253
     71          1           0       -3.417299    1.683653    3.812249
     72          1           0       -4.048764   -0.172404    3.744931
     73          1           0       -2.179177   -1.733273   -0.345008
     74          1           0       -1.935906   -0.105237   -0.685171
     75          1           0       -0.061828   -0.056168    1.140854
     76          1           0       -0.470292   -1.696566    1.390859
     77          1           0       -4.207822    5.829767    0.978959
     78          1           0       -5.344179    6.925121    1.321959
     79          1           0       -4.659154    5.769009    2.506687
     80          1           0       -7.652978    7.015777    1.173231
     81          1           0       -9.414901    5.920648   -1.125707
     82          1           0       -9.234912    7.784937   -0.531709
     83          1           0      -12.401418    3.668623   -0.294201
     84          1           0      -11.861500    4.015729   -2.052832
     85          1           0      -13.026138    2.971109   -1.759050
     86          1           0      -12.529105   -0.992229   -1.219106
     87          1           0      -13.229974    0.710327   -1.620037
     88          1           0      -12.556952    0.637928   -3.743327
     89          1           0      -11.817620   -1.162124   -3.738539
     90          1           0      -13.443453   -0.768419   -3.492726
     91          1           0      -10.253318   -4.322180   -0.630842
     92          1           0       -9.422598   -4.366412   -2.222586
     93          1           0       -8.745121   -5.513915   -1.018772
     94          1           0       -3.675346   -3.500564   -0.206590
     95          1           0       -2.178259   -6.376760    2.327255
     96          1           0       -2.443549   -4.964054    3.480114
     97          1           0       -3.721686   -6.025643    3.325878
     98          1           0        2.591619   -2.040711   -1.673272
     99          1           0        2.288425   -0.296673   -1.980303
    100          1           0        4.314948   -1.559566    0.358334
    101          1           0        5.111818    1.926208   -1.931519
    102          1           0        5.467493    0.468545   -2.871773
    103          1           0        3.961115    0.783306   -2.572512
    104          1           0        6.314174    0.841639    0.324367
    105          1           0        6.158179   -0.835854    0.802316
    106          1           0        7.473370   -1.750384   -1.334626
    107          1           0        7.404659    0.286796   -1.925047
    108          1           0        8.885526    0.572618    0.440567
    109          1           0        8.333932   -0.912426    0.759292
    110          1           0        9.767596    0.232922   -1.641948
    111          1           0        9.100114   -2.003239   -2.146092
    112          1           0       11.080156   -2.295101   -2.332583
    113          1           0       10.116123   -2.827004   -0.633197
    114          1           0       11.287539    0.721529   -0.064149
    115          1           0       11.375430   -0.943303    0.654907
    116          1           0       12.687401   -1.766564   -1.154720
    117          1           0       12.819642    0.034604   -1.791630
    118          1           0       13.337010    1.021657    0.111216
    119          1           0       13.661395   -0.316611    0.981110
    120          1           0       15.152170    0.605395   -1.525618
    121          1           0       14.975507   -2.161866   -1.445124
    122          1           0       16.573942   -1.910115   -1.130588
    123          1           0       15.563561   -2.049138    0.336733
    124          1           0       15.779960    1.612341    0.521827
    125          1           0       16.141714    0.163114    1.415022
    126          1           0       17.996677   -0.290975   -0.308469
    127          1           0       17.500348    1.241252   -1.048142
    128          1           0       18.111643    2.844211    0.608020
    129          1           0       18.509950    1.500388    1.745687
    130          1           0       20.177847    0.654348    0.002899
    131          1           0       19.894290    3.466476   -1.152278
    132          1           0       21.428243    2.301749   -1.288396
    133          1           0       19.470816    2.007286   -1.835177
    134          1           0       20.778984    1.428059    2.320194
    135          1           0       21.959278    2.252277    0.864380
    136          1           0       20.576145    3.293314    1.662934
    137          1           0       -6.825121    1.779912    0.313306
    138          1           0       -7.365185   -0.123308   -0.283688
 ---------------------------------------------------------------------
 Rotational constants (GHZ):           0.0618136           0.0062022           0.0058210
 Standard basis: SVP (5D, 7F)
 There are  1330 symmetry adapted cartesian basis functions of A   symmetry.
 There are  1266 symmetry adapted basis functions of A   symmetry.
  1266 basis functions,  2118 primitive gaussians,  1330 cartesian basis functions
   236 alpha electrons      236 beta electrons
       nuclear repulsion energy      8301.9661175980 Hartrees.
 NAtoms=  138 NActive=  138 NUniq=  138 SFac= 1.00D+00 NAtFMM=   60 NAOKFM=T Big=T
 Integral buffers will be    131072 words long.
 Regular integral format.
 Two-electron integral symmetry is turned on.
 One-electron integrals computed using PRISM.
 NBasis=  1266 RedAO= T EigKep=  3.48D-04  NBF=  1266
 NBsUse=  1266 1.00D-06 EigRej= -1.00D+00 NBFU=  1266
 ExpMin= 1.22D-01 ExpMax= 2.27D+03 ExpMxC= 3.41D+02 IAcc=3 IRadAn=         5 AccDes= 0.00D+00
 Harris functional with IExCor=  402 and IRadAn=       5 diagonalized for initial guess.
 HarFok:  IExCor=  402 AccDes= 0.00D+00 IRadAn=         5 IDoV= 1 UseB2=F ITyADJ=14
 ICtDFT=  3500011 ScaDFX=  1.000000  1.000000  1.000000  1.000000
 FoFCou: FMM=F IPFlag=           0 FMFlag=      100000 FMFlg1=        2001
         NFxFlg=           0 DoJE=T BraDBF=F KetDBF=T FulRan=T
         wScrn=  0.000000 ICntrl=       500 IOpCl=  0 I1Cent=   200000004 NGrid=           0
         NMat0=    1 NMatS0=      1 NMatT0=    0 NMatD0=    1 NMtDS0=    0 NMtDT0=    0
 Petite list used in FoFCou.
 Requested convergence on RMS density matrix=1.00D-08 within 128 cycles.
 Requested convergence on MAX density matrix=1.00D-06.
 Requested convergence on             energy=1.00D-06.
 No special actions if energy rises.
 Integral accuracy reduced to 1.0D-05 until final iterations.
 Initial convergence to 1.0D-05 achieved.  Increase integral accuracy.
 SCF Done:  E(RB3LYP) =  -2733.03238895     A.U. after   17 cycles
            NFock= 17  Conv=0.44D-08     -V/T= 2.0117
 DoSCS=F DFT=T ScalE2(SS,OS)=  1.000000  1.000000
 ExpMin= 1.22D-01 ExpMax= 2.27D+03 ExpMxC= 3.41D+02 IAcc=3 IRadAn=         5 AccDes= 0.00D+00
 HarFok:  IExCor=  205 AccDes= 0.00D+00 IRadAn=         5 IDoV=-2 UseB2=F ITyADJ=14
 ICtDFT= 12500011 ScaDFX=  1.000000  1.000000  1.000000  1.000000
 GSVD:  LWork=       -4608 too small for GESVD, short by       21440 words or       21440 for optimal perf.
 Range of M.O.s used for correlation:    65  1266
 NBasis=  1266 NAE=   236 NBE=   236 NFC=    64 NFV=     0
 NROrb=   1202 NOA=   172 NOB=   172 NVA=  1030 NVB=  1030

 **** Warning!!: The smallest alpha delta epsilon is  0.75073918D-01

 Orbital symmetries:
       Occupied  (A) (A) (A) (A) (A) (A) (A) (A) (A) (A) (A) (A)
                 (A) (A) (A) (A) (A) (A) (A) (A) (A) (A) (A) (A)
                 (A) (A) (A) (A) (A) (A) (A) (A) (A) (A) (A) (A)
                 (A) (A) (A) (A) (A) (A) (A) (A) (A) (A) (A) (A)
                 (A) (A) (A) (A) (A) (A) (A) (A) (A) (A) (A) (A)
                 (A) (A) (A) (A) (A) (A) (A) (A) (A) (A) (A) (A)
                 (A) (A) (A) (A) (A) (A) (A) (A) (A) (A) (A) (A)
                 (A) (A) (A) (A) (A) (A) (A) (A) (A) (A) (A) (A)
                 (A) (A) (A) (A) (A) (A) (A) (A) (A) (A) (A) (A)
                 (A) (A) (A) (A) (A) (A) (A) (A) (A) (A) (A) (A)
                 (A) (A) (A) (A) (A) (A) (A) (A) (A) (A) (A) (A)
                 (A) (A) (A) (A) (A) (A) (A) (A) (A) (A) (A) (A)
                 (A) (A) (A) (A) (A) (A) (A) (A) (A) (A) (A) (A)
                 (A) (A) (A) (A) (A) (A) (A) (A) (A) (A) (A) (A)
                 (A) (A) (A) (A) (A) (A) (A) (A) (A) (A) (A) (A)
                 (A) (A) (A) (A) (A) (A) (A) (A) (A) (A) (A) (A)
                 (A) (A) (A) (A) (A) (A) (A) (A) (A) (A) (A) (A)
                 (A) (A) (A) (A) (A) (A) (A) (A) (A) (A) (A) (A)
                 (A) (A) (A) (A) (A) (A) (A) (A) (A) (A) (A) (A)
                 (A) (A) (A) (A) (A) (A) (A) (A)
       Virtual   (A) (A) (A) (A) (A) (A) (A) (A) (A) (A) (A) (A)
                 (A) (A) (A) (A) (A) (A) (A) (A) (A) (A) (A) (A)
                 (A) (A) (A) (A) (A) (A) (A) (A) (A) (A) (A) (A)
                 (A) (A) (A) (A) (A) (A) (A) (A) (A) (A) (A) (A)
                 (A) (A) (A) (A) (A) (A) (A) (A) (A) (A) (A) (A)
                 (A) (A) (A) (A) (A) (A) (A) (A) (A) (A) (A) (A)
                 (A) (A) (A) (A) (A) (A) (A) (A) (A) (A) (A) (A)
                 (A) (A) (A) (A) (A) (A) (A) (A) (A) (A) (A) (A)
                 (A) (A) (A) (A) (A) (A) (A) (A) (A) (A) (A) (A)
                 (A) (A) (A) (A) (A) (A) (A) (A) (A) (A) (A) (A)
                 (A) (A) (A) (A) (A) (A) (A) (A) (A) (A) (A) (A)
                 (A) (A) (A) (A) (A) (A) (A) (A) (A) (A) (A) (A)
                 (A) (A) (A) (A) (A) (A) (A) (A) (A) (A) (A) (A)
                 (A) (A) (A) (A) (A) (A) (A) (A) (A) (A) (A) (A)
                 (A) (A) (A) (A) (A) (A) (A) (A) (A) (A) (A) (A)
                 (A) (A) (A) (A) (A) (A) (A) (A) (A) (A) (A) (A)
                 (A) (A) (A) (A) (A) (A) (A) (A) (A) (A) (A) (A)
                 (A) (A) (A) (A) (A) (A) (A) (A) (A) (A) (A) (A)
                 (A) (A) (A) (A) (A) (A) (A) (A) (A) (A) (A) (A)
                 (A) (A) (A) (A) (A) (A) (A) (A) (A) (A) (A) (A)
                 (A) (A) (A) (A) (A) (A) (A) (A) (A) (A) (A) (A)
                 (A) (A) (A) (A) (A) (A) (A) (A) (A) (A) (A) (A)
                 (A) (A) (A) (A) (A) (A) (A) (A) (A) (A) (A) (A)
                 (A) (A) (A) (A) (A) (A) (A) (A) (A) (A) (A) (A)
                 (A) (A) (A) (A) (A) (A) (A) (A) (A) (A) (A) (A)
                 (A) (A) (A) (A) (A) (A) (A) (A) (A) (A) (A) (A)
                 (A) (A) (A) (A) (A) (A) (A) (A) (A) (A) (A) (A)
                 (A) (A) (A) (A) (A) (A) (A) (A) (A) (A) (A) (A)
                 (A) (A) (A) (A) (A) (A) (A) (A) (A) (A) (A) (A)
                 (A) (A) (A) (A) (A) (A) (A) (A) (A) (A) (A) (A)
                 (A) (A) (A) (A) (A) (A) (A) (A) (A) (A) (A) (A)
                 (A) (A) (A) (A) (A) (A) (A) (A) (A) (A) (A) (A)
                 (A) (A) (A) (A) (A) (A) (A) (A) (A) (A) (A) (A)
                 (A) (A) (A) (A) (A) (A) (A) (A) (A) (A) (A) (A)
                 (A) (A) (A) (A) (A) (A) (A) (A) (A) (A) (A) (A)
                 (A) (A) (A) (A) (A) (A) (A) (A) (A) (A) (A) (A)
                 (A) (A) (A) (A) (A) (A) (A) (A) (A) (A) (A) (A)
                 (A) (A) (A) (A) (A) (A) (A) (A) (A) (A) (A) (A)
                 (A) (A) (A) (A) (A) (A) (A) (A) (A) (A) (A) (A)
                 (A) (A) (A) (A) (A) (A) (A) (A) (A) (A) (A) (A)
                 (A) (A) (A) (A) (A) (A) (A) (A) (A) (A) (A) (A)
                 (A) (A) (A) (A) (A) (A) (A) (A) (A) (A) (A) (A)
                 (A) (A) (A) (A) (A) (A) (A) (A) (A) (A) (A) (A)
                 (A) (A) (A) (A) (A) (A) (A) (A) (A) (A) (A) (A)
                 (A) (A) (A) (A) (A) (A) (A) (A) (A) (A) (A) (A)
                 (A) (A) (A) (A) (A) (A) (A) (A) (A) (A) (A) (A)
                 (A) (A) (A) (A) (A) (A) (A) (A) (A) (A) (A) (A)
                 (A) (A) (A) (A) (A) (A) (A) (A) (A) (A) (A) (A)
                 (A) (A) (A) (A) (A) (A) (A) (A) (A) (A) (A) (A)
                 (A) (A) (A) (A) (A) (A) (A) (A) (A) (A) (A) (A)
                 (A) (A) (A) (A) (A) (A) (A) (A) (A) (A) (A) (A)
                 (A) (A) (A) (A) (A) (A) (A) (A) (A) (A) (A) (A)
                 (A) (A) (A) (A) (A) (A) (A) (A) (A) (A) (A) (A)
                 (A) (A) (A) (A) (A) (A) (A) (A) (A) (A) (A) (A)
                 (A) (A) (A) (A) (A) (A) (A) (A) (A) (A) (A) (A)
                 (A) (A) (A) (A) (A) (A) (A) (A) (A) (A) (A) (A)
                 (A) (A) (A) (A) (A) (A) (A) (A) (A) (A) (A) (A)
                 (A) (A) (A) (A) (A) (A) (A) (A) (A) (A) (A) (A)
                 (A) (A) (A) (A) (A) (A) (A) (A) (A) (A) (A) (A)
                 (A) (A) (A) (A) (A) (A) (A) (A) (A) (A) (A) (A)
                 (A) (A) (A) (A) (A) (A) (A) (A) (A) (A) (A) (A)
                 (A) (A) (A) (A) (A) (A) (A) (A) (A) (A) (A) (A)
                 (A) (A) (A) (A) (A) (A) (A) (A) (A) (A) (A) (A)
                 (A) (A) (A) (A) (A) (A) (A) (A) (A) (A) (A) (A)
                 (A) (A) (A) (A) (A) (A) (A) (A) (A) (A) (A) (A)
                 (A) (A) (A) (A) (A) (A) (A) (A) (A) (A) (A) (A)
                 (A) (A) (A) (A) (A) (A) (A) (A) (A) (A) (A) (A)
                 (A) (A) (A) (A) (A) (A) (A) (A) (A) (A) (A) (A)
                 (A) (A) (A) (A) (A) (A) (A) (A) (A) (A) (A) (A)
                 (A) (A) (A) (A) (A) (A) (A) (A) (A) (A) (A) (A)
                 (A) (A) (A) (A) (A) (A) (A) (A) (A) (A) (A) (A)
                 (A) (A) (A) (A) (A) (A) (A) (A) (A) (A) (A) (A)
                 (A) (A) (A) (A) (A) (A) (A) (A) (A) (A) (A) (A)
                 (A) (A) (A) (A) (A) (A) (A) (A) (A) (A) (A) (A)
                 (A) (A) (A) (A) (A) (A) (A) (A) (A) (A) (A) (A)
                 (A) (A) (A) (A) (A) (A) (A) (A) (A) (A) (A) (A)
                 (A) (A) (A) (A) (A) (A) (A) (A) (A) (A) (A) (A)
                 (A) (A) (A) (A) (A) (A) (A) (A) (A) (A) (A) (A)
                 (A) (A) (A) (A) (A) (A) (A) (A) (A) (A) (A) (A)
                 (A) (A) (A) (A) (A) (A) (A) (A) (A) (A) (A) (A)
                 (A) (A) (A) (A) (A) (A) (A) (A) (A) (A) (A) (A)
                 (A) (A) (A) (A) (A) (A) (A) (A) (A) (A) (A) (A)
                 (A) (A) (A) (A) (A) (A) (A) (A) (A) (A) (A) (A)
                 (A) (A) (A) (A) (A) (A) (A) (A) (A) (A) (A) (A)
                 (A) (A) (A) (A) (A) (A) (A) (A) (A) (A) (A) (A)
                 (A) (A) (A) (A) (A) (A) (A) (A) (A) (A)
     4 initial guesses have been made.
 Convergence on wavefunction:    0.001000000000000
 Iteration     1 Dimension     4 NMult     0 NNew      4
 CISAX will form     4 AO SS matrices at one time.
 New state      1 was old state      2
 Iteration     2 Dimension     6 NMult     4 NNew      2
 Iteration     3 Dimension     8 NMult     6 NNew      2
 Iteration     4 Dimension    10 NMult     8 NNew      2
 Iteration     5 Dimension    12 NMult    10 NNew      2
 Iteration     6 Dimension    14 NMult    12 NNew      2
 Iteration     7 Dimension    16 NMult    14 NNew      2
 Iteration     8 Dimension    18 NMult    16 NNew      2
 ***********************************************************************
 Excited states from <AA,BB:AA,BB> singles matrix:
 ***********************************************************************
 
 Ground to excited state transition densities written to RWF  633
 Ground to excited state transition electric dipole moments (Au):
       state          X           Y           Z        Dip. S.      Osc.
         1        -0.3739     -2.0794     -0.3673      4.5988      0.2126
 Ground to excited state transition velocity dipole moments (Au):
       state          X           Y           Z        Dip. S.      Osc.
         1         0.0248      0.1398      0.0251      0.0208      0.1998
 Ground to excited state transition magnetic dipole moments (Au):
       state          X           Y           Z
         1         0.1152      0.4099     -2.3396
 Ground to excited state transition velocity quadrupole moments (Au):
       state          XX          YY          ZZ          XY          XZ          YZ
         1        -0.6430      0.3199      0.0441     -1.9144     -0.2872      0.0325
 <0|del|b> * <b|rxdel|0> + <0|del|b> * <b|delr+rdel|0>
 Rotatory Strengths (R) in cgs (10**-40 erg-esu-cm/Gauss)
       state          XX          YY          ZZ    R(velocity)    E-M Angle
         1       -47.9227    -35.7475     97.9022      4.7440       89.77
 1/2[<0|r|b>*<b|rxdel|0> + (<0|rxdel|b>*<b|r|0>)*]
 Rotatory Strengths (R) in cgs (10**-40 erg-esu-cm/Gauss)
       state          XX          YY          ZZ     R(length)
         1        30.4551    602.7433   -607.6755      8.5076
  1/2[<0|del|b>*<b|r|0> + (<0|r|b>*<b|del|0>)*] (Au)
       state          X           Y           Z        Dip. S.   Osc.(frdel)
         1        -0.0093     -0.2907     -0.0092      0.3092      0.2061

 Excitation energies and oscillator strengths:
 
 Excited State   1:      Singlet-A      1.8874 eV  656.91 nm  f=0.2126  <S**2>=0.000
     235 -> 237       -0.11721
     235 -> 238       -0.20532
     236 -> 237        0.65799
     236 -> 238       -0.10842
 This state for optimization and/or second-order correction.
 Total Energy, E(TD-HF/TD-DFT) =  -2732.96302865    
 Copying the excited state density for this state as the 1-particle RhoCI density.
 SavETr:  write IOETrn=   770 NScale= 10 NData=  16 NLR=1 NState=    1 LETran=      28.
 Hyperfine terms turned off by default for NAtoms > 100.

 **********************************************************************

            Population analysis using the SCF density.

 **********************************************************************

 Orbital symmetries:
       Occupied  (A) (A) (A) (A) (A) (A) (A) (A) (A) (A) (A) (A)
                 (A) (A) (A) (A) (A) (A) (A) (A) (A) (A) (A) (A)
                 (A) (A) (A) (A) (A) (A) (A) (A) (A) (A) (A) (A)
                 (A) (A) (A) (A) (A) (A) (A) (A) (A) (A) (A) (A)
                 (A) (A) (A) (A) (A) (A) (A) (A) (A) (A) (A) (A)
                 (A) (A) (A) (A) (A) (A) (A) (A) (A) (A) (A) (A)
                 (A) (A) (A) (A) (A) (A) (A) (A) (A) (A) (A) (A)
                 (A) (A) (A) (A) (A) (A) (A) (A) (A) (A) (A) (A)
                 (A) (A) (A) (A) (A) (A) (A) (A) (A) (A) (A) (A)
                 (A) (A) (A) (A) (A) (A) (A) (A) (A) (A) (A) (A)
                 (A) (A) (A) (A) (A) (A) (A) (A) (A) (A) (A) (A)
                 (A) (A) (A) (A) (A) (A) (A) (A) (A) (A) (A) (A)
                 (A) (A) (A) (A) (A) (A) (A) (A) (A) (A) (A) (A)
                 (A) (A) (A) (A) (A) (A) (A) (A) (A) (A) (A) (A)
                 (A) (A) (A) (A) (A) (A) (A) (A) (A) (A) (A) (A)
                 (A) (A) (A) (A) (A) (A) (A) (A) (A) (A) (A) (A)
                 (A) (A) (A) (A) (A) (A) (A) (A) (A) (A) (A) (A)
                 (A) (A) (A) (A) (A) (A) (A) (A) (A) (A) (A) (A)
                 (A) (A) (A) (A) (A) (A) (A) (A) (A) (A) (A) (A)
                 (A) (A) (A) (A) (A) (A) (A) (A)
       Virtual   (A) (A) (A) (A) (A) (A) (A) (A) (A) (A) (A) (A)
                 (A) (A) (A) (A) (A) (A) (A) (A) (A) (A) (A) (A)
                 (A) (A) (A) (A) (A) (A) (A) (A) (A) (A) (A) (A)
                 (A) (A) (A) (A) (A) (A) (A) (A) (A) (A) (A) (A)
                 (A) (A) (A) (A) (A) (A) (A) (A) (A) (A) (A) (A)
                 (A) (A) (A) (A) (A) (A) (A) (A) (A) (A) (A) (A)
                 (A) (A) (A) (A) (A) (A) (A) (A) (A) (A) (A) (A)
                 (A) (A) (A) (A) (A) (A) (A) (A) (A) (A) (A) (A)
                 (A) (A) (A) (A) (A) (A) (A) (A) (A) (A) (A) (A)
                 (A) (A) (A) (A) (A) (A) (A) (A) (A) (A) (A) (A)
                 (A) (A) (A) (A) (A) (A) (A) (A) (A) (A) (A) (A)
                 (A) (A) (A) (A) (A) (A) (A) (A) (A) (A) (A) (A)
                 (A) (A) (A) (A) (A) (A) (A) (A) (A) (A) (A) (A)
                 (A) (A) (A) (A) (A) (A) (A) (A) (A) (A) (A) (A)
                 (A) (A) (A) (A) (A) (A) (A) (A) (A) (A) (A) (A)
                 (A) (A) (A) (A) (A) (A) (A) (A) (A) (A) (A) (A)
                 (A) (A) (A) (A) (A) (A) (A) (A) (A) (A) (A) (A)
                 (A) (A) (A) (A) (A) (A) (A) (A) (A) (A) (A) (A)
                 (A) (A) (A) (A) (A) (A) (A) (A) (A) (A) (A) (A)
                 (A) (A) (A) (A) (A) (A) (A) (A) (A) (A) (A) (A)
                 (A) (A) (A) (A) (A) (A) (A) (A) (A) (A) (A) (A)
                 (A) (A) (A) (A) (A) (A) (A) (A) (A) (A) (A) (A)
                 (A) (A) (A) (A) (A) (A) (A) (A) (A) (A) (A) (A)
                 (A) (A) (A) (A) (A) (A) (A) (A) (A) (A) (A) (A)
                 (A) (A) (A) (A) (A) (A) (A) (A) (A) (A) (A) (A)
                 (A) (A) (A) (A) (A) (A) (A) (A) (A) (A) (A) (A)
                 (A) (A) (A) (A) (A) (A) (A) (A) (A) (A) (A) (A)
                 (A) (A) (A) (A) (A) (A) (A) (A) (A) (A) (A) (A)
                 (A) (A) (A) (A) (A) (A) (A) (A) (A) (A) (A) (A)
                 (A) (A) (A) (A) (A) (A) (A) (A) (A) (A) (A) (A)
                 (A) (A) (A) (A) (A) (A) (A) (A) (A) (A) (A) (A)
                 (A) (A) (A) (A) (A) (A) (A) (A) (A) (A) (A) (A)
                 (A) (A) (A) (A) (A) (A) (A) (A) (A) (A) (A) (A)
                 (A) (A) (A) (A) (A) (A) (A) (A) (A) (A) (A) (A)
                 (A) (A) (A) (A) (A) (A) (A) (A) (A) (A) (A) (A)
                 (A) (A) (A) (A) (A) (A) (A) (A) (A) (A) (A) (A)
                 (A) (A) (A) (A) (A) (A) (A) (A) (A) (A) (A) (A)
                 (A) (A) (A) (A) (A) (A) (A) (A) (A) (A) (A) (A)
                 (A) (A) (A) (A) (A) (A) (A) (A) (A) (A) (A) (A)
                 (A) (A) (A) (A) (A) (A) (A) (A) (A) (A) (A) (A)
                 (A) (A) (A) (A) (A) (A) (A) (A) (A) (A) (A) (A)
                 (A) (A) (A) (A) (A) (A) (A) (A) (A) (A) (A) (A)
                 (A) (A) (A) (A) (A) (A) (A) (A) (A) (A) (A) (A)
                 (A) (A) (A) (A) (A) (A) (A) (A) (A) (A) (A) (A)
                 (A) (A) (A) (A) (A) (A) (A) (A) (A) (A) (A) (A)
                 (A) (A) (A) (A) (A) (A) (A) (A) (A) (A) (A) (A)
                 (A) (A) (A) (A) (A) (A) (A) (A) (A) (A) (A) (A)
                 (A) (A) (A) (A) (A) (A) (A) (A) (A) (A) (A) (A)
                 (A) (A) (A) (A) (A) (A) (A) (A) (A) (A) (A) (A)
                 (A) (A) (A) (A) (A) (A) (A) (A) (A) (A) (A) (A)
                 (A) (A) (A) (A) (A) (A) (A) (A) (A) (A) (A) (A)
                 (A) (A) (A) (A) (A) (A) (A) (A) (A) (A) (A) (A)
                 (A) (A) (A) (A) (A) (A) (A) (A) (A) (A) (A) (A)
                 (A) (A) (A) (A) (A) (A) (A) (A) (A) (A) (A) (A)
                 (A) (A) (A) (A) (A) (A) (A) (A) (A) (A) (A) (A)
                 (A) (A) (A) (A) (A) (A) (A) (A) (A) (A) (A) (A)
                 (A) (A) (A) (A) (A) (A) (A) (A) (A) (A) (A) (A)
                 (A) (A) (A) (A) (A) (A) (A) (A) (A) (A) (A) (A)
                 (A) (A) (A) (A) (A) (A) (A) (A) (A) (A) (A) (A)
                 (A) (A) (A) (A) (A) (A) (A) (A) (A) (A) (A) (A)
                 (A) (A) (A) (A) (A) (A) (A) (A) (A) (A) (A) (A)
                 (A) (A) (A) (A) (A) (A) (A) (A) (A) (A) (A) (A)
                 (A) (A) (A) (A) (A) (A) (A) (A) (A) (A) (A) (A)
                 (A) (A) (A) (A) (A) (A) (A) (A) (A) (A) (A) (A)
                 (A) (A) (A) (A) (A) (A) (A) (A) (A) (A) (A) (A)
                 (A) (A) (A) (A) (A) (A) (A) (A) (A) (A) (A) (A)
                 (A) (A) (A) (A) (A) (A) (A) (A) (A) (A) (A) (A)
                 (A) (A) (A) (A) (A) (A) (A) (A) (A) (A) (A) (A)
                 (A) (A) (A) (A) (A) (A) (A) (A) (A) (A) (A) (A)
                 (A) (A) (A) (A) (A) (A) (A) (A) (A) (A) (A) (A)
                 (A) (A) (A) (A) (A) (A) (A) (A) (A) (A) (A) (A)
                 (A) (A) (A) (A) (A) (A) (A) (A) (A) (A) (A) (A)
                 (A) (A) (A) (A) (A) (A) (A) (A) (A) (A) (A) (A)
                 (A) (A) (A) (A) (A) (A) (A) (A) (A) (A) (A) (A)
                 (A) (A) (A) (A) (A) (A) (A) (A) (A) (A) (A) (A)
                 (A) (A) (A) (A) (A) (A) (A) (A) (A) (A) (A) (A)
                 (A) (A) (A) (A) (A) (A) (A) (A) (A) (A) (A) (A)
                 (A) (A) (A) (A) (A) (A) (A) (A) (A) (A) (A) (A)
                 (A) (A) (A) (A) (A) (A) (A) (A) (A) (A) (A) (A)
                 (A) (A) (A) (A) (A) (A) (A) (A) (A) (A) (A) (A)
                 (A) (A) (A) (A) (A) (A) (A) (A) (A) (A) (A) (A)
                 (A) (A) (A) (A) (A) (A) (A) (A) (A) (A) (A) (A)
                 (A) (A) (A) (A) (A) (A) (A) (A) (A) (A) (A) (A)
                 (A) (A) (A) (A) (A) (A) (A) (A) (A) (A) (A) (A)
                 (A) (A) (A) (A) (A) (A) (A) (A) (A) (A) (A) (A)
                 (A) (A) (A) (A) (A) (A) (A) (A) (A) (A)
 The electronic state is 1-A.
 Alpha  occ. eigenvalues --  -19.18292 -19.16991 -19.13863 -19.13086 -19.11948
 Alpha  occ. eigenvalues --  -14.37313 -14.36327 -14.32400 -14.29341 -10.32014
 Alpha  occ. eigenvalues --  -10.30823 -10.28743 -10.25373 -10.24118 -10.23830
 Alpha  occ. eigenvalues --  -10.23678 -10.23188 -10.22966 -10.22769 -10.22666
 Alpha  occ. eigenvalues --  -10.22624 -10.22014 -10.21828 -10.21371 -10.21137
 Alpha  occ. eigenvalues --  -10.20966 -10.20944 -10.20639 -10.20537 -10.20463
 Alpha  occ. eigenvalues --  -10.20445 -10.20435 -10.20387 -10.20284 -10.20232
 Alpha  occ. eigenvalues --  -10.20091 -10.20044 -10.19977 -10.19965 -10.19719
 Alpha  occ. eigenvalues --  -10.19579 -10.19485 -10.19459 -10.19434 -10.19270
 Alpha  occ. eigenvalues --  -10.19198 -10.19123 -10.19103 -10.19101 -10.19090
 Alpha  occ. eigenvalues --  -10.19042 -10.19019 -10.18900 -10.18899 -10.18682
 Alpha  occ. eigenvalues --  -10.18631 -10.18520 -10.18463 -10.18396 -10.18310
 Alpha  occ. eigenvalues --  -10.17676 -10.17401 -10.17315 -10.16799  -1.10893
 Alpha  occ. eigenvalues --   -1.07566  -1.02815  -1.01869  -0.98992  -0.98524
 Alpha  occ. eigenvalues --   -0.96583  -0.95263  -0.92505  -0.85350  -0.83350
 Alpha  occ. eigenvalues --   -0.82257  -0.82066  -0.80806  -0.80626  -0.80559
 Alpha  occ. eigenvalues --   -0.80058  -0.79841  -0.79153  -0.78494  -0.77879
 Alpha  occ. eigenvalues --   -0.76757  -0.76154  -0.75839  -0.74952  -0.74545
 Alpha  occ. eigenvalues --   -0.73288  -0.73225  -0.72571  -0.71447  -0.70880
 Alpha  occ. eigenvalues --   -0.70080  -0.69222  -0.68767  -0.68325  -0.67612
 Alpha  occ. eigenvalues --   -0.67190  -0.66072  -0.65759  -0.65539  -0.64781
 Alpha  occ. eigenvalues --   -0.64090  -0.62166  -0.62016  -0.61530  -0.61301
 Alpha  occ. eigenvalues --   -0.60703  -0.58755  -0.58543  -0.57530  -0.56725
 Alpha  occ. eigenvalues --   -0.56275  -0.55789  -0.55574  -0.55498  -0.55135
 Alpha  occ. eigenvalues --   -0.55064  -0.54627  -0.54126  -0.53637  -0.53258
 Alpha  occ. eigenvalues --   -0.52472  -0.51641  -0.51406  -0.50989  -0.50215
 Alpha  occ. eigenvalues --   -0.49702  -0.49297  -0.49255  -0.48973  -0.48467
 Alpha  occ. eigenvalues --   -0.48164  -0.47960  -0.47779  -0.47639  -0.46723
 Alpha  occ. eigenvalues --   -0.46356  -0.46106  -0.45713  -0.45479  -0.45419
 Alpha  occ. eigenvalues --   -0.45082  -0.44921  -0.44848  -0.44691  -0.44591
 Alpha  occ. eigenvalues --   -0.44506  -0.44348  -0.43778  -0.43768  -0.43500
 Alpha  occ. eigenvalues --   -0.43204  -0.43054  -0.42945  -0.42905  -0.42600
 Alpha  occ. eigenvalues --   -0.42288  -0.42199  -0.41898  -0.41544  -0.41285
 Alpha  occ. eigenvalues --   -0.41062  -0.40887  -0.40760  -0.40544  -0.40020
 Alpha  occ. eigenvalues --   -0.39857  -0.39652  -0.39548  -0.39327  -0.39229
 Alpha  occ. eigenvalues --   -0.39016  -0.39005  -0.38836  -0.38725  -0.38537
 Alpha  occ. eigenvalues --   -0.38512  -0.38307  -0.38143  -0.37772  -0.37495
 Alpha  occ. eigenvalues --   -0.37441  -0.37115  -0.37040  -0.36803  -0.36776
 Alpha  occ. eigenvalues --   -0.36666  -0.36398  -0.36270  -0.36076  -0.35880
 Alpha  occ. eigenvalues --   -0.35778  -0.35606  -0.35414  -0.35111  -0.34996
 Alpha  occ. eigenvalues --   -0.34689  -0.34424  -0.34184  -0.33819  -0.33660
 Alpha  occ. eigenvalues --   -0.33345  -0.32989  -0.32612  -0.32384  -0.32151
 Alpha  occ. eigenvalues --   -0.32081  -0.31614  -0.31322  -0.31203  -0.30925
 Alpha  occ. eigenvalues --   -0.30547  -0.30488  -0.30287  -0.30109  -0.29978
 Alpha  occ. eigenvalues --   -0.29257  -0.28730  -0.28378  -0.27907  -0.27724
 Alpha  occ. eigenvalues --   -0.27234  -0.27075  -0.26523  -0.26228  -0.26011
 Alpha  occ. eigenvalues --   -0.25303  -0.24972  -0.23400  -0.22502  -0.20019
 Alpha  occ. eigenvalues --   -0.17650
 Alpha virt. eigenvalues --   -0.10143  -0.07451  -0.04122  -0.02072  -0.00441
 Alpha virt. eigenvalues --   -0.00142   0.00272   0.00396   0.02336   0.03201
 Alpha virt. eigenvalues --    0.03585   0.03856   0.04177   0.04268   0.04799
 Alpha virt. eigenvalues --    0.04898   0.05306   0.05359   0.05476   0.05966
 Alpha virt. eigenvalues --    0.05998   0.06454   0.06538   0.06934   0.07102
 Alpha virt. eigenvalues --    0.07247   0.07423   0.07679   0.07922   0.08312
 Alpha virt. eigenvalues --    0.08485   0.08653   0.08742   0.08871   0.09052
 Alpha virt. eigenvalues --    0.09261   0.09327   0.09724   0.10084   0.10160
 Alpha virt. eigenvalues --    0.10266   0.10360   0.10506   0.10643   0.10855
 Alpha virt. eigenvalues --    0.11025   0.11150   0.11367   0.11468   0.11735
 Alpha virt. eigenvalues --    0.11902   0.11931   0.12079   0.12225   0.12347
 Alpha virt. eigenvalues --    0.12393   0.12483   0.12490   0.12749   0.12826
 Alpha virt. eigenvalues --    0.13066   0.13105   0.13231   0.13428   0.13551
 Alpha virt. eigenvalues --    0.13808   0.13930   0.14056   0.14324   0.14408
 Alpha virt. eigenvalues --    0.14495   0.15329   0.15554   0.15658   0.15727
 Alpha virt. eigenvalues --    0.15880   0.16113   0.16170   0.16270   0.16501
 Alpha virt. eigenvalues --    0.16686   0.16920   0.17296   0.17343   0.17696
 Alpha virt. eigenvalues --    0.17975   0.18102   0.18579   0.18745   0.19049
 Alpha virt. eigenvalues --    0.19125   0.19294   0.19457   0.19905   0.20065
 Alpha virt. eigenvalues --    0.20099   0.20221   0.20710   0.20945   0.21248
 Alpha virt. eigenvalues --    0.21378   0.21600   0.21762   0.22033   0.22280
 Alpha virt. eigenvalues --    0.22520   0.22870   0.22982   0.23099   0.23519
 Alpha virt. eigenvalues --    0.23612   0.24039   0.24068   0.24376   0.24500
 Alpha virt. eigenvalues --    0.25013   0.25320   0.25548   0.25590   0.25903
 Alpha virt. eigenvalues --    0.26054   0.26576   0.26753   0.26795   0.26847
 Alpha virt. eigenvalues --    0.27611   0.27946   0.28433   0.28723   0.29052
 Alpha virt. eigenvalues --    0.29573   0.29935   0.30391   0.31246   0.31500
 Alpha virt. eigenvalues --    0.31636   0.32520   0.32741   0.32877   0.33156
 Alpha virt. eigenvalues --    0.33266   0.33625   0.33927   0.34654   0.35157
 Alpha virt. eigenvalues --    0.35589   0.36121   0.36635   0.36926   0.37280
 Alpha virt. eigenvalues --    0.37450   0.37549   0.37937   0.38118   0.38312
 Alpha virt. eigenvalues --    0.39119   0.39321   0.39936   0.40104   0.40392
 Alpha virt. eigenvalues --    0.40441   0.40721   0.40788   0.41127   0.41210
 Alpha virt. eigenvalues --    0.41343   0.41453   0.41888   0.41905   0.42187
 Alpha virt. eigenvalues --    0.42378   0.42545   0.42667   0.42888   0.42947
 Alpha virt. eigenvalues --    0.43095   0.43381   0.43677   0.43908   0.44161
 Alpha virt. eigenvalues --    0.44583   0.44657   0.44724   0.44799   0.45141
 Alpha virt. eigenvalues --    0.45663   0.45798   0.46267   0.46375   0.46742
 Alpha virt. eigenvalues --    0.46960   0.47398   0.47503   0.47776   0.47875
 Alpha virt. eigenvalues --    0.48025   0.48208   0.48489   0.48619   0.49056
 Alpha virt. eigenvalues --    0.49169   0.49278   0.49396   0.49741   0.50064
 Alpha virt. eigenvalues --    0.50222   0.50445   0.50590   0.51212   0.51447
 Alpha virt. eigenvalues --    0.51561   0.51611   0.51854   0.52282   0.52684
 Alpha virt. eigenvalues --    0.52780   0.52892   0.53160   0.53378   0.53812
 Alpha virt. eigenvalues --    0.54152   0.54377   0.54487   0.54533   0.54957
 Alpha virt. eigenvalues --    0.55302   0.55666   0.55965   0.56180   0.56248
 Alpha virt. eigenvalues --    0.56522   0.56617   0.56843   0.57123   0.57384
 Alpha virt. eigenvalues --    0.57437   0.57971   0.58347   0.58613   0.58764
 Alpha virt. eigenvalues --    0.58868   0.59015   0.59130   0.59451   0.59617
 Alpha virt. eigenvalues --    0.59905   0.59950   0.60250   0.60522   0.60670
 Alpha virt. eigenvalues --    0.60762   0.60985   0.61034   0.61156   0.61257
 Alpha virt. eigenvalues --    0.61379   0.61570   0.61792   0.61847   0.61880
 Alpha virt. eigenvalues --    0.62069   0.62146   0.62306   0.62480   0.62570
 Alpha virt. eigenvalues --    0.62625   0.62718   0.62860   0.63051   0.63185
 Alpha virt. eigenvalues --    0.63344   0.63677   0.63783   0.63866   0.63964
 Alpha virt. eigenvalues --    0.64152   0.64270   0.64377   0.64517   0.64576
 Alpha virt. eigenvalues --    0.64886   0.64936   0.65131   0.65204   0.65277
 Alpha virt. eigenvalues --    0.65570   0.65710   0.65789   0.65971   0.66034
 Alpha virt. eigenvalues --    0.66185   0.66226   0.66418   0.66753   0.66820
 Alpha virt. eigenvalues --    0.67095   0.67184   0.67283   0.67300   0.67366
 Alpha virt. eigenvalues --    0.67491   0.67551   0.67758   0.67874   0.68031
 Alpha virt. eigenvalues --    0.68084   0.68125   0.68391   0.68533   0.68578
 Alpha virt. eigenvalues --    0.68819   0.68920   0.69115   0.69144   0.69291
 Alpha virt. eigenvalues --    0.69394   0.69613   0.69754   0.69802   0.69957
 Alpha virt. eigenvalues --    0.70195   0.70424   0.70483   0.70517   0.70785
 Alpha virt. eigenvalues --    0.70962   0.71041   0.71273   0.71633   0.71689
 Alpha virt. eigenvalues --    0.71843   0.71970   0.72324   0.72542   0.72650
 Alpha virt. eigenvalues --    0.72676   0.72792   0.72920   0.73235   0.73280
 Alpha virt. eigenvalues --    0.73414   0.73631   0.73946   0.74263   0.74322
 Alpha virt. eigenvalues --    0.74671   0.74815   0.75068   0.75217   0.75503
 Alpha virt. eigenvalues --    0.75583   0.75730   0.76301   0.76386   0.76456
 Alpha virt. eigenvalues --    0.76728   0.76924   0.77073   0.77123   0.77236
 Alpha virt. eigenvalues --    0.77498   0.77840   0.78070   0.78533   0.78705
 Alpha virt. eigenvalues --    0.78958   0.78969   0.79653   0.80135   0.80177
 Alpha virt. eigenvalues --    0.80353   0.80549   0.80890   0.81501   0.81934
 Alpha virt. eigenvalues --    0.82276   0.82442   0.82579   0.83746   0.84041
 Alpha virt. eigenvalues --    0.84243   0.84447   0.85452   0.85547   0.86451
 Alpha virt. eigenvalues --    0.86529   0.87273   0.87850   0.88252   0.88999
 Alpha virt. eigenvalues --    0.89636   0.89710   0.89871   0.90496   0.90960
 Alpha virt. eigenvalues --    0.91422   0.91701   0.91999   0.92490   0.92971
 Alpha virt. eigenvalues --    0.93231   0.93624   0.94114   0.94480   0.95145
 Alpha virt. eigenvalues --    0.95775   0.96144   0.96355   0.97230   0.97655
 Alpha virt. eigenvalues --    0.97808   0.97951   0.98367   0.98844   0.98962
 Alpha virt. eigenvalues --    0.99273   0.99628   0.99793   1.00193   1.00717
 Alpha virt. eigenvalues --    1.01195   1.01452   1.01834   1.02644   1.03023
 Alpha virt. eigenvalues --    1.03155   1.03943   1.04647   1.04727   1.05168
 Alpha virt. eigenvalues --    1.05462   1.05983   1.06291   1.07350   1.07604
 Alpha virt. eigenvalues --    1.08204   1.08559   1.08875   1.09137   1.09418
 Alpha virt. eigenvalues --    1.09892   1.10358   1.11186   1.11509   1.11904
 Alpha virt. eigenvalues --    1.12203   1.12444   1.13005   1.13142   1.13379
 Alpha virt. eigenvalues --    1.13993   1.14171   1.14962   1.15210   1.15754
 Alpha virt. eigenvalues --    1.16108   1.16681   1.17292   1.17633   1.18052
 Alpha virt. eigenvalues --    1.18561   1.19167   1.19891   1.20372   1.20608
 Alpha virt. eigenvalues --    1.20815   1.21179   1.21687   1.22581   1.23285
 Alpha virt. eigenvalues --    1.23409   1.24085   1.24206   1.24816   1.24979
 Alpha virt. eigenvalues --    1.25170   1.26163   1.26637   1.26775   1.27347
 Alpha virt. eigenvalues --    1.27497   1.27793   1.28350   1.28505   1.28591
 Alpha virt. eigenvalues --    1.29025   1.29798   1.29892   1.30703   1.31664
 Alpha virt. eigenvalues --    1.32102   1.32642   1.32732   1.33069   1.33618
 Alpha virt. eigenvalues --    1.33964   1.34055   1.34693   1.34860   1.35227
 Alpha virt. eigenvalues --    1.35271   1.35659   1.36166   1.36737   1.36902
 Alpha virt. eigenvalues --    1.37268   1.37431   1.37655   1.37873   1.38589
 Alpha virt. eigenvalues --    1.38640   1.39231   1.39442   1.40706   1.41463
 Alpha virt. eigenvalues --    1.41768   1.42570   1.42839   1.43624   1.44313
 Alpha virt. eigenvalues --    1.44627   1.44912   1.45426   1.45790   1.46814
 Alpha virt. eigenvalues --    1.47592   1.47669   1.47797   1.47860   1.48148
 Alpha virt. eigenvalues --    1.48347   1.48730   1.48900   1.49320   1.50132
 Alpha virt. eigenvalues --    1.50379   1.50570   1.50783   1.51163   1.51422
 Alpha virt. eigenvalues --    1.52042   1.52503   1.52623   1.53126   1.53402
 Alpha virt. eigenvalues --    1.53494   1.53866   1.53969   1.54569   1.54629
 Alpha virt. eigenvalues --    1.55424   1.55614   1.55829   1.56370   1.56874
 Alpha virt. eigenvalues --    1.56926   1.57152   1.57331   1.57500   1.57858
 Alpha virt. eigenvalues --    1.58199   1.58640   1.59168   1.59495   1.59911
 Alpha virt. eigenvalues --    1.60384   1.60651   1.60791   1.61095   1.61793
 Alpha virt. eigenvalues --    1.61986   1.62119   1.62725   1.63269   1.63320
 Alpha virt. eigenvalues --    1.63512   1.63822   1.63938   1.64114   1.64523
 Alpha virt. eigenvalues --    1.64931   1.65232   1.65389   1.66294   1.66514
 Alpha virt. eigenvalues --    1.66768   1.66890   1.67166   1.67209   1.67429
 Alpha virt. eigenvalues --    1.67748   1.68094   1.68223   1.68375   1.68716
 Alpha virt. eigenvalues --    1.68979   1.69288   1.69456   1.69724   1.69864
 Alpha virt. eigenvalues --    1.70647   1.70704   1.71065   1.71101   1.71363
 Alpha virt. eigenvalues --    1.71656   1.71777   1.72210   1.72305   1.72715
 Alpha virt. eigenvalues --    1.73056   1.73546   1.73810   1.73999   1.74113
 Alpha virt. eigenvalues --    1.74356   1.74541   1.74858   1.75099   1.75296
 Alpha virt. eigenvalues --    1.75511   1.75894   1.76017   1.76210   1.76279
 Alpha virt. eigenvalues --    1.76520   1.76672   1.76890   1.76927   1.77336
 Alpha virt. eigenvalues --    1.77651   1.77858   1.77879   1.78213   1.78303
 Alpha virt. eigenvalues --    1.78478   1.78619   1.78828   1.79144   1.79210
 Alpha virt. eigenvalues --    1.79430   1.79524   1.80147   1.80263   1.80629
 Alpha virt. eigenvalues --    1.80775   1.80963   1.81124   1.81410   1.81605
 Alpha virt. eigenvalues --    1.81798   1.82171   1.82515   1.82918   1.82965
 Alpha virt. eigenvalues --    1.83114   1.83396   1.83653   1.83763   1.83908
 Alpha virt. eigenvalues --    1.84049   1.84274   1.85065   1.85074   1.85445
 Alpha virt. eigenvalues --    1.85653   1.85893   1.86377   1.86461   1.86585
 Alpha virt. eigenvalues --    1.86912   1.87133   1.87216   1.87578   1.87609
 Alpha virt. eigenvalues --    1.87815   1.88254   1.88602   1.88762   1.88896
 Alpha virt. eigenvalues --    1.89032   1.89487   1.89528   1.89766   1.89981
 Alpha virt. eigenvalues --    1.90264   1.90379   1.90576   1.90622   1.90924
 Alpha virt. eigenvalues --    1.91075   1.91207   1.91481   1.91869   1.91975
 Alpha virt. eigenvalues --    1.92109   1.92484   1.92882   1.93298   1.93700
 Alpha virt. eigenvalues --    1.93763   1.93887   1.94060   1.94288   1.94421
 Alpha virt. eigenvalues --    1.94657   1.94966   1.95598   1.95983   1.96230
 Alpha virt. eigenvalues --    1.96240   1.96678   1.97022   1.97143   1.97493
 Alpha virt. eigenvalues --    1.97529   1.97725   1.98213   1.98514   1.98769
 Alpha virt. eigenvalues --    1.99101   1.99366   1.99513   1.99884   2.00232
 Alpha virt. eigenvalues --    2.00474   2.01173   2.01317   2.01643   2.02434
 Alpha virt. eigenvalues --    2.02527   2.02979   2.03162   2.03479   2.03884
 Alpha virt. eigenvalues --    2.04122   2.04269   2.04433   2.04861   2.05126
 Alpha virt. eigenvalues --    2.05487   2.05866   2.06121   2.06563   2.06652
 Alpha virt. eigenvalues --    2.06861   2.07611   2.07667   2.07682   2.08015
 Alpha virt. eigenvalues --    2.08294   2.08768   2.08825   2.09222   2.10113
 Alpha virt. eigenvalues --    2.10426   2.10645   2.10948   2.11641   2.12011
 Alpha virt. eigenvalues --    2.12279   2.12412   2.12671   2.13232   2.13691
 Alpha virt. eigenvalues --    2.14108   2.14302   2.14755   2.14777   2.15104
 Alpha virt. eigenvalues --    2.15422   2.15890   2.16445   2.16832   2.17184
 Alpha virt. eigenvalues --    2.17417   2.18084   2.18391   2.18616   2.18755
 Alpha virt. eigenvalues --    2.19479   2.19626   2.20160   2.21062   2.21240
 Alpha virt. eigenvalues --    2.21431   2.21856   2.22266   2.22767   2.22984
 Alpha virt. eigenvalues --    2.23334   2.24234   2.24628   2.24741   2.24985
 Alpha virt. eigenvalues --    2.25639   2.25966   2.26417   2.26712   2.26821
 Alpha virt. eigenvalues --    2.27205   2.28323   2.28583   2.28658   2.28875
 Alpha virt. eigenvalues --    2.29385   2.29400   2.29905   2.30046   2.30400
 Alpha virt. eigenvalues --    2.30762   2.31350   2.31648   2.31818   2.32272
 Alpha virt. eigenvalues --    2.32508   2.32791   2.33279   2.33435   2.34142
 Alpha virt. eigenvalues --    2.35039   2.35104   2.35158   2.35718   2.36154
 Alpha virt. eigenvalues --    2.36487   2.36600   2.37399   2.37741   2.38470
 Alpha virt. eigenvalues --    2.38834   2.38984   2.39755   2.39873   2.40149
 Alpha virt. eigenvalues --    2.40584   2.41016   2.41498   2.42144   2.42562
 Alpha virt. eigenvalues --    2.42736   2.43156   2.43258   2.43639   2.43804
 Alpha virt. eigenvalues --    2.44407   2.44594   2.45516   2.45698   2.45991
 Alpha virt. eigenvalues --    2.46618   2.46740   2.47365   2.47763   2.47896
 Alpha virt. eigenvalues --    2.48722   2.49394   2.49707   2.49898   2.50275
 Alpha virt. eigenvalues --    2.50767   2.50885   2.50988   2.51355   2.51725
 Alpha virt. eigenvalues --    2.51770   2.52317   2.52940   2.53459   2.53743
 Alpha virt. eigenvalues --    2.54094   2.54553   2.54763   2.56375   2.57243
 Alpha virt. eigenvalues --    2.57548   2.57751   2.58373   2.58612   2.59207
 Alpha virt. eigenvalues --    2.59626   2.59751   2.60388   2.60479   2.61067
 Alpha virt. eigenvalues --    2.61820   2.61909   2.62082   2.62387   2.63100
 Alpha virt. eigenvalues --    2.64122   2.64209   2.65089   2.65634   2.65872
 Alpha virt. eigenvalues --    2.66288   2.66522   2.66585   2.67210   2.67797
 Alpha virt. eigenvalues --    2.68208   2.68251   2.68765   2.69235   2.69877
 Alpha virt. eigenvalues --    2.70624   2.70789   2.71138   2.71462   2.71733
 Alpha virt. eigenvalues --    2.71814   2.72170   2.72432   2.72479   2.73577
 Alpha virt. eigenvalues --    2.73704   2.73820   2.74511   2.74881   2.75298
 Alpha virt. eigenvalues --    2.75622   2.75864   2.76070   2.76556   2.76855
 Alpha virt. eigenvalues --    2.77045   2.77689   2.77984   2.78550   2.79177
 Alpha virt. eigenvalues --    2.79350   2.80419   2.80799   2.80885   2.81093
 Alpha virt. eigenvalues --    2.81604   2.82775   2.82813   2.83183   2.83799
 Alpha virt. eigenvalues --    2.84160   2.85001   2.85202   2.85403   2.86052
 Alpha virt. eigenvalues --    2.86549   2.86715   2.87269   2.88338   2.88813
 Alpha virt. eigenvalues --    2.89326   2.89901   2.89994   2.90287   2.90881
 Alpha virt. eigenvalues --    2.91213   2.91426   2.91550   2.91768   2.93213
 Alpha virt. eigenvalues --    2.93260   2.93594   2.94028   2.94124   2.94551
 Alpha virt. eigenvalues --    2.95251   2.95632   2.95853   2.96197   2.96257
 Alpha virt. eigenvalues --    2.96307   2.97114   2.97692   2.98513   2.98666
 Alpha virt. eigenvalues --    2.99143   3.00131   3.00357   3.00723   3.01846
 Alpha virt. eigenvalues --    3.02384   3.02907   3.03422   3.05014   3.05125
 Alpha virt. eigenvalues --    3.05488   3.05588   3.06386   3.06633   3.07793
 Alpha virt. eigenvalues --    3.08801   3.09317   3.09866   3.11438   3.11957
 Alpha virt. eigenvalues --    3.12822   3.13817   3.14451   3.15033   3.15452
 Alpha virt. eigenvalues --    3.16192   3.16418   3.17753   3.18706   3.18863
 Alpha virt. eigenvalues --    3.18911   3.20376   3.21887   3.22563   3.23990
 Alpha virt. eigenvalues --    3.25765   3.26253   3.26546   3.26635   3.32088
 Alpha virt. eigenvalues --    3.34150   3.38663   3.39395   3.39846   3.41299
 Alpha virt. eigenvalues --    3.48292   3.51326   3.54584   3.57680   3.58243
 Alpha virt. eigenvalues --    3.62021   3.62750   3.63363   3.66188   3.71644
          Condensed to atoms (all electrons):
 Mulliken charges:
               1
     1  C    0.011704
     2  C   -0.084498
     3  C   -0.114395
     4  C   -0.094907
     5  N   -0.230272
     6  C   -0.067450
     7  C   -0.033718
     8  C   -0.027995
     9  C    0.018472
    10  C   -0.039396
    11  C    0.094308
    12  C    0.038825
    13  C    0.178753
    14  O   -0.274215
    15  O   -0.338157
    16  N   -0.080309
    17  C    0.068776
    18  C   -0.063642
    19  C    0.048327
    20  C    0.069758
    21  C    0.111966
    22  C   -0.075097
    23  C   -0.071014
    24  N   -0.152818
    25  C    0.106484
    26  C   -0.110514
    27  C   -0.155664
    28  C   -0.007761
    29  C    0.149685
    30  C    0.170737
    31  C   -0.023093
    32  N   -0.066185
    33  C    0.095180
    34  C   -0.098637
    35  C   -0.020716
    36  C    0.061945
    37  C    0.055430
    38  C    0.103088
    39  O   -0.181073
    40  C   -0.033277
    41  C    0.177593
    42  O   -0.195241
    43  O   -0.292271
    44  C    0.201254
    45  C    0.244505
    46  C   -0.041315
    47  C   -0.186349
    48  C    0.103220
    49  C    0.036089
    50  C   -0.073592
    51  C    0.035172
    52  C   -0.094337
    53  C   -0.050836
    54  C    0.143542
    55  C   -0.076840
    56  C    0.073516
    57  C   -0.076164
    58  C    0.006815
    59  C    0.058041
    60  C    0.093540
    61  C    0.000274
    62  C   -0.114724
    63  C   -0.048111
    64  C    0.002874
    65  H    0.007802
    66  H   -0.003313
    67  H   -0.049404
    68  H    0.049217
    69  H    0.031658
    70  H    0.046304
    71  H    0.016128
    72  H    0.042979
    73  H   -0.041965
    74  H    0.023961
    75  H    0.027604
    76  H    0.018766
    77  H    0.005225
    78  H    0.019185
    79  H   -0.003061
    80  H   -0.018504
    81  H    0.042698
    82  H    0.022879
    83  H    0.039634
    84  H    0.022744
    85  H   -0.042458
    86  H   -0.001442
    87  H   -0.027377
    88  H    0.005690
    89  H    0.030855
    90  H   -0.013542
    91  H    0.051879
    92  H    0.039960
    93  H    0.048368
    94  H    0.054658
    95  H    0.043286
    96  H    0.029705
    97  H    0.018775
    98  H    0.043702
    99  H    0.051153
   100  H    0.014066
   101  H    0.021900
   102  H    0.015679
   103  H   -0.038047
   104  H    0.008987
   105  H    0.001720
   106  H    0.049792
   107  H    0.031779
   108  H   -0.010772
   109  H   -0.032322
   110  H   -0.008138
   111  H    0.042422
   112  H    0.060545
   113  H    0.030220
   114  H   -0.019925
   115  H   -0.033977
   116  H    0.028589
   117  H   -0.012712
   118  H   -0.034011
   119  H   -0.037746
   120  H    0.004520
   121  H    0.011699
   122  H    0.011285
   123  H    0.017561
   124  H   -0.035561
   125  H   -0.006974
   126  H    0.008191
   127  H   -0.024309
   128  H    0.006927
   129  H   -0.017063
   130  H   -0.005529
   131  H   -0.000693
   132  H    0.038043
   133  H    0.009213
   134  H    0.039079
   135  H    0.023890
   136  H    0.024909
   137  H    0.126310
   138  H    0.191415
 Sum of Mulliken charges =  -0.00000
 Mulliken charges with hydrogens summed into heavy atoms:
               1
     1  C    0.011704
     2  C   -0.076696
     3  C   -0.117708
     4  C   -0.144311
     5  N   -0.230272
     6  C   -0.067450
     7  C    0.015499
     8  C    0.003664
     9  C    0.018472
    10  C    0.066015
    11  C    0.076304
    12  C    0.085195
    13  C    0.178753
    14  O   -0.274215
    15  O   -0.338157
    16  N    0.046001
    17  C    0.068776
    18  C   -0.063642
    19  C    0.048327
    20  C    0.069758
    21  C    0.133314
    22  C   -0.093601
    23  C   -0.005437
    24  N   -0.152818
    25  C    0.106484
    26  C   -0.110514
    27  C   -0.155664
    28  C   -0.007761
    29  C    0.169605
    30  C    0.141918
    31  C   -0.000090
    32  N    0.125230
    33  C    0.095180
    34  C   -0.098637
    35  C   -0.020716
    36  C    0.061945
    37  C    0.195637
    38  C    0.103088
    39  O   -0.181073
    40  C    0.021380
    41  C    0.177593
    42  O   -0.195241
    43  O   -0.292271
    44  C    0.293021
    45  C    0.339359
    46  C   -0.027249
    47  C   -0.186349
    48  C    0.102752
    49  C    0.046797
    50  C    0.007979
    51  C   -0.007922
    52  C   -0.102475
    53  C    0.082350
    54  C    0.089641
    55  C   -0.060963
    56  C    0.001759
    57  C   -0.071643
    58  C    0.047360
    59  C    0.015505
    60  C    0.077421
    61  C   -0.009862
    62  C   -0.120253
    63  C   -0.001547
    64  C    0.090753
 Electronic spatial extent (au):  <R**2>=         177476.7910
 Charge=             -0.0000 electrons
 Dipole moment (field-independent basis, Debye):
    X=              1.7863    Y=              2.6393    Z=              0.6337  Tot=              3.2494
 Quadrupole moment (field-independent basis, Debye-Ang):
   XX=           -356.8973   YY=           -378.5849   ZZ=           -398.8692
   XY=            -17.8669   XZ=             12.3818   YZ=             -2.5072
 Traceless Quadrupole moment (field-independent basis, Debye-Ang):
   XX=             21.2198   YY=             -0.4677   ZZ=            -20.7521
   XY=            -17.8669   XZ=             12.3818   YZ=             -2.5072
 Octapole moment (field-independent basis, Debye-Ang**2):
  XXX=          -1031.3285  YYY=            116.6205  ZZZ=             12.2096  XYY=            -84.3554
  XXY=            -52.5008  XXZ=           -206.4263  XZZ=            -30.0898  YZZ=            -47.1566
  YYZ=             57.2186  XYZ=            -25.5576
 Hexadecapole moment (field-independent basis, Debye-Ang**3):
 XXXX=        -228490.1437 YYYY=         -17850.7086 ZZZZ=          -4564.6720 XXXY=          -3080.3927
 XXXZ=           1937.9817 YYYX=          -1092.6896 YYYZ=           -196.2879 ZZZX=             16.5719
 ZZZY=           -163.5314 XXYY=         -39803.1460 XXZZ=         -39740.8919 YYZZ=          -3666.9588
 XXYZ=             38.3510 YYXZ=             39.6580 ZZXY=             86.3285
 N-N= 8.301966117598D+03 E-N=-2.293900952201D+04  KE= 2.701384113923D+03
 1\1\GINC-RYZEN-SSD1\SP\RB3LYP TD-FC\SVP\C55H74N4O5\PADAWAN\11-Aug-2019
 \0\\# td=(NStates=1) B3LYP/SVP\\TD\\0,1\C,0,-5.0607889294,-2.025872393
 2,0.4227308982\C,0,-4.7103071889,2.6905892879,1.3588425604\C,0,-9.2487
 54119,3.3455507514,-0.230947711\C,0,-9.7154433954,-1.3311847131,-0.944
 8906345\N,0,-5.2022469727,0.4004465058,0.7392313811\C,0,-4.5496730649,
 -0.8137003536,0.8357296586\C,0,-3.0791696707,-0.6776682503,1.391312380
 6\C,0,-3.0827524276,0.7470398216,1.9662511305\C,0,-4.4460095591,1.3492
 419696,1.3906109725\C,0,-3.0646529632,0.6470730083,3.4216320212\C,0,-2
 .0287782206,-0.9059356077,0.1953261403\C,0,-0.5424326314,-0.9019190467
 ,0.6717349386\C,0,0.3535398599,-1.1238593032,-0.5046763248\O,0,0.05862
 55985,-1.4933690268,-1.6509575504\O,0,1.6121962948,-0.8940158201,-0.08
 96839604\N,0,-6.9234955306,2.7333280747,0.5289534893\C,0,-5.8110052815
 ,3.4217489074,1.0119653219\C,0,-6.0849697695,4.8219102748,1.0905706088
 \C,0,-7.3080438689,5.0016614891,0.4904542755\C,0,-7.905746025,3.651153
 7143,0.1202233586\C,0,-5.170686225,5.8769514775,1.4814541493\C,0,-7.96
 70032885,6.2755972774,0.3616112154\C,0,-8.9337809009,6.748954186,-0.51
 16097773\N,0,-9.1506084601,0.9254610207,-0.6443414095\C,0,-9.848896667
 1,2.198923194,-0.6346022709\C,0,-11.232799518,2.0604196815,-1.16462053
 34\C,0,-11.3019156321,0.6579698384,-1.2997300346\C,0,-9.991885897,0.09
 62625769,-0.9111345939\C,0,-12.1914233395,3.1514677159,-1.34080851\C,0
 ,-12.5123913365,-0.1079798964,-1.675939829\C,0,-12.5113056002,-0.43400
 80472,-3.2218193663\N,0,-7.4398171074,-1.2320275173,-0.2810244475\C,0,
 -8.5406000455,-1.9792945437,-0.6403809665\C,0,-8.1770213093,-3.4686314
 646,-0.6345271912\C,0,-6.8654385721,-3.3736632506,-0.2758596913\C,0,-6
 .4804065803,-2.1181636155,0.0496171158\C,0,-9.1611601011,-4.5454079408
 ,-0.991161623\C,0,-5.7566517867,-4.3202272496,0.0732199916\O,0,-5.7929
 111472,-5.5503715459,0.2116280832\C,0,-4.5385894635,-3.3678138941,0.49
 99652461\C,0,-4.0516975846,-3.9261663118,1.8859204773\O,0,-4.113113923
 1,-3.3561665726,2.9173922032\O,0,-3.408783394,-5.0868289642,1.63616935
 99\C,0,-2.8672202523,-5.6110620115,2.8684833186\C,0,2.6845184952,-1.01
 79604866,-1.1656707724\C,0,3.8981439242,-0.8931439378,-0.5263392471\C,
 0,4.9140837086,-0.0628572381,-0.8253379384\C,0,4.8685373639,0.82709655
 14,-2.0845309921\C,0,6.252768989,-0.1295103227,-0.1614076039\C,0,7.487
 1829455,-0.5291222453,-0.9770250559\C,0,8.7473282098,-0.359071114,-0.1
 041352934\C,0,10.0591177665,-0.7112756102,-0.8569866786\C,0,10.1215959
 53,-2.0629414599,-1.5243465494\C,0,11.2834790225,-0.2812777984,-0.1408
 165497\C,0,12.6694655312,-0.575766055,-0.8405319304\C,0,13.7519115984,
 0.1143687338,-0.0412577632\C,0,15.1911509362,-0.0485578916,-0.60331416
 72\C,0,15.6285701846,-1.5199761595,-0.7174314786\C,0,16.1972623234,0.7
 506759788,0.4481480792\C,0,17.6408709258,0.7881545494,-0.1804525531\C,
 0,18.4578156326,1.818700489,0.5963483277\C,0,19.9722571216,1.744350060
 3,0.2721099714\C,0,20.2630572352,2.4651159428,-1.1770441134\C,0,20.860
 6065263,2.3816519013,1.3605624569\H,0,-3.9448226499,3.3896753518,2.063
 8486232\H,0,-9.7884564306,4.2926086974,-0.0527839523\H,0,-10.642942634
 2,-1.8715731673,-1.110420936\H,0,-3.1501610676,-1.5985502191,2.1089526
 9\H,0,-2.2446850361,1.5484847996,1.6097804764\H,0,-2.1279603119,0.2583
 33255,3.9833650618\H,0,-3.4214454448,1.7481494585,3.7805371549\H,0,-4.
 0466252419,-0.1110003977,3.7499238381\H,0,-2.1754369976,-1.7447183495,
 -0.3107279291\H,0,-1.9380397426,-0.1227848042,-0.6827069314\H,0,-0.062
 4805715,-0.03185906,1.1401900495\H,0,-0.4651095239,-1.6684660266,1.422
 4293619\H,0,-4.2287075282,5.8356917068,0.867969935\H,0,-5.3684880676,6
 .9336384825,1.1907246695\H,0,-4.678439621,5.8031101604,2.3970307637\H,
 0,-7.6777178707,7.0135383875,1.0425155579\H,0,-9.4379791907,5.86794478
 ,-1.2329826943\H,0,-9.2638206613,7.7440296883,-0.6755072548\H,0,-12.41
 602615,3.6223727358,-0.3549478934\H,0,-11.878896812,3.9370586706,-2.12
 05192694\H,0,-13.0396913691,2.8943950577,-1.8053535823\H,0,-12.5286276
 887,-1.0559857249,-1.1889634701\H,0,-13.2356743097,0.6360632677,-1.622
 2258999\H,0,-12.5643409491,0.524689484,-3.7443632797\H,0,-11.818858093
 5,-1.2724066371,-3.7053113278\H,0,-13.4458026535,-0.8795253106,-3.4656
 104197\H,0,-10.240941641,-4.3661187038,-0.5383096349\H,0,-9.4115230625
 ,-4.4384608596,-2.1297034909\H,0,-8.729034609,-5.5600367836,-0.9044751
 01\H,0,-3.6654322705,-3.5140587572,-0.1365267125\H,0,-2.1562224902,-6.
 3353501387,2.4512808321\H,0,-2.4252891006,-4.90140988,3.5767221225\H,0
 ,-3.6999310485,-5.9701340134,3.4443959598\H,0,2.5951713089,-2.06170291
 14,-1.6374208754\H,0,2.2857404169,-0.3250039384,-1.9779954188\H,0,4.31
 86933052,-1.5353016007,0.3827673211\H,0,5.101565421,1.9079884966,-1.97
 51801054\H,0,5.4613631001,0.4335393091,-2.8872717943\H,0,3.9541919044,
 0.7489376997,-2.5927146284\H,0,6.3096710642,0.8715703009,0.3001848181\
 H,0,6.1598438102,-0.7968352688,0.8108007742\H,0,7.4762082739,-1.748258
 8713,-1.3092457707\H,0,7.3999997511,0.2768131859,-1.939082766\H,0,8.88
 20326449,0.6135992114,0.4190831668\H,0,8.3358063105,-0.8668337704,0.76
 71495679\H,0,9.7633632016,0.2364838467,-1.6572964525\H,0,9.1030674943,
 -2.0113097938,-2.1172309486\H,0,11.0839252535,-2.3000116776,-2.2999457
 402\H,0,10.1232607679,-2.8020520827,-0.5896024817\H,0,11.2830624963,0.
 7608337072,-0.090775615\H,0,11.3772952989,-0.8893974252,0.6604165634\H
 ,0,12.6904255506,-1.7432182008,-1.1341468575\H,0,12.8159319098,0.04566
 72938,-1.8060739259\H,0,13.3316542009,1.0712775236,0.0767228464\H,0,13
 .6614009756,-0.2487178258,0.9721467909\H,0,15.146736171,0.6294461444,-
 1.553481998\H,0,14.9796033553,-2.136311915,-1.4190459251\H,0,16.577454
 4817,-1.8730631458,-1.1110224948\H,0,15.5688896066,-1.9869683154,0.359
 7086722\H,0,15.772944486,1.6781309018,0.4733911827\H,0,16.1404603687,0
 .247778587,1.3942314199\H,0,17.9953956169,-0.2334218208,-0.3219168764\
 H,0,17.4931620416,1.2824412072,-1.0907463792\H,0,18.1004817541,2.91936
 06638,0.53334983\H,0,18.5044134555,1.5992687637,1.6965309087\H,0,20.17
 36055904,0.725183252,-0.0311101739\H,0,19.8793906363,3.5133434664,-1.2
 404490191\H,0,21.4171902362,2.3514107449,-1.3554008635\H,0,19.46028426
 42,2.039724009,-1.8944446257\H,0,20.7742024333,1.5458341337,2.27012093
 99\H,0,21.9503488766,2.3456026769,0.797411641\H,0,20.5643941021,3.3972
 593964,1.5769302974\H,0,-6.8327570582,1.7647907511,0.283711628\H,0,-7.
 3668580524,-0.1515000256,-0.2756508853\\Version=ES64L-G16RevA.03\State
 =1-A\HF=-2733.0323889\RMSD=4.429e-09\PG=C01 [X(C55H74N4O5)]\\@


 Age does not diminish the extreme disappointment of
 having a scoop of ice cream fall from the cone.
 -- Jim Fiebig
 Job cpu time:       1 days 10 hours 25 minutes  1.2 seconds.
 Elapsed time:       0 days  8 hours 39 minutes 35.3 seconds.
 File lengths (MBytes):  RWF=   6378 Int=      0 D2E=      0 Chk=    163 Scr=      1
 Normal termination of Gaussian 16 at Sun Aug 11 18:59:55 2019.
