 Entering Gaussian System, Link 0=g16
 Input=Geometria-279-.com
 Output=Geometria-279-.log
 Initial command:
 /usr/local/g16/l1.exe "/home/padawan/israel-mol/pheophytin/spectra/emi/Gau-124759.inp" -scrdir="/home/padawan/israel-mol/pheophytin/spectra/emi/"
 Entering Link 1 = /usr/local/g16/l1.exe PID=    124761.
  
 Copyright (c) 1988,1990,1992,1993,1995,1998,2003,2009,2016,
            Gaussian, Inc.  All Rights Reserved.
  
 This is part of the Gaussian(R) 16 program.  It is based on
 the Gaussian(R) 09 system (copyright 2009, Gaussian, Inc.),
 the Gaussian(R) 03 system (copyright 2003, Gaussian, Inc.),
 the Gaussian(R) 98 system (copyright 1998, Gaussian, Inc.),
 the Gaussian(R) 94 system (copyright 1995, Gaussian, Inc.),
 the Gaussian 92(TM) system (copyright 1992, Gaussian, Inc.),
 the Gaussian 90(TM) system (copyright 1990, Gaussian, Inc.),
 the Gaussian 88(TM) system (copyright 1988, Gaussian, Inc.),
 the Gaussian 86(TM) system (copyright 1986, Carnegie Mellon
 University), and the Gaussian 82(TM) system (copyright 1983,
 Carnegie Mellon University). Gaussian is a federally registered
 trademark of Gaussian, Inc.
  
 This software contains proprietary and confidential information,
 including trade secrets, belonging to Gaussian, Inc.
  
 This software is provided under written license and may be
 used, copied, transmitted, or stored only in accord with that
 written license.
  
 The following legend is applicable only to US Government
 contracts under FAR:
  
                    RESTRICTED RIGHTS LEGEND
  
 Use, reproduction and disclosure by the US Government is
 subject to restrictions as set forth in subparagraphs (a)
 and (c) of the Commercial Computer Software - Restricted
 Rights clause in FAR 52.227-19.
  
 Gaussian, Inc.
 340 Quinnipiac St., Bldg. 40, Wallingford CT 06492
  
  
 ---------------------------------------------------------------
 Warning -- This program may not be used in any manner that
 competes with the business of Gaussian, Inc. or will provide
 assistance to any competitor of Gaussian, Inc.  The licensee
 of this program is prohibited from giving any competitor of
 Gaussian, Inc. access to this program.  By using this program,
 the user acknowledges that Gaussian, Inc. is engaged in the
 business of creating and licensing software in the field of
 computational chemistry and represents and warrants to the
 licensee that it is not a competitor of Gaussian, Inc. and that
 it will not use this program in any manner prohibited above.
 ---------------------------------------------------------------
  

 Cite this work as:
 Gaussian 16, Revision A.03,
 M. J. Frisch, G. W. Trucks, H. B. Schlegel, G. E. Scuseria, 
 M. A. Robb, J. R. Cheeseman, G. Scalmani, V. Barone, 
 G. A. Petersson, H. Nakatsuji, X. Li, M. Caricato, A. V. Marenich, 
 J. Bloino, B. G. Janesko, R. Gomperts, B. Mennucci, H. P. Hratchian, 
 J. V. Ortiz, A. F. Izmaylov, J. L. Sonnenberg, D. Williams-Young, 
 F. Ding, F. Lipparini, F. Egidi, J. Goings, B. Peng, A. Petrone, 
 T. Henderson, D. Ranasinghe, V. G. Zakrzewski, J. Gao, N. Rega, 
 G. Zheng, W. Liang, M. Hada, M. Ehara, K. Toyota, R. Fukuda, 
 J. Hasegawa, M. Ishida, T. Nakajima, Y. Honda, O. Kitao, H. Nakai, 
 T. Vreven, K. Throssell, J. A. Montgomery, Jr., J. E. Peralta, 
 F. Ogliaro, M. J. Bearpark, J. J. Heyd, E. N. Brothers, K. N. Kudin, 
 V. N. Staroverov, T. A. Keith, R. Kobayashi, J. Normand, 
 K. Raghavachari, A. P. Rendell, J. C. Burant, S. S. Iyengar, 
 J. Tomasi, M. Cossi, J. M. Millam, M. Klene, C. Adamo, R. Cammi, 
 J. W. Ochterski, R. L. Martin, K. Morokuma, O. Farkas, 
 J. B. Foresman, and D. J. Fox, Gaussian, Inc., Wallingford CT, 2016.
 
 ******************************************
 Gaussian 16:  ES64L-G16RevA.03 25-Dec-2016
                21-Aug-2019 
 ******************************************
 %nproc=4
 Will use up to    4 processors via shared memory.
 %Mem=2GB
 --------------------------
 # td=(NStates=1) B3LYP/SVP
 --------------------------
 1/38=1,172=1/1;
 2/12=2,17=6,18=5,40=1/2;
 3/5=18,7=101,11=9,25=1,30=1,74=-5/1,2,3,8;
 4//1;
 5/5=2,38=5/2;
 8/6=1,10=1,108=1/1;
 9/41=1,42=1,70=2/14;
 6/7=2,8=2,9=2,10=2/1;
 99/5=1,9=1/99;
 --
 TD
 --
 Symbolic Z-matrix:
 Charge =  0 Multiplicity = 1
 6                    -5.23455  -1.95143   0.55282 
 6                    -4.68805   2.76953   1.3986 
 6                    -9.16918   3.42258  -0.20468 
 6                    -9.76528  -1.36728  -0.97304 
 7                    -5.17734   0.35314   0.84609 
 6                    -4.47067  -0.77174   0.75615 
 6                    -3.0738   -0.63134   1.31137 
 6                    -3.04525   0.76818   1.80693 
 6                    -4.38506   1.37359   1.40611 
 6                    -2.9011    0.77056   3.38152 
 6                    -2.07273  -0.85471   0.06063 
 6                    -0.64968  -0.89751   0.55983 
 6                     0.38056  -1.01327  -0.63961 
 8                    -0.0641   -1.22188  -1.80591 
 8                     1.64052  -0.99048  -0.20812 
 7                    -7.03377   2.73692   0.55551 
 6                    -5.90714   3.36677   1.06093 
 6                    -6.15068   4.79076   1.02924 
 6                    -7.43251   5.05617   0.44429 
 6                    -7.90173   3.72402   0.24568 
 6                    -5.22216   5.79785   1.53299 
 6                    -7.95341   6.37523   0.36262 
 6                    -8.97003   6.61923  -0.56301 
 7                    -9.12696   0.9707   -0.42557 
 6                    -9.78303   2.21393  -0.47776 
 6                    -11.25955   1.93836  -0.91877 
 6                    -11.34231   0.60837  -1.28603 
 6                    -10.00724   0.02737  -0.90532 
 6                    -12.12822   3.16125  -1.01289 
 6                    -12.49278  -0.15346  -1.84898 
 6                    -12.49463  -0.39806  -3.40706 
 7                    -7.53263  -1.32703  -0.10664 
 6                    -8.57445  -1.98046  -0.61132 
 6                    -8.21958  -3.34955  -0.69716 
 6                    -6.98913  -3.44354  -0.09144 
 6                    -6.49232  -2.08213   0.16926 
 6                    -9.11199  -4.51412  -1.16742 
 6                    -5.82259  -4.36896   0.10237 
 8                    -5.83382  -5.56021   0.11697 
 6                    -4.59051  -3.40373   0.54164 
 6                    -3.9867   -3.90977   1.71872 
 8                    -4.20898  -3.31671   2.82709 
 8                    -3.17138  -4.99426   1.59495 
 6                    -2.6595   -5.48838   2.86673 
 6                     2.71475  -1.27075  -1.20921 
 6                     3.96583  -0.86636  -0.43612 
 6                     4.90563  -0.1989   -1.06712 
 6                     4.86533   0.42047  -2.53289 
 6                     6.25036   0.11004  -0.35771 
 6                     7.52421  -0.53583  -0.99802 
 6                     8.77407  -0.25212  -0.23128 
 6                     10.06283  -0.7115   -0.88186 
 6                     9.88748  -2.18616  -1.25363 
 6                     11.23818  -0.43679  -0.00379 
 6                     12.64407  -0.54792  -0.66556 
 6                     13.804   -0.00033   0.26939 
 6                     15.25441  -0.14065  -0.40811 
 6                     15.75931  -1.61256  -0.62505 
 6                     16.21349   0.62036   0.47881 
 6                     17.59257   0.84088  -0.17877 
 6                     18.49915   1.7736    0.60907 
 6                     20.08308   1.82122   0.18853 
 6                     20.19445   2.52269  -1.14456 
 6                     20.84039   2.59333   1.26742 
 1                    -3.87088   3.32031   1.91251 
 1                    -9.81143   4.16684  -0.01176 
 1                    -10.60193  -1.92319  -1.55074 
 1                    -2.82977  -1.26803   2.30429 
 1                    -2.3254    1.58643   1.40211 
 1                    -1.90615   0.36339   3.55591 
 1                    -3.01022   1.69424   4.00233 
 1                    -3.57529   0.07439   3.92137 
 1                    -2.39796  -1.78205  -0.35765 
 1                    -2.3077   -0.12591  -0.53835 
 1                    -0.14812  -0.10653   1.41529 
 1                    -0.25914  -1.71458   1.31553 
 1                    -4.43176   6.23503   0.63848 
 1                    -5.87845   6.80092   1.92577 
 1                    -4.25614   5.46714   2.41162 
 1                    -7.62921   7.24173   0.86774 
 1                    -9.26314   5.79773  -1.23113 
 1                    -9.38503   7.72248  -0.63226 
 1                    -12.35363   3.4872    0.06485 
 1                    -11.6133   3.82512  -1.67856 
 1                    -13.24404   2.74731  -1.39042 
 1                    -12.65537  -1.15315  -1.41611 
 1                    -13.36006   0.47893  -1.48396 
 1                    -12.52593   0.71838  -3.94866 
 1                    -11.70464  -0.90062  -3.88485 
 1                    -13.17907  -1.01637  -3.72319 
 1                    -10.11406  -4.61062  -0.50983 
 1                    -9.20736  -4.42655  -2.3814 
 1                    -8.60804  -5.54251  -0.95059 
 1                    -3.84688  -3.44131  -0.27098 
 1                    -2.29429  -6.69715   2.72542 
 1                    -1.92248  -4.67778   3.35899 
 1                    -3.52186  -5.482     3.62725 
 1                     2.78864  -2.39245  -1.48574 
 1                     2.5844   -0.7014   -2.011 
 1                     3.98613  -1.42707   0.50111 
 1                     5.31591   1.43781  -2.88951 
 1                     5.51261  -0.09402  -3.34687 
 1                     3.81177   0.5045   -2.91275 
 1                     6.38398   1.07668  -0.40943 
 1                     6.15006  -0.1501    0.55373 
 1                     7.3735   -1.55095  -1.21912 
 1                     7.82549  -0.02048  -2.0008 
 1                     8.82376   0.8485   -0.00286 
 1                     8.48602  -0.61037   0.82033 
 1                     10.09615  -0.34442  -2.01982 
 1                     9.1226   -2.43717  -1.98929 
 1                     10.91627  -2.39216  -1.71518 
 1                     9.7202   -2.92996  -0.53837 
 1                     11.07414   0.55102   0.18192 
 1                     11.24973  -0.86053   1.00466 
 1                     12.78635  -1.62258  -0.77829 
 1                     12.68542  -0.03965  -1.5616 
 1                     13.49237   1.11242   0.42925 
 1                     13.71801  -0.44695   1.29928 
 1                     15.19869   0.3576   -1.32434 
 1                     15.18724  -2.12954  -1.46927 
 1                     16.90442  -1.53809  -0.85341 
 1                     15.55491  -2.18159   0.51865 
 1                     15.53875   1.6549    0.66074 
 1                     16.3421   0.36761   1.37144 
 1                     18.05411  -0.15773  -0.32821 
 1                     17.59456   1.27018  -1.31541 
 1                     18.15636   2.57012   0.72145 
 1                     18.69327   1.12506   1.59095 
 1                     20.40104   0.77193   0.22225 
 1                     19.76206   3.51116  -1.0273 
 1                     21.22248   2.60413  -1.41608 
 1                     19.61692   1.88983  -1.92594 
 1                     20.79261   2.28538   2.16407 
 1                     21.94224   2.739     1.08631 
 1                     20.47259   3.5932    1.61301 
 1                    -6.83539   1.83198   0.32644 
 1                    -7.47976  -0.28362  -0.10697 
 
 Stoichiometry    C55H74N4O5
 Framework group  C1[X(C55H74N4O5)]
 Deg. of freedom   408
 Full point group                 C1      NOp   1
 Largest Abelian subgroup         C1      NOp   1
 Largest concise Abelian subgroup C1      NOp   1
                         Standard orientation:                         
 ---------------------------------------------------------------------
 Center     Atomic      Atomic             Coordinates (Angstroms)
 Number     Number       Type             X           Y           Z
 ---------------------------------------------------------------------
      1          6           0       -5.241674   -1.938096    0.548512
      2          6           0       -4.682223    2.779672    1.403583
      3          6           0       -9.161462    3.448208   -0.198566
      4          6           0       -9.770716   -1.338470   -0.976370
      5          7           0       -5.178140    0.365733    0.846312
      6          6           0       -4.474556   -0.760907    0.754186
      7          6           0       -3.077332   -0.625452    1.309735
      8          6           0       -3.044950    0.773013    1.808037
      9          6           0       -4.383076    1.382898    1.408366
     10          6           0       -2.900858    0.771894    3.382637
     11          6           0       -2.076832   -0.849116    0.058593
     12          6           0       -0.653927   -0.896812    0.557761
     13          6           0        0.376047   -1.013050   -0.641870
     14          8           0       -0.069136   -1.218146   -1.808597
     15          8           0        1.636043   -0.994574   -0.210286
     16          7           0       -7.027980    2.755178    0.560344
     17          6           0       -5.899650    3.380935    1.067047
     18          6           0       -6.139259    4.805643    1.038151
     19          6           0       -7.420329    5.075730    0.453673
     20          6           0       -7.893206    3.745274    0.252423
     21          6           0       -5.207996    5.809187    1.543909
     22          6           0       -7.937598    6.396377    0.374578
     23          6           0       -8.953506    6.644998   -0.550614
     24          7           0       -9.125983    0.996657   -0.424278
     25          6           0       -9.778630    2.241797   -0.474045
     26          6           0      -11.255886    1.971154   -0.915649
     27          6           0      -11.342290    0.642128   -1.285528
     28          6           0      -10.008838    0.056699   -0.905918
     29          6           0      -12.121177    3.196614   -1.007397
     30          6           0      -12.494829   -0.115433   -1.850015
     31          6           0      -12.497291   -0.356964   -3.408574
     32          7           0       -7.537998   -1.306069   -0.109804
     33          6           0       -8.581599   -1.955643   -0.615807
     34          6           0       -8.230488   -3.325528   -0.704330
     35          6           0       -7.000333   -3.424096   -0.098749
     36          6           0       -6.499784   -2.064574    0.164645
     37          6           0       -9.126081   -4.486715   -1.176907
     38          6           0       -5.836350   -4.353105    0.093288
     39          8           0       -5.850857   -5.544347    0.105542
     40          6           0       -4.601642   -3.392132    0.534496
     41          6           0       -3.999274   -3.902152    1.710606
     42          8           0       -4.219969   -3.310660    2.820131
     43          8           0       -3.186936   -4.988632    1.584726
     44          6           0       -2.676471   -5.486658    2.855558
     45          6           0        2.709542   -1.275833   -1.211885
     46          6           0        3.961697   -0.876414   -0.437961
     47          6           0        4.903360   -0.210305   -1.067615
     48          6           0        4.864821    0.412050   -2.532160
     49          6           0        6.248901    0.093541   -0.357545
     50          6           0        7.520993   -0.554580   -0.999077
     51          6           0        8.771601   -0.275817   -0.231736
     52          6           0       10.059116   -0.737459   -0.883172
     53          6           0        9.879727   -2.210905   -1.257846
     54          6           0       11.235188   -0.467720   -0.004524
     55          6           0       12.640793   -0.581419   -0.666461
     56          6           0       13.802180   -0.038863    0.269613
     57          6           0       15.252228   -0.181838   -0.408116
     58          6           0       15.753089   -1.654701   -0.627928
     59          6           0       16.213368    0.574784    0.480339
     60          6           0       17.593070    0.792795   -0.176759
     61          6           0       18.502185    1.721462    0.612948
     62          6           0       20.086256    1.765549    0.192562
     63          6           0       20.199615    2.469333   -1.139145
     64          6           0       20.845650    2.533454    1.272997
     65          1           0       -3.863552    3.327190    1.918612
     66          1           0       -9.801672    4.193850   -0.004211
     67          1           0      -10.608870   -1.890938   -1.555193
     68          1           0       -2.835098   -1.264756    2.301408
     69          1           0       -2.322838    1.590068    1.404857
     70          1           0       -1.907042    0.361653    3.556267
     71          1           0       -3.007468    1.694658    4.005259
     72          1           0       -3.576986    0.076526    3.921096
     73          1           0       -2.404593   -1.774734   -0.361526
     74          1           0       -2.309764   -0.118490   -0.538967
     75          1           0       -0.150223   -0.108897    1.414787
     76          1           0       -0.265665   -1.716440    1.311863
     77          1           0       -4.416355    6.245945    0.650287
     78          1           0       -5.861536    6.813278    1.938635
     79          1           0       -4.242923    5.474085    2.421925
     80          1           0       -7.611036    7.260991    0.881409
     81          1           0       -9.248846    5.825620   -1.220356
     82          1           0       -9.365462    7.749517   -0.617708
     83          1           0      -12.345737    3.521065    0.070974
     84          1           0      -11.604407    3.860370   -1.671741
     85          1           0      -13.238122    2.786492   -1.385787
     86          1           0      -12.660189   -1.115511   -1.419116
     87          1           0      -13.360377    0.518626   -1.483790
     88          1           0      -12.525488    0.760624   -3.947985
     89          1           0      -11.708660   -0.860752   -3.887323
     90          1           0      -13.183410   -0.972759   -3.725942
     91          1           0      -10.128444   -4.581747   -0.519542
     92          1           0       -9.221166   -4.396492   -2.390715
     93          1           0       -8.624980   -5.516903   -0.962081
     94          1           0       -3.858080   -3.430166   -0.278168
     95          1           0       -2.314581   -6.696146    2.711881
     96          1           0       -1.937242   -4.679058    3.349435
     97          1           0       -3.538846   -5.479395    3.616059
     98          1           0        2.780354   -2.397186   -1.490617
     99          1           0        2.580792   -0.704557   -2.012562
    100          1           0        3.980413   -1.439019    0.498165
    101          1           0        5.318214    1.428851   -2.886769
    102          1           0        5.510717   -0.102618   -3.347128
    103          1           0        3.811513    0.499734   -2.911893
    104          1           0        6.385184    1.059907   -0.407359
    105          1           0        6.147851   -0.168117    0.553370
    106          1           0        7.367500   -1.568841   -1.222177
    107          1           0        7.823738   -0.038085   -2.000833
    108          1           0        8.824308    0.824214   -0.001152
    109          1           0        8.482523   -0.635337    0.819160
    110          1           0       10.093493   -0.368245   -2.020410
    111          1           0        9.114187   -2.458361   -1.994025
    112          1           0       10.907962   -2.418826   -1.719760
    113          1           0        9.710368   -2.955648   -0.544054
    114          1           0       11.073857    0.520177    0.183126
    115          1           0       11.245527   -0.893473    1.003095
    116          1           0       12.780111   -1.656236   -0.781295
    117          1           0       12.683575   -0.071503   -1.561494
    118          1           0       13.493612    1.074429    0.431644
    119          1           0       13.714918   -0.487263    1.298617
    120          1           0       15.197922    0.318360   -1.323361
    121          1           0       15.179634   -2.168450   -1.473182
    122          1           0       16.898403   -1.582940   -0.856094
    123          1           0       15.547070   -2.225416    0.514651
    124          1           0       15.541469    1.610814    0.664276
    125          1           0       16.341241    0.319924    1.372473
    126          1           0       18.051871   -0.206790   -0.328140
    127          1           0       17.596296    1.224322   -1.312550
    128          1           0       18.161582    2.518700    0.726880
    129          1           0       18.694480    1.070466    1.593559
    130          1           0       20.401325    0.715324    0.224225
    131          1           0       19.769942    3.458759   -1.019955
    132          1           0       21.227877    2.548470   -1.410463
    133          1           0       19.620377    1.839600   -1.921785
    134          1           0       20.796984    2.223870    2.169035
    135          1           0       21.947898    2.676445    1.092211
    136          1           0       20.480590    3.533648    1.620539
    137          1           0       -6.832083    1.850147    0.329503
    138          1           0       -7.482259   -0.262816   -0.108088
 ---------------------------------------------------------------------
 Rotational constants (GHZ):           0.0618689           0.0061908           0.0058141
 Standard basis: SVP (5D, 7F)
 There are  1330 symmetry adapted cartesian basis functions of A   symmetry.
 There are  1266 symmetry adapted basis functions of A   symmetry.
  1266 basis functions,  2118 primitive gaussians,  1330 cartesian basis functions
   236 alpha electrons      236 beta electrons
       nuclear repulsion energy      8293.1151325569 Hartrees.
 NAtoms=  138 NActive=  138 NUniq=  138 SFac= 1.00D+00 NAtFMM=   60 NAOKFM=T Big=T
 Integral buffers will be    131072 words long.
 Regular integral format.
 Two-electron integral symmetry is turned on.
 One-electron integrals computed using PRISM.
 NBasis=  1266 RedAO= T EigKep=  2.84D-04  NBF=  1266
 NBsUse=  1266 1.00D-06 EigRej= -1.00D+00 NBFU=  1266
 ExpMin= 1.22D-01 ExpMax= 2.27D+03 ExpMxC= 3.41D+02 IAcc=3 IRadAn=         5 AccDes= 0.00D+00
 Harris functional with IExCor=  402 and IRadAn=       5 diagonalized for initial guess.
 HarFok:  IExCor=  402 AccDes= 0.00D+00 IRadAn=         5 IDoV= 1 UseB2=F ITyADJ=14
 ICtDFT=  3500011 ScaDFX=  1.000000  1.000000  1.000000  1.000000
 FoFCou: FMM=F IPFlag=           0 FMFlag=      100000 FMFlg1=        2001
         NFxFlg=           0 DoJE=T BraDBF=F KetDBF=T FulRan=T
         wScrn=  0.000000 ICntrl=       500 IOpCl=  0 I1Cent=   200000004 NGrid=           0
         NMat0=    1 NMatS0=      1 NMatT0=    0 NMatD0=    1 NMtDS0=    0 NMtDT0=    0
 Petite list used in FoFCou.
 Requested convergence on RMS density matrix=1.00D-08 within 128 cycles.
 Requested convergence on MAX density matrix=1.00D-06.
 Requested convergence on             energy=1.00D-06.
 No special actions if energy rises.
 Integral accuracy reduced to 1.0D-05 until final iterations.
 Initial convergence to 1.0D-05 achieved.  Increase integral accuracy.
 SCF Done:  E(RB3LYP) =  -2732.92238516     A.U. after   17 cycles
            NFock= 17  Conv=0.32D-08     -V/T= 2.0115
 DoSCS=F DFT=T ScalE2(SS,OS)=  1.000000  1.000000
 ExpMin= 1.22D-01 ExpMax= 2.27D+03 ExpMxC= 3.41D+02 IAcc=3 IRadAn=         5 AccDes= 0.00D+00
 HarFok:  IExCor=  205 AccDes= 0.00D+00 IRadAn=         5 IDoV=-2 UseB2=F ITyADJ=14
 ICtDFT= 12500011 ScaDFX=  1.000000  1.000000  1.000000  1.000000
 GSVD:  LWork=       -4608 too small for GESVD, short by       21440 words or       21440 for optimal perf.
 Range of M.O.s used for correlation:    65  1266
 NBasis=  1266 NAE=   236 NBE=   236 NFC=    64 NFV=     0
 NROrb=   1202 NOA=   172 NOB=   172 NVA=  1030 NVB=  1030

 **** Warning!!: The smallest alpha delta epsilon is  0.84320585D-01

 Orbital symmetries:
       Occupied  (A) (A) (A) (A) (A) (A) (A) (A) (A) (A) (A) (A)
                 (A) (A) (A) (A) (A) (A) (A) (A) (A) (A) (A) (A)
                 (A) (A) (A) (A) (A) (A) (A) (A) (A) (A) (A) (A)
                 (A) (A) (A) (A) (A) (A) (A) (A) (A) (A) (A) (A)
                 (A) (A) (A) (A) (A) (A) (A) (A) (A) (A) (A) (A)
                 (A) (A) (A) (A) (A) (A) (A) (A) (A) (A) (A) (A)
                 (A) (A) (A) (A) (A) (A) (A) (A) (A) (A) (A) (A)
                 (A) (A) (A) (A) (A) (A) (A) (A) (A) (A) (A) (A)
                 (A) (A) (A) (A) (A) (A) (A) (A) (A) (A) (A) (A)
                 (A) (A) (A) (A) (A) (A) (A) (A) (A) (A) (A) (A)
                 (A) (A) (A) (A) (A) (A) (A) (A) (A) (A) (A) (A)
                 (A) (A) (A) (A) (A) (A) (A) (A) (A) (A) (A) (A)
                 (A) (A) (A) (A) (A) (A) (A) (A) (A) (A) (A) (A)
                 (A) (A) (A) (A) (A) (A) (A) (A) (A) (A) (A) (A)
                 (A) (A) (A) (A) (A) (A) (A) (A) (A) (A) (A) (A)
                 (A) (A) (A) (A) (A) (A) (A) (A) (A) (A) (A) (A)
                 (A) (A) (A) (A) (A) (A) (A) (A) (A) (A) (A) (A)
                 (A) (A) (A) (A) (A) (A) (A) (A) (A) (A) (A) (A)
                 (A) (A) (A) (A) (A) (A) (A) (A) (A) (A) (A) (A)
                 (A) (A) (A) (A) (A) (A) (A) (A)
       Virtual   (A) (A) (A) (A) (A) (A) (A) (A) (A) (A) (A) (A)
                 (A) (A) (A) (A) (A) (A) (A) (A) (A) (A) (A) (A)
                 (A) (A) (A) (A) (A) (A) (A) (A) (A) (A) (A) (A)
                 (A) (A) (A) (A) (A) (A) (A) (A) (A) (A) (A) (A)
                 (A) (A) (A) (A) (A) (A) (A) (A) (A) (A) (A) (A)
                 (A) (A) (A) (A) (A) (A) (A) (A) (A) (A) (A) (A)
                 (A) (A) (A) (A) (A) (A) (A) (A) (A) (A) (A) (A)
                 (A) (A) (A) (A) (A) (A) (A) (A) (A) (A) (A) (A)
                 (A) (A) (A) (A) (A) (A) (A) (A) (A) (A) (A) (A)
                 (A) (A) (A) (A) (A) (A) (A) (A) (A) (A) (A) (A)
                 (A) (A) (A) (A) (A) (A) (A) (A) (A) (A) (A) (A)
                 (A) (A) (A) (A) (A) (A) (A) (A) (A) (A) (A) (A)
                 (A) (A) (A) (A) (A) (A) (A) (A) (A) (A) (A) (A)
                 (A) (A) (A) (A) (A) (A) (A) (A) (A) (A) (A) (A)
                 (A) (A) (A) (A) (A) (A) (A) (A) (A) (A) (A) (A)
                 (A) (A) (A) (A) (A) (A) (A) (A) (A) (A) (A) (A)
                 (A) (A) (A) (A) (A) (A) (A) (A) (A) (A) (A) (A)
                 (A) (A) (A) (A) (A) (A) (A) (A) (A) (A) (A) (A)
                 (A) (A) (A) (A) (A) (A) (A) (A) (A) (A) (A) (A)
                 (A) (A) (A) (A) (A) (A) (A) (A) (A) (A) (A) (A)
                 (A) (A) (A) (A) (A) (A) (A) (A) (A) (A) (A) (A)
                 (A) (A) (A) (A) (A) (A) (A) (A) (A) (A) (A) (A)
                 (A) (A) (A) (A) (A) (A) (A) (A) (A) (A) (A) (A)
                 (A) (A) (A) (A) (A) (A) (A) (A) (A) (A) (A) (A)
                 (A) (A) (A) (A) (A) (A) (A) (A) (A) (A) (A) (A)
                 (A) (A) (A) (A) (A) (A) (A) (A) (A) (A) (A) (A)
                 (A) (A) (A) (A) (A) (A) (A) (A) (A) (A) (A) (A)
                 (A) (A) (A) (A) (A) (A) (A) (A) (A) (A) (A) (A)
                 (A) (A) (A) (A) (A) (A) (A) (A) (A) (A) (A) (A)
                 (A) (A) (A) (A) (A) (A) (A) (A) (A) (A) (A) (A)
                 (A) (A) (A) (A) (A) (A) (A) (A) (A) (A) (A) (A)
                 (A) (A) (A) (A) (A) (A) (A) (A) (A) (A) (A) (A)
                 (A) (A) (A) (A) (A) (A) (A) (A) (A) (A) (A) (A)
                 (A) (A) (A) (A) (A) (A) (A) (A) (A) (A) (A) (A)
                 (A) (A) (A) (A) (A) (A) (A) (A) (A) (A) (A) (A)
                 (A) (A) (A) (A) (A) (A) (A) (A) (A) (A) (A) (A)
                 (A) (A) (A) (A) (A) (A) (A) (A) (A) (A) (A) (A)
                 (A) (A) (A) (A) (A) (A) (A) (A) (A) (A) (A) (A)
                 (A) (A) (A) (A) (A) (A) (A) (A) (A) (A) (A) (A)
                 (A) (A) (A) (A) (A) (A) (A) (A) (A) (A) (A) (A)
                 (A) (A) (A) (A) (A) (A) (A) (A) (A) (A) (A) (A)
                 (A) (A) (A) (A) (A) (A) (A) (A) (A) (A) (A) (A)
                 (A) (A) (A) (A) (A) (A) (A) (A) (A) (A) (A) (A)
                 (A) (A) (A) (A) (A) (A) (A) (A) (A) (A) (A) (A)
                 (A) (A) (A) (A) (A) (A) (A) (A) (A) (A) (A) (A)
                 (A) (A) (A) (A) (A) (A) (A) (A) (A) (A) (A) (A)
                 (A) (A) (A) (A) (A) (A) (A) (A) (A) (A) (A) (A)
                 (A) (A) (A) (A) (A) (A) (A) (A) (A) (A) (A) (A)
                 (A) (A) (A) (A) (A) (A) (A) (A) (A) (A) (A) (A)
                 (A) (A) (A) (A) (A) (A) (A) (A) (A) (A) (A) (A)
                 (A) (A) (A) (A) (A) (A) (A) (A) (A) (A) (A) (A)
                 (A) (A) (A) (A) (A) (A) (A) (A) (A) (A) (A) (A)
                 (A) (A) (A) (A) (A) (A) (A) (A) (A) (A) (A) (A)
                 (A) (A) (A) (A) (A) (A) (A) (A) (A) (A) (A) (A)
                 (A) (A) (A) (A) (A) (A) (A) (A) (A) (A) (A) (A)
                 (A) (A) (A) (A) (A) (A) (A) (A) (A) (A) (A) (A)
                 (A) (A) (A) (A) (A) (A) (A) (A) (A) (A) (A) (A)
                 (A) (A) (A) (A) (A) (A) (A) (A) (A) (A) (A) (A)
                 (A) (A) (A) (A) (A) (A) (A) (A) (A) (A) (A) (A)
                 (A) (A) (A) (A) (A) (A) (A) (A) (A) (A) (A) (A)
                 (A) (A) (A) (A) (A) (A) (A) (A) (A) (A) (A) (A)
                 (A) (A) (A) (A) (A) (A) (A) (A) (A) (A) (A) (A)
                 (A) (A) (A) (A) (A) (A) (A) (A) (A) (A) (A) (A)
                 (A) (A) (A) (A) (A) (A) (A) (A) (A) (A) (A) (A)
                 (A) (A) (A) (A) (A) (A) (A) (A) (A) (A) (A) (A)
                 (A) (A) (A) (A) (A) (A) (A) (A) (A) (A) (A) (A)
                 (A) (A) (A) (A) (A) (A) (A) (A) (A) (A) (A) (A)
                 (A) (A) (A) (A) (A) (A) (A) (A) (A) (A) (A) (A)
                 (A) (A) (A) (A) (A) (A) (A) (A) (A) (A) (A) (A)
                 (A) (A) (A) (A) (A) (A) (A) (A) (A) (A) (A) (A)
                 (A) (A) (A) (A) (A) (A) (A) (A) (A) (A) (A) (A)
                 (A) (A) (A) (A) (A) (A) (A) (A) (A) (A) (A) (A)
                 (A) (A) (A) (A) (A) (A) (A) (A) (A) (A) (A) (A)
                 (A) (A) (A) (A) (A) (A) (A) (A) (A) (A) (A) (A)
                 (A) (A) (A) (A) (A) (A) (A) (A) (A) (A) (A) (A)
                 (A) (A) (A) (A) (A) (A) (A) (A) (A) (A) (A) (A)
                 (A) (A) (A) (A) (A) (A) (A) (A) (A) (A) (A) (A)
                 (A) (A) (A) (A) (A) (A) (A) (A) (A) (A) (A) (A)
                 (A) (A) (A) (A) (A) (A) (A) (A) (A) (A) (A) (A)
                 (A) (A) (A) (A) (A) (A) (A) (A) (A) (A) (A) (A)
                 (A) (A) (A) (A) (A) (A) (A) (A) (A) (A) (A) (A)
                 (A) (A) (A) (A) (A) (A) (A) (A) (A) (A) (A) (A)
                 (A) (A) (A) (A) (A) (A) (A) (A) (A) (A) (A) (A)
                 (A) (A) (A) (A) (A) (A) (A) (A) (A) (A) (A) (A)
                 (A) (A) (A) (A) (A) (A) (A) (A) (A) (A) (A) (A)
                 (A) (A) (A) (A) (A) (A) (A) (A) (A) (A)
     4 initial guesses have been made.
 Convergence on wavefunction:    0.001000000000000
 Iteration     1 Dimension     4 NMult     0 NNew      4
 CISAX will form     4 AO SS matrices at one time.
 Iteration     2 Dimension     6 NMult     4 NNew      2
 Iteration     3 Dimension     8 NMult     6 NNew      2
 Iteration     4 Dimension    10 NMult     8 NNew      2
 Iteration     5 Dimension    12 NMult    10 NNew      2
 Iteration     6 Dimension    14 NMult    12 NNew      2
 Iteration     7 Dimension    16 NMult    14 NNew      2
 ***********************************************************************
 Excited states from <AA,BB:AA,BB> singles matrix:
 ***********************************************************************
 
 Ground to excited state transition densities written to RWF  633
 Ground to excited state transition electric dipole moments (Au):
       state          X           Y           Z        Dip. S.      Osc.
         1        -0.0855     -1.9272     -0.2323      3.7754      0.1849
 Ground to excited state transition velocity dipole moments (Au):
       state          X           Y           Z        Dip. S.      Osc.
         1         0.0055      0.1378      0.0173      0.0193      0.1752
 Ground to excited state transition magnetic dipole moments (Au):
       state          X           Y           Z
         1         0.1575      0.3289     -2.4976
 Ground to excited state transition velocity quadrupole moments (Au):
       state          XX          YY          ZZ          XY          XZ          YZ
         1        -0.2443      0.3720      0.0211     -1.7387     -0.2153      0.1046
 <0|del|b> * <b|rxdel|0> + <0|del|b> * <b|delr+rdel|0>
 Rotatory Strengths (R) in cgs (10**-40 erg-esu-cm/Gauss)
       state          XX          YY          ZZ    R(velocity)    E-M Angle
         1         7.7385    -56.3072     76.7056      9.3790       89.52
 1/2[<0|r|b>*<b|rxdel|0> + (<0|rxdel|b>*<b|r|0>)*]
 Rotatory Strengths (R) in cgs (10**-40 erg-esu-cm/Gauss)
       state          XX          YY          ZZ     R(length)
         1         9.5294    448.1794   -410.3093     15.7998
  1/2[<0|del|b>*<b|r|0> + (<0|r|b>*<b|del|0>)*] (Au)
       state          X           Y           Z        Dip. S.   Osc.(frdel)
         1        -0.0005     -0.2655     -0.0040      0.2700      0.1800

 Excitation energies and oscillator strengths:
 
 Excited State   1:      Singlet-A      1.9994 eV  620.12 nm  f=0.1849  <S**2>=0.000
     235 -> 238        0.30683
     236 -> 237        0.62939
 This state for optimization and/or second-order correction.
 Total Energy, E(TD-HF/TD-DFT) =  -2732.84890976    
 Copying the excited state density for this state as the 1-particle RhoCI density.
 SavETr:  write IOETrn=   770 NScale= 10 NData=  16 NLR=1 NState=    1 LETran=      28.
 Hyperfine terms turned off by default for NAtoms > 100.

 **********************************************************************

            Population analysis using the SCF density.

 **********************************************************************

 Orbital symmetries:
       Occupied  (A) (A) (A) (A) (A) (A) (A) (A) (A) (A) (A) (A)
                 (A) (A) (A) (A) (A) (A) (A) (A) (A) (A) (A) (A)
                 (A) (A) (A) (A) (A) (A) (A) (A) (A) (A) (A) (A)
                 (A) (A) (A) (A) (A) (A) (A) (A) (A) (A) (A) (A)
                 (A) (A) (A) (A) (A) (A) (A) (A) (A) (A) (A) (A)
                 (A) (A) (A) (A) (A) (A) (A) (A) (A) (A) (A) (A)
                 (A) (A) (A) (A) (A) (A) (A) (A) (A) (A) (A) (A)
                 (A) (A) (A) (A) (A) (A) (A) (A) (A) (A) (A) (A)
                 (A) (A) (A) (A) (A) (A) (A) (A) (A) (A) (A) (A)
                 (A) (A) (A) (A) (A) (A) (A) (A) (A) (A) (A) (A)
                 (A) (A) (A) (A) (A) (A) (A) (A) (A) (A) (A) (A)
                 (A) (A) (A) (A) (A) (A) (A) (A) (A) (A) (A) (A)
                 (A) (A) (A) (A) (A) (A) (A) (A) (A) (A) (A) (A)
                 (A) (A) (A) (A) (A) (A) (A) (A) (A) (A) (A) (A)
                 (A) (A) (A) (A) (A) (A) (A) (A) (A) (A) (A) (A)
                 (A) (A) (A) (A) (A) (A) (A) (A) (A) (A) (A) (A)
                 (A) (A) (A) (A) (A) (A) (A) (A) (A) (A) (A) (A)
                 (A) (A) (A) (A) (A) (A) (A) (A) (A) (A) (A) (A)
                 (A) (A) (A) (A) (A) (A) (A) (A) (A) (A) (A) (A)
                 (A) (A) (A) (A) (A) (A) (A) (A)
       Virtual   (A) (A) (A) (A) (A) (A) (A) (A) (A) (A) (A) (A)
                 (A) (A) (A) (A) (A) (A) (A) (A) (A) (A) (A) (A)
                 (A) (A) (A) (A) (A) (A) (A) (A) (A) (A) (A) (A)
                 (A) (A) (A) (A) (A) (A) (A) (A) (A) (A) (A) (A)
                 (A) (A) (A) (A) (A) (A) (A) (A) (A) (A) (A) (A)
                 (A) (A) (A) (A) (A) (A) (A) (A) (A) (A) (A) (A)
                 (A) (A) (A) (A) (A) (A) (A) (A) (A) (A) (A) (A)
                 (A) (A) (A) (A) (A) (A) (A) (A) (A) (A) (A) (A)
                 (A) (A) (A) (A) (A) (A) (A) (A) (A) (A) (A) (A)
                 (A) (A) (A) (A) (A) (A) (A) (A) (A) (A) (A) (A)
                 (A) (A) (A) (A) (A) (A) (A) (A) (A) (A) (A) (A)
                 (A) (A) (A) (A) (A) (A) (A) (A) (A) (A) (A) (A)
                 (A) (A) (A) (A) (A) (A) (A) (A) (A) (A) (A) (A)
                 (A) (A) (A) (A) (A) (A) (A) (A) (A) (A) (A) (A)
                 (A) (A) (A) (A) (A) (A) (A) (A) (A) (A) (A) (A)
                 (A) (A) (A) (A) (A) (A) (A) (A) (A) (A) (A) (A)
                 (A) (A) (A) (A) (A) (A) (A) (A) (A) (A) (A) (A)
                 (A) (A) (A) (A) (A) (A) (A) (A) (A) (A) (A) (A)
                 (A) (A) (A) (A) (A) (A) (A) (A) (A) (A) (A) (A)
                 (A) (A) (A) (A) (A) (A) (A) (A) (A) (A) (A) (A)
                 (A) (A) (A) (A) (A) (A) (A) (A) (A) (A) (A) (A)
                 (A) (A) (A) (A) (A) (A) (A) (A) (A) (A) (A) (A)
                 (A) (A) (A) (A) (A) (A) (A) (A) (A) (A) (A) (A)
                 (A) (A) (A) (A) (A) (A) (A) (A) (A) (A) (A) (A)
                 (A) (A) (A) (A) (A) (A) (A) (A) (A) (A) (A) (A)
                 (A) (A) (A) (A) (A) (A) (A) (A) (A) (A) (A) (A)
                 (A) (A) (A) (A) (A) (A) (A) (A) (A) (A) (A) (A)
                 (A) (A) (A) (A) (A) (A) (A) (A) (A) (A) (A) (A)
                 (A) (A) (A) (A) (A) (A) (A) (A) (A) (A) (A) (A)
                 (A) (A) (A) (A) (A) (A) (A) (A) (A) (A) (A) (A)
                 (A) (A) (A) (A) (A) (A) (A) (A) (A) (A) (A) (A)
                 (A) (A) (A) (A) (A) (A) (A) (A) (A) (A) (A) (A)
                 (A) (A) (A) (A) (A) (A) (A) (A) (A) (A) (A) (A)
                 (A) (A) (A) (A) (A) (A) (A) (A) (A) (A) (A) (A)
                 (A) (A) (A) (A) (A) (A) (A) (A) (A) (A) (A) (A)
                 (A) (A) (A) (A) (A) (A) (A) (A) (A) (A) (A) (A)
                 (A) (A) (A) (A) (A) (A) (A) (A) (A) (A) (A) (A)
                 (A) (A) (A) (A) (A) (A) (A) (A) (A) (A) (A) (A)
                 (A) (A) (A) (A) (A) (A) (A) (A) (A) (A) (A) (A)
                 (A) (A) (A) (A) (A) (A) (A) (A) (A) (A) (A) (A)
                 (A) (A) (A) (A) (A) (A) (A) (A) (A) (A) (A) (A)
                 (A) (A) (A) (A) (A) (A) (A) (A) (A) (A) (A) (A)
                 (A) (A) (A) (A) (A) (A) (A) (A) (A) (A) (A) (A)
                 (A) (A) (A) (A) (A) (A) (A) (A) (A) (A) (A) (A)
                 (A) (A) (A) (A) (A) (A) (A) (A) (A) (A) (A) (A)
                 (A) (A) (A) (A) (A) (A) (A) (A) (A) (A) (A) (A)
                 (A) (A) (A) (A) (A) (A) (A) (A) (A) (A) (A) (A)
                 (A) (A) (A) (A) (A) (A) (A) (A) (A) (A) (A) (A)
                 (A) (A) (A) (A) (A) (A) (A) (A) (A) (A) (A) (A)
                 (A) (A) (A) (A) (A) (A) (A) (A) (A) (A) (A) (A)
                 (A) (A) (A) (A) (A) (A) (A) (A) (A) (A) (A) (A)
                 (A) (A) (A) (A) (A) (A) (A) (A) (A) (A) (A) (A)
                 (A) (A) (A) (A) (A) (A) (A) (A) (A) (A) (A) (A)
                 (A) (A) (A) (A) (A) (A) (A) (A) (A) (A) (A) (A)
                 (A) (A) (A) (A) (A) (A) (A) (A) (A) (A) (A) (A)
                 (A) (A) (A) (A) (A) (A) (A) (A) (A) (A) (A) (A)
                 (A) (A) (A) (A) (A) (A) (A) (A) (A) (A) (A) (A)
                 (A) (A) (A) (A) (A) (A) (A) (A) (A) (A) (A) (A)
                 (A) (A) (A) (A) (A) (A) (A) (A) (A) (A) (A) (A)
                 (A) (A) (A) (A) (A) (A) (A) (A) (A) (A) (A) (A)
                 (A) (A) (A) (A) (A) (A) (A) (A) (A) (A) (A) (A)
                 (A) (A) (A) (A) (A) (A) (A) (A) (A) (A) (A) (A)
                 (A) (A) (A) (A) (A) (A) (A) (A) (A) (A) (A) (A)
                 (A) (A) (A) (A) (A) (A) (A) (A) (A) (A) (A) (A)
                 (A) (A) (A) (A) (A) (A) (A) (A) (A) (A) (A) (A)
                 (A) (A) (A) (A) (A) (A) (A) (A) (A) (A) (A) (A)
                 (A) (A) (A) (A) (A) (A) (A) (A) (A) (A) (A) (A)
                 (A) (A) (A) (A) (A) (A) (A) (A) (A) (A) (A) (A)
                 (A) (A) (A) (A) (A) (A) (A) (A) (A) (A) (A) (A)
                 (A) (A) (A) (A) (A) (A) (A) (A) (A) (A) (A) (A)
                 (A) (A) (A) (A) (A) (A) (A) (A) (A) (A) (A) (A)
                 (A) (A) (A) (A) (A) (A) (A) (A) (A) (A) (A) (A)
                 (A) (A) (A) (A) (A) (A) (A) (A) (A) (A) (A) (A)
                 (A) (A) (A) (A) (A) (A) (A) (A) (A) (A) (A) (A)
                 (A) (A) (A) (A) (A) (A) (A) (A) (A) (A) (A) (A)
                 (A) (A) (A) (A) (A) (A) (A) (A) (A) (A) (A) (A)
                 (A) (A) (A) (A) (A) (A) (A) (A) (A) (A) (A) (A)
                 (A) (A) (A) (A) (A) (A) (A) (A) (A) (A) (A) (A)
                 (A) (A) (A) (A) (A) (A) (A) (A) (A) (A) (A) (A)
                 (A) (A) (A) (A) (A) (A) (A) (A) (A) (A) (A) (A)
                 (A) (A) (A) (A) (A) (A) (A) (A) (A) (A) (A) (A)
                 (A) (A) (A) (A) (A) (A) (A) (A) (A) (A) (A) (A)
                 (A) (A) (A) (A) (A) (A) (A) (A) (A) (A) (A) (A)
                 (A) (A) (A) (A) (A) (A) (A) (A) (A) (A) (A) (A)
                 (A) (A) (A) (A) (A) (A) (A) (A) (A) (A) (A) (A)
                 (A) (A) (A) (A) (A) (A) (A) (A) (A) (A)
 The electronic state is 1-A.
 Alpha  occ. eigenvalues --  -19.18775 -19.18766 -19.13156 -19.11863 -19.11555
 Alpha  occ. eigenvalues --  -14.36519 -14.36462 -14.32369 -14.29824 -10.31844
 Alpha  occ. eigenvalues --  -10.31480 -10.28675 -10.27076 -10.25052 -10.23836
 Alpha  occ. eigenvalues --  -10.23729 -10.23168 -10.22921 -10.22893 -10.22726
 Alpha  occ. eigenvalues --  -10.22543 -10.22360 -10.22121 -10.21531 -10.21426
 Alpha  occ. eigenvalues --  -10.21340 -10.21320 -10.21319 -10.21197 -10.20858
 Alpha  occ. eigenvalues --  -10.20772 -10.20716 -10.20705 -10.20598 -10.20561
 Alpha  occ. eigenvalues --  -10.20508 -10.20293 -10.20185 -10.20049 -10.19995
 Alpha  occ. eigenvalues --  -10.19937 -10.19897 -10.19415 -10.19409 -10.19401
 Alpha  occ. eigenvalues --  -10.19263 -10.19134 -10.19122 -10.19112 -10.18980
 Alpha  occ. eigenvalues --  -10.18822 -10.18766 -10.18502 -10.18411 -10.18143
 Alpha  occ. eigenvalues --  -10.17921 -10.17692 -10.17664 -10.17526 -10.17280
 Alpha  occ. eigenvalues --  -10.17076 -10.16951 -10.16760 -10.16429  -1.08296
 Alpha  occ. eigenvalues --   -1.08183  -1.04517  -1.00485  -0.99010  -0.98234
 Alpha  occ. eigenvalues --   -0.97741  -0.94127  -0.90882  -0.84517  -0.83194
 Alpha  occ. eigenvalues --   -0.82884  -0.81999  -0.81376  -0.80877  -0.80743
 Alpha  occ. eigenvalues --   -0.80011  -0.79535  -0.78676  -0.78537  -0.77908
 Alpha  occ. eigenvalues --   -0.76965  -0.75881  -0.75644  -0.75050  -0.74284
 Alpha  occ. eigenvalues --   -0.73305  -0.73238  -0.72068  -0.71475  -0.69679
 Alpha  occ. eigenvalues --   -0.69170  -0.68685  -0.68682  -0.68417  -0.67733
 Alpha  occ. eigenvalues --   -0.67576  -0.67238  -0.66471  -0.65943  -0.65283
 Alpha  occ. eigenvalues --   -0.63785  -0.63287  -0.62771  -0.62550  -0.62162
 Alpha  occ. eigenvalues --   -0.62002  -0.59350  -0.58749  -0.58086  -0.57641
 Alpha  occ. eigenvalues --   -0.57497  -0.56950  -0.56602  -0.56357  -0.56261
 Alpha  occ. eigenvalues --   -0.55537  -0.55142  -0.54932  -0.53855  -0.53601
 Alpha  occ. eigenvalues --   -0.52209  -0.51836  -0.51220  -0.50602  -0.50168
 Alpha  occ. eigenvalues --   -0.49397  -0.49039  -0.48880  -0.48631  -0.48148
 Alpha  occ. eigenvalues --   -0.48112  -0.47778  -0.47224  -0.47101  -0.46590
 Alpha  occ. eigenvalues --   -0.46473  -0.46245  -0.45922  -0.45665  -0.45508
 Alpha  occ. eigenvalues --   -0.45456  -0.45299  -0.44957  -0.44835  -0.44503
 Alpha  occ. eigenvalues --   -0.44427  -0.44352  -0.44092  -0.44053  -0.43580
 Alpha  occ. eigenvalues --   -0.43078  -0.42920  -0.42844  -0.42815  -0.42439
 Alpha  occ. eigenvalues --   -0.42257  -0.41871  -0.41772  -0.41316  -0.41010
 Alpha  occ. eigenvalues --   -0.40911  -0.40848  -0.40797  -0.40507  -0.40039
 Alpha  occ. eigenvalues --   -0.39948  -0.39752  -0.39551  -0.39387  -0.39338
 Alpha  occ. eigenvalues --   -0.39177  -0.39051  -0.38674  -0.38566  -0.38179
 Alpha  occ. eigenvalues --   -0.38133  -0.38028  -0.37810  -0.37709  -0.37322
 Alpha  occ. eigenvalues --   -0.37157  -0.37103  -0.36972  -0.36758  -0.36587
 Alpha  occ. eigenvalues --   -0.36320  -0.36058  -0.36014  -0.35928  -0.35483
 Alpha  occ. eigenvalues --   -0.35289  -0.35233  -0.35107  -0.35064  -0.34896
 Alpha  occ. eigenvalues --   -0.34664  -0.34613  -0.34222  -0.33799  -0.33663
 Alpha  occ. eigenvalues --   -0.33346  -0.33146  -0.32999  -0.32885  -0.32536
 Alpha  occ. eigenvalues --   -0.32453  -0.32147  -0.31925  -0.31568  -0.31306
 Alpha  occ. eigenvalues --   -0.30924  -0.30846  -0.30527  -0.30387  -0.30003
 Alpha  occ. eigenvalues --   -0.29653  -0.29077  -0.28211  -0.27856  -0.27382
 Alpha  occ. eigenvalues --   -0.27060  -0.26958  -0.26680  -0.26255  -0.25932
 Alpha  occ. eigenvalues --   -0.25479  -0.25000  -0.23306  -0.22618  -0.19468
 Alpha  occ. eigenvalues --   -0.18395
 Alpha virt. eigenvalues --   -0.09963  -0.07474  -0.04660  -0.02448  -0.01269
 Alpha virt. eigenvalues --   -0.00621   0.00228   0.00373   0.01836   0.02743
 Alpha virt. eigenvalues --    0.03628   0.03842   0.03949   0.04129   0.05059
 Alpha virt. eigenvalues --    0.05157   0.05237   0.05290   0.05376   0.05977
 Alpha virt. eigenvalues --    0.06006   0.06153   0.06355   0.06692   0.06841
 Alpha virt. eigenvalues --    0.06926   0.07330   0.07625   0.07776   0.08010
 Alpha virt. eigenvalues --    0.08084   0.08245   0.08259   0.08421   0.08732
 Alpha virt. eigenvalues --    0.08904   0.08981   0.09564   0.09745   0.09796
 Alpha virt. eigenvalues --    0.10031   0.10298   0.10526   0.10579   0.10699
 Alpha virt. eigenvalues --    0.10757   0.10976   0.11210   0.11343   0.11379
 Alpha virt. eigenvalues --    0.11533   0.11694   0.11813   0.11967   0.12041
 Alpha virt. eigenvalues --    0.12275   0.12390   0.12692   0.12754   0.12958
 Alpha virt. eigenvalues --    0.13057   0.13135   0.13196   0.13456   0.13883
 Alpha virt. eigenvalues --    0.13934   0.14110   0.14203   0.14239   0.14799
 Alpha virt. eigenvalues --    0.14817   0.15052   0.15300   0.15335   0.15656
 Alpha virt. eigenvalues --    0.15866   0.16064   0.16424   0.16528   0.16934
 Alpha virt. eigenvalues --    0.16999   0.17591   0.17864   0.17890   0.18024
 Alpha virt. eigenvalues --    0.18050   0.18090   0.18542   0.19052   0.19219
 Alpha virt. eigenvalues --    0.19577   0.19657   0.19807   0.20350   0.20392
 Alpha virt. eigenvalues --    0.20502   0.20604   0.20796   0.21100   0.21149
 Alpha virt. eigenvalues --    0.21173   0.21341   0.21529   0.21715   0.22157
 Alpha virt. eigenvalues --    0.22391   0.22587   0.22809   0.22878   0.23273
 Alpha virt. eigenvalues --    0.23328   0.23688   0.23803   0.24317   0.24396
 Alpha virt. eigenvalues --    0.24500   0.25107   0.25142   0.25161   0.25489
 Alpha virt. eigenvalues --    0.25532   0.26467   0.26641   0.27032   0.27153
 Alpha virt. eigenvalues --    0.27427   0.27723   0.28272   0.28483   0.28560
 Alpha virt. eigenvalues --    0.28794   0.29484   0.29660   0.29956   0.30984
 Alpha virt. eigenvalues --    0.31638   0.32475   0.32541   0.32579   0.33113
 Alpha virt. eigenvalues --    0.33757   0.34036   0.34822   0.35034   0.35306
 Alpha virt. eigenvalues --    0.35691   0.35986   0.36610   0.36663   0.36935
 Alpha virt. eigenvalues --    0.37532   0.37897   0.38151   0.38349   0.38699
 Alpha virt. eigenvalues --    0.39145   0.39359   0.39795   0.40073   0.40279
 Alpha virt. eigenvalues --    0.40466   0.40598   0.40913   0.41012   0.41330
 Alpha virt. eigenvalues --    0.41496   0.41639   0.41789   0.41962   0.42431
 Alpha virt. eigenvalues --    0.42499   0.42662   0.42805   0.43029   0.43299
 Alpha virt. eigenvalues --    0.43463   0.43824   0.44041   0.44279   0.44422
 Alpha virt. eigenvalues --    0.44600   0.44813   0.44920   0.45253   0.45614
 Alpha virt. eigenvalues --    0.45882   0.46102   0.46333   0.46630   0.46852
 Alpha virt. eigenvalues --    0.47054   0.47180   0.47369   0.47551   0.47886
 Alpha virt. eigenvalues --    0.48115   0.48316   0.48433   0.48922   0.49239
 Alpha virt. eigenvalues --    0.49470   0.49553   0.49690   0.49979   0.50105
 Alpha virt. eigenvalues --    0.50387   0.50492   0.50707   0.50923   0.51165
 Alpha virt. eigenvalues --    0.51504   0.51609   0.51841   0.52295   0.52561
 Alpha virt. eigenvalues --    0.52813   0.53294   0.53478   0.53802   0.53921
 Alpha virt. eigenvalues --    0.54264   0.54386   0.54588   0.55160   0.55259
 Alpha virt. eigenvalues --    0.55434   0.55777   0.55874   0.56176   0.56243
 Alpha virt. eigenvalues --    0.56628   0.56765   0.56891   0.56998   0.57307
 Alpha virt. eigenvalues --    0.57557   0.57598   0.57864   0.57942   0.58076
 Alpha virt. eigenvalues --    0.58315   0.58454   0.58875   0.58926   0.59131
 Alpha virt. eigenvalues --    0.59344   0.59368   0.59535   0.59703   0.59804
 Alpha virt. eigenvalues --    0.60053   0.60101   0.60232   0.60293   0.60362
 Alpha virt. eigenvalues --    0.60645   0.60698   0.60891   0.61290   0.61323
 Alpha virt. eigenvalues --    0.61438   0.61543   0.61836   0.62029   0.62236
 Alpha virt. eigenvalues --    0.62367   0.62600   0.62621   0.62744   0.62822
 Alpha virt. eigenvalues --    0.63189   0.63474   0.63538   0.63767   0.64012
 Alpha virt. eigenvalues --    0.64035   0.64103   0.64368   0.64427   0.64665
 Alpha virt. eigenvalues --    0.64816   0.64976   0.65039   0.65228   0.65315
 Alpha virt. eigenvalues --    0.65387   0.65594   0.65803   0.65857   0.66064
 Alpha virt. eigenvalues --    0.66130   0.66268   0.66425   0.66503   0.66658
 Alpha virt. eigenvalues --    0.66727   0.66821   0.67157   0.67265   0.67493
 Alpha virt. eigenvalues --    0.67558   0.67732   0.67792   0.67811   0.67895
 Alpha virt. eigenvalues --    0.68142   0.68347   0.68527   0.68721   0.68859
 Alpha virt. eigenvalues --    0.69114   0.69128   0.69309   0.69387   0.69567
 Alpha virt. eigenvalues --    0.69674   0.69842   0.69909   0.70010   0.70249
 Alpha virt. eigenvalues --    0.70435   0.70467   0.70686   0.70803   0.70924
 Alpha virt. eigenvalues --    0.71194   0.71312   0.71502   0.71695   0.71723
 Alpha virt. eigenvalues --    0.71903   0.72253   0.72469   0.72602   0.72723
 Alpha virt. eigenvalues --    0.72833   0.73156   0.73243   0.73447   0.73816
 Alpha virt. eigenvalues --    0.74206   0.74353   0.74417   0.74542   0.74621
 Alpha virt. eigenvalues --    0.74888   0.75109   0.75307   0.75541   0.75827
 Alpha virt. eigenvalues --    0.75939   0.76138   0.76377   0.76424   0.76694
 Alpha virt. eigenvalues --    0.77037   0.77183   0.77461   0.77547   0.77676
 Alpha virt. eigenvalues --    0.77792   0.78145   0.78598   0.78875   0.79050
 Alpha virt. eigenvalues --    0.79127   0.79470   0.79806   0.80098   0.80468
 Alpha virt. eigenvalues --    0.80669   0.80980   0.81403   0.81757   0.81981
 Alpha virt. eigenvalues --    0.82149   0.82385   0.82631   0.83162   0.83569
 Alpha virt. eigenvalues --    0.83750   0.84032   0.84632   0.85900   0.85931
 Alpha virt. eigenvalues --    0.86222   0.87283   0.87508   0.87767   0.88449
 Alpha virt. eigenvalues --    0.88570   0.88789   0.89328   0.90571   0.90875
 Alpha virt. eigenvalues --    0.90964   0.91439   0.92058   0.92229   0.93353
 Alpha virt. eigenvalues --    0.93531   0.93981   0.94959   0.95092   0.95231
 Alpha virt. eigenvalues --    0.95519   0.95646   0.95803   0.96151   0.96994
 Alpha virt. eigenvalues --    0.97516   0.97722   0.98313   0.98801   0.99261
 Alpha virt. eigenvalues --    0.99525   1.00055   1.00617   1.01088   1.01368
 Alpha virt. eigenvalues --    1.01766   1.02371   1.03520   1.03695   1.04102
 Alpha virt. eigenvalues --    1.04732   1.04831   1.05077   1.05109   1.05690
 Alpha virt. eigenvalues --    1.05983   1.06515   1.06724   1.07102   1.07477
 Alpha virt. eigenvalues --    1.08759   1.09007   1.09191   1.09520   1.09718
 Alpha virt. eigenvalues --    1.09818   1.10445   1.11086   1.11644   1.11943
 Alpha virt. eigenvalues --    1.12361   1.12994   1.13189   1.13284   1.14343
 Alpha virt. eigenvalues --    1.14463   1.14993   1.15606   1.15906   1.16219
 Alpha virt. eigenvalues --    1.16994   1.17098   1.17678   1.18085   1.18348
 Alpha virt. eigenvalues --    1.18852   1.19577   1.19840   1.20009   1.20075
 Alpha virt. eigenvalues --    1.20650   1.20825   1.21452   1.21922   1.22669
 Alpha virt. eigenvalues --    1.23692   1.23885   1.24071   1.24278   1.24574
 Alpha virt. eigenvalues --    1.25138   1.25521   1.26358   1.26403   1.27235
 Alpha virt. eigenvalues --    1.27366   1.27478   1.27785   1.28569   1.28661
 Alpha virt. eigenvalues --    1.29128   1.29446   1.29951   1.30353   1.30497
 Alpha virt. eigenvalues --    1.30701   1.30841   1.31555   1.31670   1.31729
 Alpha virt. eigenvalues --    1.32028   1.33313   1.33569   1.34059   1.34448
 Alpha virt. eigenvalues --    1.34934   1.35334   1.35990   1.36181   1.36552
 Alpha virt. eigenvalues --    1.36689   1.37369   1.37470   1.37720   1.37826
 Alpha virt. eigenvalues --    1.37928   1.39223   1.39602   1.40058   1.40434
 Alpha virt. eigenvalues --    1.40781   1.40892   1.41844   1.42272   1.43227
 Alpha virt. eigenvalues --    1.43798   1.44392   1.44514   1.45109   1.45689
 Alpha virt. eigenvalues --    1.45903   1.46118   1.46211   1.46324   1.46610
 Alpha virt. eigenvalues --    1.48009   1.48024   1.48095   1.48743   1.48808
 Alpha virt. eigenvalues --    1.49240   1.49303   1.49488   1.49962   1.50808
 Alpha virt. eigenvalues --    1.51499   1.51856   1.52135   1.52243   1.52476
 Alpha virt. eigenvalues --    1.52950   1.53081   1.53637   1.53808   1.54197
 Alpha virt. eigenvalues --    1.54564   1.54949   1.55109   1.55871   1.56068
 Alpha virt. eigenvalues --    1.56326   1.56620   1.57002   1.57343   1.57565
 Alpha virt. eigenvalues --    1.57744   1.57812   1.58675   1.58976   1.59389
 Alpha virt. eigenvalues --    1.59572   1.59905   1.60362   1.60621   1.61083
 Alpha virt. eigenvalues --    1.61834   1.62065   1.62144   1.63043   1.63456
 Alpha virt. eigenvalues --    1.63512   1.63959   1.64063   1.64603   1.64859
 Alpha virt. eigenvalues --    1.65108   1.65334   1.65851   1.65901   1.66035
 Alpha virt. eigenvalues --    1.66386   1.66929   1.67078   1.67238   1.67533
 Alpha virt. eigenvalues --    1.67954   1.68359   1.68463   1.68978   1.69053
 Alpha virt. eigenvalues --    1.69568   1.69617   1.70060   1.70157   1.70299
 Alpha virt. eigenvalues --    1.70336   1.71072   1.71177   1.71383   1.71610
 Alpha virt. eigenvalues --    1.71779   1.71951   1.72081   1.72358   1.72510
 Alpha virt. eigenvalues --    1.72628   1.72979   1.73024   1.73113   1.73444
 Alpha virt. eigenvalues --    1.74062   1.74529   1.74693   1.74872   1.75547
 Alpha virt. eigenvalues --    1.75765   1.76084   1.76239   1.76530   1.76708
 Alpha virt. eigenvalues --    1.76901   1.77158   1.77309   1.77497   1.78100
 Alpha virt. eigenvalues --    1.78301   1.78441   1.78698   1.78833   1.79053
 Alpha virt. eigenvalues --    1.79470   1.79618   1.80118   1.80250   1.80323
 Alpha virt. eigenvalues --    1.80640   1.80781   1.80828   1.81131   1.81296
 Alpha virt. eigenvalues --    1.81413   1.81470   1.81707   1.81865   1.81900
 Alpha virt. eigenvalues --    1.81978   1.82143   1.82483   1.82932   1.83138
 Alpha virt. eigenvalues --    1.83311   1.83478   1.83610   1.83806   1.83979
 Alpha virt. eigenvalues --    1.84695   1.84766   1.85044   1.85194   1.85575
 Alpha virt. eigenvalues --    1.85877   1.86191   1.86366   1.86547   1.86678
 Alpha virt. eigenvalues --    1.86864   1.87084   1.87199   1.87788   1.87935
 Alpha virt. eigenvalues --    1.88267   1.88403   1.88490   1.88759   1.89184
 Alpha virt. eigenvalues --    1.89327   1.89579   1.89628   1.89742   1.89899
 Alpha virt. eigenvalues --    1.90248   1.90627   1.90871   1.91013   1.91339
 Alpha virt. eigenvalues --    1.91553   1.91901   1.92108   1.92468   1.92844
 Alpha virt. eigenvalues --    1.92990   1.93251   1.93634   1.93770   1.93892
 Alpha virt. eigenvalues --    1.94250   1.94533   1.94604   1.94893   1.95197
 Alpha virt. eigenvalues --    1.95457   1.95754   1.95977   1.96170   1.96535
 Alpha virt. eigenvalues --    1.96678   1.97174   1.97263   1.97604   1.97712
 Alpha virt. eigenvalues --    1.97797   1.98097   1.98272   1.99288   1.99408
 Alpha virt. eigenvalues --    1.99575   1.99852   2.00128   2.00398   2.00848
 Alpha virt. eigenvalues --    2.00933   2.01339   2.01478   2.01748   2.02051
 Alpha virt. eigenvalues --    2.02146   2.02533   2.02818   2.03418   2.03786
 Alpha virt. eigenvalues --    2.04404   2.04513   2.04942   2.04977   2.05130
 Alpha virt. eigenvalues --    2.05527   2.05871   2.05977   2.06461   2.06778
 Alpha virt. eigenvalues --    2.06883   2.07215   2.07809   2.08135   2.08710
 Alpha virt. eigenvalues --    2.09098   2.09250   2.09431   2.10104   2.10212
 Alpha virt. eigenvalues --    2.10679   2.10965   2.11561   2.11696   2.11882
 Alpha virt. eigenvalues --    2.12422   2.12494   2.13014   2.13249   2.13621
 Alpha virt. eigenvalues --    2.14030   2.14349   2.14416   2.14878   2.15118
 Alpha virt. eigenvalues --    2.16442   2.16469   2.16875   2.17269   2.17524
 Alpha virt. eigenvalues --    2.17618   2.17670   2.18868   2.19199   2.19859
 Alpha virt. eigenvalues --    2.20090   2.20411   2.21086   2.21350   2.21941
 Alpha virt. eigenvalues --    2.22650   2.22829   2.23274   2.23431   2.23938
 Alpha virt. eigenvalues --    2.24262   2.25018   2.25335   2.25539   2.25812
 Alpha virt. eigenvalues --    2.25892   2.26347   2.27022   2.27143   2.28120
 Alpha virt. eigenvalues --    2.28576   2.28684   2.28904   2.29306   2.29371
 Alpha virt. eigenvalues --    2.29773   2.30173   2.30481   2.30853   2.31066
 Alpha virt. eigenvalues --    2.31664   2.31773   2.32465   2.33565   2.33627
 Alpha virt. eigenvalues --    2.34008   2.34753   2.35056   2.35138   2.35941
 Alpha virt. eigenvalues --    2.36349   2.36473   2.36891   2.37171   2.37630
 Alpha virt. eigenvalues --    2.37946   2.38158   2.38635   2.38780   2.39422
 Alpha virt. eigenvalues --    2.39635   2.39956   2.40318   2.40488   2.40890
 Alpha virt. eigenvalues --    2.41146   2.41270   2.41770   2.42351   2.42470
 Alpha virt. eigenvalues --    2.42790   2.42965   2.43581   2.44503   2.44568
 Alpha virt. eigenvalues --    2.45317   2.45608   2.45958   2.46518   2.46579
 Alpha virt. eigenvalues --    2.46711   2.47302   2.47891   2.48091   2.48604
 Alpha virt. eigenvalues --    2.48639   2.49187   2.49481   2.50140   2.51043
 Alpha virt. eigenvalues --    2.51098   2.51635   2.52016   2.52235   2.53246
 Alpha virt. eigenvalues --    2.53721   2.53951   2.54094   2.54991   2.55318
 Alpha virt. eigenvalues --    2.55620   2.55902   2.56112   2.57832   2.58078
 Alpha virt. eigenvalues --    2.58721   2.59003   2.59141   2.59757   2.60228
 Alpha virt. eigenvalues --    2.61121   2.61212   2.61249   2.61300   2.62157
 Alpha virt. eigenvalues --    2.62620   2.62741   2.63220   2.63333   2.63446
 Alpha virt. eigenvalues --    2.64168   2.64385   2.65213   2.65476   2.65613
 Alpha virt. eigenvalues --    2.65701   2.66955   2.67055   2.67223   2.67955
 Alpha virt. eigenvalues --    2.68380   2.68851   2.68886   2.69040   2.69655
 Alpha virt. eigenvalues --    2.69805   2.70062   2.70741   2.70994   2.71306
 Alpha virt. eigenvalues --    2.71657   2.72274   2.72674   2.72719   2.73609
 Alpha virt. eigenvalues --    2.73925   2.74225   2.74969   2.75119   2.75722
 Alpha virt. eigenvalues --    2.76048   2.76687   2.77224   2.77770   2.77885
 Alpha virt. eigenvalues --    2.78119   2.78656   2.78868   2.79257   2.80094
 Alpha virt. eigenvalues --    2.80648   2.80703   2.81320   2.82788   2.83338
 Alpha virt. eigenvalues --    2.83521   2.83776   2.83887   2.84575   2.85430
 Alpha virt. eigenvalues --    2.85519   2.85993   2.86342   2.86599   2.86854
 Alpha virt. eigenvalues --    2.87187   2.87502   2.88120   2.88223   2.88402
 Alpha virt. eigenvalues --    2.88642   2.89426   2.89497   2.89802   2.90530
 Alpha virt. eigenvalues --    2.90565   2.91072   2.91372   2.92242   2.92496
 Alpha virt. eigenvalues --    2.93062   2.93956   2.94762   2.94945   2.95297
 Alpha virt. eigenvalues --    2.95725   2.95951   2.96166   2.96403   2.96795
 Alpha virt. eigenvalues --    2.97846   2.98489   2.99072   2.99241   3.00223
 Alpha virt. eigenvalues --    3.00352   3.01052   3.01210   3.01346   3.02755
 Alpha virt. eigenvalues --    3.03012   3.03534   3.04196   3.05295   3.05540
 Alpha virt. eigenvalues --    3.06251   3.06948   3.07137   3.07736   3.08905
 Alpha virt. eigenvalues --    3.11444   3.11865   3.12783   3.13781   3.14544
 Alpha virt. eigenvalues --    3.14836   3.15233   3.15821   3.16446   3.17076
 Alpha virt. eigenvalues --    3.19231   3.19830   3.20438   3.20765   3.22462
 Alpha virt. eigenvalues --    3.22695   3.24090   3.24833   3.27153   3.27781
 Alpha virt. eigenvalues --    3.30851   3.31328   3.32301   3.33425   3.34069
 Alpha virt. eigenvalues --    3.35197   3.39483   3.41390   3.43304   3.43701
 Alpha virt. eigenvalues --    3.50569   3.56916   3.58477   3.59484   3.60845
 Alpha virt. eigenvalues --    3.61755   3.63814   3.64337   3.66659   3.74474
          Condensed to atoms (all electrons):
 Mulliken charges:
               1
     1  C    0.056551
     2  C   -0.046431
     3  C   -0.065480
     4  C   -0.130080
     5  N   -0.213137
     6  C   -0.089108
     7  C   -0.089531
     8  C   -0.058645
     9  C   -0.030772
    10  C    0.030831
    11  C    0.259971
    12  C   -0.099439
    13  C    0.221191
    14  O   -0.293430
    15  O   -0.317430
    16  N    0.025888
    17  C    0.083028
    18  C   -0.066117
    19  C    0.108880
    20  C    0.121020
    21  C   -0.125507
    22  C   -0.059675
    23  C   -0.063828
    24  N   -0.273467
    25  C    0.020340
    26  C   -0.130311
    27  C   -0.086969
    28  C    0.050235
    29  C    0.057580
    30  C    0.038852
    31  C    0.054134
    32  N    0.050214
    33  C    0.103243
    34  C   -0.139068
    35  C   -0.019919
    36  C    0.046107
    37  C   -0.006248
    38  C    0.083128
    39  O   -0.134176
    40  C   -0.071367
    41  C    0.233749
    42  O   -0.300643
    43  O   -0.294932
    44  C    0.100201
    45  C    0.317352
    46  C   -0.120932
    47  C   -0.070641
    48  C   -0.030031
    49  C    0.273974
    50  C   -0.025164
    51  C    0.008298
    52  C   -0.078765
    53  C    0.021297
    54  C    0.115526
    55  C    0.071507
    56  C   -0.042017
    57  C    0.006465
    58  C   -0.053351
    59  C    0.088489
    60  C    0.008611
    61  C    0.093949
    62  C   -0.083197
    63  C    0.067258
    64  C    0.102991
    65  H   -0.017886
    66  H   -0.045764
    67  H    0.011124
    68  H    0.059022
    69  H    0.021291
    70  H    0.001545
    71  H    0.014767
    72  H    0.030369
    73  H    0.003436
    74  H   -0.037393
    75  H    0.040711
    76  H    0.039282
    77  H    0.053753
    78  H    0.055734
    79  H    0.055112
    80  H   -0.017667
    81  H    0.039903
    82  H    0.042451
    83  H    0.046555
    84  H    0.046451
    85  H    0.023571
    86  H    0.004919
    87  H    0.012537
    88  H    0.027235
    89  H   -0.007436
    90  H   -0.032941
    91  H    0.060150
    92  H    0.056832
    93  H    0.051393
    94  H    0.059111
    95  H    0.077185
    96  H    0.052803
    97  H    0.051948
    98  H    0.052964
    99  H   -0.031117
   100  H    0.003833
   101  H    0.026169
   102  H    0.037692
   103  H    0.024734
   104  H   -0.049167
   105  H   -0.080618
   106  H   -0.002691
   107  H   -0.008573
   108  H   -0.016195
   109  H   -0.011474
   110  H    0.010081
   111  H    0.005791
   112  H   -0.001638
   113  H   -0.016305
   114  H   -0.052113
   115  H   -0.009969
   116  H    0.003382
   117  H   -0.025644
   118  H    0.004167
   119  H   -0.000410
   120  H   -0.027553
   121  H    0.036130
   122  H    0.034053
   123  H    0.027232
   124  H   -0.007868
   125  H   -0.083817
   126  H   -0.004696
   127  H    0.000456
   128  H   -0.114211
   129  H    0.004265
   130  H   -0.006946
   131  H    0.002732
   132  H   -0.001592
   133  H    0.018046
   134  H   -0.074263
   135  H    0.004219
   136  H   -0.016228
   137  H    0.101514
   138  H    0.154476
 Sum of Mulliken charges =  -0.00000
 Mulliken charges with hydrogens summed into heavy atoms:
               1
     1  C    0.056551
     2  C   -0.064317
     3  C   -0.111244
     4  C   -0.118956
     5  N   -0.213137
     6  C   -0.089108
     7  C   -0.030509
     8  C   -0.037354
     9  C   -0.030772
    10  C    0.077512
    11  C    0.226014
    12  C   -0.019446
    13  C    0.221191
    14  O   -0.293430
    15  O   -0.317430
    16  N    0.127401
    17  C    0.083028
    18  C   -0.066117
    19  C    0.108880
    20  C    0.121020
    21  C    0.039091
    22  C   -0.077342
    23  C    0.018525
    24  N   -0.273467
    25  C    0.020340
    26  C   -0.130311
    27  C   -0.086969
    28  C    0.050235
    29  C    0.174156
    30  C    0.056308
    31  C    0.040991
    32  N    0.204690
    33  C    0.103243
    34  C   -0.139068
    35  C   -0.019919
    36  C    0.046107
    37  C    0.162126
    38  C    0.083128
    39  O   -0.134176
    40  C   -0.012257
    41  C    0.233749
    42  O   -0.300643
    43  O   -0.294932
    44  C    0.282137
    45  C    0.339199
    46  C   -0.117099
    47  C   -0.070641
    48  C    0.058566
    49  C    0.144189
    50  C   -0.036427
    51  C   -0.019371
    52  C   -0.068684
    53  C    0.009146
    54  C    0.053445
    55  C    0.049245
    56  C   -0.038260
    57  C   -0.021088
    58  C    0.044065
    59  C   -0.003196
    60  C    0.004371
    61  C   -0.015996
    62  C   -0.090143
    63  C    0.086444
    64  C    0.016718
 Electronic spatial extent (au):  <R**2>=         177739.4247
 Charge=             -0.0000 electrons
 Dipole moment (field-independent basis, Debye):
    X=              3.9770    Y=              2.9952    Z=              0.3130  Tot=              4.9886
 Quadrupole moment (field-independent basis, Debye-Ang):
   XX=           -357.0791   YY=           -383.0464   ZZ=           -393.7185
   XY=            -17.4772   XZ=             14.9007   YZ=              0.9959
 Traceless Quadrupole moment (field-independent basis, Debye-Ang):
   XX=             20.8689   YY=             -5.0984   ZZ=            -15.7705
   XY=            -17.4772   XZ=             14.9007   YZ=              0.9959
 Octapole moment (field-independent basis, Debye-Ang**2):
  XXX=           -140.4935  YYY=            110.2394  ZZZ=              9.1292  XYY=           -103.7525
  XXY=             45.3996  XXZ=           -117.8918  XZZ=             41.9418  YZZ=            -40.6033
  YYZ=             56.0655  XYZ=            -48.2581
 Hexadecapole moment (field-independent basis, Debye-Ang**3):
 XXXX=        -218230.5271 YYYY=         -17900.9381 ZZZZ=          -4523.8870 XXXY=            229.5487
 XXXZ=           3165.0354 YYYX=          -1113.2276 YYYZ=           -214.6028 ZZZX=             29.1027
 ZZZY=            -99.6253 XXYY=         -40484.8402 XXZZ=         -38740.7792 YYZZ=          -3717.7100
 XXYZ=            690.6106 YYXZ=             29.8862 ZZXY=            243.5087
 N-N= 8.293115132557D+03 E-N=-2.292117254277D+04  KE= 2.701727933387D+03
 1\1\GINC-RYZEN-SSD1\SP\RB3LYP TD-FC\SVP\C55H74N4O5\PADAWAN\21-Aug-2019
 \0\\# td=(NStates=1) B3LYP/SVP\\TD\\0,1\C,0,-5.2345463051,-1.951434949
 5,0.5528239075\C,0,-4.6880549637,2.7695271817,1.3985965358\C,0,-9.1691
 761612,3.4225784541,-0.2046750837\C,0,-9.7652783789,-1.3672783224,-0.9
 730434497\N,0,-5.1773444824,0.3531417753,0.8460920672\C,0,-4.470665164
 1,-0.7717361572,0.7561517008\C,0,-3.0737991336,-0.6313436179,1.3113743
 868\C,0,-3.0452486773,0.7681819358,1.8069251979\C,0,-4.3850634644,1.37
 35944048,1.4061125227\C,0,-2.9010966076,0.7705553565,3.3815180098\C,0,
 -2.0727326161,-0.8547104851,0.060632671\C,0,-0.6496833564,-0.897508605
 7,0.5598337485\C,0,0.3805625622,-1.0132682441,-0.6396098182\O,0,-0.064
 0966738,-1.2218818781,-1.8059130459\O,0,1.6405191271,-0.990475466,-0.2
 081158036\N,0,-7.0337665577,2.7369184337,0.5555061446\C,0,-5.907144895
 5,3.3667734098,1.0609302184\C,0,-6.1506763401,4.7907571595,1.029244476
 1\C,0,-7.4325063151,5.0561669397,0.4442896591\C,0,-7.901725623,3.72402
 1001,0.2456759039\C,0,-5.2221613725,5.7978535678,1.5329893028\C,0,-7.9
 534119294,6.3752272404,0.3626213164\C,0,-8.9700345263,6.6192312137,-0.
 5630149178\N,0,-9.1269560949,0.9706955442,-0.4255695324\C,0,-9.7830300
 804,2.2139346952,-0.4777565864\C,0,-11.2595521932,1.9383574752,-0.9187
 659479\C,0,-11.3423096715,0.6083748789,-1.2860286645\C,0,-10.007237432
 1,0.0273656872,-0.9053240128\C,0,-12.1282170189,3.161248694,-1.0128857
 177\C,0,-12.4927793753,-0.1534644448,-1.8489771327\C,0,-12.494633933,-
 0.3980644528,-3.4070578902\N,0,-7.5326263883,-1.3270270172,-0.10663700
 88\C,0,-8.5744534308,-1.9804646607,-0.6113180602\C,0,-8.2195755648,-3.
 3495495565,-0.6971634548\C,0,-6.9891309413,-3.4435402383,-0.0914412494
 \C,0,-6.4923177714,-2.0821300121,0.16925908\C,0,-9.1119851836,-4.51412
 48125,-1.1674192487\C,0,-5.8225883803,-4.3689621231,0.1023729069\O,0,-
 5.8338152376,-5.56021253,0.1169686173\C,0,-4.5905146561,-3.4037274854,
 0.5416394135\C,0,-3.9867010849,-3.9097746727,1.7187237577\O,0,-4.20898
 35101,-3.3167126272,2.8270931733\O,0,-3.1713796537,-4.9942597073,1.594
 9452375\C,0,-2.6594994802,-5.4883797433,2.8667331436\C,0,2.7147515186,
 -1.2707457652,-1.2092051258\C,0,3.9658306929,-0.8663612595,-0.43612022
 52\C,0,4.9056328635,-0.1989008425,-1.0671221168\C,0,4.8653270429,0.420
 4658883,-2.5328858276\C,0,6.250358748,0.1100436327,-0.3577072338\C,0,7
 .5242066479,-0.5358329164,-0.9980171551\C,0,8.7740708841,-0.2521204189
 ,-0.2312780077\C,0,10.0628281375,-0.7114956322,-0.8818591658\C,0,9.887
 4825417,-2.1861637822,-1.2536294776\C,0,11.238184493,-0.4367933499,-0.
 0037928473\C,0,12.6440729919,-0.5479232707,-0.6655644336\C,0,13.803996
 8069,-0.0003327364,0.2693933019\C,0,15.2544072618,-0.1406471005,-0.408
 1146473\C,0,15.7593132589,-1.6125554174,-0.6250522407\C,0,16.213493946
 6,0.6203629475,0.4788111455\C,0,17.5925660953,0.8408798219,-0.17877238
 5\C,0,18.499149766,1.7735959786,0.6090695999\C,0,20.0830782037,1.82121
 77471,0.1885316136\C,0,20.1944503745,2.5226917004,-1.1445608651\C,0,20
 .8403945051,2.5933330694,1.267423143\H,0,-3.8708752551,3.3203084151,1.
 9125134896\H,0,-9.8114287279,4.1668361201,-0.0117598499\H,0,-10.601928
 5328,-1.9231883288,-1.5507449684\H,0,-2.8297690284,-1.2680271668,2.304
 2922239\H,0,-2.3254031079,1.586428594,1.4021097094\H,0,-1.9061481307,0
 .3633937611,3.5559123165\H,0,-3.0102243227,1.694244068,4.0023293341\H,
 0,-3.5752881082,0.0743881411,3.9213709828\H,0,-2.3979592498,-1.7820520
 829,-0.3576526216\H,0,-2.3076967083,-0.1259051162,-0.5383524959\H,0,-0
 .1481191353,-0.1065265268,1.4152875593\H,0,-0.2591389268,-1.7145806381
 ,1.3155286719\H,0,-4.4317578332,6.2350316408,0.6384769857\H,0,-5.87844
 90637,6.8009152102,1.9257681738\H,0,-4.2561373907,5.4671365631,2.41162
 22228\H,0,-7.6292130202,7.2417312068,0.8677380801\H,0,-9.263141707,5.7
 977277583,-1.2311325093\H,0,-9.3850327825,7.7224775331,-0.6322629304\H
 ,0,-12.3536299104,3.4871992184,0.0648540868\H,0,-11.6133002523,3.82511
 74764,-1.678555073\H,0,-13.2440418042,2.7473103492,-1.3904220891\H,0,-
 12.6553703629,-1.1531454408,-1.4161061844\H,0,-13.360056748,0.47892755
 42,-1.4839620735\H,0,-12.5259271077,0.718378853,-3.9486637098\H,0,-11.
 7046366714,-0.9006194583,-3.8848492816\H,0,-13.1790659798,-1.016368995
 ,-3.7231861773\H,0,-10.1140589527,-4.6106231542,-0.5098267866\H,0,-9.2
 073626465,-4.4265496685,-2.3813986605\H,0,-8.6080425098,-5.5425050304,
 -0.9505897125\H,0,-3.8468804153,-3.4413114824,-0.2709801578\H,0,-2.294
 2862966,-6.6971463183,2.7254182458\H,0,-1.9224788196,-4.6777775168,3.3
 589903493\H,0,-3.5218632417,-5.4819951995,3.6272542456\H,0,2.788640655
 9,-2.3924459857,-1.4857357069\H,0,2.5844002829,-0.7014015782,-2.010998
 7192\H,0,3.9861300489,-1.4270707776,0.5011091553\H,0,5.3159068552,1.43
 78114789,-2.8895115386\H,0,5.5126082246,-0.0940234471,-3.3468677539\H,
 0,3.811767662,0.5045032562,-2.9127466316\H,0,6.3839784949,1.076680812,
 -0.409426143\H,0,6.1500628321,-0.1501005954,0.5537250666\H,0,7.3734980
 029,-1.5509491403,-1.2191167578\H,0,7.8254923003,-0.0204765431,-2.0007
 989376\H,0,8.8237568173,0.8485027018,-0.0028590274\H,0,8.486021332,-0.
 6103681238,0.8203348864\H,0,10.0961464799,-0.3444242441,-2.0198227052\
 H,0,9.1225994475,-2.43717238,-1.9892881543\H,0,10.9162684878,-2.392160
 8925,-1.7151772633\H,0,9.7202004618,-2.929964874,-0.5383673582\H,0,11.
 0741416043,0.5510227261,0.1819216548\H,0,11.2497325427,-0.860534539,1.
 0046609878\H,0,12.7863451425,-1.6225761366,-0.7782912719\H,0,12.685418
 8585,-0.039651238,-1.5615994784\H,0,13.4923702725,1.112421638,0.429248
 0989\H,0,13.7180066362,-0.4469476488,1.2992795042\H,0,15.1986913665,0.
 3575989597,-1.3243390837\H,0,15.1872441194,-2.1295412379,-1.4692709476
 \H,0,16.904417178,-1.5380896485,-0.8534067333\H,0,15.5549082084,-2.181
 5877774,0.5186545668\H,0,15.5387510667,1.6548985786,0.6607399176\H,0,1
 6.3421005328,0.3676105702,1.3714391407\H,0,18.0541114884,-0.157734252,
 -0.3282075055\H,0,17.5945621816,1.2701799811,-1.3154088455\H,0,18.1563
 573416,2.5701157393,0.7214486399\H,0,18.6932723414,1.1250613429,1.5909
 503506\H,0,20.4010383336,0.7719279265,0.2222451616\H,0,19.7620589031,3
 .5111632484,-1.027297704\H,0,21.2224807653,2.6041260164,-1.4160769311\
 H,0,19.6169199278,1.8898290195,-1.925937775\H,0,20.7926142745,2.285378
 0881,2.1640703348\H,0,21.9422380655,2.7390020168,1.0863105309\H,0,20.4
 725949222,3.5931989904,1.6130139058\H,0,-6.8353873212,1.8319774697,0.3
 264359004\H,0,-7.4797593425,-0.2836232379,-0.1069740176\\Version=ES64L
 -G16RevA.03\State=1-A\HF=-2732.9223852\RMSD=3.201e-09\PG=C01 [X(C55H74
 N4O5)]\\@


 IT IS A PROFOUNDLY ERRONEOUS TRUISM ... THAT WE SHOULD CULTIVATE
 THE HABIT OF THINKING OF WHAT WE ARE DOING.
 THE PRECISE OPPOSITE IS THE CASE.
 CIVILIZATION ADVANCES BY EXTENDING THE NUMBER OF IMPORTANT OPERATIONS
 WHICH WE CAN PERFORM WITHOUT THINKING ABOUT THEM.

                                    -- ALFRED NORTH WHITEHEAD
 Job cpu time:       1 days  5 hours 54 minutes  2.7 seconds.
 Elapsed time:       0 days  7 hours 31 minutes 30.2 seconds.
 File lengths (MBytes):  RWF=   6378 Int=      0 D2E=      0 Chk=    163 Scr=      1
 Normal termination of Gaussian 16 at Wed Aug 21 21:42:49 2019.
