 Entering Gaussian System, Link 0=g16
 Input=Geometria-497-.com
 Output=Geometria-497-.log
 Initial command:
 /usr/local/g16/l1.exe "/home/padawan/israel-mol/pheophytin/spectra/emi/Gau-55264.inp" -scrdir="/home/padawan/israel-mol/pheophytin/spectra/emi/"
 Entering Link 1 = /usr/local/g16/l1.exe PID=     55266.
  
 Copyright (c) 1988,1990,1992,1993,1995,1998,2003,2009,2016,
            Gaussian, Inc.  All Rights Reserved.
  
 This is part of the Gaussian(R) 16 program.  It is based on
 the Gaussian(R) 09 system (copyright 2009, Gaussian, Inc.),
 the Gaussian(R) 03 system (copyright 2003, Gaussian, Inc.),
 the Gaussian(R) 98 system (copyright 1998, Gaussian, Inc.),
 the Gaussian(R) 94 system (copyright 1995, Gaussian, Inc.),
 the Gaussian 92(TM) system (copyright 1992, Gaussian, Inc.),
 the Gaussian 90(TM) system (copyright 1990, Gaussian, Inc.),
 the Gaussian 88(TM) system (copyright 1988, Gaussian, Inc.),
 the Gaussian 86(TM) system (copyright 1986, Carnegie Mellon
 University), and the Gaussian 82(TM) system (copyright 1983,
 Carnegie Mellon University). Gaussian is a federally registered
 trademark of Gaussian, Inc.
  
 This software contains proprietary and confidential information,
 including trade secrets, belonging to Gaussian, Inc.
  
 This software is provided under written license and may be
 used, copied, transmitted, or stored only in accord with that
 written license.
  
 The following legend is applicable only to US Government
 contracts under FAR:
  
                    RESTRICTED RIGHTS LEGEND
  
 Use, reproduction and disclosure by the US Government is
 subject to restrictions as set forth in subparagraphs (a)
 and (c) of the Commercial Computer Software - Restricted
 Rights clause in FAR 52.227-19.
  
 Gaussian, Inc.
 340 Quinnipiac St., Bldg. 40, Wallingford CT 06492
  
  
 ---------------------------------------------------------------
 Warning -- This program may not be used in any manner that
 competes with the business of Gaussian, Inc. or will provide
 assistance to any competitor of Gaussian, Inc.  The licensee
 of this program is prohibited from giving any competitor of
 Gaussian, Inc. access to this program.  By using this program,
 the user acknowledges that Gaussian, Inc. is engaged in the
 business of creating and licensing software in the field of
 computational chemistry and represents and warrants to the
 licensee that it is not a competitor of Gaussian, Inc. and that
 it will not use this program in any manner prohibited above.
 ---------------------------------------------------------------
  

 Cite this work as:
 Gaussian 16, Revision A.03,
 M. J. Frisch, G. W. Trucks, H. B. Schlegel, G. E. Scuseria, 
 M. A. Robb, J. R. Cheeseman, G. Scalmani, V. Barone, 
 G. A. Petersson, H. Nakatsuji, X. Li, M. Caricato, A. V. Marenich, 
 J. Bloino, B. G. Janesko, R. Gomperts, B. Mennucci, H. P. Hratchian, 
 J. V. Ortiz, A. F. Izmaylov, J. L. Sonnenberg, D. Williams-Young, 
 F. Ding, F. Lipparini, F. Egidi, J. Goings, B. Peng, A. Petrone, 
 T. Henderson, D. Ranasinghe, V. G. Zakrzewski, J. Gao, N. Rega, 
 G. Zheng, W. Liang, M. Hada, M. Ehara, K. Toyota, R. Fukuda, 
 J. Hasegawa, M. Ishida, T. Nakajima, Y. Honda, O. Kitao, H. Nakai, 
 T. Vreven, K. Throssell, J. A. Montgomery, Jr., J. E. Peralta, 
 F. Ogliaro, M. J. Bearpark, J. J. Heyd, E. N. Brothers, K. N. Kudin, 
 V. N. Staroverov, T. A. Keith, R. Kobayashi, J. Normand, 
 K. Raghavachari, A. P. Rendell, J. C. Burant, S. S. Iyengar, 
 J. Tomasi, M. Cossi, J. M. Millam, M. Klene, C. Adamo, R. Cammi, 
 J. W. Ochterski, R. L. Martin, K. Morokuma, O. Farkas, 
 J. B. Foresman, and D. J. Fox, Gaussian, Inc., Wallingford CT, 2016.
 
 ******************************************
 Gaussian 16:  ES64L-G16RevA.03 25-Dec-2016
                 1-Sep-2019 
 ******************************************
 %nproc=4
 Will use up to    4 processors via shared memory.
 %Mem=2GB
 --------------------------
 # td=(NStates=1) B3LYP/SVP
 --------------------------
 1/38=1,172=1/1;
 2/12=2,17=6,18=5,40=1/2;
 3/5=18,7=101,11=9,25=1,30=1,74=-5/1,2,3,8;
 4//1;
 5/5=2,38=5/2;
 8/6=1,10=1,108=1/1;
 9/41=1,42=1,70=2/14;
 6/7=2,8=2,9=2,10=2/1;
 99/5=1,9=1/99;
 --
 TD
 --
 Symbolic Z-matrix:
 Charge =  0 Multiplicity = 1
 6                    -5.1043   -1.97737   0.45572 
 6                    -4.7813    2.77399   1.54807 
 6                    -9.36804   3.26397  -0.15838 
 6                    -9.7361   -1.521    -1.09296 
 7                    -5.25477   0.33498   0.8302 
 6                    -4.50971  -0.74559   0.96153 
 6                    -3.00449  -0.49099   1.40328 
 6                    -3.0992    0.98003   1.90621 
 6                    -4.51456   1.37768   1.48923 
 6                    -2.81011   1.09184   3.28799 
 6                    -2.18901  -0.66683   0.14133 
 6                    -0.57107  -0.56111   0.4772 
 6                     0.37191  -0.74018  -0.70182 
 8                     0.02141  -1.06401  -1.73392 
 8                     1.58084  -0.63692  -0.15256 
 7                    -7.14898   2.77369   0.63699 
 6                    -6.03958   3.45823   1.11664 
 6                    -6.45513   4.7874    1.17833 
 6                    -7.64984   4.92384   0.67597 
 6                    -8.15908   3.65397   0.26527 
 6                    -5.54905   5.80316   1.7726 
 6                    -8.42723   6.10633   0.41431 
 6                    -9.20459   6.53635  -0.54199 
 7                    -9.14345   0.8116   -0.46229 
 6                    -9.7949    2.02953  -0.54594 
 6                    -11.17145   1.77914  -1.20772 
 6                    -11.39163   0.48551  -1.40202 
 6                    -10.02286  -0.13284  -0.93333 
 6                    -12.24418   2.83622  -1.36619 
 6                    -12.49138  -0.33255  -1.98788 
 6                    -12.42632  -0.7803   -3.387 
 7                    -7.41754  -1.28252  -0.32545 
 6                    -8.48364  -2.0204   -0.79317 
 6                    -8.05029  -3.51964  -0.81382 
 6                    -6.77655  -3.45552  -0.2725 
 6                    -6.44191  -2.11671   0.05672 
 6                    -8.87236  -4.69827  -1.12968 
 6                    -5.67423  -4.38524   0.04358 
 8                    -5.54893  -5.53474   0.08136 
 6                    -4.46031  -3.38205   0.51906 
 6                    -3.98147  -3.8491    1.88307 
 8                    -4.2384   -3.29646   2.96776 
 8                    -3.26498  -4.88212   1.78525 
 6                    -2.72047  -5.46847   2.87904 
 6                     2.66671  -0.71307  -1.25846 
 6                     4.04566  -0.4252   -0.56913 
 6                     4.99416   0.47062  -0.95787 
 6                     4.92223   1.43523  -2.22336 
 6                     6.33266   0.53972  -0.21295 
 6                     7.53201  -0.01117  -1.01407 
 6                     8.78493  -0.08507  -0.26201 
 6                     10.0569  -0.70618  -0.78098 
 6                     9.96252  -2.28778  -0.83721 
 6                     11.26335  -0.33928  -0.00374 
 6                     12.64237  -0.66936  -0.62005 
 6                     13.89032  -0.07372   0.19298 
 6                     15.22906  -0.41738  -0.35468 
 6                     15.54871  -2.00679  -0.20077 
 6                     16.42478   0.52975   0.32582 
 6                     17.77567   0.40938  -0.267 
 6                     18.72622   1.32595   0.46745 
 6                     20.11503   1.34791  -0.11171 
 6                     19.98887   2.21869  -1.50703 
 6                     21.18515   1.96175   0.87994 
 1                    -3.99041   3.39261   2.13688 
 1                    -10.10237   4.07192  -0.31665 
 1                    -10.43828  -2.14334  -1.47009 
 1                    -2.61734  -1.3449    1.94347 
 1                    -2.31462   1.70129   1.36129 
 1                    -1.8231    0.57903   3.53594 
 1                    -2.71093   2.15637   3.50806 
 1                    -3.59701   0.69472   3.92487 
 1                    -2.48284  -1.60739  -0.41949 
 1                    -2.36556   0.27708  -0.57124 
 1                    -0.1941    0.26136   1.04789 
 1                    -0.27947  -1.48466   1.00899 
 1                    -4.9579    6.39562   0.87706 
 1                    -6.38228   6.79084   2.4103 
 1                    -4.95232   5.18146   2.59912 
 1                    -8.1323    6.87895   1.32083 
 1                    -9.39475   6.00107  -1.40484 
 1                    -9.66976   7.56883  -0.4821 
 1                    -12.58328   3.43559  -0.54516 
 1                    -11.68911   3.63769  -2.01544 
 1                    -13.06332   2.38203  -1.81222 
 1                    -12.47413  -1.34653  -1.23658 
 1                    -13.41767   0.08711  -1.63421 
 1                    -12.031    0.17611  -3.85636 
 1                    -11.53232  -1.42069  -3.58438 
 1                    -13.02537  -1.37164  -3.97907 
 1                    -9.96114  -4.58738  -0.72471 
 1                    -9.1656   -4.75909  -2.32249 
 1                    -8.39539  -5.6961   -0.84163 
 1                    -3.7252   -3.57163  -0.30695 
 1                    -2.194    -6.38345   2.56986 
 1                    -2.18699  -4.85558   3.25612 
 1                    -3.50131  -5.84276   3.34173 
 1                     2.61314  -1.68701  -1.7445 
 1                     2.25994  -0.18558  -2.19985 
 1                     4.2174   -1.13591   0.54388 
 1                     5.04397   2.52973  -1.7747 
 1                     5.74977   1.31447  -2.83214 
 1                     4.09902   1.59808  -2.85543 
 1                     6.65929   1.66066   0.24135 
 1                     6.16401  -0.08584   0.797 
 1                     7.36235  -1.06338  -1.25986 
 1                     7.47572   0.59637  -1.9011 
 1                     8.80383   0.94035   0.11259 
 1                     8.38584  -0.53641   0.74166 
 1                     10.44758  -0.38935  -1.83397 
 1                     9.19099  -2.57239  -1.444 
 1                     10.83507  -2.70849  -1.4453 
 1                     9.89652  -2.75295   0.20285 
 1                     11.20523   0.82115   0.07728 
 1                     11.34873  -0.83162   1.11901 
 1                     12.70569  -1.84932  -0.43213 
 1                     12.74134  -0.01995  -1.5376 
 1                     13.66819   0.95865   0.35084 
 1                     13.69316  -0.40725   1.30561 
 1                     15.47535  -0.31465  -1.33714 
 1                     14.89104  -2.56532  -0.82988 
 1                     16.67252  -2.10275  -0.54067 
 1                     15.50995  -2.15251   0.96857 
 1                     15.91603   1.63593   0.41214 
 1                     16.42959   0.06845   1.35231 
 1                     18.24605  -0.6814    0.04043 
 1                     17.56883   0.52439  -1.28099 
 1                     18.29674   2.28847   0.75297 
 1                     18.89079   0.97346   1.57463 
 1                     20.50818   0.32475  -0.37455 
 1                     19.7323   3.09078  -1.28967 
 1                     21.05582   1.95522  -1.80893 
 1                     19.26918   1.76771  -2.18264 
 1                     21.5219   1.38542   1.84644 
 1                     22.19153   2.24299   0.41953 
 1                     20.7529   2.83381   1.23381 
 1                    -7.07774   1.67549   0.38566 
 1                    -7.52565  -0.27357  -0.11312 
 
 Stoichiometry    C55H74N4O5
 Framework group  C1[X(C55H74N4O5)]
 Deg. of freedom   408
 Full point group                 C1      NOp   1
 Largest Abelian subgroup         C1      NOp   1
 Largest concise Abelian subgroup C1      NOp   1
                         Standard orientation:                         
 ---------------------------------------------------------------------
 Center     Atomic      Atomic             Coordinates (Angstroms)
 Number     Number       Type             X           Y           Z
 ---------------------------------------------------------------------
      1          6           0       -5.099441   -1.994739    0.441826
      2          6           0       -4.794069    2.752047    1.558831
      3          6           0       -9.381347    3.234528   -0.148290
      4          6           0       -9.731768   -1.546850   -1.107729
      5          7           0       -5.258379    0.315101    0.828089
      6          6           0       -4.509572   -0.763483    0.954382
      7          6           0       -3.005571   -0.505816    1.398491
      8          6           0       -3.105851    0.962253    1.908908
      9          6           0       -4.522322    1.357021    1.492994
     10          6           0       -2.818096    1.067969    3.291451
     11          6           0       -2.188612   -0.672265    0.136222
     12          6           0       -0.571279   -0.562537    0.473760
     13          6           0        0.373133   -0.732184   -0.705497
     14          8           0        0.024490   -1.051934   -1.739494
     15          8           0        1.581315   -0.627462   -0.154870
     16          7           0       -7.161104    2.748038    0.646106
     17          6           0       -6.054471    3.434033    1.130040
     18          6           0       -6.474780    4.761379    1.198280
     19          6           0       -7.669626    4.896169    0.695795
     20          6           0       -8.174074    3.626631    0.278206
     21          6           0       -5.572728    5.777283    1.798407
     22          6           0       -8.451034    6.077221    0.439672
     23          6           0       -9.229263    6.509399   -0.514947
     24          7           0       -9.147841    0.784564   -0.464659
     25          6           0       -9.803559    2.000586   -0.542498
     26          6           0      -11.178762    1.748727   -1.206523
     27          6           0      -11.394213    0.455342   -1.407626
     28          6           0      -10.023570   -0.160554   -0.941161
     29          6           0      -12.255127    2.802790   -1.360300
     30          6           0      -12.490645   -0.363594   -1.998458
     31          6           0      -12.423038   -0.803903   -3.399812
     32          7           0       -7.414603   -1.304096   -0.337382
     33          6           0       -8.477755   -2.043334   -0.809636
     34          6           0       -8.039062   -3.540898   -0.837695
     35          6           0       -6.765929   -3.475050   -0.295164
     36          6           0       -6.436275   -2.136776    0.041171
     37          6           0       -8.856727   -4.720804   -1.160191
     38          6           0       -5.660533   -4.402470    0.016897
     39          8           0       -5.531169   -5.551693    0.048848
     40          6           0       -4.450507   -3.397430    0.498383
     41          6           0       -3.970940   -3.869796    1.860310
     42          8           0       -4.230568   -3.323664    2.947646
     43          8           0       -3.250717   -4.899750    1.757682
     44          6           0       -2.704870   -5.489785    2.848822
     45          6           0        2.668196   -0.694064   -1.260386
     46          6           0        4.045646   -0.404851   -0.568622
     47          6           0        4.991226    0.496311   -0.952081
     48          6           0        4.916734    1.467163   -2.212645
     49          6           0        6.328959    0.566326   -0.205879
     50          6           0        7.530805    0.023830   -1.008978
     51          6           0        8.783471   -0.049496   -0.256433
     52          6           0       10.057988   -0.663400   -0.777699
     53          6           0        9.969268   -2.245024   -0.842130
     54          6           0       11.262596   -0.296235    0.002260
     55          6           0       12.643206   -0.618234   -0.614771
     56          6           0       13.888470   -0.022366    0.202182
     57          6           0       15.228805   -0.358454   -0.346296
     58          6           0       15.553992   -1.947491   -0.200342
     59          6           0       16.420679    0.589407    0.339901
     60          6           0       17.772401    0.476877   -0.252581
     61          6           0       18.719186    1.393027    0.487238
     62          6           0       20.108303    1.422896   -0.090823
     63          6           0       19.980001    2.300394   -1.481731
     64          6           0       21.175556    2.035416    0.904725
     65          1           0       -4.005776    3.370428    2.151364
     66          1           0      -10.118436    4.040665   -0.302916
     67          1           0      -10.431482   -2.169726   -1.488549
     68          1           0       -2.615754   -1.361121    1.934545
     69          1           0       -2.323464    1.689085    1.368257
     70          1           0       -1.829442    0.557393    3.537452
     71          1           0       -2.722855    2.131700    3.517066
     72          1           0       -3.604017    0.664788    3.925731
     73          1           0       -2.478710   -1.610965   -0.429635
     74          1           0       -2.368026    0.274665   -0.571602
     75          1           0       -0.197631    0.258322    1.048943
     76          1           0       -0.276768   -1.487764    1.000998
     77          1           0       -4.983072    6.376433    0.906339
     78          1           0       -6.409891    6.758705    2.440590
     79          1           0       -4.974350    5.153453    2.622133
     80          1           0       -8.159473    6.846211    1.350368
     81          1           0       -9.416938    5.977891   -1.380669
     82          1           0       -9.698142    7.539899   -0.450066
     83          1           0      -12.596918    3.396726   -0.536431
     84          1           0      -11.702464    3.609559   -2.005027
     85          1           0      -13.072349    2.348005   -1.809238
     86          1           0      -12.470308   -1.381363   -1.252370
     87          1           0      -13.418664    0.050951   -1.643279
     88          1           0      -12.030798    0.156315   -3.863977
     89          1           0      -11.526636   -1.440090   -3.599862
     90          1           0      -13.019583   -1.394311   -3.995342
     91          1           0       -9.946172   -4.615862   -0.755421
     92          1           0       -9.148932   -4.776523   -2.353510
     93          1           0       -8.376412   -5.718401   -0.876947
     94          1           0       -3.714161   -3.580155   -0.328078
     95          1           0       -2.174943   -6.401295    2.535306
     96          1           0       -2.173828   -4.876952    3.229420
     97          1           0       -3.484697   -5.869224    3.309025
     98          1           0        2.618424   -1.665669   -1.751469
     99          1           0        2.260198   -0.163182   -2.199332
    100          1           0        4.219155   -1.120672    0.540844
    101          1           0        5.034276    2.559767   -1.758269
    102          1           0        5.745112    1.352476   -2.821449
    103          1           0        4.093376    1.630347   -2.844441
    104          1           0        6.651293    1.686068    0.254413
    105          1           0        6.161850   -0.065019    0.800723
    106          1           0        7.365051   -1.027696   -1.260300
    107          1           0        7.472962    0.635720   -1.892910
    108          1           0        8.798475    0.974048    0.123454
    109          1           0        8.385301   -0.507407    0.744620
    110          1           0       10.448263   -0.339773   -1.828776
    111          1           0        9.199165   -2.529235   -1.450923
    112          1           0       10.843723   -2.659497   -1.451768
    113          1           0        9.904210   -2.715766    0.195471
    114          1           0       11.200307    0.863552    0.089213
    115          1           0       11.348964   -0.794040    1.122527
    116          1           0       12.710584   -1.798917   -0.432877
    117          1           0       12.740496    0.036234   -1.528895
    118          1           0       13.662569    1.008379    0.365201
    119          1           0       13.691746   -0.362320    1.312948
    120          1           0       15.475393   -0.249789   -1.328042
    121          1           0       14.898742   -2.505106   -0.832775
    122          1           0       16.678369   -2.037703   -0.539939
    123          1           0       15.514953   -2.099365    0.968205
    124          1           0       15.907947    1.693308    0.431554
    125          1           0       16.426431    0.122846    1.364009
    126          1           0       18.246439   -0.613788    0.049563
    127          1           0       17.565841    0.596369   -1.266105
    128          1           0       18.286093    2.352531    0.777411
    129          1           0       18.884251    1.035424    1.592708
    130          1           0       20.505262    0.402507   -0.358654
    131          1           0       19.720182    3.170438   -1.260073
    132          1           0       21.048090    2.042270   -1.784234
    133          1           0       19.262374    1.850342   -2.160162
    134          1           0       21.513690    1.455316    1.868477
    135          1           0       22.181249    2.322595    0.446472
    136          1           0       20.739973    2.904107    1.262765
    137          1           0       -7.085795    1.651406    0.389176
    138          1           0       -7.526441   -0.296642   -0.119945
 ---------------------------------------------------------------------
 Rotational constants (GHZ):           0.0631063           0.0061403           0.0057852
 Standard basis: SVP (5D, 7F)
 There are  1330 symmetry adapted cartesian basis functions of A   symmetry.
 There are  1266 symmetry adapted basis functions of A   symmetry.
  1266 basis functions,  2118 primitive gaussians,  1330 cartesian basis functions
   236 alpha electrons      236 beta electrons
       nuclear repulsion energy      8281.8818275901 Hartrees.
 NAtoms=  138 NActive=  138 NUniq=  138 SFac= 1.00D+00 NAtFMM=   60 NAOKFM=T Big=T
 Integral buffers will be    131072 words long.
 Regular integral format.
 Two-electron integral symmetry is turned on.
 One-electron integrals computed using PRISM.
 NBasis=  1266 RedAO= T EigKep=  3.40D-04  NBF=  1266
 NBsUse=  1266 1.00D-06 EigRej= -1.00D+00 NBFU=  1266
 ExpMin= 1.22D-01 ExpMax= 2.27D+03 ExpMxC= 3.41D+02 IAcc=3 IRadAn=         5 AccDes= 0.00D+00
 Harris functional with IExCor=  402 and IRadAn=       5 diagonalized for initial guess.
 HarFok:  IExCor=  402 AccDes= 0.00D+00 IRadAn=         5 IDoV= 1 UseB2=F ITyADJ=14
 ICtDFT=  3500011 ScaDFX=  1.000000  1.000000  1.000000  1.000000
 FoFCou: FMM=F IPFlag=           0 FMFlag=      100000 FMFlg1=        2001
         NFxFlg=           0 DoJE=T BraDBF=F KetDBF=T FulRan=T
         wScrn=  0.000000 ICntrl=       500 IOpCl=  0 I1Cent=   200000004 NGrid=           0
         NMat0=    1 NMatS0=      1 NMatT0=    0 NMatD0=    1 NMtDS0=    0 NMtDT0=    0
 Petite list used in FoFCou.
 Requested convergence on RMS density matrix=1.00D-08 within 128 cycles.
 Requested convergence on MAX density matrix=1.00D-06.
 Requested convergence on             energy=1.00D-06.
 No special actions if energy rises.
 Integral accuracy reduced to 1.0D-05 until final iterations.
 Initial convergence to 1.0D-05 achieved.  Increase integral accuracy.
 SCF Done:  E(RB3LYP) =  -2732.93205345     A.U. after   17 cycles
            NFock= 17  Conv=0.60D-08     -V/T= 2.0115
 DoSCS=F DFT=T ScalE2(SS,OS)=  1.000000  1.000000
 ExpMin= 1.22D-01 ExpMax= 2.27D+03 ExpMxC= 3.41D+02 IAcc=3 IRadAn=         5 AccDes= 0.00D+00
 HarFok:  IExCor=  205 AccDes= 0.00D+00 IRadAn=         5 IDoV=-2 UseB2=F ITyADJ=14
 ICtDFT= 12500011 ScaDFX=  1.000000  1.000000  1.000000  1.000000
 GSVD:  LWork=       -4608 too small for GESVD, short by       21440 words or       21440 for optimal perf.
 Range of M.O.s used for correlation:    65  1266
 NBasis=  1266 NAE=   236 NBE=   236 NFC=    64 NFV=     0
 NROrb=   1202 NOA=   172 NOB=   172 NVA=  1030 NVB=  1030

 **** Warning!!: The smallest alpha delta epsilon is  0.83565672D-01

 Orbital symmetries:
       Occupied  (A) (A) (A) (A) (A) (A) (A) (A) (A) (A) (A) (A)
                 (A) (A) (A) (A) (A) (A) (A) (A) (A) (A) (A) (A)
                 (A) (A) (A) (A) (A) (A) (A) (A) (A) (A) (A) (A)
                 (A) (A) (A) (A) (A) (A) (A) (A) (A) (A) (A) (A)
                 (A) (A) (A) (A) (A) (A) (A) (A) (A) (A) (A) (A)
                 (A) (A) (A) (A) (A) (A) (A) (A) (A) (A) (A) (A)
                 (A) (A) (A) (A) (A) (A) (A) (A) (A) (A) (A) (A)
                 (A) (A) (A) (A) (A) (A) (A) (A) (A) (A) (A) (A)
                 (A) (A) (A) (A) (A) (A) (A) (A) (A) (A) (A) (A)
                 (A) (A) (A) (A) (A) (A) (A) (A) (A) (A) (A) (A)
                 (A) (A) (A) (A) (A) (A) (A) (A) (A) (A) (A) (A)
                 (A) (A) (A) (A) (A) (A) (A) (A) (A) (A) (A) (A)
                 (A) (A) (A) (A) (A) (A) (A) (A) (A) (A) (A) (A)
                 (A) (A) (A) (A) (A) (A) (A) (A) (A) (A) (A) (A)
                 (A) (A) (A) (A) (A) (A) (A) (A) (A) (A) (A) (A)
                 (A) (A) (A) (A) (A) (A) (A) (A) (A) (A) (A) (A)
                 (A) (A) (A) (A) (A) (A) (A) (A) (A) (A) (A) (A)
                 (A) (A) (A) (A) (A) (A) (A) (A) (A) (A) (A) (A)
                 (A) (A) (A) (A) (A) (A) (A) (A) (A) (A) (A) (A)
                 (A) (A) (A) (A) (A) (A) (A) (A)
       Virtual   (A) (A) (A) (A) (A) (A) (A) (A) (A) (A) (A) (A)
                 (A) (A) (A) (A) (A) (A) (A) (A) (A) (A) (A) (A)
                 (A) (A) (A) (A) (A) (A) (A) (A) (A) (A) (A) (A)
                 (A) (A) (A) (A) (A) (A) (A) (A) (A) (A) (A) (A)
                 (A) (A) (A) (A) (A) (A) (A) (A) (A) (A) (A) (A)
                 (A) (A) (A) (A) (A) (A) (A) (A) (A) (A) (A) (A)
                 (A) (A) (A) (A) (A) (A) (A) (A) (A) (A) (A) (A)
                 (A) (A) (A) (A) (A) (A) (A) (A) (A) (A) (A) (A)
                 (A) (A) (A) (A) (A) (A) (A) (A) (A) (A) (A) (A)
                 (A) (A) (A) (A) (A) (A) (A) (A) (A) (A) (A) (A)
                 (A) (A) (A) (A) (A) (A) (A) (A) (A) (A) (A) (A)
                 (A) (A) (A) (A) (A) (A) (A) (A) (A) (A) (A) (A)
                 (A) (A) (A) (A) (A) (A) (A) (A) (A) (A) (A) (A)
                 (A) (A) (A) (A) (A) (A) (A) (A) (A) (A) (A) (A)
                 (A) (A) (A) (A) (A) (A) (A) (A) (A) (A) (A) (A)
                 (A) (A) (A) (A) (A) (A) (A) (A) (A) (A) (A) (A)
                 (A) (A) (A) (A) (A) (A) (A) (A) (A) (A) (A) (A)
                 (A) (A) (A) (A) (A) (A) (A) (A) (A) (A) (A) (A)
                 (A) (A) (A) (A) (A) (A) (A) (A) (A) (A) (A) (A)
                 (A) (A) (A) (A) (A) (A) (A) (A) (A) (A) (A) (A)
                 (A) (A) (A) (A) (A) (A) (A) (A) (A) (A) (A) (A)
                 (A) (A) (A) (A) (A) (A) (A) (A) (A) (A) (A) (A)
                 (A) (A) (A) (A) (A) (A) (A) (A) (A) (A) (A) (A)
                 (A) (A) (A) (A) (A) (A) (A) (A) (A) (A) (A) (A)
                 (A) (A) (A) (A) (A) (A) (A) (A) (A) (A) (A) (A)
                 (A) (A) (A) (A) (A) (A) (A) (A) (A) (A) (A) (A)
                 (A) (A) (A) (A) (A) (A) (A) (A) (A) (A) (A) (A)
                 (A) (A) (A) (A) (A) (A) (A) (A) (A) (A) (A) (A)
                 (A) (A) (A) (A) (A) (A) (A) (A) (A) (A) (A) (A)
                 (A) (A) (A) (A) (A) (A) (A) (A) (A) (A) (A) (A)
                 (A) (A) (A) (A) (A) (A) (A) (A) (A) (A) (A) (A)
                 (A) (A) (A) (A) (A) (A) (A) (A) (A) (A) (A) (A)
                 (A) (A) (A) (A) (A) (A) (A) (A) (A) (A) (A) (A)
                 (A) (A) (A) (A) (A) (A) (A) (A) (A) (A) (A) (A)
                 (A) (A) (A) (A) (A) (A) (A) (A) (A) (A) (A) (A)
                 (A) (A) (A) (A) (A) (A) (A) (A) (A) (A) (A) (A)
                 (A) (A) (A) (A) (A) (A) (A) (A) (A) (A) (A) (A)
                 (A) (A) (A) (A) (A) (A) (A) (A) (A) (A) (A) (A)
                 (A) (A) (A) (A) (A) (A) (A) (A) (A) (A) (A) (A)
                 (A) (A) (A) (A) (A) (A) (A) (A) (A) (A) (A) (A)
                 (A) (A) (A) (A) (A) (A) (A) (A) (A) (A) (A) (A)
                 (A) (A) (A) (A) (A) (A) (A) (A) (A) (A) (A) (A)
                 (A) (A) (A) (A) (A) (A) (A) (A) (A) (A) (A) (A)
                 (A) (A) (A) (A) (A) (A) (A) (A) (A) (A) (A) (A)
                 (A) (A) (A) (A) (A) (A) (A) (A) (A) (A) (A) (A)
                 (A) (A) (A) (A) (A) (A) (A) (A) (A) (A) (A) (A)
                 (A) (A) (A) (A) (A) (A) (A) (A) (A) (A) (A) (A)
                 (A) (A) (A) (A) (A) (A) (A) (A) (A) (A) (A) (A)
                 (A) (A) (A) (A) (A) (A) (A) (A) (A) (A) (A) (A)
                 (A) (A) (A) (A) (A) (A) (A) (A) (A) (A) (A) (A)
                 (A) (A) (A) (A) (A) (A) (A) (A) (A) (A) (A) (A)
                 (A) (A) (A) (A) (A) (A) (A) (A) (A) (A) (A) (A)
                 (A) (A) (A) (A) (A) (A) (A) (A) (A) (A) (A) (A)
                 (A) (A) (A) (A) (A) (A) (A) (A) (A) (A) (A) (A)
                 (A) (A) (A) (A) (A) (A) (A) (A) (A) (A) (A) (A)
                 (A) (A) (A) (A) (A) (A) (A) (A) (A) (A) (A) (A)
                 (A) (A) (A) (A) (A) (A) (A) (A) (A) (A) (A) (A)
                 (A) (A) (A) (A) (A) (A) (A) (A) (A) (A) (A) (A)
                 (A) (A) (A) (A) (A) (A) (A) (A) (A) (A) (A) (A)
                 (A) (A) (A) (A) (A) (A) (A) (A) (A) (A) (A) (A)
                 (A) (A) (A) (A) (A) (A) (A) (A) (A) (A) (A) (A)
                 (A) (A) (A) (A) (A) (A) (A) (A) (A) (A) (A) (A)
                 (A) (A) (A) (A) (A) (A) (A) (A) (A) (A) (A) (A)
                 (A) (A) (A) (A) (A) (A) (A) (A) (A) (A) (A) (A)
                 (A) (A) (A) (A) (A) (A) (A) (A) (A) (A) (A) (A)
                 (A) (A) (A) (A) (A) (A) (A) (A) (A) (A) (A) (A)
                 (A) (A) (A) (A) (A) (A) (A) (A) (A) (A) (A) (A)
                 (A) (A) (A) (A) (A) (A) (A) (A) (A) (A) (A) (A)
                 (A) (A) (A) (A) (A) (A) (A) (A) (A) (A) (A) (A)
                 (A) (A) (A) (A) (A) (A) (A) (A) (A) (A) (A) (A)
                 (A) (A) (A) (A) (A) (A) (A) (A) (A) (A) (A) (A)
                 (A) (A) (A) (A) (A) (A) (A) (A) (A) (A) (A) (A)
                 (A) (A) (A) (A) (A) (A) (A) (A) (A) (A) (A) (A)
                 (A) (A) (A) (A) (A) (A) (A) (A) (A) (A) (A) (A)
                 (A) (A) (A) (A) (A) (A) (A) (A) (A) (A) (A) (A)
                 (A) (A) (A) (A) (A) (A) (A) (A) (A) (A) (A) (A)
                 (A) (A) (A) (A) (A) (A) (A) (A) (A) (A) (A) (A)
                 (A) (A) (A) (A) (A) (A) (A) (A) (A) (A) (A) (A)
                 (A) (A) (A) (A) (A) (A) (A) (A) (A) (A) (A) (A)
                 (A) (A) (A) (A) (A) (A) (A) (A) (A) (A) (A) (A)
                 (A) (A) (A) (A) (A) (A) (A) (A) (A) (A) (A) (A)
                 (A) (A) (A) (A) (A) (A) (A) (A) (A) (A) (A) (A)
                 (A) (A) (A) (A) (A) (A) (A) (A) (A) (A) (A) (A)
                 (A) (A) (A) (A) (A) (A) (A) (A) (A) (A) (A) (A)
                 (A) (A) (A) (A) (A) (A) (A) (A) (A) (A) (A) (A)
                 (A) (A) (A) (A) (A) (A) (A) (A) (A) (A)
     4 initial guesses have been made.
 Convergence on wavefunction:    0.001000000000000
 Iteration     1 Dimension     4 NMult     0 NNew      4
 CISAX will form     4 AO SS matrices at one time.
 Iteration     2 Dimension     6 NMult     4 NNew      2
 Iteration     3 Dimension     8 NMult     6 NNew      2
 Iteration     4 Dimension    10 NMult     8 NNew      2
 Iteration     5 Dimension    12 NMult    10 NNew      2
 Iteration     6 Dimension    14 NMult    12 NNew      2
 Iteration     7 Dimension    16 NMult    14 NNew      2
 ***********************************************************************
 Excited states from <AA,BB:AA,BB> singles matrix:
 ***********************************************************************
 
 Ground to excited state transition densities written to RWF  633
 Ground to excited state transition electric dipole moments (Au):
       state          X           Y           Z        Dip. S.      Osc.
         1        -0.3490      2.0497      0.1985      4.3626      0.2151
 Ground to excited state transition velocity dipole moments (Au):
       state          X           Y           Z        Dip. S.      Osc.
         1         0.0237     -0.1481     -0.0151      0.0227      0.2047
 Ground to excited state transition magnetic dipole moments (Au):
       state          X           Y           Z
         1        -0.2031     -0.3519      2.7643
 Ground to excited state transition velocity quadrupole moments (Au):
       state          XX          YY          ZZ          XY          XZ          YZ
         1        -0.4917     -0.3334     -0.0160      2.0053      0.1905     -0.0901
 <0|del|b> * <b|rxdel|0> + <0|del|b> * <b|delr+rdel|0>
 Rotatory Strengths (R) in cgs (10**-40 erg-esu-cm/Gauss)
       state          XX          YY          ZZ    R(velocity)    E-M Angle
         1        39.7545    -88.0141    101.4163     17.7189       89.24
 1/2[<0|r|b>*<b|rxdel|0> + (<0|rxdel|b>*<b|r|0>)*]
 Rotatory Strengths (R) in cgs (10**-40 erg-esu-cm/Gauss)
       state          XX          YY          ZZ     R(length)
         1       -50.1336    510.0711   -387.9542     23.9945
  1/2[<0|del|b>*<b|r|0> + (<0|r|b>*<b|del|0>)*] (Au)
       state          X           Y           Z        Dip. S.   Osc.(frdel)
         1        -0.0083     -0.3035     -0.0030      0.3148      0.2098

 Excitation energies and oscillator strengths:
 
 Excited State   1:      Singlet-A      2.0126 eV  616.03 nm  f=0.2151  <S**2>=0.000
     235 -> 238        0.27338
     236 -> 237        0.64621
 This state for optimization and/or second-order correction.
 Total Energy, E(TD-HF/TD-DFT) =  -2732.85809092    
 Copying the excited state density for this state as the 1-particle RhoCI density.
 SavETr:  write IOETrn=   770 NScale= 10 NData=  16 NLR=1 NState=    1 LETran=      28.
 Hyperfine terms turned off by default for NAtoms > 100.

 **********************************************************************

            Population analysis using the SCF density.

 **********************************************************************

 Orbital symmetries:
       Occupied  (A) (A) (A) (A) (A) (A) (A) (A) (A) (A) (A) (A)
                 (A) (A) (A) (A) (A) (A) (A) (A) (A) (A) (A) (A)
                 (A) (A) (A) (A) (A) (A) (A) (A) (A) (A) (A) (A)
                 (A) (A) (A) (A) (A) (A) (A) (A) (A) (A) (A) (A)
                 (A) (A) (A) (A) (A) (A) (A) (A) (A) (A) (A) (A)
                 (A) (A) (A) (A) (A) (A) (A) (A) (A) (A) (A) (A)
                 (A) (A) (A) (A) (A) (A) (A) (A) (A) (A) (A) (A)
                 (A) (A) (A) (A) (A) (A) (A) (A) (A) (A) (A) (A)
                 (A) (A) (A) (A) (A) (A) (A) (A) (A) (A) (A) (A)
                 (A) (A) (A) (A) (A) (A) (A) (A) (A) (A) (A) (A)
                 (A) (A) (A) (A) (A) (A) (A) (A) (A) (A) (A) (A)
                 (A) (A) (A) (A) (A) (A) (A) (A) (A) (A) (A) (A)
                 (A) (A) (A) (A) (A) (A) (A) (A) (A) (A) (A) (A)
                 (A) (A) (A) (A) (A) (A) (A) (A) (A) (A) (A) (A)
                 (A) (A) (A) (A) (A) (A) (A) (A) (A) (A) (A) (A)
                 (A) (A) (A) (A) (A) (A) (A) (A) (A) (A) (A) (A)
                 (A) (A) (A) (A) (A) (A) (A) (A) (A) (A) (A) (A)
                 (A) (A) (A) (A) (A) (A) (A) (A) (A) (A) (A) (A)
                 (A) (A) (A) (A) (A) (A) (A) (A) (A) (A) (A) (A)
                 (A) (A) (A) (A) (A) (A) (A) (A)
       Virtual   (A) (A) (A) (A) (A) (A) (A) (A) (A) (A) (A) (A)
                 (A) (A) (A) (A) (A) (A) (A) (A) (A) (A) (A) (A)
                 (A) (A) (A) (A) (A) (A) (A) (A) (A) (A) (A) (A)
                 (A) (A) (A) (A) (A) (A) (A) (A) (A) (A) (A) (A)
                 (A) (A) (A) (A) (A) (A) (A) (A) (A) (A) (A) (A)
                 (A) (A) (A) (A) (A) (A) (A) (A) (A) (A) (A) (A)
                 (A) (A) (A) (A) (A) (A) (A) (A) (A) (A) (A) (A)
                 (A) (A) (A) (A) (A) (A) (A) (A) (A) (A) (A) (A)
                 (A) (A) (A) (A) (A) (A) (A) (A) (A) (A) (A) (A)
                 (A) (A) (A) (A) (A) (A) (A) (A) (A) (A) (A) (A)
                 (A) (A) (A) (A) (A) (A) (A) (A) (A) (A) (A) (A)
                 (A) (A) (A) (A) (A) (A) (A) (A) (A) (A) (A) (A)
                 (A) (A) (A) (A) (A) (A) (A) (A) (A) (A) (A) (A)
                 (A) (A) (A) (A) (A) (A) (A) (A) (A) (A) (A) (A)
                 (A) (A) (A) (A) (A) (A) (A) (A) (A) (A) (A) (A)
                 (A) (A) (A) (A) (A) (A) (A) (A) (A) (A) (A) (A)
                 (A) (A) (A) (A) (A) (A) (A) (A) (A) (A) (A) (A)
                 (A) (A) (A) (A) (A) (A) (A) (A) (A) (A) (A) (A)
                 (A) (A) (A) (A) (A) (A) (A) (A) (A) (A) (A) (A)
                 (A) (A) (A) (A) (A) (A) (A) (A) (A) (A) (A) (A)
                 (A) (A) (A) (A) (A) (A) (A) (A) (A) (A) (A) (A)
                 (A) (A) (A) (A) (A) (A) (A) (A) (A) (A) (A) (A)
                 (A) (A) (A) (A) (A) (A) (A) (A) (A) (A) (A) (A)
                 (A) (A) (A) (A) (A) (A) (A) (A) (A) (A) (A) (A)
                 (A) (A) (A) (A) (A) (A) (A) (A) (A) (A) (A) (A)
                 (A) (A) (A) (A) (A) (A) (A) (A) (A) (A) (A) (A)
                 (A) (A) (A) (A) (A) (A) (A) (A) (A) (A) (A) (A)
                 (A) (A) (A) (A) (A) (A) (A) (A) (A) (A) (A) (A)
                 (A) (A) (A) (A) (A) (A) (A) (A) (A) (A) (A) (A)
                 (A) (A) (A) (A) (A) (A) (A) (A) (A) (A) (A) (A)
                 (A) (A) (A) (A) (A) (A) (A) (A) (A) (A) (A) (A)
                 (A) (A) (A) (A) (A) (A) (A) (A) (A) (A) (A) (A)
                 (A) (A) (A) (A) (A) (A) (A) (A) (A) (A) (A) (A)
                 (A) (A) (A) (A) (A) (A) (A) (A) (A) (A) (A) (A)
                 (A) (A) (A) (A) (A) (A) (A) (A) (A) (A) (A) (A)
                 (A) (A) (A) (A) (A) (A) (A) (A) (A) (A) (A) (A)
                 (A) (A) (A) (A) (A) (A) (A) (A) (A) (A) (A) (A)
                 (A) (A) (A) (A) (A) (A) (A) (A) (A) (A) (A) (A)
                 (A) (A) (A) (A) (A) (A) (A) (A) (A) (A) (A) (A)
                 (A) (A) (A) (A) (A) (A) (A) (A) (A) (A) (A) (A)
                 (A) (A) (A) (A) (A) (A) (A) (A) (A) (A) (A) (A)
                 (A) (A) (A) (A) (A) (A) (A) (A) (A) (A) (A) (A)
                 (A) (A) (A) (A) (A) (A) (A) (A) (A) (A) (A) (A)
                 (A) (A) (A) (A) (A) (A) (A) (A) (A) (A) (A) (A)
                 (A) (A) (A) (A) (A) (A) (A) (A) (A) (A) (A) (A)
                 (A) (A) (A) (A) (A) (A) (A) (A) (A) (A) (A) (A)
                 (A) (A) (A) (A) (A) (A) (A) (A) (A) (A) (A) (A)
                 (A) (A) (A) (A) (A) (A) (A) (A) (A) (A) (A) (A)
                 (A) (A) (A) (A) (A) (A) (A) (A) (A) (A) (A) (A)
                 (A) (A) (A) (A) (A) (A) (A) (A) (A) (A) (A) (A)
                 (A) (A) (A) (A) (A) (A) (A) (A) (A) (A) (A) (A)
                 (A) (A) (A) (A) (A) (A) (A) (A) (A) (A) (A) (A)
                 (A) (A) (A) (A) (A) (A) (A) (A) (A) (A) (A) (A)
                 (A) (A) (A) (A) (A) (A) (A) (A) (A) (A) (A) (A)
                 (A) (A) (A) (A) (A) (A) (A) (A) (A) (A) (A) (A)
                 (A) (A) (A) (A) (A) (A) (A) (A) (A) (A) (A) (A)
                 (A) (A) (A) (A) (A) (A) (A) (A) (A) (A) (A) (A)
                 (A) (A) (A) (A) (A) (A) (A) (A) (A) (A) (A) (A)
                 (A) (A) (A) (A) (A) (A) (A) (A) (A) (A) (A) (A)
                 (A) (A) (A) (A) (A) (A) (A) (A) (A) (A) (A) (A)
                 (A) (A) (A) (A) (A) (A) (A) (A) (A) (A) (A) (A)
                 (A) (A) (A) (A) (A) (A) (A) (A) (A) (A) (A) (A)
                 (A) (A) (A) (A) (A) (A) (A) (A) (A) (A) (A) (A)
                 (A) (A) (A) (A) (A) (A) (A) (A) (A) (A) (A) (A)
                 (A) (A) (A) (A) (A) (A) (A) (A) (A) (A) (A) (A)
                 (A) (A) (A) (A) (A) (A) (A) (A) (A) (A) (A) (A)
                 (A) (A) (A) (A) (A) (A) (A) (A) (A) (A) (A) (A)
                 (A) (A) (A) (A) (A) (A) (A) (A) (A) (A) (A) (A)
                 (A) (A) (A) (A) (A) (A) (A) (A) (A) (A) (A) (A)
                 (A) (A) (A) (A) (A) (A) (A) (A) (A) (A) (A) (A)
                 (A) (A) (A) (A) (A) (A) (A) (A) (A) (A) (A) (A)
                 (A) (A) (A) (A) (A) (A) (A) (A) (A) (A) (A) (A)
                 (A) (A) (A) (A) (A) (A) (A) (A) (A) (A) (A) (A)
                 (A) (A) (A) (A) (A) (A) (A) (A) (A) (A) (A) (A)
                 (A) (A) (A) (A) (A) (A) (A) (A) (A) (A) (A) (A)
                 (A) (A) (A) (A) (A) (A) (A) (A) (A) (A) (A) (A)
                 (A) (A) (A) (A) (A) (A) (A) (A) (A) (A) (A) (A)
                 (A) (A) (A) (A) (A) (A) (A) (A) (A) (A) (A) (A)
                 (A) (A) (A) (A) (A) (A) (A) (A) (A) (A) (A) (A)
                 (A) (A) (A) (A) (A) (A) (A) (A) (A) (A) (A) (A)
                 (A) (A) (A) (A) (A) (A) (A) (A) (A) (A) (A) (A)
                 (A) (A) (A) (A) (A) (A) (A) (A) (A) (A) (A) (A)
                 (A) (A) (A) (A) (A) (A) (A) (A) (A) (A) (A) (A)
                 (A) (A) (A) (A) (A) (A) (A) (A) (A) (A) (A) (A)
                 (A) (A) (A) (A) (A) (A) (A) (A) (A) (A) (A) (A)
                 (A) (A) (A) (A) (A) (A) (A) (A) (A) (A)
 The electronic state is 1-A.
 Alpha  occ. eigenvalues --  -19.17973 -19.17660 -19.13736 -19.12560 -19.10522
 Alpha  occ. eigenvalues --  -14.37032 -14.36636 -14.33042 -14.30972 -10.30894
 Alpha  occ. eigenvalues --  -10.30205 -10.28488 -10.26466 -10.24128 -10.23458
 Alpha  occ. eigenvalues --  -10.23453 -10.23328 -10.23326 -10.23067 -10.22695
 Alpha  occ. eigenvalues --  -10.22532 -10.22355 -10.22223 -10.22088 -10.21988
 Alpha  occ. eigenvalues --  -10.21913 -10.21823 -10.21423 -10.21021 -10.20859
 Alpha  occ. eigenvalues --  -10.20795 -10.20698 -10.20331 -10.20275 -10.20239
 Alpha  occ. eigenvalues --  -10.20235 -10.20061 -10.20019 -10.19765 -10.19715
 Alpha  occ. eigenvalues --  -10.19470 -10.19469 -10.19187 -10.19174 -10.19111
 Alpha  occ. eigenvalues --  -10.19000 -10.18983 -10.18860 -10.18819 -10.18691
 Alpha  occ. eigenvalues --  -10.18622 -10.18610 -10.18606 -10.18555 -10.18501
 Alpha  occ. eigenvalues --  -10.18479 -10.18471 -10.18462 -10.18399 -10.18342
 Alpha  occ. eigenvalues --  -10.18337 -10.18278 -10.17827 -10.16864  -1.13516
 Alpha  occ. eigenvalues --   -1.10652  -1.07079  -1.02657  -0.98741  -0.98564
 Alpha  occ. eigenvalues --   -0.97260  -0.93540  -0.91997  -0.84102  -0.82890
 Alpha  occ. eigenvalues --   -0.81810  -0.81458  -0.81415  -0.80946  -0.80743
 Alpha  occ. eigenvalues --   -0.80081  -0.80045  -0.79002  -0.78950  -0.78344
 Alpha  occ. eigenvalues --   -0.77221  -0.76703  -0.75527  -0.75165  -0.74924
 Alpha  occ. eigenvalues --   -0.74446  -0.73270  -0.71711  -0.71319  -0.70300
 Alpha  occ. eigenvalues --   -0.69770  -0.69442  -0.68312  -0.68241  -0.67905
 Alpha  occ. eigenvalues --   -0.66818  -0.66716  -0.65844  -0.65034  -0.64780
 Alpha  occ. eigenvalues --   -0.63933  -0.62656  -0.62560  -0.62054  -0.61460
 Alpha  occ. eigenvalues --   -0.60576  -0.58777  -0.58368  -0.58161  -0.57149
 Alpha  occ. eigenvalues --   -0.56593  -0.56217  -0.56149  -0.55620  -0.55311
 Alpha  occ. eigenvalues --   -0.54994  -0.54390  -0.53901  -0.53682  -0.52691
 Alpha  occ. eigenvalues --   -0.52350  -0.51897  -0.51541  -0.51140  -0.50303
 Alpha  occ. eigenvalues --   -0.49610  -0.49518  -0.48958  -0.48806  -0.48362
 Alpha  occ. eigenvalues --   -0.48275  -0.48041  -0.47679  -0.47365  -0.47118
 Alpha  occ. eigenvalues --   -0.46956  -0.46717  -0.46433  -0.46300  -0.45850
 Alpha  occ. eigenvalues --   -0.45624  -0.45187  -0.44966  -0.44943  -0.44800
 Alpha  occ. eigenvalues --   -0.44507  -0.44438  -0.44401  -0.44068  -0.43846
 Alpha  occ. eigenvalues --   -0.43784  -0.43572  -0.43522  -0.43287  -0.43088
 Alpha  occ. eigenvalues --   -0.42657  -0.42112  -0.41854  -0.41824  -0.41300
 Alpha  occ. eigenvalues --   -0.41257  -0.41039  -0.40882  -0.40768  -0.40688
 Alpha  occ. eigenvalues --   -0.40610  -0.40211  -0.39946  -0.39684  -0.39614
 Alpha  occ. eigenvalues --   -0.39212  -0.39129  -0.38975  -0.38920  -0.38652
 Alpha  occ. eigenvalues --   -0.38585  -0.38320  -0.38242  -0.38020  -0.37722
 Alpha  occ. eigenvalues --   -0.37409  -0.37196  -0.37146  -0.36892  -0.36812
 Alpha  occ. eigenvalues --   -0.36619  -0.36439  -0.35779  -0.35495  -0.35355
 Alpha  occ. eigenvalues --   -0.35013  -0.34913  -0.34774  -0.34543  -0.34429
 Alpha  occ. eigenvalues --   -0.34006  -0.33880  -0.33789  -0.33720  -0.32992
 Alpha  occ. eigenvalues --   -0.32965  -0.32758  -0.32723  -0.32526  -0.32232
 Alpha  occ. eigenvalues --   -0.31950  -0.31812  -0.31656  -0.31348  -0.30974
 Alpha  occ. eigenvalues --   -0.30779  -0.30447  -0.30435  -0.30211  -0.30035
 Alpha  occ. eigenvalues --   -0.29444  -0.28389  -0.28231  -0.27978  -0.27473
 Alpha  occ. eigenvalues --   -0.27351  -0.26744  -0.26692  -0.26405  -0.25858
 Alpha  occ. eigenvalues --   -0.25603  -0.24937  -0.24108  -0.23589  -0.19763
 Alpha  occ. eigenvalues --   -0.18170
 Alpha virt. eigenvalues --   -0.09814  -0.07157  -0.03810  -0.01147  -0.00935
 Alpha virt. eigenvalues --    0.00684   0.01269   0.01719   0.01937   0.02746
 Alpha virt. eigenvalues --    0.03296   0.03801   0.04033   0.04337   0.04528
 Alpha virt. eigenvalues --    0.05066   0.05238   0.05627   0.05657   0.05743
 Alpha virt. eigenvalues --    0.05801   0.06021   0.06109   0.06654   0.06821
 Alpha virt. eigenvalues --    0.06889   0.07137   0.07333   0.07569   0.07884
 Alpha virt. eigenvalues --    0.07969   0.08292   0.08473   0.08763   0.08770
 Alpha virt. eigenvalues --    0.08929   0.09045   0.09321   0.09623   0.09865
 Alpha virt. eigenvalues --    0.09953   0.10007   0.10260   0.10414   0.10519
 Alpha virt. eigenvalues --    0.10642   0.10702   0.11054   0.11149   0.11484
 Alpha virt. eigenvalues --    0.11526   0.11870   0.12079   0.12153   0.12219
 Alpha virt. eigenvalues --    0.12297   0.12662   0.12726   0.12803   0.13033
 Alpha virt. eigenvalues --    0.13116   0.13138   0.13194   0.13664   0.13870
 Alpha virt. eigenvalues --    0.14027   0.14199   0.14560   0.14624   0.14810
 Alpha virt. eigenvalues --    0.15003   0.15326   0.15488   0.15629   0.15850
 Alpha virt. eigenvalues --    0.15881   0.16191   0.16288   0.16354   0.16398
 Alpha virt. eigenvalues --    0.16496   0.16711   0.17084   0.17120   0.17375
 Alpha virt. eigenvalues --    0.17727   0.18005   0.18178   0.18581   0.18713
 Alpha virt. eigenvalues --    0.19062   0.19174   0.19475   0.19634   0.19920
 Alpha virt. eigenvalues --    0.20319   0.20551   0.20618   0.20663   0.20747
 Alpha virt. eigenvalues --    0.21095   0.21459   0.21543   0.21771   0.21856
 Alpha virt. eigenvalues --    0.22237   0.22289   0.22880   0.23330   0.23554
 Alpha virt. eigenvalues --    0.23857   0.23993   0.24193   0.24262   0.24579
 Alpha virt. eigenvalues --    0.24774   0.24920   0.25215   0.25297   0.25505
 Alpha virt. eigenvalues --    0.25763   0.26234   0.26654   0.26794   0.27303
 Alpha virt. eigenvalues --    0.27574   0.27893   0.28338   0.28685   0.28965
 Alpha virt. eigenvalues --    0.29174   0.30037   0.30577   0.30926   0.31173
 Alpha virt. eigenvalues --    0.31499   0.32378   0.32780   0.32846   0.33290
 Alpha virt. eigenvalues --    0.33485   0.33661   0.34459   0.34865   0.35260
 Alpha virt. eigenvalues --    0.35764   0.35901   0.36136   0.36311   0.36674
 Alpha virt. eigenvalues --    0.37220   0.37533   0.38082   0.38415   0.38509
 Alpha virt. eigenvalues --    0.38709   0.39082   0.39411   0.39629   0.39887
 Alpha virt. eigenvalues --    0.40238   0.40724   0.40863   0.41214   0.41275
 Alpha virt. eigenvalues --    0.41414   0.41924   0.42261   0.42320   0.42402
 Alpha virt. eigenvalues --    0.42529   0.42579   0.42851   0.43173   0.43329
 Alpha virt. eigenvalues --    0.43407   0.43797   0.44053   0.44258   0.44479
 Alpha virt. eigenvalues --    0.44988   0.45026   0.45161   0.45406   0.45598
 Alpha virt. eigenvalues --    0.45804   0.46176   0.46324   0.46612   0.46683
 Alpha virt. eigenvalues --    0.47131   0.47229   0.47402   0.47492   0.47618
 Alpha virt. eigenvalues --    0.47917   0.48017   0.48202   0.48720   0.49155
 Alpha virt. eigenvalues --    0.49260   0.49598   0.49688   0.49900   0.50087
 Alpha virt. eigenvalues --    0.50397   0.50489   0.50614   0.50711   0.51217
 Alpha virt. eigenvalues --    0.51496   0.51803   0.51895   0.52464   0.52641
 Alpha virt. eigenvalues --    0.52819   0.53067   0.53237   0.53322   0.54189
 Alpha virt. eigenvalues --    0.54225   0.54338   0.54693   0.54840   0.55086
 Alpha virt. eigenvalues --    0.55225   0.55710   0.55798   0.55996   0.56042
 Alpha virt. eigenvalues --    0.56315   0.56383   0.56627   0.56869   0.56926
 Alpha virt. eigenvalues --    0.57138   0.57297   0.57476   0.57598   0.57992
 Alpha virt. eigenvalues --    0.58077   0.58291   0.58507   0.58735   0.58967
 Alpha virt. eigenvalues --    0.59106   0.59303   0.59491   0.59574   0.59665
 Alpha virt. eigenvalues --    0.60035   0.60351   0.60546   0.60655   0.60891
 Alpha virt. eigenvalues --    0.61297   0.61353   0.61476   0.61516   0.61651
 Alpha virt. eigenvalues --    0.61962   0.62065   0.62328   0.62446   0.62627
 Alpha virt. eigenvalues --    0.62799   0.62946   0.63094   0.63145   0.63399
 Alpha virt. eigenvalues --    0.63542   0.63626   0.63753   0.63812   0.63921
 Alpha virt. eigenvalues --    0.64020   0.64094   0.64144   0.64419   0.64542
 Alpha virt. eigenvalues --    0.64688   0.64940   0.65034   0.65233   0.65321
 Alpha virt. eigenvalues --    0.65379   0.65565   0.65965   0.66220   0.66301
 Alpha virt. eigenvalues --    0.66352   0.66483   0.66522   0.66601   0.66866
 Alpha virt. eigenvalues --    0.66978   0.67124   0.67304   0.67477   0.67498
 Alpha virt. eigenvalues --    0.67645   0.67790   0.67927   0.68016   0.68286
 Alpha virt. eigenvalues --    0.68522   0.68619   0.68704   0.68780   0.68940
 Alpha virt. eigenvalues --    0.69258   0.69331   0.69557   0.69747   0.69774
 Alpha virt. eigenvalues --    0.69932   0.70056   0.70289   0.70402   0.70542
 Alpha virt. eigenvalues --    0.70756   0.70814   0.70857   0.70910   0.71134
 Alpha virt. eigenvalues --    0.71252   0.71520   0.71664   0.71778   0.72030
 Alpha virt. eigenvalues --    0.72058   0.72251   0.72435   0.72627   0.72745
 Alpha virt. eigenvalues --    0.72952   0.73147   0.73183   0.73276   0.73639
 Alpha virt. eigenvalues --    0.73794   0.74056   0.74125   0.74167   0.74478
 Alpha virt. eigenvalues --    0.74574   0.74664   0.75017   0.75160   0.75257
 Alpha virt. eigenvalues --    0.75577   0.75730   0.76036   0.76111   0.76253
 Alpha virt. eigenvalues --    0.76481   0.76541   0.77040   0.77165   0.77467
 Alpha virt. eigenvalues --    0.77765   0.78066   0.78116   0.78319   0.78906
 Alpha virt. eigenvalues --    0.78980   0.79220   0.79391   0.79504   0.79875
 Alpha virt. eigenvalues --    0.79926   0.80622   0.80850   0.81100   0.81624
 Alpha virt. eigenvalues --    0.81773   0.82181   0.82986   0.83755   0.84163
 Alpha virt. eigenvalues --    0.84239   0.84695   0.84844   0.85118   0.85354
 Alpha virt. eigenvalues --    0.86150   0.87063   0.87339   0.87725   0.88227
 Alpha virt. eigenvalues --    0.88432   0.88483   0.89389   0.89439   0.90055
 Alpha virt. eigenvalues --    0.90523   0.91492   0.91582   0.91795   0.92088
 Alpha virt. eigenvalues --    0.92485   0.93636   0.93810   0.94053   0.94774
 Alpha virt. eigenvalues --    0.94959   0.95076   0.96000   0.96047   0.96888
 Alpha virt. eigenvalues --    0.97303   0.97896   0.98063   0.98536   0.98833
 Alpha virt. eigenvalues --    0.99120   0.99955   1.00533   1.01024   1.01159
 Alpha virt. eigenvalues --    1.01669   1.01734   1.02417   1.02871   1.02922
 Alpha virt. eigenvalues --    1.03374   1.03900   1.04133   1.04797   1.05053
 Alpha virt. eigenvalues --    1.05281   1.06049   1.06287   1.07550   1.08044
 Alpha virt. eigenvalues --    1.08177   1.08338   1.08759   1.08917   1.09143
 Alpha virt. eigenvalues --    1.09690   1.09974   1.10910   1.10932   1.11501
 Alpha virt. eigenvalues --    1.12212   1.13041   1.13141   1.13586   1.14311
 Alpha virt. eigenvalues --    1.14539   1.14706   1.14889   1.15169   1.15328
 Alpha virt. eigenvalues --    1.16735   1.17002   1.17601   1.18600   1.18743
 Alpha virt. eigenvalues --    1.18991   1.19692   1.20204   1.20470   1.20706
 Alpha virt. eigenvalues --    1.21612   1.21878   1.22181   1.22285   1.22864
 Alpha virt. eigenvalues --    1.23518   1.23821   1.24492   1.25031   1.25260
 Alpha virt. eigenvalues --    1.26226   1.26290   1.26434   1.26636   1.27674
 Alpha virt. eigenvalues --    1.27875   1.28469   1.28584   1.28805   1.29297
 Alpha virt. eigenvalues --    1.29617   1.29762   1.29807   1.30056   1.30355
 Alpha virt. eigenvalues --    1.31271   1.31509   1.32248   1.32891   1.32957
 Alpha virt. eigenvalues --    1.33146   1.33583   1.33932   1.34204   1.34501
 Alpha virt. eigenvalues --    1.35296   1.35901   1.35987   1.36304   1.36604
 Alpha virt. eigenvalues --    1.37000   1.38003   1.38111   1.38404   1.38493
 Alpha virt. eigenvalues --    1.39201   1.39848   1.40078   1.40686   1.40715
 Alpha virt. eigenvalues --    1.41370   1.42068   1.42398   1.42783   1.42860
 Alpha virt. eigenvalues --    1.43082   1.43709   1.44815   1.44992   1.45935
 Alpha virt. eigenvalues --    1.46686   1.47024   1.47203   1.47317   1.47621
 Alpha virt. eigenvalues --    1.47818   1.47863   1.48192   1.48604   1.48948
 Alpha virt. eigenvalues --    1.49261   1.49786   1.49891   1.50294   1.50797
 Alpha virt. eigenvalues --    1.50966   1.51150   1.51680   1.51739   1.52659
 Alpha virt. eigenvalues --    1.53031   1.53047   1.53167   1.53260   1.53400
 Alpha virt. eigenvalues --    1.53600   1.54048   1.54744   1.54918   1.55261
 Alpha virt. eigenvalues --    1.55298   1.55699   1.56352   1.56465   1.56772
 Alpha virt. eigenvalues --    1.57219   1.57553   1.58375   1.58800   1.58881
 Alpha virt. eigenvalues --    1.59673   1.59854   1.60567   1.61212   1.61450
 Alpha virt. eigenvalues --    1.61742   1.62304   1.62793   1.62983   1.63291
 Alpha virt. eigenvalues --    1.63752   1.63852   1.63949   1.63991   1.64568
 Alpha virt. eigenvalues --    1.64978   1.65121   1.65733   1.65958   1.66298
 Alpha virt. eigenvalues --    1.66538   1.67117   1.67185   1.67660   1.68092
 Alpha virt. eigenvalues --    1.68210   1.68263   1.68295   1.68871   1.68893
 Alpha virt. eigenvalues --    1.69297   1.69738   1.69959   1.70126   1.70682
 Alpha virt. eigenvalues --    1.70746   1.70886   1.71292   1.71539   1.71612
 Alpha virt. eigenvalues --    1.71882   1.71976   1.72332   1.72497   1.72694
 Alpha virt. eigenvalues --    1.73065   1.73120   1.73323   1.73548   1.74214
 Alpha virt. eigenvalues --    1.74338   1.74628   1.74694   1.74976   1.75181
 Alpha virt. eigenvalues --    1.75604   1.75684   1.75831   1.75971   1.76156
 Alpha virt. eigenvalues --    1.76439   1.76588   1.76802   1.76851   1.77198
 Alpha virt. eigenvalues --    1.77650   1.77806   1.78138   1.78455   1.78776
 Alpha virt. eigenvalues --    1.78807   1.79081   1.79087   1.79339   1.79541
 Alpha virt. eigenvalues --    1.79762   1.80241   1.80288   1.80526   1.80680
 Alpha virt. eigenvalues --    1.80799   1.81018   1.81164   1.81474   1.81652
 Alpha virt. eigenvalues --    1.81848   1.82239   1.82370   1.82807   1.82889
 Alpha virt. eigenvalues --    1.83009   1.83189   1.83965   1.84207   1.84384
 Alpha virt. eigenvalues --    1.84671   1.84970   1.85079   1.85175   1.85462
 Alpha virt. eigenvalues --    1.85589   1.85734   1.85772   1.86002   1.86146
 Alpha virt. eigenvalues --    1.86575   1.86846   1.87139   1.87261   1.87560
 Alpha virt. eigenvalues --    1.87776   1.87980   1.88514   1.88622   1.88822
 Alpha virt. eigenvalues --    1.89227   1.89435   1.89624   1.89766   1.89909
 Alpha virt. eigenvalues --    1.90001   1.90195   1.90317   1.90499   1.91261
 Alpha virt. eigenvalues --    1.91465   1.91761   1.91956   1.92203   1.92248
 Alpha virt. eigenvalues --    1.92518   1.92746   1.93218   1.93731   1.93834
 Alpha virt. eigenvalues --    1.94144   1.94191   1.94270   1.94662   1.94699
 Alpha virt. eigenvalues --    1.95485   1.95713   1.96526   1.96740   1.96894
 Alpha virt. eigenvalues --    1.96982   1.97313   1.97376   1.97574   1.97607
 Alpha virt. eigenvalues --    1.97786   1.98050   1.98426   1.98609   1.98715
 Alpha virt. eigenvalues --    1.98935   1.99145   1.99381   1.99844   2.00086
 Alpha virt. eigenvalues --    2.00306   2.00611   2.01061   2.01379   2.01451
 Alpha virt. eigenvalues --    2.01556   2.01815   2.02206   2.02805   2.03295
 Alpha virt. eigenvalues --    2.03430   2.03860   2.04301   2.04511   2.04885
 Alpha virt. eigenvalues --    2.05345   2.05789   2.05869   2.06242   2.06572
 Alpha virt. eigenvalues --    2.06754   2.06928   2.07846   2.08116   2.08675
 Alpha virt. eigenvalues --    2.08835   2.08982   2.09371   2.10145   2.10595
 Alpha virt. eigenvalues --    2.10674   2.11094   2.11216   2.11295   2.11513
 Alpha virt. eigenvalues --    2.12296   2.12690   2.12998   2.13088   2.13573
 Alpha virt. eigenvalues --    2.14370   2.14624   2.14863   2.15228   2.15891
 Alpha virt. eigenvalues --    2.16232   2.16725   2.16759   2.16959   2.17301
 Alpha virt. eigenvalues --    2.17843   2.18157   2.18541   2.18641   2.18875
 Alpha virt. eigenvalues --    2.19074   2.19984   2.20146   2.20989   2.21190
 Alpha virt. eigenvalues --    2.21235   2.21513   2.22373   2.22573   2.22742
 Alpha virt. eigenvalues --    2.23399   2.24002   2.24080   2.24728   2.24852
 Alpha virt. eigenvalues --    2.25442   2.25591   2.25825   2.26385   2.26672
 Alpha virt. eigenvalues --    2.27434   2.27596   2.28546   2.28714   2.28963
 Alpha virt. eigenvalues --    2.29365   2.29754   2.30381   2.30738   2.30954
 Alpha virt. eigenvalues --    2.31562   2.32210   2.32255   2.32498   2.32817
 Alpha virt. eigenvalues --    2.33260   2.33282   2.33816   2.34451   2.35089
 Alpha virt. eigenvalues --    2.35275   2.35849   2.35961   2.36043   2.36400
 Alpha virt. eigenvalues --    2.36742   2.37255   2.37796   2.38192   2.38395
 Alpha virt. eigenvalues --    2.39074   2.39354   2.39671   2.39888   2.40656
 Alpha virt. eigenvalues --    2.40883   2.41221   2.41402   2.41496   2.42001
 Alpha virt. eigenvalues --    2.42233   2.42812   2.43011   2.43331   2.43986
 Alpha virt. eigenvalues --    2.44209   2.44347   2.44854   2.45115   2.46301
 Alpha virt. eigenvalues --    2.46496   2.47071   2.47310   2.47750   2.48344
 Alpha virt. eigenvalues --    2.48655   2.48717   2.49073   2.49966   2.50373
 Alpha virt. eigenvalues --    2.50455   2.51117   2.51183   2.51394   2.51618
 Alpha virt. eigenvalues --    2.51965   2.52204   2.52814   2.53279   2.54002
 Alpha virt. eigenvalues --    2.54120   2.54511   2.55025   2.55745   2.55979
 Alpha virt. eigenvalues --    2.56062   2.57105   2.57282   2.57630   2.58048
 Alpha virt. eigenvalues --    2.58771   2.59069   2.59881   2.60024   2.60291
 Alpha virt. eigenvalues --    2.60948   2.61394   2.61839   2.62249   2.62764
 Alpha virt. eigenvalues --    2.63284   2.63516   2.63993   2.64416   2.64706
 Alpha virt. eigenvalues --    2.64786   2.65257   2.65688   2.65867   2.66286
 Alpha virt. eigenvalues --    2.66830   2.67317   2.67699   2.68195   2.68890
 Alpha virt. eigenvalues --    2.69454   2.69493   2.69622   2.70563   2.70789
 Alpha virt. eigenvalues --    2.71083   2.71294   2.72251   2.72416   2.72898
 Alpha virt. eigenvalues --    2.73065   2.73439   2.74119   2.74397   2.76014
 Alpha virt. eigenvalues --    2.76210   2.76553   2.77186   2.78418   2.79029
 Alpha virt. eigenvalues --    2.79116   2.79344   2.79588   2.80274   2.80520
 Alpha virt. eigenvalues --    2.80572   2.81388   2.81640   2.82695   2.83085
 Alpha virt. eigenvalues --    2.83113   2.83494   2.83747   2.84503   2.84879
 Alpha virt. eigenvalues --    2.85000   2.85045   2.85504   2.85542   2.85892
 Alpha virt. eigenvalues --    2.86538   2.87152   2.87663   2.87824   2.88470
 Alpha virt. eigenvalues --    2.89809   2.90034   2.90723   2.91231   2.91472
 Alpha virt. eigenvalues --    2.91693   2.92079   2.92895   2.93038   2.93493
 Alpha virt. eigenvalues --    2.93795   2.94026   2.94392   2.94927   2.95318
 Alpha virt. eigenvalues --    2.95357   2.96901   2.97120   2.97274   2.97988
 Alpha virt. eigenvalues --    2.97999   2.98288   2.98763   2.99035   2.99542
 Alpha virt. eigenvalues --    2.99917   3.00298   3.01011   3.01078   3.01275
 Alpha virt. eigenvalues --    3.01729   3.02660   3.03642   3.05259   3.05352
 Alpha virt. eigenvalues --    3.06010   3.06133   3.07126   3.07881   3.08784
 Alpha virt. eigenvalues --    3.09769   3.10450   3.12236   3.12725   3.13317
 Alpha virt. eigenvalues --    3.13905   3.13999   3.14837   3.15145   3.15953
 Alpha virt. eigenvalues --    3.16745   3.17485   3.17728   3.19447   3.21221
 Alpha virt. eigenvalues --    3.21820   3.21938   3.23478   3.25367   3.25885
 Alpha virt. eigenvalues --    3.29600   3.30614   3.32334   3.33041   3.36762
 Alpha virt. eigenvalues --    3.38023   3.42762   3.44024   3.46007   3.47557
 Alpha virt. eigenvalues --    3.48087   3.51630   3.54810   3.57229   3.58027
 Alpha virt. eigenvalues --    3.66716   3.68531   3.71634   3.73954   3.78104
          Condensed to atoms (all electrons):
 Mulliken charges:
               1
     1  C   -0.039883
     2  C   -0.095636
     3  C   -0.102075
     4  C   -0.034698
     5  N   -0.205179
     6  C   -0.020735
     7  C    0.044536
     8  C   -0.072624
     9  C    0.052433
    10  C    0.102127
    11  C   -0.015924
    12  C    0.018186
    13  C    0.128245
    14  O   -0.156651
    15  O   -0.338557
    16  N   -0.164903
    17  C    0.067835
    18  C   -0.065272
    19  C    0.079793
    20  C    0.091550
    21  C   -0.079810
    22  C   -0.069417
    23  C   -0.018934
    24  N   -0.257511
    25  C    0.099786
    26  C   -0.154863
    27  C   -0.091003
    28  C    0.052542
    29  C    0.110927
    30  C    0.028347
    31  C    0.083889
    32  N   -0.013634
    33  C    0.084595
    34  C   -0.099269
    35  C   -0.049330
    36  C    0.103549
    37  C   -0.002451
    38  C    0.057655
    39  O   -0.091194
    40  C   -0.105272
    41  C    0.175765
    42  O   -0.282789
    43  O   -0.214230
    44  C    0.386847
    45  C    0.202917
    46  C   -0.097761
    47  C   -0.077109
    48  C    0.080277
    49  C   -0.080493
    50  C    0.066119
    51  C    0.053799
    52  C   -0.001294
    53  C    0.035948
    54  C   -0.066291
    55  C   -0.009239
    56  C    0.039704
    57  C   -0.010922
    58  C   -0.041333
    59  C   -0.071623
    60  C    0.057767
    61  C    0.015469
    62  C   -0.105948
    63  C    0.092901
    64  C    0.009745
    65  H    0.014233
    66  H   -0.029903
    67  H   -0.077862
    68  H   -0.013611
    69  H    0.026715
    70  H    0.017756
    71  H   -0.008489
    72  H    0.016681
    73  H    0.030107
    74  H    0.023212
    75  H    0.016764
    76  H    0.017407
    77  H    0.073911
    78  H    0.034520
    79  H    0.064975
    80  H    0.007708
    81  H   -0.002593
    82  H    0.034457
    83  H    0.020277
    84  H    0.019176
    85  H   -0.007897
    86  H    0.004620
    87  H    0.001821
    88  H    0.012583
    89  H   -0.012773
    90  H    0.002038
    91  H    0.046081
    92  H    0.043242
    93  H    0.064082
    94  H    0.058422
    95  H    0.009839
    96  H   -0.067665
    97  H   -0.024573
    98  H    0.023480
    99  H    0.036965
   100  H    0.057003
   101  H    0.023155
   102  H    0.007331
   103  H    0.003111
   104  H    0.030453
   105  H    0.015830
   106  H   -0.012736
   107  H   -0.010271
   108  H   -0.035477
   109  H   -0.011016
   110  H   -0.002255
   111  H   -0.019195
   112  H    0.013088
   113  H    0.023556
   114  H   -0.002409
   115  H    0.004192
   116  H    0.042452
   117  H    0.011866
   118  H   -0.030128
   119  H   -0.012055
   120  H   -0.043318
   121  H    0.027127
   122  H    0.019790
   123  H    0.025285
   124  H    0.021239
   125  H   -0.005241
   126  H    0.031791
   127  H   -0.008769
   128  H   -0.015802
   129  H   -0.011384
   130  H    0.000097
   131  H   -0.046927
   132  H    0.024370
   133  H    0.006942
   134  H    0.022617
   135  H    0.010304
   136  H   -0.011865
   137  H    0.207799
   138  H    0.154352
 Sum of Mulliken charges =  -0.00000
 Mulliken charges with hydrogens summed into heavy atoms:
               1
     1  C   -0.039883
     2  C   -0.081404
     3  C   -0.131978
     4  C   -0.112560
     5  N   -0.205179
     6  C   -0.020735
     7  C    0.030925
     8  C   -0.045910
     9  C    0.052433
    10  C    0.128075
    11  C    0.037395
    12  C    0.052357
    13  C    0.128245
    14  O   -0.156651
    15  O   -0.338557
    16  N    0.042896
    17  C    0.067835
    18  C   -0.065272
    19  C    0.079793
    20  C    0.091550
    21  C    0.093596
    22  C   -0.061709
    23  C    0.012930
    24  N   -0.257511
    25  C    0.099786
    26  C   -0.154863
    27  C   -0.091003
    28  C    0.052542
    29  C    0.142484
    30  C    0.034788
    31  C    0.085736
    32  N    0.140719
    33  C    0.084595
    34  C   -0.099269
    35  C   -0.049330
    36  C    0.103549
    37  C    0.150953
    38  C    0.057655
    39  O   -0.091194
    40  C   -0.046851
    41  C    0.175765
    42  O   -0.282789
    43  O   -0.214230
    44  C    0.304447
    45  C    0.263362
    46  C   -0.040758
    47  C   -0.077109
    48  C    0.113874
    49  C   -0.034210
    50  C    0.043111
    51  C    0.007306
    52  C   -0.003549
    53  C    0.053397
    54  C   -0.064508
    55  C    0.045079
    56  C   -0.002480
    57  C   -0.054239
    58  C    0.030869
    59  C   -0.055624
    60  C    0.080788
    61  C   -0.011717
    62  C   -0.105851
    63  C    0.077286
    64  C    0.030801
 Electronic spatial extent (au):  <R**2>=         178696.3750
 Charge=             -0.0000 electrons
 Dipole moment (field-independent basis, Debye):
    X=              3.0908    Y=              1.0172    Z=             -1.5843  Tot=              3.6191
 Quadrupole moment (field-independent basis, Debye-Ang):
   XX=           -359.8286   YY=           -380.9016   ZZ=           -397.0166
   XY=              0.6611   XZ=             13.9350   YZ=             -0.5966
 Traceless Quadrupole moment (field-independent basis, Debye-Ang):
   XX=             19.4203   YY=             -1.6526   ZZ=            -17.7677
   XY=              0.6611   XZ=             13.9350   YZ=             -0.5966
 Octapole moment (field-independent basis, Debye-Ang**2):
  XXX=           -418.9081  YYY=            -47.5334  ZZZ=            -12.1891  XYY=           -104.0708
  XXY=            -33.3919  XXZ=           -266.0704  XZZ=             11.7474  YZZ=            -39.9993
  YYZ=             34.2849  XYZ=            -42.5376
 Hexadecapole moment (field-independent basis, Debye-Ang**3):
 XXXX=        -222675.2839 YYYY=         -17681.3771 ZZZZ=          -4645.8267 XXXY=            782.5464
 XXXZ=           2712.0421 YYYX=           -132.2970 YYYZ=           -434.6929 ZZZX=             73.9953
 ZZZY=           -100.8157 XXYY=         -40731.9655 XXZZ=         -39458.4176 YYZZ=          -3605.7252
 XXYZ=            674.7591 YYXZ=            145.4304 ZZXY=            164.8466
 N-N= 8.281881827590D+03 E-N=-2.289858435313D+04  KE= 2.701901756355D+03
 1\1\GINC-RYZEN-SSD3\SP\RB3LYP TD-FC\SVP\C55H74N4O5\PADAWAN\01-Sep-2019
 \0\\# td=(NStates=1) B3LYP/SVP\\TD\\0,1\C,0,-5.1043032808,-1.977367542
 8,0.4557241975\C,0,-4.7813042886,2.7739876278,1.5480714832\C,0,-9.3680
 360472,3.2639725936,-0.1583804542\C,0,-9.7360954606,-1.521003695,-1.09
 29554409\N,0,-5.2547722252,0.3349799591,0.830200478\C,0,-4.5097090685,
 -0.745593543,0.9615322388\C,0,-3.0044922029,-0.4909895825,1.4032835778
 \C,0,-3.0992040728,0.9800331209,1.9062051259\C,0,-4.5145564137,1.37768
 48139,1.4892308345\C,0,-2.8101075087,1.0918374847,3.2879886569\C,0,-2.
 1890142442,-0.6668316973,0.1413307408\C,0,-0.5710654946,-0.5611149663,
 0.4771954846\C,0,0.3719116971,-0.7401809354,-0.7018160388\O,0,0.021411
 8771,-1.0640060905,-1.7339158462\O,0,1.5808431595,-0.6369201105,-0.152
 560248\N,0,-7.1489780788,2.7736921111,0.6369942934\C,0,-6.0395781388,3
 .4582325558,1.116635789\C,0,-6.4551267852,4.7873968235,1.1783293846\C,
 0,-7.6498380483,4.9238437074,0.6759728274\C,0,-8.1590813585,3.65397399
 63,0.2652678631\C,0,-5.5490540618,5.8031640988,1.7726032642\C,0,-8.427
 2293111,6.1063303507,0.4143064849\C,0,-9.2045879816,6.5363529259,-0.54
 19928156\N,0,-9.1434477441,0.8115996346,-0.4622932047\C,0,-9.794901267
 5,2.0295262543,-0.545943405\C,0,-11.1714533833,1.7791415537,-1.2077248
 438\C,0,-11.391634604,0.4855125927,-1.4020202636\C,0,-10.0228589943,-0
 .1328403334,-0.9333268131\C,0,-12.2441786151,2.8362161907,-1.366191048
 2\C,0,-12.4913792353,-0.3325523536,-1.9878810231\C,0,-12.4263171013,-0
 .7803026767,-3.386995884\N,0,-7.4175448802,-1.2825225668,-0.32544889\C
 ,0,-8.4836443499,-2.0203986541,-0.793166245\C,0,-8.0502886361,-3.51963
 65652,-0.81381512\C,0,-6.7765496832,-3.4555214364,-0.2724993552\C,0,-6
 .4419127309,-2.1167134704,0.0567178259\C,0,-8.8723612212,-4.6982732273
 ,-1.1296754743\C,0,-5.6742335449,-4.3852437513,0.0435770273\O,0,-5.548
 9267488,-5.5347399827,0.0813550559\C,0,-4.4603116358,-3.3820453172,0.5
 190571553\C,0,-3.9814705619,-3.8490986051,1.8830701923\O,0,-4.23839645
 13,-3.296460602,2.9677572397\O,0,-3.2649790136,-4.8821184931,1.7852542
 684\C,0,-2.7204655769,-5.4684677521,2.8790443747\C,0,2.6667067141,-0.7
 130699976,-1.2584600513\C,0,4.0456586757,-0.4251971431,-0.5691335266\C
 ,0,4.9941617164,0.4706161092,-0.9578711917\C,0,4.9222327335,1.43522736
 44,-2.2233648755\C,0,6.3326569778,0.5397166,-0.2129527584\C,0,7.532007
 4279,-0.0111704501,-1.0140687603\C,0,8.7849319702,-0.0850737143,-0.262
 011081\C,0,10.0568975445,-0.7061751001,-0.7809790778\C,0,9.9625200454,
 -2.2877839442,-0.8372078355\C,0,11.2633470093,-0.339283599,-0.00374284
 23\C,0,12.6423728219,-0.6693554139,-0.6200498822\C,0,13.8903154387,-0.
 0737200751,0.1929756602\C,0,15.2290647276,-0.4173847743,-0.3546793037\
 C,0,15.5487121988,-2.0067948414,-0.2007698125\C,0,16.4247750747,0.5297
 538866,0.325815846\C,0,17.7756744061,0.4093766716,-0.2670012079\C,0,18
 .7262224732,1.3259512141,0.4674454374\C,0,20.115031399,1.3479104163,-0
 .1117084104\C,0,19.9888698165,2.2186913003,-1.5070271117\C,0,21.185148
 9805,1.9617499111,0.8799443951\H,0,-3.9904072083,3.3926056449,2.136875
 9259\H,0,-10.1023678218,4.0719166282,-0.3166503389\H,0,-10.4382821681,
 -2.143340344,-1.4700869026\H,0,-2.6173377853,-1.3449048546,1.943466141
 3\H,0,-2.3146220298,1.7012900801,1.361285627\H,0,-1.8230998259,0.57902
 53242,3.5359403193\H,0,-2.7109343937,2.1563702806,3.5080599072\H,0,-3.
 5970102804,0.6947201743,3.9248713328\H,0,-2.4828377377,-1.6073946172,-
 0.4194888052\H,0,-2.3655624948,0.2770751818,-0.5712357843\H,0,-0.19410
 37338,0.2613602619,1.0478908196\H,0,-0.27947096,-1.4846576458,1.008988
 0178\H,0,-4.9579004474,6.3956176994,0.8770608441\H,0,-6.3822794467,6.7
 908442031,2.4102966267\H,0,-4.9523170087,5.1814579952,2.5991209727\H,0
 ,-8.1323033292,6.8789549292,1.3208333896\H,0,-9.3947548683,6.001068092
 3,-1.40483988\H,0,-9.6697612553,7.5688321685,-0.4820979139\H,0,-12.583
 2828757,3.4355940579,-0.5451569143\H,0,-11.6891078331,3.6376887336,-2.
 0154387614\H,0,-13.0633237324,2.3820338216,-1.8122242693\H,0,-12.47413
 22391,-1.3465347798,-1.2365782316\H,0,-13.4176725096,0.0871083722,-1.6
 34207098\H,0,-12.0309976148,0.1761146266,-3.8563644798\H,0,-11.5323194
 396,-1.4206914655,-3.5843792346\H,0,-13.0253706103,-1.3716445226,-3.97
 90717659\H,0,-9.9611436612,-4.58738083,-0.7247082747\H,0,-9.16559847,-
 4.7590929228,-2.3224927699\H,0,-8.3953912446,-5.6961003899,-0.84162881
 64\H,0,-3.7251982471,-3.5716345148,-0.3069537552\H,0,-2.1939962676,-6.
 3834549492,2.5698626903\H,0,-2.1869852702,-4.8555752965,3.2561200623\H
 ,0,-3.5013111865,-5.8427612761,3.3417256928\H,0,2.6131431061,-1.687005
 4416,-1.7445015835\H,0,2.2599378367,-0.185579996,-2.1998476041\H,0,4.2
 174031762,-1.1359116617,0.5438834327\H,0,5.0439696615,2.5297306709,-1.
 7747000574\H,0,5.749771941,1.3144674019,-2.8321362807\H,0,4.0990163868
 ,1.5980826142,-2.8554309\H,0,6.6592860257,1.6606592098,0.2413489345\H,
 0,6.1640142272,-0.0858441697,0.796999394\H,0,7.3623468878,-1.063380383
 4,-1.2598608322\H,0,7.4757173228,0.5963651411,-1.9010989676\H,0,8.8038
 348251,0.9403518867,0.1125925178\H,0,8.385841314,-0.5364107281,0.74165
 70186\H,0,10.4475816235,-0.3893487366,-1.8339741203\H,0,9.1909862862,-
 2.5723859014,-1.4440036259\H,0,10.835070368,-2.7084925257,-1.445300275
 6\H,0,9.8965180936,-2.7529471722,0.2028467632\H,0,11.2052347136,0.8211
 497388,0.0772811907\H,0,11.3487324426,-0.8316216477,1.1190124229\H,0,1
 2.7056870767,-1.8493188109,-0.4321266555\H,0,12.741344451,-0.019949267
 8,-1.5375970782\H,0,13.6681878543,0.9586462604,0.3508402581\H,0,13.693
 1641519,-0.4072536794,1.3056101372\H,0,15.4753490323,-0.314648265,-1.3
 371403638\H,0,14.8910444994,-2.5653248163,-0.8298770082\H,0,16.6725239
 887,-2.1027461141,-0.5406654591\H,0,15.509953713,-2.1525148701,0.96856
 95583\H,0,15.9160287945,1.6359266814,0.4121350571\H,0,16.4295892816,0.
 0684506542,1.3523072275\H,0,18.2460506824,-0.6813966183,0.0404293582\H
 ,0,17.5688296084,0.5243854016,-1.2809854031\H,0,18.29674138,2.28846757
 45,0.7529717922\H,0,18.8907920934,0.9734561824,1.5746287185\H,0,20.508
 1790477,0.324753209,-0.3745545184\H,0,19.7322959268,3.0907812102,-1.28
 96739416\H,0,21.0558240996,1.9552211259,-1.808926216\H,0,19.2691751533
 ,1.7677068073,-2.1826434455\H,0,21.5218972028,1.3854180921,1.846438571
 7\H,0,22.191532995,2.2429924158,0.4195338532\H,0,20.752902953,2.833813
 0518,1.233805985\H,0,-7.0777415567,1.6754918212,0.385661823\H,0,-7.525
 653932,-0.2735722328,-0.1131246327\\Version=ES64L-G16RevA.03\State=1-A
 \HF=-2732.9320534\RMSD=5.997e-09\PG=C01 [X(C55H74N4O5)]\\@


 The hours that make us happy make us wise.
                         -- John Masefield
 Job cpu time:       0 days  7 hours 24 minutes 57.5 seconds.
 Elapsed time:       0 days  1 hours 51 minutes 22.4 seconds.
 File lengths (MBytes):  RWF=   6378 Int=      0 D2E=      0 Chk=    163 Scr=      1
 Normal termination of Gaussian 16 at Sun Sep  1 13:17:45 2019.
