 Entering Gaussian System, Link 0=g16
 Input=Geometria-224-.com
 Output=Geometria-224-.log
 Initial command:
 /usr/local/g16/l1.exe "/home/padawan/israel-mol/pheophytin/spectra/emi/Gau-83422.inp" -scrdir="/home/padawan/israel-mol/pheophytin/spectra/emi/"
 Entering Link 1 = /usr/local/g16/l1.exe PID=     83424.
  
 Copyright (c) 1988,1990,1992,1993,1995,1998,2003,2009,2016,
            Gaussian, Inc.  All Rights Reserved.
  
 This is part of the Gaussian(R) 16 program.  It is based on
 the Gaussian(R) 09 system (copyright 2009, Gaussian, Inc.),
 the Gaussian(R) 03 system (copyright 2003, Gaussian, Inc.),
 the Gaussian(R) 98 system (copyright 1998, Gaussian, Inc.),
 the Gaussian(R) 94 system (copyright 1995, Gaussian, Inc.),
 the Gaussian 92(TM) system (copyright 1992, Gaussian, Inc.),
 the Gaussian 90(TM) system (copyright 1990, Gaussian, Inc.),
 the Gaussian 88(TM) system (copyright 1988, Gaussian, Inc.),
 the Gaussian 86(TM) system (copyright 1986, Carnegie Mellon
 University), and the Gaussian 82(TM) system (copyright 1983,
 Carnegie Mellon University). Gaussian is a federally registered
 trademark of Gaussian, Inc.
  
 This software contains proprietary and confidential information,
 including trade secrets, belonging to Gaussian, Inc.
  
 This software is provided under written license and may be
 used, copied, transmitted, or stored only in accord with that
 written license.
  
 The following legend is applicable only to US Government
 contracts under FAR:
  
                    RESTRICTED RIGHTS LEGEND
  
 Use, reproduction and disclosure by the US Government is
 subject to restrictions as set forth in subparagraphs (a)
 and (c) of the Commercial Computer Software - Restricted
 Rights clause in FAR 52.227-19.
  
 Gaussian, Inc.
 340 Quinnipiac St., Bldg. 40, Wallingford CT 06492
  
  
 ---------------------------------------------------------------
 Warning -- This program may not be used in any manner that
 competes with the business of Gaussian, Inc. or will provide
 assistance to any competitor of Gaussian, Inc.  The licensee
 of this program is prohibited from giving any competitor of
 Gaussian, Inc. access to this program.  By using this program,
 the user acknowledges that Gaussian, Inc. is engaged in the
 business of creating and licensing software in the field of
 computational chemistry and represents and warrants to the
 licensee that it is not a competitor of Gaussian, Inc. and that
 it will not use this program in any manner prohibited above.
 ---------------------------------------------------------------
  

 Cite this work as:
 Gaussian 16, Revision A.03,
 M. J. Frisch, G. W. Trucks, H. B. Schlegel, G. E. Scuseria, 
 M. A. Robb, J. R. Cheeseman, G. Scalmani, V. Barone, 
 G. A. Petersson, H. Nakatsuji, X. Li, M. Caricato, A. V. Marenich, 
 J. Bloino, B. G. Janesko, R. Gomperts, B. Mennucci, H. P. Hratchian, 
 J. V. Ortiz, A. F. Izmaylov, J. L. Sonnenberg, D. Williams-Young, 
 F. Ding, F. Lipparini, F. Egidi, J. Goings, B. Peng, A. Petrone, 
 T. Henderson, D. Ranasinghe, V. G. Zakrzewski, J. Gao, N. Rega, 
 G. Zheng, W. Liang, M. Hada, M. Ehara, K. Toyota, R. Fukuda, 
 J. Hasegawa, M. Ishida, T. Nakajima, Y. Honda, O. Kitao, H. Nakai, 
 T. Vreven, K. Throssell, J. A. Montgomery, Jr., J. E. Peralta, 
 F. Ogliaro, M. J. Bearpark, J. J. Heyd, E. N. Brothers, K. N. Kudin, 
 V. N. Staroverov, T. A. Keith, R. Kobayashi, J. Normand, 
 K. Raghavachari, A. P. Rendell, J. C. Burant, S. S. Iyengar, 
 J. Tomasi, M. Cossi, J. M. Millam, M. Klene, C. Adamo, R. Cammi, 
 J. W. Ochterski, R. L. Martin, K. Morokuma, O. Farkas, 
 J. B. Foresman, and D. J. Fox, Gaussian, Inc., Wallingford CT, 2016.
 
 ******************************************
 Gaussian 16:  ES64L-G16RevA.03 25-Dec-2016
                18-Aug-2019 
 ******************************************
 %nproc=4
 Will use up to    4 processors via shared memory.
 %Mem=2GB
 --------------------------
 # td=(NStates=1) B3LYP/SVP
 --------------------------
 1/38=1,172=1/1;
 2/12=2,17=6,18=5,40=1/2;
 3/5=18,7=101,11=9,25=1,30=1,74=-5/1,2,3,8;
 4//1;
 5/5=2,38=5/2;
 8/6=1,10=1,108=1/1;
 9/41=1,42=1,70=2/14;
 6/7=2,8=2,9=2,10=2/1;
 99/5=1,9=1/99;
 --
 TD
 --
 Symbolic Z-matrix:
 Charge =  0 Multiplicity = 1
 6                    -5.04015  -1.90173   0.49411 
 6                    -4.76023   2.6891    1.47945 
 6                    -9.32292   3.35209  -0.24542 
 6                    -9.69665  -1.43076  -0.97595 
 7                    -5.13262   0.45755   0.82644 
 6                    -4.48082  -0.7214    0.84285 
 6                    -3.06645  -0.58344   1.28041 
 6                    -3.03551   0.81892   1.89804 
 6                    -4.35905   1.3983    1.36106 
 6                    -3.00884   0.782     3.4458 
 6                    -2.02914  -0.70899   0.0673 
 6                    -0.54906  -0.81042   0.484 
 6                     0.29552  -1.19911  -0.62958 
 8                    -0.12923  -1.72892  -1.64917 
 8                     1.56433  -0.8597   -0.28368 
 7                    -7.02059   2.6632    0.54655 
 6                    -5.86745   3.32947   1.01627 
 6                    -6.08184   4.77459   1.05751 
 6                    -7.39253   5.01583   0.60357 
 6                    -8.02669   3.63434   0.27479 
 6                    -5.20928   5.82451   1.54688 
 6                    -8.19094   6.31439   0.34581 
 6                    -9.02364   6.74282  -0.5273 
 7                    -9.19312   0.9716   -0.52124 
 6                    -9.83788   2.12     -0.57584 
 6                    -11.25453   1.95421  -0.94988 
 6                    -11.3812   0.5894   -1.16144 
 6                    -10.08014  -0.01197  -0.84637 
 6                    -12.29998   3.01877  -1.28111 
 6                    -12.62077  -0.10848  -1.62491 
 6                    -12.46392  -0.48609  -3.30282 
 7                    -7.55247  -1.18307  -0.07761 
 6                    -8.61634  -2.0111   -0.39214 
 6                    -8.16292  -3.38042  -0.51793 
 6                    -6.80475  -3.32925  -0.14614 
 6                    -6.40995  -1.99232   0.19116 
 6                    -9.05623  -4.51698  -0.99634 
 6                    -5.77441  -4.29899   0.01719 
 8                    -5.67271  -5.45752  -0.16405 
 6                    -4.54455  -3.35661   0.38352 
 6                    -4.04785  -3.86644   1.75065 
 8                    -4.23733  -3.41379   2.83532 
 8                    -3.09128  -4.84384   1.53218 
 6                    -2.6469   -5.5788    2.75688 
 6                     2.64341  -1.16522  -1.24933 
 6                     3.88609  -0.76743  -0.66975 
 6                     4.96862  -0.01243  -1.27254 
 6                     4.87377   0.57009  -2.67048 
 6                     6.25765   0.19541  -0.44226 
 6                     7.46979  -0.43523  -1.12441 
 6                     8.78422  -0.24867  -0.20666 
 6                     10.03452  -0.68767  -0.89189 
 6                     10.00567  -2.22721  -1.0431 
 6                     11.30165  -0.2498    0.06878 
 6                     12.72323  -0.34994  -0.64126 
 6                     13.84815   0.15585   0.31213 
 6                     15.20143  -0.02867  -0.34791 
 6                     15.63509  -1.46571  -0.62287 
 6                     16.27405   0.68185   0.38219 
 6                     17.75048   0.66886  -0.0867 
 6                     18.64527   1.54373   0.81023 
 6                     20.02553   1.66656   0.34683 
 6                     20.18337   1.92934  -1.15124 
 6                     20.94125   2.55997   1.14706 
 1                    -4.17964   3.44481   1.86975 
 1                    -9.98033   4.10982  -0.30943 
 1                    -10.59235  -2.04549  -1.23404 
 1                    -2.78575  -1.718     1.84872 
 1                    -2.20694   1.40918   1.30194 
 1                    -2.05247   0.27003   3.61506 
 1                    -3.06667   1.86996   3.77196 
 1                    -3.6287    0.13804   3.75385 
 1                    -2.20846  -1.4895   -0.64205 
 1                    -2.05834  -0.086    -0.58774 
 1                    -0.16458   0.22152   0.75336 
 1                    -0.47034  -1.43563   1.48735 
 1                    -4.35165   5.84223   0.86472 
 1                    -5.73378   6.8573    1.62022 
 1                    -5.13086   5.44243   2.64809 
 1                    -7.55306   7.12505   1.06897 
 1                    -9.46269   5.93377  -1.13237 
 1                    -9.29813   7.75115  -0.72697 
 1                    -12.32977   3.79819  -0.4002 
 1                    -12.11058   3.66853  -2.07031 
 1                    -13.2272   2.54466  -1.25037 
 1                    -12.77798  -0.95691  -0.98813 
 1                    -13.49113   0.46836  -1.60112 
 1                    -12.21946   0.38411  -3.88757 
 1                    -11.63418  -1.34806  -3.56494 
 1                    -13.67595  -0.82771  -3.52496 
 1                    -10.05294  -4.5099   -0.54923 
 1                    -9.19514  -4.61096  -2.25258 
 1                    -8.36841  -5.37843  -0.59796 
 1                    -3.66243  -3.44835  -0.17605 
 1                    -2.02636  -6.4748    2.18219 
 1                    -2.19275  -4.91789   3.50827 
 1                    -3.54302  -5.98848   3.18448 
 1                     2.54273  -2.27707  -1.57873 
 1                     2.42394  -0.58705  -2.35435 
 1                     4.14326  -1.03637   0.24358 
 1                     5.14496   1.7486   -2.48691 
 1                     5.49998  -0.0319   -3.38422 
 1                     3.80006   0.37566  -3.25385 
 1                     6.47391   1.37027  -0.2682 
 1                     5.94668  -0.14294   0.59751 
 1                     7.27105  -1.4497   -1.36844 
 1                     7.59088  -0.01377  -1.93194 
 1                     9.00279   0.80961   0.18582 
 1                     8.5042   -0.89702   0.68426 
 1                     10.12389  -0.06795  -1.91641 
 1                     9.21029  -2.25904  -1.79596 
 1                     10.97185  -2.59477  -1.65932 
 1                     9.7155   -2.85104  -0.10566 
 1                     11.10685   0.69176   0.30648 
 1                     11.11113  -0.94569   1.02412 
 1                     13.079   -1.40848  -1.09095 
 1                     12.89115   0.2381   -1.47668 
 1                     13.62458   1.25639   0.62786 
 1                     13.80155  -0.53378   1.22307 
 1                     15.17357   0.39335  -1.33335 
 1                     14.90064  -1.93812  -1.26516 
 1                     16.55561  -1.593    -1.1537 
 1                     15.77076  -2.01884   0.48456 
 1                     16.03673   1.74203   0.44865 
 1                     16.37847   0.27495   1.37624 
 1                     18.16827  -0.25564  -0.4087 
 1                     17.43002   1.05873  -1.14134 
 1                     18.10546   2.69731   0.95294 
 1                     18.46186   1.11779   1.84964 
 1                     20.54097   0.64396   0.47442 
 1                     19.66129   2.86084  -1.5515 
 1                     21.36856   2.09549  -1.09881 
 1                     19.81477   1.28854  -2.00688 
 1                     20.76919   2.48538   2.34217 
 1                     22.12142   2.39387   1.01629 
 1                     20.53246   3.82778   0.8655 
 1                    -7.30843   1.63724   0.42159 
 1                    -7.65525  -0.20007  -0.02911 
 
 Stoichiometry    C55H74N4O5
 Framework group  C1[X(C55H74N4O5)]
 Deg. of freedom   408
 Full point group                 C1      NOp   1
 Largest Abelian subgroup         C1      NOp   1
 Largest concise Abelian subgroup C1      NOp   1
                         Standard orientation:                         
 ---------------------------------------------------------------------
 Center     Atomic      Atomic             Coordinates (Angstroms)
 Number     Number       Type             X           Y           Z
 ---------------------------------------------------------------------
      1          6           0       -5.041489   -1.897460    0.505806
      2          6           0       -4.758989    2.697423    1.471316
      3          6           0       -9.321552    3.355416   -0.255806
      4          6           0       -9.697936   -1.430344   -0.965666
      5          7           0       -5.132657    0.463282    0.827976
      6          6           0       -4.481481   -0.715938    0.849384
      7          6           0       -3.066982   -0.576848    1.286162
      8          6           0       -3.035210    0.828140    1.897740
      9          6           0       -4.358514    1.405908    1.358433
     10          6           0       -3.008354    0.797878    3.445641
     11          6           0       -2.029900   -0.708179    0.073472
     12          6           0       -0.549824   -0.808608    0.490405
     13          6           0        0.294408   -1.202544   -0.621594
     14          8           0       -0.130768   -1.736523   -1.638833
     15          8           0        1.563442   -0.862331   -0.277330
     16          7           0       -7.019479    2.668714    0.538821
     17          6           0       -5.865927    3.336384    1.005515
     18          6           0       -6.079537    4.781779    1.040554
     19          6           0       -7.390161    5.021769    0.585748
     20          6           0       -8.025099    3.639213    0.263012
     21          6           0       -5.206352    5.833332    1.525284
     22          6           0       -8.187904    6.319631    0.322500
     23          6           0       -9.020494    6.744741   -0.552342
     24          7           0       -9.193062    0.973684   -0.521378
     25          6           0       -9.837208    2.122183   -0.580842
     26          6           0      -11.254002    1.955544   -0.953982
     27          6           0      -11.381432    0.589907   -1.159637
     28          6           0      -10.080653   -0.010797   -0.842149
     29          6           0      -12.298929    3.019231   -1.289665
     30          6           0      -12.621435   -0.109304   -1.619941
     31          6           0      -12.465008   -0.494231   -3.296221
     32          7           0       -7.553502   -1.179929   -0.068682
     33          6           0       -8.617855   -2.008733   -0.379493
     34          6           0       -8.165187   -3.378830   -0.499437
     35          6           0       -6.806943   -3.326781   -0.128049
     36          6           0       -6.411380   -1.988623    0.203431
     37          6           0       -9.059167   -4.516956   -0.972834
     38          6           0       -5.777101   -4.296356    0.039327
     39          8           0       -5.676040   -5.455718   -0.136934
     40          6           0       -4.546685   -3.353071    0.401430
     41          6           0       -4.050074   -3.857266    1.770674
     42          8           0       -4.239167   -3.399845    2.853414
     43          8           0       -3.094060   -4.836115    1.556297
     44          6           0       -2.649908   -5.566021    2.784099
     45          6           0        2.642234   -1.172581   -1.241790
     46          6           0        3.885201   -0.772968   -0.664096
     47          6           0        4.968052   -0.021154   -1.270275
     48          6           0        4.873327    0.555388   -2.670698
     49          6           0        6.257303    0.189578   -0.441060
     50          6           0        7.469017   -0.444651   -1.120646
     51          6           0        8.783669   -0.254837   -0.203876
     52          6           0       10.033636   -0.697459   -0.887374
     53          6           0       10.003952   -2.237616   -1.031941
     54          6           0       11.301133   -0.256132    0.071239
     55          6           0       12.722565   -0.360092   -0.638554
     56          6           0       13.847882    0.149208    0.312500
     57          6           0       15.200977   -0.038879   -0.346911
     58          6           0       15.633831   -1.477328   -0.615733
     59          6           0       16.274071    0.674203    0.379980
     60          6           0       17.750434    0.658404   -0.089047
     61          6           0       18.645813    1.536654    0.803990
     62          6           0       20.026075    1.656746    0.339883
     63          6           0       20.183854    1.912981   -1.159326
     64          6           0       20.942381    2.553104    1.136138
     65          1           0       -4.177938    3.454500    1.858274
     66          1           0       -9.978559    4.113214   -0.322997
     67          1           0      -10.593995   -2.045697   -1.220987
     68          1           0       -2.786820   -1.709101    1.859317
     69          1           0       -2.206407    1.415385    1.298988
     70          1           0       -2.052241    0.286138    3.616976
     71          1           0       -3.065562    1.887270    3.767108
     72          1           0       -3.628524    0.155592    3.756545
     73          1           0       -2.209733   -1.491651   -0.632488
     74          1           0       -2.058857   -0.088008   -0.584245
     75          1           0       -0.164754    0.224274    0.755269
     76          1           0       -0.471302   -1.429532    1.496431
     77          1           0       -4.348802    5.847658    0.842941
     78          1           0       -5.730294    6.866714    1.594236
     79          1           0       -5.127995    5.455969    2.628115
     80          1           0       -7.549494    7.133057    1.042074
     81          1           0       -9.460059    5.933323   -1.153862
     82          1           0       -9.294476    7.752345   -0.756322
     83          1           0      -12.328179    3.802453   -0.412120
     84          1           0      -12.109282    3.665479   -2.081685
     85          1           0      -13.226395    2.545750   -1.256757
     86          1           0      -12.779015   -0.954893   -0.979488
     87          1           0      -13.491481    0.468096   -1.598524
     88          1           0      -12.220156    0.373308   -3.884749
     89          1           0      -11.635762   -1.357768   -3.554730
     90          1           0      -13.677245   -0.836153   -3.516727
     91          1           0      -10.055817   -4.507423   -0.525627
     92          1           0       -9.198296   -4.616279   -2.228632
     93          1           0       -8.371754   -5.377052   -0.570835
     94          1           0       -3.664690   -3.447694   -0.157858
     95          1           0       -2.029924   -6.464827    2.213198
     96          1           0       -2.195302   -4.902124    3.532567
     97          1           0       -3.546187   -5.973371    3.213576
     98          1           0        2.540907   -2.285796   -1.566376
     99          1           0        2.422927   -0.599068   -2.349267
    100          1           0        4.142342   -1.038106    0.250358
    101          1           0        5.145173    1.734535   -2.492247
    102          1           0        5.499119   -0.050006   -3.381920
    103          1           0        3.799434    0.359020   -3.253086
    104          1           0        6.474212    1.365059   -0.272100
    105          1           0        5.946293   -0.144122    0.600195
    106          1           0        7.269699   -1.460053   -1.360277
    107          1           0        7.590223   -0.026734   -1.930004
    108          1           0        9.002859    0.805007    0.184005
    109          1           0        8.503421   -0.899187    0.689864
    110          1           0       10.123206   -0.082203   -1.914570
    111          1           0        9.208449   -2.272272   -1.784553
    112          1           0       10.969853   -2.608349   -1.646699
    113          1           0        9.713568   -2.857242   -0.091788
    114          1           0       11.106872    0.686550    0.304903
    115          1           0       11.110365   -0.947793    1.029593
    116          1           0       13.077713   -1.420752   -1.083724
    117          1           0       12.890688    0.224252   -1.476522
    118          1           0       13.624945    1.251211    0.623512
    119          1           0       13.801038   -0.536463    1.226414
    120          1           0       15.173209    0.378902   -1.334159
    121          1           0       14.899038   -1.952110   -1.255884
    122          1           0       16.554214   -1.607392   -1.146124
    123          1           0       15.769350   -2.025752    0.494056
    124          1           0       16.037328    1.734784    0.441897
    125          1           0       16.378409    0.271538    1.375759
    126          1           0       18.167688   -0.267705   -0.407105
    127          1           0       17.430036    1.043892   -1.145314
    128          1           0       18.106636    2.691123    0.941798
    129          1           0       18.462307    1.115295    1.845247
    130          1           0       20.540985    0.634422    0.471816
    131          1           0       19.662219    2.843022   -1.563528
    132          1           0       21.369135    2.078714   -1.107760
    133          1           0       19.814798    1.268692   -2.012142
    134          1           0       20.770436    2.483757    2.331578
    135          1           0       22.122436    2.385808    1.005935
    136          1           0       20.534228    3.819910    0.849167
    137          1           0       -7.307894    1.642376    0.418323
    138          1           0       -7.655748   -0.196677   -0.024399
 ---------------------------------------------------------------------
 Rotational constants (GHZ):           0.0631034           0.0061680           0.0058011
 Standard basis: SVP (5D, 7F)
 There are  1330 symmetry adapted cartesian basis functions of A   symmetry.
 There are  1266 symmetry adapted basis functions of A   symmetry.
  1266 basis functions,  2118 primitive gaussians,  1330 cartesian basis functions
   236 alpha electrons      236 beta electrons
       nuclear repulsion energy      8299.5819200220 Hartrees.
 NAtoms=  138 NActive=  138 NUniq=  138 SFac= 1.00D+00 NAtFMM=   60 NAOKFM=T Big=T
 Integral buffers will be    131072 words long.
 Regular integral format.
 Two-electron integral symmetry is turned on.
 One-electron integrals computed using PRISM.
 NBasis=  1266 RedAO= T EigKep=  2.79D-04  NBF=  1266
 NBsUse=  1266 1.00D-06 EigRej= -1.00D+00 NBFU=  1266
 ExpMin= 1.22D-01 ExpMax= 2.27D+03 ExpMxC= 3.41D+02 IAcc=3 IRadAn=         5 AccDes= 0.00D+00
 Harris functional with IExCor=  402 and IRadAn=       5 diagonalized for initial guess.
 HarFok:  IExCor=  402 AccDes= 0.00D+00 IRadAn=         5 IDoV= 1 UseB2=F ITyADJ=14
 ICtDFT=  3500011 ScaDFX=  1.000000  1.000000  1.000000  1.000000
 FoFCou: FMM=F IPFlag=           0 FMFlag=      100000 FMFlg1=        2001
         NFxFlg=           0 DoJE=T BraDBF=F KetDBF=T FulRan=T
         wScrn=  0.000000 ICntrl=       500 IOpCl=  0 I1Cent=   200000004 NGrid=           0
         NMat0=    1 NMatS0=      1 NMatT0=    0 NMatD0=    1 NMtDS0=    0 NMtDT0=    0
 Petite list used in FoFCou.
 Requested convergence on RMS density matrix=1.00D-08 within 128 cycles.
 Requested convergence on MAX density matrix=1.00D-06.
 Requested convergence on             energy=1.00D-06.
 No special actions if energy rises.
 Integral accuracy reduced to 1.0D-05 until final iterations.
 Initial convergence to 1.0D-05 achieved.  Increase integral accuracy.
 SCF Done:  E(RB3LYP) =  -2732.94421740     A.U. after   16 cycles
            NFock= 16  Conv=0.61D-08     -V/T= 2.0118
 DoSCS=F DFT=T ScalE2(SS,OS)=  1.000000  1.000000
 ExpMin= 1.22D-01 ExpMax= 2.27D+03 ExpMxC= 3.41D+02 IAcc=3 IRadAn=         5 AccDes= 0.00D+00
 HarFok:  IExCor=  205 AccDes= 0.00D+00 IRadAn=         5 IDoV=-2 UseB2=F ITyADJ=14
 ICtDFT= 12500011 ScaDFX=  1.000000  1.000000  1.000000  1.000000
 GSVD:  LWork=       -4608 too small for GESVD, short by       21440 words or       21440 for optimal perf.
 Range of M.O.s used for correlation:    65  1266
 NBasis=  1266 NAE=   236 NBE=   236 NFC=    64 NFV=     0
 NROrb=   1202 NOA=   172 NOB=   172 NVA=  1030 NVB=  1030

 **** Warning!!: The smallest alpha delta epsilon is  0.85974142D-01

 Orbital symmetries:
       Occupied  (A) (A) (A) (A) (A) (A) (A) (A) (A) (A) (A) (A)
                 (A) (A) (A) (A) (A) (A) (A) (A) (A) (A) (A) (A)
                 (A) (A) (A) (A) (A) (A) (A) (A) (A) (A) (A) (A)
                 (A) (A) (A) (A) (A) (A) (A) (A) (A) (A) (A) (A)
                 (A) (A) (A) (A) (A) (A) (A) (A) (A) (A) (A) (A)
                 (A) (A) (A) (A) (A) (A) (A) (A) (A) (A) (A) (A)
                 (A) (A) (A) (A) (A) (A) (A) (A) (A) (A) (A) (A)
                 (A) (A) (A) (A) (A) (A) (A) (A) (A) (A) (A) (A)
                 (A) (A) (A) (A) (A) (A) (A) (A) (A) (A) (A) (A)
                 (A) (A) (A) (A) (A) (A) (A) (A) (A) (A) (A) (A)
                 (A) (A) (A) (A) (A) (A) (A) (A) (A) (A) (A) (A)
                 (A) (A) (A) (A) (A) (A) (A) (A) (A) (A) (A) (A)
                 (A) (A) (A) (A) (A) (A) (A) (A) (A) (A) (A) (A)
                 (A) (A) (A) (A) (A) (A) (A) (A) (A) (A) (A) (A)
                 (A) (A) (A) (A) (A) (A) (A) (A) (A) (A) (A) (A)
                 (A) (A) (A) (A) (A) (A) (A) (A) (A) (A) (A) (A)
                 (A) (A) (A) (A) (A) (A) (A) (A) (A) (A) (A) (A)
                 (A) (A) (A) (A) (A) (A) (A) (A) (A) (A) (A) (A)
                 (A) (A) (A) (A) (A) (A) (A) (A) (A) (A) (A) (A)
                 (A) (A) (A) (A) (A) (A) (A) (A)
       Virtual   (A) (A) (A) (A) (A) (A) (A) (A) (A) (A) (A) (A)
                 (A) (A) (A) (A) (A) (A) (A) (A) (A) (A) (A) (A)
                 (A) (A) (A) (A) (A) (A) (A) (A) (A) (A) (A) (A)
                 (A) (A) (A) (A) (A) (A) (A) (A) (A) (A) (A) (A)
                 (A) (A) (A) (A) (A) (A) (A) (A) (A) (A) (A) (A)
                 (A) (A) (A) (A) (A) (A) (A) (A) (A) (A) (A) (A)
                 (A) (A) (A) (A) (A) (A) (A) (A) (A) (A) (A) (A)
                 (A) (A) (A) (A) (A) (A) (A) (A) (A) (A) (A) (A)
                 (A) (A) (A) (A) (A) (A) (A) (A) (A) (A) (A) (A)
                 (A) (A) (A) (A) (A) (A) (A) (A) (A) (A) (A) (A)
                 (A) (A) (A) (A) (A) (A) (A) (A) (A) (A) (A) (A)
                 (A) (A) (A) (A) (A) (A) (A) (A) (A) (A) (A) (A)
                 (A) (A) (A) (A) (A) (A) (A) (A) (A) (A) (A) (A)
                 (A) (A) (A) (A) (A) (A) (A) (A) (A) (A) (A) (A)
                 (A) (A) (A) (A) (A) (A) (A) (A) (A) (A) (A) (A)
                 (A) (A) (A) (A) (A) (A) (A) (A) (A) (A) (A) (A)
                 (A) (A) (A) (A) (A) (A) (A) (A) (A) (A) (A) (A)
                 (A) (A) (A) (A) (A) (A) (A) (A) (A) (A) (A) (A)
                 (A) (A) (A) (A) (A) (A) (A) (A) (A) (A) (A) (A)
                 (A) (A) (A) (A) (A) (A) (A) (A) (A) (A) (A) (A)
                 (A) (A) (A) (A) (A) (A) (A) (A) (A) (A) (A) (A)
                 (A) (A) (A) (A) (A) (A) (A) (A) (A) (A) (A) (A)
                 (A) (A) (A) (A) (A) (A) (A) (A) (A) (A) (A) (A)
                 (A) (A) (A) (A) (A) (A) (A) (A) (A) (A) (A) (A)
                 (A) (A) (A) (A) (A) (A) (A) (A) (A) (A) (A) (A)
                 (A) (A) (A) (A) (A) (A) (A) (A) (A) (A) (A) (A)
                 (A) (A) (A) (A) (A) (A) (A) (A) (A) (A) (A) (A)
                 (A) (A) (A) (A) (A) (A) (A) (A) (A) (A) (A) (A)
                 (A) (A) (A) (A) (A) (A) (A) (A) (A) (A) (A) (A)
                 (A) (A) (A) (A) (A) (A) (A) (A) (A) (A) (A) (A)
                 (A) (A) (A) (A) (A) (A) (A) (A) (A) (A) (A) (A)
                 (A) (A) (A) (A) (A) (A) (A) (A) (A) (A) (A) (A)
                 (A) (A) (A) (A) (A) (A) (A) (A) (A) (A) (A) (A)
                 (A) (A) (A) (A) (A) (A) (A) (A) (A) (A) (A) (A)
                 (A) (A) (A) (A) (A) (A) (A) (A) (A) (A) (A) (A)
                 (A) (A) (A) (A) (A) (A) (A) (A) (A) (A) (A) (A)
                 (A) (A) (A) (A) (A) (A) (A) (A) (A) (A) (A) (A)
                 (A) (A) (A) (A) (A) (A) (A) (A) (A) (A) (A) (A)
                 (A) (A) (A) (A) (A) (A) (A) (A) (A) (A) (A) (A)
                 (A) (A) (A) (A) (A) (A) (A) (A) (A) (A) (A) (A)
                 (A) (A) (A) (A) (A) (A) (A) (A) (A) (A) (A) (A)
                 (A) (A) (A) (A) (A) (A) (A) (A) (A) (A) (A) (A)
                 (A) (A) (A) (A) (A) (A) (A) (A) (A) (A) (A) (A)
                 (A) (A) (A) (A) (A) (A) (A) (A) (A) (A) (A) (A)
                 (A) (A) (A) (A) (A) (A) (A) (A) (A) (A) (A) (A)
                 (A) (A) (A) (A) (A) (A) (A) (A) (A) (A) (A) (A)
                 (A) (A) (A) (A) (A) (A) (A) (A) (A) (A) (A) (A)
                 (A) (A) (A) (A) (A) (A) (A) (A) (A) (A) (A) (A)
                 (A) (A) (A) (A) (A) (A) (A) (A) (A) (A) (A) (A)
                 (A) (A) (A) (A) (A) (A) (A) (A) (A) (A) (A) (A)
                 (A) (A) (A) (A) (A) (A) (A) (A) (A) (A) (A) (A)
                 (A) (A) (A) (A) (A) (A) (A) (A) (A) (A) (A) (A)
                 (A) (A) (A) (A) (A) (A) (A) (A) (A) (A) (A) (A)
                 (A) (A) (A) (A) (A) (A) (A) (A) (A) (A) (A) (A)
                 (A) (A) (A) (A) (A) (A) (A) (A) (A) (A) (A) (A)
                 (A) (A) (A) (A) (A) (A) (A) (A) (A) (A) (A) (A)
                 (A) (A) (A) (A) (A) (A) (A) (A) (A) (A) (A) (A)
                 (A) (A) (A) (A) (A) (A) (A) (A) (A) (A) (A) (A)
                 (A) (A) (A) (A) (A) (A) (A) (A) (A) (A) (A) (A)
                 (A) (A) (A) (A) (A) (A) (A) (A) (A) (A) (A) (A)
                 (A) (A) (A) (A) (A) (A) (A) (A) (A) (A) (A) (A)
                 (A) (A) (A) (A) (A) (A) (A) (A) (A) (A) (A) (A)
                 (A) (A) (A) (A) (A) (A) (A) (A) (A) (A) (A) (A)
                 (A) (A) (A) (A) (A) (A) (A) (A) (A) (A) (A) (A)
                 (A) (A) (A) (A) (A) (A) (A) (A) (A) (A) (A) (A)
                 (A) (A) (A) (A) (A) (A) (A) (A) (A) (A) (A) (A)
                 (A) (A) (A) (A) (A) (A) (A) (A) (A) (A) (A) (A)
                 (A) (A) (A) (A) (A) (A) (A) (A) (A) (A) (A) (A)
                 (A) (A) (A) (A) (A) (A) (A) (A) (A) (A) (A) (A)
                 (A) (A) (A) (A) (A) (A) (A) (A) (A) (A) (A) (A)
                 (A) (A) (A) (A) (A) (A) (A) (A) (A) (A) (A) (A)
                 (A) (A) (A) (A) (A) (A) (A) (A) (A) (A) (A) (A)
                 (A) (A) (A) (A) (A) (A) (A) (A) (A) (A) (A) (A)
                 (A) (A) (A) (A) (A) (A) (A) (A) (A) (A) (A) (A)
                 (A) (A) (A) (A) (A) (A) (A) (A) (A) (A) (A) (A)
                 (A) (A) (A) (A) (A) (A) (A) (A) (A) (A) (A) (A)
                 (A) (A) (A) (A) (A) (A) (A) (A) (A) (A) (A) (A)
                 (A) (A) (A) (A) (A) (A) (A) (A) (A) (A) (A) (A)
                 (A) (A) (A) (A) (A) (A) (A) (A) (A) (A) (A) (A)
                 (A) (A) (A) (A) (A) (A) (A) (A) (A) (A) (A) (A)
                 (A) (A) (A) (A) (A) (A) (A) (A) (A) (A) (A) (A)
                 (A) (A) (A) (A) (A) (A) (A) (A) (A) (A) (A) (A)
                 (A) (A) (A) (A) (A) (A) (A) (A) (A) (A) (A) (A)
                 (A) (A) (A) (A) (A) (A) (A) (A) (A) (A) (A) (A)
                 (A) (A) (A) (A) (A) (A) (A) (A) (A) (A) (A) (A)
                 (A) (A) (A) (A) (A) (A) (A) (A) (A) (A)
     4 initial guesses have been made.
 Convergence on wavefunction:    0.001000000000000
 Iteration     1 Dimension     4 NMult     0 NNew      4
 CISAX will form     4 AO SS matrices at one time.
 Iteration     2 Dimension     6 NMult     4 NNew      2
 Iteration     3 Dimension     8 NMult     6 NNew      2
 Iteration     4 Dimension    10 NMult     8 NNew      2
 Iteration     5 Dimension    12 NMult    10 NNew      2
 Iteration     6 Dimension    14 NMult    12 NNew      2
 Iteration     7 Dimension    16 NMult    14 NNew      2
 Iteration     8 Dimension    18 NMult    16 NNew      2
 ***********************************************************************
 Excited states from <AA,BB:AA,BB> singles matrix:
 ***********************************************************************
 
 Ground to excited state transition densities written to RWF  633
 Ground to excited state transition electric dipole moments (Au):
       state          X           Y           Z        Dip. S.      Osc.
         1        -0.2608     -1.6923     -0.2758      3.0081      0.1505
 Ground to excited state transition velocity dipole moments (Au):
       state          X           Y           Z        Dip. S.      Osc.
         1         0.0182      0.1243      0.0204      0.0162      0.1439
 Ground to excited state transition magnetic dipole moments (Au):
       state          X           Y           Z
         1         0.2684      0.3960     -2.6446
 Ground to excited state transition velocity quadrupole moments (Au):
       state          XX          YY          ZZ          XY          XZ          YZ
         1        -0.4836      0.1813      0.0441     -1.6449     -0.2226      0.0581
 <0|del|b> * <b|rxdel|0> + <0|del|b> * <b|delr+rdel|0>
 Rotatory Strengths (R) in cgs (10**-40 erg-esu-cm/Gauss)
       state          XX          YY          ZZ    R(velocity)    E-M Angle
         1       -50.7012    -68.3176    119.5549      0.1787       90.00
 1/2[<0|r|b>*<b|rxdel|0> + (<0|rxdel|b>*<b|r|0>)*]
 Rotatory Strengths (R) in cgs (10**-40 erg-esu-cm/Gauss)
       state          XX          YY          ZZ     R(length)
         1        49.5025    473.9320   -515.6993      2.5784
  1/2[<0|del|b>*<b|r|0> + (<0|r|b>*<b|del|0>)*] (Au)
       state          X           Y           Z        Dip. S.   Osc.(frdel)
         1        -0.0047     -0.2103     -0.0056      0.2207      0.1471

 Excitation energies and oscillator strengths:
 
 Excited State   1:      Singlet-A      2.0415 eV  607.31 nm  f=0.1505  <S**2>=0.000
     235 -> 238       -0.30155
     236 -> 237        0.62344
     236 -> 238       -0.10219
 This state for optimization and/or second-order correction.
 Total Energy, E(TD-HF/TD-DFT) =  -2732.86919259    
 Copying the excited state density for this state as the 1-particle RhoCI density.
 SavETr:  write IOETrn=   770 NScale= 10 NData=  16 NLR=1 NState=    1 LETran=      28.
 Hyperfine terms turned off by default for NAtoms > 100.

 **********************************************************************

            Population analysis using the SCF density.

 **********************************************************************

 Orbital symmetries:
       Occupied  (A) (A) (A) (A) (A) (A) (A) (A) (A) (A) (A) (A)
                 (A) (A) (A) (A) (A) (A) (A) (A) (A) (A) (A) (A)
                 (A) (A) (A) (A) (A) (A) (A) (A) (A) (A) (A) (A)
                 (A) (A) (A) (A) (A) (A) (A) (A) (A) (A) (A) (A)
                 (A) (A) (A) (A) (A) (A) (A) (A) (A) (A) (A) (A)
                 (A) (A) (A) (A) (A) (A) (A) (A) (A) (A) (A) (A)
                 (A) (A) (A) (A) (A) (A) (A) (A) (A) (A) (A) (A)
                 (A) (A) (A) (A) (A) (A) (A) (A) (A) (A) (A) (A)
                 (A) (A) (A) (A) (A) (A) (A) (A) (A) (A) (A) (A)
                 (A) (A) (A) (A) (A) (A) (A) (A) (A) (A) (A) (A)
                 (A) (A) (A) (A) (A) (A) (A) (A) (A) (A) (A) (A)
                 (A) (A) (A) (A) (A) (A) (A) (A) (A) (A) (A) (A)
                 (A) (A) (A) (A) (A) (A) (A) (A) (A) (A) (A) (A)
                 (A) (A) (A) (A) (A) (A) (A) (A) (A) (A) (A) (A)
                 (A) (A) (A) (A) (A) (A) (A) (A) (A) (A) (A) (A)
                 (A) (A) (A) (A) (A) (A) (A) (A) (A) (A) (A) (A)
                 (A) (A) (A) (A) (A) (A) (A) (A) (A) (A) (A) (A)
                 (A) (A) (A) (A) (A) (A) (A) (A) (A) (A) (A) (A)
                 (A) (A) (A) (A) (A) (A) (A) (A) (A) (A) (A) (A)
                 (A) (A) (A) (A) (A) (A) (A) (A)
       Virtual   (A) (A) (A) (A) (A) (A) (A) (A) (A) (A) (A) (A)
                 (A) (A) (A) (A) (A) (A) (A) (A) (A) (A) (A) (A)
                 (A) (A) (A) (A) (A) (A) (A) (A) (A) (A) (A) (A)
                 (A) (A) (A) (A) (A) (A) (A) (A) (A) (A) (A) (A)
                 (A) (A) (A) (A) (A) (A) (A) (A) (A) (A) (A) (A)
                 (A) (A) (A) (A) (A) (A) (A) (A) (A) (A) (A) (A)
                 (A) (A) (A) (A) (A) (A) (A) (A) (A) (A) (A) (A)
                 (A) (A) (A) (A) (A) (A) (A) (A) (A) (A) (A) (A)
                 (A) (A) (A) (A) (A) (A) (A) (A) (A) (A) (A) (A)
                 (A) (A) (A) (A) (A) (A) (A) (A) (A) (A) (A) (A)
                 (A) (A) (A) (A) (A) (A) (A) (A) (A) (A) (A) (A)
                 (A) (A) (A) (A) (A) (A) (A) (A) (A) (A) (A) (A)
                 (A) (A) (A) (A) (A) (A) (A) (A) (A) (A) (A) (A)
                 (A) (A) (A) (A) (A) (A) (A) (A) (A) (A) (A) (A)
                 (A) (A) (A) (A) (A) (A) (A) (A) (A) (A) (A) (A)
                 (A) (A) (A) (A) (A) (A) (A) (A) (A) (A) (A) (A)
                 (A) (A) (A) (A) (A) (A) (A) (A) (A) (A) (A) (A)
                 (A) (A) (A) (A) (A) (A) (A) (A) (A) (A) (A) (A)
                 (A) (A) (A) (A) (A) (A) (A) (A) (A) (A) (A) (A)
                 (A) (A) (A) (A) (A) (A) (A) (A) (A) (A) (A) (A)
                 (A) (A) (A) (A) (A) (A) (A) (A) (A) (A) (A) (A)
                 (A) (A) (A) (A) (A) (A) (A) (A) (A) (A) (A) (A)
                 (A) (A) (A) (A) (A) (A) (A) (A) (A) (A) (A) (A)
                 (A) (A) (A) (A) (A) (A) (A) (A) (A) (A) (A) (A)
                 (A) (A) (A) (A) (A) (A) (A) (A) (A) (A) (A) (A)
                 (A) (A) (A) (A) (A) (A) (A) (A) (A) (A) (A) (A)
                 (A) (A) (A) (A) (A) (A) (A) (A) (A) (A) (A) (A)
                 (A) (A) (A) (A) (A) (A) (A) (A) (A) (A) (A) (A)
                 (A) (A) (A) (A) (A) (A) (A) (A) (A) (A) (A) (A)
                 (A) (A) (A) (A) (A) (A) (A) (A) (A) (A) (A) (A)
                 (A) (A) (A) (A) (A) (A) (A) (A) (A) (A) (A) (A)
                 (A) (A) (A) (A) (A) (A) (A) (A) (A) (A) (A) (A)
                 (A) (A) (A) (A) (A) (A) (A) (A) (A) (A) (A) (A)
                 (A) (A) (A) (A) (A) (A) (A) (A) (A) (A) (A) (A)
                 (A) (A) (A) (A) (A) (A) (A) (A) (A) (A) (A) (A)
                 (A) (A) (A) (A) (A) (A) (A) (A) (A) (A) (A) (A)
                 (A) (A) (A) (A) (A) (A) (A) (A) (A) (A) (A) (A)
                 (A) (A) (A) (A) (A) (A) (A) (A) (A) (A) (A) (A)
                 (A) (A) (A) (A) (A) (A) (A) (A) (A) (A) (A) (A)
                 (A) (A) (A) (A) (A) (A) (A) (A) (A) (A) (A) (A)
                 (A) (A) (A) (A) (A) (A) (A) (A) (A) (A) (A) (A)
                 (A) (A) (A) (A) (A) (A) (A) (A) (A) (A) (A) (A)
                 (A) (A) (A) (A) (A) (A) (A) (A) (A) (A) (A) (A)
                 (A) (A) (A) (A) (A) (A) (A) (A) (A) (A) (A) (A)
                 (A) (A) (A) (A) (A) (A) (A) (A) (A) (A) (A) (A)
                 (A) (A) (A) (A) (A) (A) (A) (A) (A) (A) (A) (A)
                 (A) (A) (A) (A) (A) (A) (A) (A) (A) (A) (A) (A)
                 (A) (A) (A) (A) (A) (A) (A) (A) (A) (A) (A) (A)
                 (A) (A) (A) (A) (A) (A) (A) (A) (A) (A) (A) (A)
                 (A) (A) (A) (A) (A) (A) (A) (A) (A) (A) (A) (A)
                 (A) (A) (A) (A) (A) (A) (A) (A) (A) (A) (A) (A)
                 (A) (A) (A) (A) (A) (A) (A) (A) (A) (A) (A) (A)
                 (A) (A) (A) (A) (A) (A) (A) (A) (A) (A) (A) (A)
                 (A) (A) (A) (A) (A) (A) (A) (A) (A) (A) (A) (A)
                 (A) (A) (A) (A) (A) (A) (A) (A) (A) (A) (A) (A)
                 (A) (A) (A) (A) (A) (A) (A) (A) (A) (A) (A) (A)
                 (A) (A) (A) (A) (A) (A) (A) (A) (A) (A) (A) (A)
                 (A) (A) (A) (A) (A) (A) (A) (A) (A) (A) (A) (A)
                 (A) (A) (A) (A) (A) (A) (A) (A) (A) (A) (A) (A)
                 (A) (A) (A) (A) (A) (A) (A) (A) (A) (A) (A) (A)
                 (A) (A) (A) (A) (A) (A) (A) (A) (A) (A) (A) (A)
                 (A) (A) (A) (A) (A) (A) (A) (A) (A) (A) (A) (A)
                 (A) (A) (A) (A) (A) (A) (A) (A) (A) (A) (A) (A)
                 (A) (A) (A) (A) (A) (A) (A) (A) (A) (A) (A) (A)
                 (A) (A) (A) (A) (A) (A) (A) (A) (A) (A) (A) (A)
                 (A) (A) (A) (A) (A) (A) (A) (A) (A) (A) (A) (A)
                 (A) (A) (A) (A) (A) (A) (A) (A) (A) (A) (A) (A)
                 (A) (A) (A) (A) (A) (A) (A) (A) (A) (A) (A) (A)
                 (A) (A) (A) (A) (A) (A) (A) (A) (A) (A) (A) (A)
                 (A) (A) (A) (A) (A) (A) (A) (A) (A) (A) (A) (A)
                 (A) (A) (A) (A) (A) (A) (A) (A) (A) (A) (A) (A)
                 (A) (A) (A) (A) (A) (A) (A) (A) (A) (A) (A) (A)
                 (A) (A) (A) (A) (A) (A) (A) (A) (A) (A) (A) (A)
                 (A) (A) (A) (A) (A) (A) (A) (A) (A) (A) (A) (A)
                 (A) (A) (A) (A) (A) (A) (A) (A) (A) (A) (A) (A)
                 (A) (A) (A) (A) (A) (A) (A) (A) (A) (A) (A) (A)
                 (A) (A) (A) (A) (A) (A) (A) (A) (A) (A) (A) (A)
                 (A) (A) (A) (A) (A) (A) (A) (A) (A) (A) (A) (A)
                 (A) (A) (A) (A) (A) (A) (A) (A) (A) (A) (A) (A)
                 (A) (A) (A) (A) (A) (A) (A) (A) (A) (A) (A) (A)
                 (A) (A) (A) (A) (A) (A) (A) (A) (A) (A) (A) (A)
                 (A) (A) (A) (A) (A) (A) (A) (A) (A) (A) (A) (A)
                 (A) (A) (A) (A) (A) (A) (A) (A) (A) (A) (A) (A)
                 (A) (A) (A) (A) (A) (A) (A) (A) (A) (A) (A) (A)
                 (A) (A) (A) (A) (A) (A) (A) (A) (A) (A) (A) (A)
                 (A) (A) (A) (A) (A) (A) (A) (A) (A) (A)
 The electronic state is 1-A.
 Alpha  occ. eigenvalues --  -19.18053 -19.16309 -19.12727 -19.12672 -19.12555
 Alpha  occ. eigenvalues --  -14.37013 -14.36489 -14.31480 -14.29614 -10.31360
 Alpha  occ. eigenvalues --  -10.30945 -10.27567 -10.26612 -10.25184 -10.24214
 Alpha  occ. eigenvalues --  -10.24030 -10.23865 -10.22595 -10.22233 -10.22115
 Alpha  occ. eigenvalues --  -10.21976 -10.21965 -10.21961 -10.21940 -10.21859
 Alpha  occ. eigenvalues --  -10.21625 -10.21610 -10.21549 -10.21498 -10.21401
 Alpha  occ. eigenvalues --  -10.21233 -10.21122 -10.21036 -10.20935 -10.20482
 Alpha  occ. eigenvalues --  -10.20388 -10.20264 -10.20158 -10.20121 -10.20062
 Alpha  occ. eigenvalues --  -10.19829 -10.19781 -10.19483 -10.19454 -10.19437
 Alpha  occ. eigenvalues --  -10.19265 -10.19121 -10.19044 -10.18960 -10.18898
 Alpha  occ. eigenvalues --  -10.18854 -10.18830 -10.18771 -10.18675 -10.18603
 Alpha  occ. eigenvalues --  -10.18236 -10.18209 -10.18166 -10.18089 -10.18076
 Alpha  occ. eigenvalues --  -10.17907 -10.17698 -10.16955 -10.16776  -1.08264
 Alpha  occ. eigenvalues --   -1.08055  -1.05053  -1.00516  -0.99543  -0.97059
 Alpha  occ. eigenvalues --   -0.95601  -0.94787  -0.93670  -0.85226  -0.82670
 Alpha  occ. eigenvalues --   -0.82304  -0.81927  -0.81203  -0.80930  -0.80678
 Alpha  occ. eigenvalues --   -0.80094  -0.79701  -0.78802  -0.78510  -0.77938
 Alpha  occ. eigenvalues --   -0.77337  -0.76474  -0.75664  -0.75315  -0.73965
 Alpha  occ. eigenvalues --   -0.72945  -0.72905  -0.72034  -0.71705  -0.70468
 Alpha  occ. eigenvalues --   -0.69990  -0.68565  -0.67960  -0.67365  -0.67106
 Alpha  occ. eigenvalues --   -0.67057  -0.66669  -0.66180  -0.65845  -0.65555
 Alpha  occ. eigenvalues --   -0.64172  -0.63540  -0.62717  -0.61688  -0.61181
 Alpha  occ. eigenvalues --   -0.60506  -0.59820  -0.58744  -0.57661  -0.57221
 Alpha  occ. eigenvalues --   -0.57149  -0.55663  -0.55507  -0.55243  -0.54883
 Alpha  occ. eigenvalues --   -0.54539  -0.54113  -0.53810  -0.52966  -0.52846
 Alpha  occ. eigenvalues --   -0.52470  -0.51374  -0.51058  -0.50554  -0.50289
 Alpha  occ. eigenvalues --   -0.49364  -0.49190  -0.48572  -0.48249  -0.48149
 Alpha  occ. eigenvalues --   -0.48022  -0.47509  -0.47123  -0.47035  -0.46775
 Alpha  occ. eigenvalues --   -0.46552  -0.46527  -0.46298  -0.46016  -0.45891
 Alpha  occ. eigenvalues --   -0.45422  -0.45073  -0.44769  -0.44611  -0.44546
 Alpha  occ. eigenvalues --   -0.44363  -0.44243  -0.43879  -0.43771  -0.43649
 Alpha  occ. eigenvalues --   -0.43618  -0.43471  -0.43375  -0.43191  -0.43021
 Alpha  occ. eigenvalues --   -0.42721  -0.42679  -0.42005  -0.41879  -0.41570
 Alpha  occ. eigenvalues --   -0.41167  -0.40858  -0.40801  -0.40537  -0.40099
 Alpha  occ. eigenvalues --   -0.39973  -0.39773  -0.39754  -0.39605  -0.39258
 Alpha  occ. eigenvalues --   -0.39103  -0.38789  -0.38693  -0.38242  -0.38168
 Alpha  occ. eigenvalues --   -0.38102  -0.38013  -0.37743  -0.37456  -0.37199
 Alpha  occ. eigenvalues --   -0.37067  -0.36991  -0.36629  -0.36373  -0.36144
 Alpha  occ. eigenvalues --   -0.36059  -0.35906  -0.35843  -0.35733  -0.35556
 Alpha  occ. eigenvalues --   -0.35231  -0.35190  -0.35100  -0.34903  -0.34769
 Alpha  occ. eigenvalues --   -0.34674  -0.34419  -0.34294  -0.34049  -0.33942
 Alpha  occ. eigenvalues --   -0.33372  -0.33031  -0.32770  -0.32672  -0.32546
 Alpha  occ. eigenvalues --   -0.32371  -0.32348  -0.32012  -0.31753  -0.31557
 Alpha  occ. eigenvalues --   -0.31298  -0.31017  -0.30590  -0.30310  -0.29878
 Alpha  occ. eigenvalues --   -0.29329  -0.28748  -0.28204  -0.28202  -0.27907
 Alpha  occ. eigenvalues --   -0.27614  -0.26910  -0.26611  -0.26112  -0.25978
 Alpha  occ. eigenvalues --   -0.24991  -0.24463  -0.23904  -0.22253  -0.19980
 Alpha  occ. eigenvalues --   -0.18471
 Alpha virt. eigenvalues --   -0.09873  -0.07930  -0.04299  -0.02307  -0.00982
 Alpha virt. eigenvalues --   -0.00731   0.00602   0.00959   0.02383   0.03345
 Alpha virt. eigenvalues --    0.03599   0.03789   0.03823   0.04311   0.04416
 Alpha virt. eigenvalues --    0.04887   0.05067   0.05347   0.05631   0.05806
 Alpha virt. eigenvalues --    0.05948   0.05961   0.06402   0.06449   0.06737
 Alpha virt. eigenvalues --    0.06760   0.07165   0.07254   0.07693   0.07844
 Alpha virt. eigenvalues --    0.08020   0.08342   0.08401   0.08465   0.08795
 Alpha virt. eigenvalues --    0.09099   0.09246   0.09382   0.09461   0.09729
 Alpha virt. eigenvalues --    0.09901   0.10005   0.10090   0.10271   0.10400
 Alpha virt. eigenvalues --    0.10667   0.10688   0.10929   0.11233   0.11370
 Alpha virt. eigenvalues --    0.11468   0.11543   0.11688   0.11947   0.12182
 Alpha virt. eigenvalues --    0.12373   0.12519   0.12553   0.12702   0.12907
 Alpha virt. eigenvalues --    0.13013   0.13096   0.13245   0.13369   0.13476
 Alpha virt. eigenvalues --    0.13554   0.13948   0.14038   0.14224   0.14479
 Alpha virt. eigenvalues --    0.14740   0.14940   0.15516   0.15669   0.15798
 Alpha virt. eigenvalues --    0.15989   0.16105   0.16584   0.16640   0.16748
 Alpha virt. eigenvalues --    0.17068   0.17435   0.17495   0.17827   0.18097
 Alpha virt. eigenvalues --    0.18240   0.18617   0.18717   0.18781   0.19063
 Alpha virt. eigenvalues --    0.19280   0.19742   0.19891   0.20058   0.20153
 Alpha virt. eigenvalues --    0.20456   0.20574   0.20782   0.21001   0.21095
 Alpha virt. eigenvalues --    0.21314   0.21416   0.21442   0.21977   0.22211
 Alpha virt. eigenvalues --    0.22249   0.22707   0.23026   0.23085   0.23253
 Alpha virt. eigenvalues --    0.23313   0.23667   0.23779   0.24097   0.24192
 Alpha virt. eigenvalues --    0.24897   0.25083   0.25494   0.25804   0.25964
 Alpha virt. eigenvalues --    0.25978   0.26187   0.26297   0.26756   0.27097
 Alpha virt. eigenvalues --    0.27825   0.28319   0.28438   0.28892   0.28949
 Alpha virt. eigenvalues --    0.29482   0.29878   0.30155   0.30412   0.30755
 Alpha virt. eigenvalues --    0.32016   0.32703   0.32888   0.33164   0.33530
 Alpha virt. eigenvalues --    0.33971   0.34077   0.34178   0.34709   0.34977
 Alpha virt. eigenvalues --    0.35766   0.36438   0.36595   0.36895   0.37197
 Alpha virt. eigenvalues --    0.37321   0.37831   0.37878   0.38430   0.38627
 Alpha virt. eigenvalues --    0.38898   0.38933   0.39441   0.39747   0.40252
 Alpha virt. eigenvalues --    0.40379   0.40757   0.40895   0.41194   0.41288
 Alpha virt. eigenvalues --    0.41568   0.41837   0.41945   0.42087   0.42143
 Alpha virt. eigenvalues --    0.42434   0.42553   0.42592   0.43067   0.43273
 Alpha virt. eigenvalues --    0.43628   0.43801   0.43873   0.44079   0.44301
 Alpha virt. eigenvalues --    0.44558   0.44623   0.44710   0.45086   0.45541
 Alpha virt. eigenvalues --    0.45734   0.45967   0.46156   0.46288   0.46544
 Alpha virt. eigenvalues --    0.46829   0.46897   0.47301   0.47538   0.47828
 Alpha virt. eigenvalues --    0.48011   0.48226   0.48396   0.48509   0.48796
 Alpha virt. eigenvalues --    0.49021   0.49225   0.49426   0.49503   0.49678
 Alpha virt. eigenvalues --    0.49834   0.50109   0.50373   0.50521   0.51040
 Alpha virt. eigenvalues --    0.51155   0.51320   0.51537   0.51900   0.52262
 Alpha virt. eigenvalues --    0.52447   0.52643   0.52725   0.53014   0.53593
 Alpha virt. eigenvalues --    0.53708   0.53987   0.54223   0.54680   0.54772
 Alpha virt. eigenvalues --    0.55064   0.55436   0.55504   0.55603   0.55902
 Alpha virt. eigenvalues --    0.56147   0.56287   0.56442   0.57019   0.57257
 Alpha virt. eigenvalues --    0.57390   0.57639   0.57846   0.57882   0.58202
 Alpha virt. eigenvalues --    0.58280   0.58554   0.58586   0.58838   0.58992
 Alpha virt. eigenvalues --    0.59038   0.59139   0.59282   0.59339   0.59569
 Alpha virt. eigenvalues --    0.59709   0.59750   0.59821   0.60115   0.60298
 Alpha virt. eigenvalues --    0.60488   0.60655   0.60936   0.60985   0.61291
 Alpha virt. eigenvalues --    0.61463   0.61583   0.61760   0.61901   0.62099
 Alpha virt. eigenvalues --    0.62118   0.62382   0.62508   0.62599   0.62669
 Alpha virt. eigenvalues --    0.62972   0.63055   0.63140   0.63283   0.63417
 Alpha virt. eigenvalues --    0.63523   0.63633   0.63804   0.64163   0.64246
 Alpha virt. eigenvalues --    0.64466   0.64517   0.64767   0.64899   0.64981
 Alpha virt. eigenvalues --    0.65225   0.65299   0.65473   0.65593   0.65603
 Alpha virt. eigenvalues --    0.65819   0.65862   0.65904   0.66218   0.66233
 Alpha virt. eigenvalues --    0.66343   0.66427   0.66555   0.66703   0.66814
 Alpha virt. eigenvalues --    0.66980   0.67160   0.67333   0.67456   0.67628
 Alpha virt. eigenvalues --    0.67834   0.67875   0.68002   0.68140   0.68406
 Alpha virt. eigenvalues --    0.68467   0.68576   0.68970   0.69041   0.69226
 Alpha virt. eigenvalues --    0.69321   0.69452   0.69632   0.69725   0.69881
 Alpha virt. eigenvalues --    0.69971   0.70237   0.70382   0.70549   0.70587
 Alpha virt. eigenvalues --    0.70709   0.70865   0.71122   0.71655   0.71830
 Alpha virt. eigenvalues --    0.71889   0.72114   0.72350   0.72625   0.72702
 Alpha virt. eigenvalues --    0.72748   0.72784   0.72878   0.73112   0.73262
 Alpha virt. eigenvalues --    0.73617   0.73713   0.73816   0.74090   0.74181
 Alpha virt. eigenvalues --    0.74566   0.74728   0.74895   0.75224   0.75499
 Alpha virt. eigenvalues --    0.75619   0.75854   0.76088   0.76106   0.76500
 Alpha virt. eigenvalues --    0.76705   0.76791   0.76985   0.77652   0.77723
 Alpha virt. eigenvalues --    0.77853   0.78333   0.78432   0.78578   0.78995
 Alpha virt. eigenvalues --    0.79278   0.79425   0.80023   0.80152   0.80512
 Alpha virt. eigenvalues --    0.80810   0.80931   0.81531   0.81645   0.81860
 Alpha virt. eigenvalues --    0.81937   0.82263   0.82797   0.83005   0.83828
 Alpha virt. eigenvalues --    0.84095   0.84660   0.85345   0.85568   0.85931
 Alpha virt. eigenvalues --    0.86215   0.86972   0.87560   0.87876   0.88401
 Alpha virt. eigenvalues --    0.88585   0.89116   0.89565   0.90530   0.90891
 Alpha virt. eigenvalues --    0.91141   0.91593   0.91693   0.92181   0.92815
 Alpha virt. eigenvalues --    0.93330   0.93666   0.93804   0.94349   0.95123
 Alpha virt. eigenvalues --    0.95442   0.95811   0.96156   0.96726   0.97113
 Alpha virt. eigenvalues --    0.97345   0.97780   0.98635   0.99239   0.99538
 Alpha virt. eigenvalues --    1.00091   1.00310   1.00692   1.01107   1.01288
 Alpha virt. eigenvalues --    1.01548   1.01730   1.02250   1.03266   1.03600
 Alpha virt. eigenvalues --    1.04216   1.04805   1.04905   1.05517   1.05761
 Alpha virt. eigenvalues --    1.06036   1.06587   1.06973   1.07315   1.08179
 Alpha virt. eigenvalues --    1.08502   1.08926   1.09019   1.09704   1.10096
 Alpha virt. eigenvalues --    1.10370   1.10876   1.11140   1.11521   1.11763
 Alpha virt. eigenvalues --    1.12501   1.13301   1.13370   1.14291   1.14362
 Alpha virt. eigenvalues --    1.14688   1.15725   1.15910   1.16326   1.16664
 Alpha virt. eigenvalues --    1.17316   1.18226   1.18439   1.18875   1.19004
 Alpha virt. eigenvalues --    1.19451   1.20036   1.20290   1.20350   1.20638
 Alpha virt. eigenvalues --    1.21405   1.21926   1.22277   1.22314   1.22952
 Alpha virt. eigenvalues --    1.23311   1.23752   1.24010   1.24638   1.25825
 Alpha virt. eigenvalues --    1.25935   1.26386   1.26841   1.27310   1.27649
 Alpha virt. eigenvalues --    1.27803   1.28040   1.28480   1.28698   1.29684
 Alpha virt. eigenvalues --    1.30083   1.30508   1.30658   1.30864   1.31367
 Alpha virt. eigenvalues --    1.31735   1.31898   1.32097   1.32457   1.32677
 Alpha virt. eigenvalues --    1.33134   1.33289   1.33741   1.34742   1.35067
 Alpha virt. eigenvalues --    1.35217   1.35856   1.36253   1.36287   1.36556
 Alpha virt. eigenvalues --    1.36786   1.37187   1.37643   1.38186   1.38442
 Alpha virt. eigenvalues --    1.39051   1.39298   1.39647   1.39883   1.40247
 Alpha virt. eigenvalues --    1.40635   1.42075   1.42283   1.43130   1.43648
 Alpha virt. eigenvalues --    1.44557   1.44701   1.45085   1.45230   1.45559
 Alpha virt. eigenvalues --    1.45760   1.46492   1.47006   1.47148   1.47196
 Alpha virt. eigenvalues --    1.47355   1.47439   1.47805   1.49118   1.49427
 Alpha virt. eigenvalues --    1.49722   1.49786   1.50073   1.50575   1.50640
 Alpha virt. eigenvalues --    1.51260   1.51336   1.52019   1.52372   1.52449
 Alpha virt. eigenvalues --    1.52877   1.53250   1.53997   1.54117   1.54168
 Alpha virt. eigenvalues --    1.54273   1.55244   1.55567   1.55631   1.55937
 Alpha virt. eigenvalues --    1.56007   1.56344   1.56736   1.56878   1.56959
 Alpha virt. eigenvalues --    1.57716   1.57903   1.58199   1.58250   1.58826
 Alpha virt. eigenvalues --    1.59145   1.60320   1.60565   1.60591   1.61113
 Alpha virt. eigenvalues --    1.61406   1.62041   1.62622   1.62879   1.63019
 Alpha virt. eigenvalues --    1.63133   1.63790   1.64197   1.64321   1.64916
 Alpha virt. eigenvalues --    1.65126   1.65353   1.65695   1.65761   1.66235
 Alpha virt. eigenvalues --    1.66559   1.67141   1.67144   1.67578   1.67740
 Alpha virt. eigenvalues --    1.67845   1.68149   1.68344   1.68415   1.68672
 Alpha virt. eigenvalues --    1.68967   1.69658   1.69753   1.70034   1.70288
 Alpha virt. eigenvalues --    1.70593   1.70769   1.70916   1.70943   1.71423
 Alpha virt. eigenvalues --    1.71742   1.71784   1.71859   1.71916   1.72194
 Alpha virt. eigenvalues --    1.72492   1.72581   1.72707   1.72815   1.73389
 Alpha virt. eigenvalues --    1.73409   1.73433   1.73660   1.73897   1.73967
 Alpha virt. eigenvalues --    1.74284   1.74511   1.75077   1.75289   1.75454
 Alpha virt. eigenvalues --    1.75956   1.76043   1.76176   1.76288   1.76748
 Alpha virt. eigenvalues --    1.77141   1.77247   1.77352   1.77503   1.77821
 Alpha virt. eigenvalues --    1.78134   1.78308   1.78508   1.78844   1.79020
 Alpha virt. eigenvalues --    1.79036   1.79625   1.79638   1.79929   1.79952
 Alpha virt. eigenvalues --    1.80389   1.80620   1.80966   1.81010   1.81190
 Alpha virt. eigenvalues --    1.81511   1.81769   1.81931   1.82235   1.82592
 Alpha virt. eigenvalues --    1.82796   1.83091   1.83257   1.83463   1.83810
 Alpha virt. eigenvalues --    1.83846   1.84032   1.84131   1.84289   1.84648
 Alpha virt. eigenvalues --    1.84679   1.85056   1.85152   1.85338   1.85404
 Alpha virt. eigenvalues --    1.85968   1.86212   1.86369   1.86396   1.86880
 Alpha virt. eigenvalues --    1.86974   1.87322   1.87579   1.87798   1.88012
 Alpha virt. eigenvalues --    1.88102   1.88642   1.88849   1.89167   1.89374
 Alpha virt. eigenvalues --    1.89492   1.89673   1.90099   1.90422   1.90479
 Alpha virt. eigenvalues --    1.90812   1.90902   1.91121   1.91329   1.91493
 Alpha virt. eigenvalues --    1.91523   1.92104   1.92222   1.92353   1.92625
 Alpha virt. eigenvalues --    1.92898   1.93485   1.93529   1.93723   1.93864
 Alpha virt. eigenvalues --    1.93935   1.94485   1.94824   1.95328   1.95472
 Alpha virt. eigenvalues --    1.95694   1.95907   1.96373   1.96946   1.96985
 Alpha virt. eigenvalues --    1.97416   1.97816   1.98050   1.98357   1.98494
 Alpha virt. eigenvalues --    1.98772   1.98977   1.99213   1.99446   1.99811
 Alpha virt. eigenvalues --    2.00473   2.00721   2.00774   2.01175   2.01322
 Alpha virt. eigenvalues --    2.01965   2.02560   2.02632   2.02829   2.03291
 Alpha virt. eigenvalues --    2.03513   2.03938   2.04222   2.04481   2.04555
 Alpha virt. eigenvalues --    2.04964   2.05216   2.05326   2.05661   2.05775
 Alpha virt. eigenvalues --    2.06022   2.06564   2.07023   2.07426   2.07570
 Alpha virt. eigenvalues --    2.07968   2.08244   2.08449   2.09663   2.10418
 Alpha virt. eigenvalues --    2.10569   2.10659   2.11028   2.11706   2.11905
 Alpha virt. eigenvalues --    2.12074   2.12593   2.13058   2.13678   2.14045
 Alpha virt. eigenvalues --    2.14213   2.14312   2.14699   2.15026   2.15368
 Alpha virt. eigenvalues --    2.15810   2.16426   2.16706   2.17055   2.17723
 Alpha virt. eigenvalues --    2.18000   2.18182   2.18400   2.19231   2.19490
 Alpha virt. eigenvalues --    2.19872   2.19999   2.20331   2.20625   2.21243
 Alpha virt. eigenvalues --    2.21478   2.21910   2.22148   2.22802   2.23220
 Alpha virt. eigenvalues --    2.23405   2.23611   2.23979   2.24461   2.24781
 Alpha virt. eigenvalues --    2.24993   2.25674   2.26396   2.26756   2.26814
 Alpha virt. eigenvalues --    2.27181   2.27915   2.28007   2.28445   2.29153
 Alpha virt. eigenvalues --    2.29503   2.29749   2.29863   2.30058   2.30214
 Alpha virt. eigenvalues --    2.30502   2.31041   2.31301   2.31472   2.32344
 Alpha virt. eigenvalues --    2.32535   2.32774   2.33065   2.34134   2.34299
 Alpha virt. eigenvalues --    2.34853   2.34905   2.35550   2.35897   2.36095
 Alpha virt. eigenvalues --    2.36588   2.36993   2.37156   2.37609   2.37717
 Alpha virt. eigenvalues --    2.38801   2.39187   2.39495   2.39725   2.39790
 Alpha virt. eigenvalues --    2.40042   2.40821   2.40900   2.41130   2.41211
 Alpha virt. eigenvalues --    2.42197   2.42536   2.42841   2.42999   2.43414
 Alpha virt. eigenvalues --    2.43939   2.44039   2.44395   2.44821   2.45045
 Alpha virt. eigenvalues --    2.45271   2.45930   2.46893   2.47336   2.47599
 Alpha virt. eigenvalues --    2.47798   2.48265   2.48557   2.49355   2.49832
 Alpha virt. eigenvalues --    2.50027   2.50471   2.51511   2.51536   2.52015
 Alpha virt. eigenvalues --    2.52481   2.52637   2.53187   2.54379   2.55025
 Alpha virt. eigenvalues --    2.55404   2.55707   2.56530   2.56585   2.56921
 Alpha virt. eigenvalues --    2.57389   2.58194   2.58681   2.58915   2.59640
 Alpha virt. eigenvalues --    2.59934   2.60008   2.60350   2.60476   2.61099
 Alpha virt. eigenvalues --    2.61143   2.61672   2.62081   2.62482   2.62689
 Alpha virt. eigenvalues --    2.62941   2.63606   2.64229   2.64299   2.64862
 Alpha virt. eigenvalues --    2.65694   2.66096   2.66143   2.66637   2.67076
 Alpha virt. eigenvalues --    2.67236   2.67318   2.68026   2.68659   2.69246
 Alpha virt. eigenvalues --    2.69259   2.69859   2.70028   2.70356   2.70582
 Alpha virt. eigenvalues --    2.71324   2.71903   2.72371   2.72563   2.73114
 Alpha virt. eigenvalues --    2.73288   2.73562   2.74102   2.74595   2.75003
 Alpha virt. eigenvalues --    2.75437   2.76098   2.76265   2.76526   2.77521
 Alpha virt. eigenvalues --    2.77801   2.78011   2.78266   2.79080   2.79111
 Alpha virt. eigenvalues --    2.79153   2.80166   2.80459   2.80858   2.81372
 Alpha virt. eigenvalues --    2.81579   2.82326   2.82787   2.83085   2.83755
 Alpha virt. eigenvalues --    2.83931   2.84962   2.85700   2.85807   2.85901
 Alpha virt. eigenvalues --    2.86205   2.86740   2.87762   2.88535   2.88544
 Alpha virt. eigenvalues --    2.88930   2.89030   2.89622   2.89943   2.90001
 Alpha virt. eigenvalues --    2.91020   2.91412   2.91520   2.92024   2.92552
 Alpha virt. eigenvalues --    2.92592   2.93498   2.93738   2.94104   2.94164
 Alpha virt. eigenvalues --    2.94648   2.95288   2.95540   2.96205   2.96385
 Alpha virt. eigenvalues --    2.96990   2.97437   2.97557   2.98089   2.98491
 Alpha virt. eigenvalues --    2.99255   2.99905   3.00516   3.00717   3.01448
 Alpha virt. eigenvalues --    3.03323   3.03567   3.03689   3.03836   3.04292
 Alpha virt. eigenvalues --    3.05100   3.05626   3.05920   3.07083   3.07261
 Alpha virt. eigenvalues --    3.07348   3.08466   3.09457   3.09655   3.10376
 Alpha virt. eigenvalues --    3.13434   3.13888   3.14778   3.14950   3.15987
 Alpha virt. eigenvalues --    3.16206   3.16519   3.17313   3.20650   3.20852
 Alpha virt. eigenvalues --    3.21589   3.22282   3.22562   3.25175   3.26099
 Alpha virt. eigenvalues --    3.26416   3.28371   3.33856   3.34552   3.35540
 Alpha virt. eigenvalues --    3.39445   3.41747   3.42774   3.45896   3.49545
 Alpha virt. eigenvalues --    3.52168   3.53871   3.56356   3.58170   3.61096
 Alpha virt. eigenvalues --    3.62084   3.62993   3.66759   3.66984   3.71463
          Condensed to atoms (all electrons):
 Mulliken charges:
               1
     1  C   -0.027188
     2  C   -0.039387
     3  C   -0.016132
     4  C   -0.031658
     5  N   -0.140393
     6  C   -0.020466
     7  C   -0.174761
     8  C    0.000232
     9  C   -0.007040
    10  C    0.212593
    11  C    0.176570
    12  C   -0.012041
    13  C    0.201796
    14  O   -0.243201
    15  O   -0.326225
    16  N   -0.145189
    17  C    0.119262
    18  C   -0.130780
    19  C   -0.005464
    20  C    0.070989
    21  C    0.055475
    22  C   -0.028570
    23  C   -0.007855
    24  N   -0.226316
    25  C    0.047539
    26  C   -0.161317
    27  C   -0.077304
    28  C   -0.013848
    29  C    0.149585
    30  C    0.103719
    31  C   -0.106300
    32  N   -0.084929
    33  C    0.099960
    34  C   -0.103242
    35  C   -0.065039
    36  C    0.168386
    37  C    0.001120
    38  C    0.082616
    39  O   -0.119968
    40  C   -0.008127
    41  C    0.171663
    42  O   -0.206149
    43  O   -0.354778
    44  C    0.164599
    45  C    0.216511
    46  C    0.002352
    47  C   -0.180658
    48  C   -0.014745
    49  C    0.018819
    50  C    0.156762
    51  C   -0.008631
    52  C   -0.144555
    53  C    0.009900
    54  C    0.105707
    55  C    0.024485
    56  C    0.005297
    57  C   -0.031445
    58  C    0.016139
    59  C    0.057051
    60  C   -0.017546
    61  C    0.006677
    62  C   -0.023889
    63  C   -0.026117
    64  C   -0.095817
    65  H   -0.087094
    66  H   -0.094231
    67  H   -0.006234
    68  H    0.054524
    69  H    0.014142
    70  H    0.001316
    71  H    0.031468
    72  H   -0.038600
    73  H   -0.004457
    74  H   -0.120649
    75  H    0.030876
    76  H    0.053041
    77  H    0.049387
    78  H    0.037041
    79  H    0.057929
    80  H    0.005102
    81  H    0.022086
    82  H    0.023920
    83  H    0.009664
    84  H    0.011576
    85  H   -0.006870
    86  H    0.007320
    87  H   -0.022358
    88  H    0.032810
    89  H    0.052336
    90  H    0.033209
    91  H    0.036877
    92  H    0.065952
    93  H    0.064280
    94  H    0.023335
    95  H    0.069165
    96  H    0.044770
    97  H    0.027057
    98  H    0.050759
    99  H    0.040675
   100  H   -0.067809
   101  H    0.057776
   102  H    0.044923
   103  H    0.029990
   104  H    0.018508
   105  H    0.008470
   106  H    0.000467
   107  H   -0.086970
   108  H    0.005078
   109  H    0.001321
   110  H    0.011494
   111  H   -0.001283
   112  H    0.026555
   113  H    0.039868
   114  H   -0.048636
   115  H    0.012440
   116  H    0.010806
   117  H   -0.036209
   118  H    0.012998
   119  H    0.000640
   120  H   -0.036846
   121  H   -0.003645
   122  H    0.002675
   123  H    0.017988
   124  H   -0.015110
   125  H   -0.032033
   126  H   -0.007289
   127  H   -0.014506
   128  H    0.004815
   129  H    0.005767
   130  H    0.004194
   131  H    0.005042
   132  H    0.021200
   133  H    0.024466
   134  H    0.031934
   135  H    0.048516
   136  H    0.019718
   137  H    0.181400
   138  H    0.112434
 Sum of Mulliken charges =  -0.00000
 Mulliken charges with hydrogens summed into heavy atoms:
               1
     1  C   -0.027188
     2  C   -0.126481
     3  C   -0.110363
     4  C   -0.037892
     5  N   -0.140393
     6  C   -0.020466
     7  C   -0.120236
     8  C    0.014374
     9  C   -0.007040
    10  C    0.206776
    11  C    0.051464
    12  C    0.071877
    13  C    0.201796
    14  O   -0.243201
    15  O   -0.326225
    16  N    0.036211
    17  C    0.119262
    18  C   -0.130780
    19  C   -0.005464
    20  C    0.070989
    21  C    0.199831
    22  C   -0.023469
    23  C    0.038151
    24  N   -0.226316
    25  C    0.047539
    26  C   -0.161317
    27  C   -0.077304
    28  C   -0.013848
    29  C    0.163955
    30  C    0.088682
    31  C    0.012055
    32  N    0.027506
    33  C    0.099960
    34  C   -0.103242
    35  C   -0.065039
    36  C    0.168386
    37  C    0.168229
    38  C    0.082616
    39  O   -0.119968
    40  C    0.015208
    41  C    0.171663
    42  O   -0.206149
    43  O   -0.354778
    44  C    0.305591
    45  C    0.307945
    46  C   -0.065457
    47  C   -0.180658
    48  C    0.117944
    49  C    0.045797
    50  C    0.070258
    51  C   -0.002232
    52  C   -0.133060
    53  C    0.075039
    54  C    0.069512
    55  C   -0.000918
    56  C    0.018935
    57  C   -0.068291
    58  C    0.033156
    59  C    0.009907
    60  C   -0.039341
    61  C    0.017259
    62  C   -0.019695
    63  C    0.024590
    64  C    0.004351
 Electronic spatial extent (au):  <R**2>=         178119.3783
 Charge=             -0.0000 electrons
 Dipole moment (field-independent basis, Debye):
    X=              2.9468    Y=              4.0035    Z=              0.3767  Tot=              4.9853
 Quadrupole moment (field-independent basis, Debye-Ang):
   XX=           -361.0593   YY=           -385.3673   ZZ=           -394.2726
   XY=            -31.6295   XZ=             -0.2591   YZ=             -5.5310
 Traceless Quadrupole moment (field-independent basis, Debye-Ang):
   XX=             19.1737   YY=             -5.1342   ZZ=            -14.0396
   XY=            -31.6295   XZ=             -0.2591   YZ=             -5.5310
 Octapole moment (field-independent basis, Debye-Ang**2):
  XXX=           -530.8110  YYY=            108.3909  ZZZ=              7.7684  XYY=           -172.8017
  XXY=            -81.2402  XXZ=           -174.6459  XZZ=             30.9054  YZZ=            -32.8249
  YYZ=             60.4909  XYZ=             12.0741
 Hexadecapole moment (field-independent basis, Debye-Ang**3):
 XXXX=        -223531.3626 YYYY=         -17575.5091 ZZZZ=          -4482.2417 XXXY=          -4864.2766
 XXXZ=           1730.3447 YYYX=          -1514.1048 YYYZ=           -438.9457 ZZZX=           -170.1592
 ZZZY=           -107.6266 XXYY=         -41778.5934 XXZZ=         -39354.4658 YYZZ=          -3630.3174
 XXYZ=           -202.0057 YYXZ=            -30.3377 ZZXY=            -38.5170
 N-N= 8.299581920022D+03 E-N=-2.293384387255D+04  KE= 2.701159611958D+03
 1\1\GINC-RYZEN-SSD1\SP\RB3LYP TD-FC\SVP\C55H74N4O5\PADAWAN\19-Aug-2019
 \0\\# td=(NStates=1) B3LYP/SVP\\TD\\0,1\C,0,-5.0401468652,-1.901729979
 ,0.4941080359\C,0,-4.7602321814,2.6890991389,1.4794546216\C,0,-9.32292
 15358,3.3520914054,-0.2454191581\C,0,-9.6966515163,-1.4307646711,-0.97
 59537408\N,0,-5.13262001,0.4575522163,0.826440102\C,0,-4.4808161792,-0
 .7214011237,0.8428503706\C,0,-3.0664483985,-0.5834388274,1.2804112905\
 C,0,-3.0355077032,0.8189170093,1.8980443098\C,0,-4.3590508632,1.398296
 8751,1.3610580172\C,0,-3.0088373816,0.7819965007,3.4458044384\C,0,-2.0
 291382566,-0.7089859127,0.067303338\C,0,-0.5490632944,-0.8104198968,0.
 4839961647\C,0,0.2955240583,-1.199106828,-0.6295788151\O,0,-0.12923318
 74,-1.7289225822,-1.6491673713\O,0,1.5643315084,-0.8597023887,-0.28368
 33603\N,0,-7.0205852395,2.663201062,0.5465452485\C,0,-5.8674509261,3.3
 294696795,1.016265752\C,0,-6.0818394564,4.7745855424,1.0575073024\C,0,
 -7.3925323177,5.0158329063,0.6035655867\C,0,-8.0266881192,3.6343420331
 ,0.2747888152\C,0,-5.2092800844,5.824506233,1.546880692\C,0,-8.1909356
 818,6.3143911568,0.3458096353\C,0,-9.0236398868,6.742823573,-0.5273013
 464\N,0,-9.1931227116,0.9715956342,-0.5212390993\C,0,-9.837875565,2.11
 99953012,-0.5758363943\C,0,-11.2545316912,1.9542090604,-0.9498790592\C
 ,0,-11.3812035609,0.5894029817,-1.1614362052\C,0,-10.0801447229,-0.011
 9682462,-0.8463681172\C,0,-12.2999841956,3.0187744465,-1.2811125404\C,
 0,-12.6207721746,-0.1084799464,-1.6249147265\C,0,-12.4639208617,-0.486
 0932557,-3.3028174661\N,0,-7.5524683725,-1.1830726218,-0.0776141065\C,
 0,-8.6163376193,-2.011097724,-0.392136142\C,0,-8.1629198992,-3.3804226
 438,-0.5179255311\C,0,-6.8047525035,-3.3292488092,-0.146136719\C,0,-6.
 4099495346,-1.9923210312,0.1911612702\C,0,-9.0562296081,-4.5169750975,
 -0.996342141\C,0,-5.7744135629,-4.2989851254,0.017194389\O,0,-5.672709
 127,-5.4575222609,-0.1640494845\C,0,-4.5445500596,-3.356612774,0.38352
 3602\C,0,-4.0478471995,-3.8664403392,1.75064695\O,0,-4.2373263443,-3.4
 137923351,2.8353239964\O,0,-3.0912816439,-4.8438446658,1.5321789609\C,
 0,-2.6468982201,-5.5787987852,2.7568821585\C,0,2.6434143848,-1.1652152
 121,-1.2493291382\C,0,3.8860927191,-0.7674313665,-0.6697535886\C,0,4.9
 686191621,-0.0124321956,-1.2725426589\C,0,4.873767887,0.5700908508,-2.
 670479587\C,0,6.257649477,0.1954121695,-0.4422556887\C,0,7.4697912063,
 -0.4352328564,-1.1244097944\C,0,8.7842218992,-0.2486700739,-0.20665554
 55\C,0,10.0345153062,-0.6876732499,-0.8918901689\C,0,10.0056743608,-2.
 2272078866,-1.0430984245\C,0,11.3016508397,-0.2498046511,0.0687844104\
 C,0,12.7232309077,-0.3499434727,-0.6412620034\C,0,13.8481512223,0.1558
 528822,0.3121275754\C,0,15.2014319643,-0.0286659024,-0.3479086267\C,0,
 15.6350908367,-1.465710733,-0.6228720227\C,0,16.2740500022,0.681849096
 1,0.3821914835\C,0,17.7504818869,0.6688626202,-0.0867031781\C,0,18.645
 2743784,1.5437329923,0.8102297159\C,0,20.0255324491,1.6665622815,0.346
 8274431\C,0,20.1833692664,1.9293423654,-1.1512415332\C,0,20.9412545911
 ,2.5599697331,1.1470611068\H,0,-4.1796361312,3.4448108654,1.8697492132
 \H,0,-9.9803256176,4.1098204185,-0.3094296169\H,0,-10.5923475747,-2.04
 54905591,-1.2340432982\H,0,-2.785754627,-1.7180021643,1.8487166664\H,0
 ,-2.2069412617,1.4091808692,1.3019396924\H,0,-2.0524727632,0.270034425
 1,3.6150582311\H,0,-3.0666699673,1.8699616398,3.7719562968\H,0,-3.6287
 034497,0.1380445068,3.7538542311\H,0,-2.2084602999,-1.489502828,-0.642
 0510614\H,0,-2.0583417728,-0.0860011258,-0.5877374344\H,0,-0.164580781
 5,0.2215162775,0.7533613666\H,0,-0.4703400469,-1.4356327433,1.48734585
 36\H,0,-4.3516498224,5.8422323608,0.86471961\H,0,-5.7337845973,6.85730
 08488,1.6202176188\H,0,-5.1308648635,5.4424340928,2.6480858692\H,0,-7.
 5530554044,7.1250495387,1.0689682031\H,0,-9.462691662,5.9337713626,-1.
 1323726333\H,0,-9.2981340926,7.7511504003,-0.7269724013\H,0,-12.329767
 5242,3.7981903175,-0.4002024188\H,0,-12.1105799803,3.6685318179,-2.070
 3142489\H,0,-13.22720012,2.5446600842,-1.2503680837\H,0,-12.7779826242
 ,-0.9569058169,-0.9881333871\H,0,-13.4911298553,0.468356497,-1.6011237
 897\H,0,-12.2194564606,0.3841054256,-3.8875676002\H,0,-11.6341796257,-
 1.3480642028,-3.5649372904\H,0,-13.6759456678,-0.8277101291,-3.5249563
 543\H,0,-10.0529428411,-4.5099030822,-0.549230727\H,0,-9.1951414243,-4
 .6109581093,-2.2525757782\H,0,-8.3684085464,-5.3784286228,-0.597964449
 9\H,0,-3.6624319705,-3.4483521865,-0.1760506649\H,0,-2.026359504,-6.47
 48040841,2.1821939234\H,0,-2.1927458463,-4.9178915282,3.5082652768\H,0
 ,-3.5430153569,-5.9884758476,3.1844799682\H,0,2.5427260644,-2.27707444
 85,-1.5787250058\H,0,2.4239442373,-0.587050143,-2.3543530546\H,0,4.143
 2557615,-1.0363717077,0.2435834027\H,0,5.1449597605,1.7486025581,-2.48
 69112785\H,0,5.4999769615,-0.0318972345,-3.3842214892\H,0,3.8000564908
 ,0.3756603719,-3.253850742\H,0,6.4739074878,1.3702701709,-0.2682020206
 \H,0,5.946682494,-0.1429398793,0.597509445\H,0,7.2710477579,-1.4496990
 153,-1.3684416903\H,0,7.590878839,-0.013765872,-1.9319420519\H,0,9.002
 7947211,0.8096088124,0.1858198405\H,0,8.5042031502,-0.8970167887,0.684
 261279\H,0,10.1238892542,-0.0679465964,-1.9164123641\H,0,9.2102882164,
 -2.2590445673,-1.7959588214\H,0,10.9718540464,-2.5947711535,-1.6593216
 778\H,0,9.7154999918,-2.8510369812,-0.1056640879\H,0,11.1068548756,0.6
 917567995,0.306484111\H,0,11.1111286823,-0.9456930548,1.024122934\H,0,
 13.0790044084,-1.4084847275,-1.0909525381\H,0,12.8911494315,0.23809653
 68,-1.4766809866\H,0,13.6245834938,1.2563860344,0.6278579599\H,0,13.80
 1554991,-0.5337763316,1.2230718834\H,0,15.1735688543,0.3933525351,-1.3
 333499848\H,0,14.9006354585,-1.938122096,-1.2651605366\H,0,16.55561229
 75,-1.592995139,-1.1536967623\H,0,15.7707597936,-2.0188415028,0.484561
 1574\H,0,16.0367308647,1.7420272914,0.4486487085\H,0,16.3784741701,0.2
 749513042,1.3762396208\H,0,18.1682729046,-0.255644043,-0.4086955543\H,
 0,17.430015727,1.058728836,-1.1413414387\H,0,18.1054622521,2.697308458
 5,0.9529417892\H,0,18.4618592001,1.1177906159,1.8496362192\H,0,20.5409
 72327,0.6439551292,0.4744203791\H,0,19.6612888261,2.8608382159,-1.5515
 001242\H,0,21.3685553727,2.0954851523,-1.0988052039\H,0,19.8147697128,
 1.2885388905,-2.0068758688\H,0,20.7691919323,2.4853780881,2.3421681446
 \H,0,22.1214159833,2.3938675034,1.0162935292\H,0,20.5324609088,3.82778
 24487,0.8654991543\H,0,-7.308434626,1.6372379958,0.4215854153\H,0,-7.6
 552468913,-0.2000748831,-0.0291062308\\Version=ES64L-G16RevA.03\State=
 1-A\HF=-2732.9442174\RMSD=6.067e-09\PG=C01 [X(C55H74N4O5)]\\@


 When I told the people of Northern Ireland that I was
 an atheist, a woman in the audience stood up and said,
 "Yes, but is it the God of the Catholics or the God
 of the Protestants in whom you don't believe?"
                               -- Quentin Crisp
 Job cpu time:       1 days 10 hours  6 minutes 18.5 seconds.
 Elapsed time:       0 days  8 hours 35 minutes 21.3 seconds.
 File lengths (MBytes):  RWF=   6378 Int=      0 D2E=      0 Chk=    163 Scr=      1
 Normal termination of Gaussian 16 at Mon Aug 19 07:57:56 2019.
