 Entering Gaussian System, Link 0=g16
 Input=Geometria-161-.com
 Output=Geometria-161-.log
 Initial command:
 /usr/local/g16/l1.exe "/home/padawan/israel-mol/pheophytin/spectra/emi/Gau-45699.inp" -scrdir="/home/padawan/israel-mol/pheophytin/spectra/emi/"
 Entering Link 1 = /usr/local/g16/l1.exe PID=     45701.
  
 Copyright (c) 1988,1990,1992,1993,1995,1998,2003,2009,2016,
            Gaussian, Inc.  All Rights Reserved.
  
 This is part of the Gaussian(R) 16 program.  It is based on
 the Gaussian(R) 09 system (copyright 2009, Gaussian, Inc.),
 the Gaussian(R) 03 system (copyright 2003, Gaussian, Inc.),
 the Gaussian(R) 98 system (copyright 1998, Gaussian, Inc.),
 the Gaussian(R) 94 system (copyright 1995, Gaussian, Inc.),
 the Gaussian 92(TM) system (copyright 1992, Gaussian, Inc.),
 the Gaussian 90(TM) system (copyright 1990, Gaussian, Inc.),
 the Gaussian 88(TM) system (copyright 1988, Gaussian, Inc.),
 the Gaussian 86(TM) system (copyright 1986, Carnegie Mellon
 University), and the Gaussian 82(TM) system (copyright 1983,
 Carnegie Mellon University). Gaussian is a federally registered
 trademark of Gaussian, Inc.
  
 This software contains proprietary and confidential information,
 including trade secrets, belonging to Gaussian, Inc.
  
 This software is provided under written license and may be
 used, copied, transmitted, or stored only in accord with that
 written license.
  
 The following legend is applicable only to US Government
 contracts under FAR:
  
                    RESTRICTED RIGHTS LEGEND
  
 Use, reproduction and disclosure by the US Government is
 subject to restrictions as set forth in subparagraphs (a)
 and (c) of the Commercial Computer Software - Restricted
 Rights clause in FAR 52.227-19.
  
 Gaussian, Inc.
 340 Quinnipiac St., Bldg. 40, Wallingford CT 06492
  
  
 ---------------------------------------------------------------
 Warning -- This program may not be used in any manner that
 competes with the business of Gaussian, Inc. or will provide
 assistance to any competitor of Gaussian, Inc.  The licensee
 of this program is prohibited from giving any competitor of
 Gaussian, Inc. access to this program.  By using this program,
 the user acknowledges that Gaussian, Inc. is engaged in the
 business of creating and licensing software in the field of
 computational chemistry and represents and warrants to the
 licensee that it is not a competitor of Gaussian, Inc. and that
 it will not use this program in any manner prohibited above.
 ---------------------------------------------------------------
  

 Cite this work as:
 Gaussian 16, Revision A.03,
 M. J. Frisch, G. W. Trucks, H. B. Schlegel, G. E. Scuseria, 
 M. A. Robb, J. R. Cheeseman, G. Scalmani, V. Barone, 
 G. A. Petersson, H. Nakatsuji, X. Li, M. Caricato, A. V. Marenich, 
 J. Bloino, B. G. Janesko, R. Gomperts, B. Mennucci, H. P. Hratchian, 
 J. V. Ortiz, A. F. Izmaylov, J. L. Sonnenberg, D. Williams-Young, 
 F. Ding, F. Lipparini, F. Egidi, J. Goings, B. Peng, A. Petrone, 
 T. Henderson, D. Ranasinghe, V. G. Zakrzewski, J. Gao, N. Rega, 
 G. Zheng, W. Liang, M. Hada, M. Ehara, K. Toyota, R. Fukuda, 
 J. Hasegawa, M. Ishida, T. Nakajima, Y. Honda, O. Kitao, H. Nakai, 
 T. Vreven, K. Throssell, J. A. Montgomery, Jr., J. E. Peralta, 
 F. Ogliaro, M. J. Bearpark, J. J. Heyd, E. N. Brothers, K. N. Kudin, 
 V. N. Staroverov, T. A. Keith, R. Kobayashi, J. Normand, 
 K. Raghavachari, A. P. Rendell, J. C. Burant, S. S. Iyengar, 
 J. Tomasi, M. Cossi, J. M. Millam, M. Klene, C. Adamo, R. Cammi, 
 J. W. Ochterski, R. L. Martin, K. Morokuma, O. Farkas, 
 J. B. Foresman, and D. J. Fox, Gaussian, Inc., Wallingford CT, 2016.
 
 ******************************************
 Gaussian 16:  ES64L-G16RevA.03 25-Dec-2016
                16-Aug-2019 
 ******************************************
 %nproc=4
 Will use up to    4 processors via shared memory.
 %Mem=2GB
 --------------------------
 # td=(NStates=1) B3LYP/SVP
 --------------------------
 1/38=1,172=1/1;
 2/12=2,17=6,18=5,40=1/2;
 3/5=18,7=101,11=9,25=1,30=1,74=-5/1,2,3,8;
 4//1;
 5/5=2,38=5/2;
 8/6=1,10=1,108=1/1;
 9/41=1,42=1,70=2/14;
 6/7=2,8=2,9=2,10=2/1;
 99/5=1,9=1/99;
 --
 TD
 --
 Symbolic Z-matrix:
 Charge =  0 Multiplicity = 1
 6                    -4.98756  -1.90558   0.44115 
 6                    -4.7514    2.81375   1.35502 
 6                    -9.44522   3.29813  -0.20035 
 6                    -9.74177  -1.50194  -0.91602 
 7                    -5.18813   0.45621   0.84426 
 6                    -4.48699  -0.66145   0.85291 
 6                    -3.05356  -0.49822   1.21159 
 6                    -3.04839   1.04653   1.79014 
 6                    -4.38492   1.49597   1.3113 
 6                    -2.89176   1.00149   3.26822 
 6                    -2.02341  -0.66364  -0.00008 
 6                    -0.61791  -0.6341    0.50367 
 6                     0.29451  -0.81294  -0.78822 
 8                    -0.09805  -1.18544  -1.87317 
 8                     1.61392  -0.74106  -0.42437 
 7                    -7.11297   2.72085   0.58135 
 6                    -5.96373   3.43092   0.9903 
 6                    -6.36107   4.7739    1.22494 
 6                    -7.61567   4.97061   0.73215 
 6                    -8.20981   3.58486   0.3231 
 6                    -5.42645   5.80863   1.6073 
 6                    -8.20931   6.31744   0.34097 
 6                    -8.99826   6.52114  -0.75631 
 7                    -9.23524   0.85601  -0.49939 
 6                    -9.94678   2.04815  -0.54241 
 6                    -11.29564   1.77982  -0.94304 
 6                    -11.33281   0.43107  -1.12566 
 6                    -10.04414  -0.11091  -0.89308 
 6                    -12.32181   2.80076  -1.06855 
 6                    -12.62089  -0.36514  -1.56698 
 6                    -12.58621  -0.75677  -2.94701 
 7                    -7.53281  -1.27695  -0.08109 
 6                    -8.54546  -2.06367  -0.52627 
 6                    -8.07558  -3.43052  -0.61543 
 6                    -6.74732  -3.42941  -0.2244 
 6                    -6.41092  -2.05721   0.12178 
 6                    -9.02236  -4.51163  -1.07497 
 6                    -5.60075  -4.28844  -0.0304 
 8                    -5.41171  -5.41493  -0.18813 
 6                    -4.44084  -3.30317   0.41945 
 6                    -3.78805  -3.72777   1.74192 
 8                    -4.10204  -3.2493    2.8313 
 8                    -3.05278  -4.82936   1.57461 
 6                    -2.45399  -5.52556   2.69731 
 6                     2.62122  -0.83462  -1.47901 
 6                     3.93154  -0.65523  -0.86771 
 6                     4.97238   0.20204  -1.24257 
 6                     4.92577   1.00187  -2.42021 
 6                     6.18468   0.18584  -0.31455 
 6                     7.54039  -0.41573  -1.09347 
 6                     8.78717  -0.11951  -0.24502 
 6                     10.05324  -0.7492   -0.73069 
 6                     9.9421   -2.19792  -0.77356 
 6                     11.22764  -0.29975   0.14986 
 6                     12.65391  -0.5119   -0.55271 
 6                     13.82204  -0.06311   0.2866 
 6                     15.24616  -0.39927  -0.29909 
 6                     15.60729  -1.82738  -0.34013 
 6                     16.248    0.42789   0.58753 
 6                     17.63152   0.4694   -0.00068 
 6                     18.63202   1.41433   0.628 
 6                     20.13498   1.46948   0.0764 
 6                     20.09766   2.25423  -1.34531 
 6                     20.95828   2.23647   1.11131 
 1                    -4.12717   3.3517    1.81813 
 1                    -9.86015   4.30852  -0.27287 
 1                    -10.72202  -2.03794  -0.88668 
 1                    -3.13795  -1.05686   2.21785 
 1                    -2.15356   1.4796    1.29529 
 1                    -2.0138    0.54352   3.66002 
 1                    -2.84384   2.07872   3.73235 
 1                    -3.7561    0.23987   3.82167 
 1                    -2.25869  -1.76161  -0.54131 
 1                    -2.18401  -0.00434  -0.705 
 1                    -0.3977    0.29293   1.25221 
 1                    -0.50577  -1.71344   1.11578 
 1                    -4.58214   5.89438   0.83442 
 1                    -5.74093   6.80244   1.74546 
 1                    -4.82554   5.54226   2.54502 
 1                    -8.02901   7.18396   0.93647 
 1                    -9.16786   5.74289  -1.2739 
 1                    -9.22503   7.61543  -0.95597 
 1                    -12.18463   3.62942  -0.15531 
 1                    -12.02379   3.36195  -2.06558 
 1                    -13.4081   2.63242  -1.20228 
 1                    -12.79163  -1.28924  -1.03946 
 1                    -13.46886   0.30567  -1.42121 
 1                    -12.71593   0.06336  -3.83853 
 1                    -11.58154  -1.22654  -3.11361 
 1                    -13.34875  -1.35914  -3.28286 
 1                    -9.97948  -4.47176  -0.57712 
 1                    -8.95532  -4.48173  -2.55213 
 1                    -8.51737  -5.56886  -0.85663 
 1                    -3.77794  -3.36079  -0.49517 
 1                    -1.98939  -6.37629   2.18089 
 1                    -1.72396  -4.94469   3.22956 
 1                    -3.41198  -5.74719   3.55381 
 1                     2.3865   -1.86693  -1.9748 
 1                     2.58648   0.24542  -2.11846 
 1                     4.04367  -1.25249  -0.018 
 1                     5.40203   2.02793  -2.12093 
 1                     5.45913   0.69348  -3.23274 
 1                     3.89163   1.36925  -2.8555 
 1                     6.39477   1.13484  -0.06294 
 1                     6.1601   -0.48252   0.66301 
 1                     7.38615  -1.47725  -1.25489 
 1                     7.72575  -0.00075  -2.02669 
 1                     9.06946   1.02322  -0.09732 
 1                     8.59538  -0.46414   0.92535 
 1                     10.20597  -0.42291  -1.65586 
 1                     9.13992  -2.71577  -1.52919 
 1                     10.90578  -2.72949  -1.21528 
 1                     9.76073  -2.73518   0.32622 
 1                     11.1879   0.74357   0.34163 
 1                     10.99994  -0.91703   1.23815 
 1                     12.51038  -1.45392  -0.89547 
 1                     12.56079   0.09105  -1.41876 
 1                     13.70238   0.93299   0.67195 
 1                     13.71432  -0.54122   1.17494 
 1                     15.25418   0.03659  -1.38416 
 1                     15.08545  -2.26198  -1.31476 
 1                     16.74851  -2.00247  -0.57251 
 1                     15.42204  -2.26484   0.67316 
 1                     15.92381   1.39231   0.73342 
 1                     16.66194  -0.01355   1.67047 
 1                     18.14571  -0.43814  -0.15518 
 1                     17.61253   0.96044  -1.07707 
 1                     18.10226   2.46829   0.58167 
 1                     18.72553   1.28122   1.83141 
 1                     20.61521   0.45849  -0.1341 
 1                     19.81004   3.23373  -1.10714 
 1                     21.10935   2.38874  -1.71442 
 1                     19.59042   1.68824  -2.08954 
 1                     20.90899   1.75696   2.04132 
 1                     21.89778   2.36846   0.70672 
 1                     20.53543   3.21559   1.41001 
 1                    -7.19857   1.56687   0.13864 
 1                    -7.59163  -0.26366   0.00444 
 
 Stoichiometry    C55H74N4O5
 Framework group  C1[X(C55H74N4O5)]
 Deg. of freedom   408
 Full point group                 C1      NOp   1
 Largest Abelian subgroup         C1      NOp   1
 Largest concise Abelian subgroup C1      NOp   1
                         Standard orientation:                         
 ---------------------------------------------------------------------
 Center     Atomic      Atomic             Coordinates (Angstroms)
 Number     Number       Type             X           Y           Z
 ---------------------------------------------------------------------
      1          6           0       -4.981454   -1.917198    0.456675
      2          6           0       -4.760470    2.809113    1.337682
      3          6           0       -9.456686    3.267139   -0.218453
      4          6           0       -9.737680   -1.538732   -0.900666
      5          7           0       -5.189639    0.446655    0.843513
      6          6           0       -4.484793   -0.668586    0.859527
      7          6           0       -3.051725   -0.498131    1.216287
      8          6           0       -3.051378    1.050602    1.784113
      9          6           0       -4.389646    1.492278    1.302898
     10          6           0       -2.893824    1.016329    3.262377
     11          6           0       -2.021667   -0.668535    0.005223
     12          6           0       -0.616012   -0.630847    0.507991
     13          6           0        0.296325   -0.815612   -0.783129
     14          8           0       -0.095568   -1.196923   -1.865252
     15          8           0        1.615672   -0.736842   -0.420499
     16          7           0       -7.122126    2.703023    0.565960
     17          6           0       -5.975030    3.419718    0.969356
     18          6           0       -6.376696    4.762964    1.194899
     19          6           0       -7.632207    4.952098    0.701437
     20          6           0       -8.221953    3.561584    0.302331
     21          6           0       -5.445318    5.803420    1.569560
     22          6           0       -8.230508    6.294213    0.301256
     23          6           0       -9.020702    6.487685   -0.796983
     24          7           0       -9.238757    0.823721   -0.500665
     25          6           0       -9.954269    2.013165   -0.551565
     26          6           0      -11.302440    1.737600   -0.949585
     27          6           0      -11.335234    0.387496   -1.122836
     28          6           0      -10.044655   -0.148582   -0.887208
     29          6           0      -12.332056    2.754241   -1.081611
     30          6           0      -12.620901   -0.416011   -1.557920
     31          6           0      -12.585644   -0.817087   -2.935224
     32          7           0       -7.529042   -1.300641   -0.068528
     33          6           0       -8.539314   -2.093781   -0.507687
     34          6           0       -8.064951   -3.459646   -0.587623
     35          6           0       -6.736493   -3.451426   -0.197344
     36          6           0       -6.404468   -2.075751    0.139142
     37          6           0       -9.008375   -4.547054   -1.039146
     38          6           0       -5.586978   -4.305292    0.001984
     39          8           0       -5.394292   -5.432210   -0.148039
     40          6           0       -4.430111   -3.313083    0.444358
     41          6           0       -3.775227   -3.726338    1.769382
     42          8           0       -4.090234   -3.241369    2.855598
     43          8           0       -3.036391   -4.826626    1.609317
     44          6           0       -2.434710   -5.513038    2.736482
     45          6           0        2.622731   -0.834376   -1.475020
     46          6           0        3.932763   -0.646410   -0.865694
     47          6           0        4.970560    0.211684   -1.247051
     48          6           0        4.920686    1.003176   -2.430186
     49          6           0        6.183395    0.205936   -0.319606
     50          6           0        7.540682   -0.396527   -1.095072
     51          6           0        8.786920   -0.090299   -0.249379
     52          6           0       10.054812   -0.719145   -0.731368
     53          6           0        9.948456   -2.168493   -0.764132
     54          6           0       11.228181   -0.259713    0.145411
     55          6           0       12.654780   -0.472002   -0.556455
     56          6           0       13.821848   -0.013536    0.279084
     57          6           0       15.246767   -0.349032   -0.305038
     58          6           0       15.612612   -1.776182   -0.336375
     59          6           0       16.246322    0.487576    0.575287
     60          6           0       17.629392    0.529589   -0.013959
     61          6           0       18.627084    1.482162    0.607617
     62          6           0       20.129565    1.538468    0.054826
     63          6           0       20.088896    2.313217   -1.372270
     64          6           0       20.950850    2.315333    1.083943
     65          1           0       -4.137785    3.352326    1.796713
     66          1           0       -9.875002    4.275626   -0.297739
     67          1           0      -10.716136   -2.077758   -0.867077
     68          1           0       -3.133739   -1.050053    2.226440
     69          1           0       -2.158245    1.483191    1.285780
     70          1           0       -2.014148    0.564001    3.656868
     71          1           0       -2.849236    2.096908    3.719008
     72          1           0       -3.755344    0.255711    3.821568
     73          1           0       -2.253584   -1.771003   -0.528253
     74          1           0       -2.184828   -0.014675   -0.704158
     75          1           0       -0.398490    0.302080    1.249970
     76          1           0       -0.499976   -1.705538    1.127506
     77          1           0       -4.601702    5.886599    0.795644
     78          1           0       -5.763014    6.797108    1.701004
     79          1           0       -4.843040    5.545550    2.508775
     80          1           0       -8.052777    7.165427    0.890643
     81          1           0       -9.187996    5.705309   -1.309066
     82          1           0       -9.251204    7.579803   -1.004090
     83          1           0      -12.197155    3.589663   -0.174208
     84          1           0      -12.036425    3.309487   -2.082672
     85          1           0      -13.417854    2.581376   -1.213580
     86          1           0      -12.788301   -1.336995   -1.023914
     87          1           0      -13.471010    0.252977   -1.416337
     88          1           0      -12.718543   -0.003588   -3.832337
     89          1           0      -11.579510   -1.284671   -3.099112
     90          1           0      -13.346357   -1.424297   -3.266474
     91          1           0       -9.965361   -4.506899   -0.541066
     92          1           0       -8.942208   -4.527165   -2.516510
     93          1           0       -8.499774   -5.601059   -0.813759
     94          1           0       -3.767506   -3.374852   -0.470202
     95          1           0       -1.967557   -6.365785    2.225725
     96          1           0       -1.706332   -4.926078    3.264296
     97          1           0       -3.391515   -5.731896    3.595021
     98          1           0        2.391175   -1.870872   -1.963517
     99          1           0        2.584073    0.241089   -2.121919
    100          1           0        4.047316   -1.237393   -0.011925
    101          1           0        5.393689    2.032855   -2.138286
    102          1           0        5.454641    0.690920   -3.240842
    103          1           0        3.885098    1.364096   -2.867444
    104          1           0        6.390465    1.157344   -0.074694
    105          1           0        6.161545   -0.455713    0.662575
    106          1           0        7.389880   -1.459646   -1.249050
    107          1           0        7.724180    0.012581   -2.031251
    108          1           0        9.065494    1.054354   -0.109756
    109          1           0        8.596886   -0.427446    0.923451
    110          1           0       10.205976   -0.398776   -1.658853
    111          1           0        9.147606   -2.694220   -1.515717
    112          1           0       10.913662   -2.699917   -1.202679
    113          1           0        9.769450   -2.698704    0.339445
    114          1           0       11.185081    0.784776    0.329962
    115          1           0       11.003093   -0.870184    1.238080
    116          1           0       12.514190   -1.416846   -0.892599
    117          1           0       12.559200    0.124618   -1.426605
    118          1           0       13.699089    0.984813    0.657593
    119          1           0       13.716177   -0.485828    1.170777
    120          1           0       15.252775    0.079318   -1.393098
    121          1           0       15.091713   -2.219263   -1.307676
    122          1           0       16.754288   -1.949096   -0.568154
    123          1           0       15.429350   -2.207217    0.680027
    124          1           0       15.919014    1.451904    0.714661
    125          1           0       16.662295    0.055027    1.661031
    126          1           0       18.146509   -0.377297   -0.162441
    127          1           0       17.608215    1.013086   -1.093706
    128          1           0       18.093806    2.534010    0.554275
    129          1           0       18.721657    1.357706    1.811872
    130          1           0       20.613031    0.527634   -0.148924
    131          1           0       19.798156    3.293377   -1.140732
    132          1           0       21.099940    2.448515   -1.742851
    133          1           0       19.583144    1.740397   -2.112285
    134          1           0       20.903636    1.842119    2.017282
    135          1           0       21.889703    2.447634    0.677940
    136          1           0       20.524916    3.295098    1.376086
    137          1           0       -7.204129    1.545728    0.131304
    138          1           0       -7.591182   -0.286982    0.010010
 ---------------------------------------------------------------------
 Rotational constants (GHZ):           0.0645969           0.0061731           0.0058100
 Standard basis: SVP (5D, 7F)
 There are  1330 symmetry adapted cartesian basis functions of A   symmetry.
 There are  1266 symmetry adapted basis functions of A   symmetry.
  1266 basis functions,  2118 primitive gaussians,  1330 cartesian basis functions
   236 alpha electrons      236 beta electrons
       nuclear repulsion energy      8305.3963673261 Hartrees.
 NAtoms=  138 NActive=  138 NUniq=  138 SFac= 1.00D+00 NAtFMM=   60 NAOKFM=T Big=T
 Integral buffers will be    131072 words long.
 Regular integral format.
 Two-electron integral symmetry is turned on.
 One-electron integrals computed using PRISM.
 NBasis=  1266 RedAO= T EigKep=  2.99D-04  NBF=  1266
 NBsUse=  1266 1.00D-06 EigRej= -1.00D+00 NBFU=  1266
 ExpMin= 1.22D-01 ExpMax= 2.27D+03 ExpMxC= 3.41D+02 IAcc=3 IRadAn=         5 AccDes= 0.00D+00
 Harris functional with IExCor=  402 and IRadAn=       5 diagonalized for initial guess.
 HarFok:  IExCor=  402 AccDes= 0.00D+00 IRadAn=         5 IDoV= 1 UseB2=F ITyADJ=14
 ICtDFT=  3500011 ScaDFX=  1.000000  1.000000  1.000000  1.000000
 FoFCou: FMM=F IPFlag=           0 FMFlag=      100000 FMFlg1=        2001
         NFxFlg=           0 DoJE=T BraDBF=F KetDBF=T FulRan=T
         wScrn=  0.000000 ICntrl=       500 IOpCl=  0 I1Cent=   200000004 NGrid=           0
         NMat0=    1 NMatS0=      1 NMatT0=    0 NMatD0=    1 NMtDS0=    0 NMtDT0=    0
 Petite list used in FoFCou.
 Requested convergence on RMS density matrix=1.00D-08 within 128 cycles.
 Requested convergence on MAX density matrix=1.00D-06.
 Requested convergence on             energy=1.00D-06.
 No special actions if energy rises.
 Integral accuracy reduced to 1.0D-05 until final iterations.
 Initial convergence to 1.0D-05 achieved.  Increase integral accuracy.
 SCF Done:  E(RB3LYP) =  -2732.97532460     A.U. after   16 cycles
            NFock= 16  Conv=0.62D-08     -V/T= 2.0115
 DoSCS=F DFT=T ScalE2(SS,OS)=  1.000000  1.000000
 ExpMin= 1.22D-01 ExpMax= 2.27D+03 ExpMxC= 3.41D+02 IAcc=3 IRadAn=         5 AccDes= 0.00D+00
 HarFok:  IExCor=  205 AccDes= 0.00D+00 IRadAn=         5 IDoV=-2 UseB2=F ITyADJ=14
 ICtDFT= 12500011 ScaDFX=  1.000000  1.000000  1.000000  1.000000
 GSVD:  LWork=       -4608 too small for GESVD, short by       21440 words or       21440 for optimal perf.
 Range of M.O.s used for correlation:    65  1266
 NBasis=  1266 NAE=   236 NBE=   236 NFC=    64 NFV=     0
 NROrb=   1202 NOA=   172 NOB=   172 NVA=  1030 NVB=  1030

 **** Warning!!: The smallest alpha delta epsilon is  0.86737798D-01

 Orbital symmetries:
       Occupied  (A) (A) (A) (A) (A) (A) (A) (A) (A) (A) (A) (A)
                 (A) (A) (A) (A) (A) (A) (A) (A) (A) (A) (A) (A)
                 (A) (A) (A) (A) (A) (A) (A) (A) (A) (A) (A) (A)
                 (A) (A) (A) (A) (A) (A) (A) (A) (A) (A) (A) (A)
                 (A) (A) (A) (A) (A) (A) (A) (A) (A) (A) (A) (A)
                 (A) (A) (A) (A) (A) (A) (A) (A) (A) (A) (A) (A)
                 (A) (A) (A) (A) (A) (A) (A) (A) (A) (A) (A) (A)
                 (A) (A) (A) (A) (A) (A) (A) (A) (A) (A) (A) (A)
                 (A) (A) (A) (A) (A) (A) (A) (A) (A) (A) (A) (A)
                 (A) (A) (A) (A) (A) (A) (A) (A) (A) (A) (A) (A)
                 (A) (A) (A) (A) (A) (A) (A) (A) (A) (A) (A) (A)
                 (A) (A) (A) (A) (A) (A) (A) (A) (A) (A) (A) (A)
                 (A) (A) (A) (A) (A) (A) (A) (A) (A) (A) (A) (A)
                 (A) (A) (A) (A) (A) (A) (A) (A) (A) (A) (A) (A)
                 (A) (A) (A) (A) (A) (A) (A) (A) (A) (A) (A) (A)
                 (A) (A) (A) (A) (A) (A) (A) (A) (A) (A) (A) (A)
                 (A) (A) (A) (A) (A) (A) (A) (A) (A) (A) (A) (A)
                 (A) (A) (A) (A) (A) (A) (A) (A) (A) (A) (A) (A)
                 (A) (A) (A) (A) (A) (A) (A) (A) (A) (A) (A) (A)
                 (A) (A) (A) (A) (A) (A) (A) (A)
       Virtual   (A) (A) (A) (A) (A) (A) (A) (A) (A) (A) (A) (A)
                 (A) (A) (A) (A) (A) (A) (A) (A) (A) (A) (A) (A)
                 (A) (A) (A) (A) (A) (A) (A) (A) (A) (A) (A) (A)
                 (A) (A) (A) (A) (A) (A) (A) (A) (A) (A) (A) (A)
                 (A) (A) (A) (A) (A) (A) (A) (A) (A) (A) (A) (A)
                 (A) (A) (A) (A) (A) (A) (A) (A) (A) (A) (A) (A)
                 (A) (A) (A) (A) (A) (A) (A) (A) (A) (A) (A) (A)
                 (A) (A) (A) (A) (A) (A) (A) (A) (A) (A) (A) (A)
                 (A) (A) (A) (A) (A) (A) (A) (A) (A) (A) (A) (A)
                 (A) (A) (A) (A) (A) (A) (A) (A) (A) (A) (A) (A)
                 (A) (A) (A) (A) (A) (A) (A) (A) (A) (A) (A) (A)
                 (A) (A) (A) (A) (A) (A) (A) (A) (A) (A) (A) (A)
                 (A) (A) (A) (A) (A) (A) (A) (A) (A) (A) (A) (A)
                 (A) (A) (A) (A) (A) (A) (A) (A) (A) (A) (A) (A)
                 (A) (A) (A) (A) (A) (A) (A) (A) (A) (A) (A) (A)
                 (A) (A) (A) (A) (A) (A) (A) (A) (A) (A) (A) (A)
                 (A) (A) (A) (A) (A) (A) (A) (A) (A) (A) (A) (A)
                 (A) (A) (A) (A) (A) (A) (A) (A) (A) (A) (A) (A)
                 (A) (A) (A) (A) (A) (A) (A) (A) (A) (A) (A) (A)
                 (A) (A) (A) (A) (A) (A) (A) (A) (A) (A) (A) (A)
                 (A) (A) (A) (A) (A) (A) (A) (A) (A) (A) (A) (A)
                 (A) (A) (A) (A) (A) (A) (A) (A) (A) (A) (A) (A)
                 (A) (A) (A) (A) (A) (A) (A) (A) (A) (A) (A) (A)
                 (A) (A) (A) (A) (A) (A) (A) (A) (A) (A) (A) (A)
                 (A) (A) (A) (A) (A) (A) (A) (A) (A) (A) (A) (A)
                 (A) (A) (A) (A) (A) (A) (A) (A) (A) (A) (A) (A)
                 (A) (A) (A) (A) (A) (A) (A) (A) (A) (A) (A) (A)
                 (A) (A) (A) (A) (A) (A) (A) (A) (A) (A) (A) (A)
                 (A) (A) (A) (A) (A) (A) (A) (A) (A) (A) (A) (A)
                 (A) (A) (A) (A) (A) (A) (A) (A) (A) (A) (A) (A)
                 (A) (A) (A) (A) (A) (A) (A) (A) (A) (A) (A) (A)
                 (A) (A) (A) (A) (A) (A) (A) (A) (A) (A) (A) (A)
                 (A) (A) (A) (A) (A) (A) (A) (A) (A) (A) (A) (A)
                 (A) (A) (A) (A) (A) (A) (A) (A) (A) (A) (A) (A)
                 (A) (A) (A) (A) (A) (A) (A) (A) (A) (A) (A) (A)
                 (A) (A) (A) (A) (A) (A) (A) (A) (A) (A) (A) (A)
                 (A) (A) (A) (A) (A) (A) (A) (A) (A) (A) (A) (A)
                 (A) (A) (A) (A) (A) (A) (A) (A) (A) (A) (A) (A)
                 (A) (A) (A) (A) (A) (A) (A) (A) (A) (A) (A) (A)
                 (A) (A) (A) (A) (A) (A) (A) (A) (A) (A) (A) (A)
                 (A) (A) (A) (A) (A) (A) (A) (A) (A) (A) (A) (A)
                 (A) (A) (A) (A) (A) (A) (A) (A) (A) (A) (A) (A)
                 (A) (A) (A) (A) (A) (A) (A) (A) (A) (A) (A) (A)
                 (A) (A) (A) (A) (A) (A) (A) (A) (A) (A) (A) (A)
                 (A) (A) (A) (A) (A) (A) (A) (A) (A) (A) (A) (A)
                 (A) (A) (A) (A) (A) (A) (A) (A) (A) (A) (A) (A)
                 (A) (A) (A) (A) (A) (A) (A) (A) (A) (A) (A) (A)
                 (A) (A) (A) (A) (A) (A) (A) (A) (A) (A) (A) (A)
                 (A) (A) (A) (A) (A) (A) (A) (A) (A) (A) (A) (A)
                 (A) (A) (A) (A) (A) (A) (A) (A) (A) (A) (A) (A)
                 (A) (A) (A) (A) (A) (A) (A) (A) (A) (A) (A) (A)
                 (A) (A) (A) (A) (A) (A) (A) (A) (A) (A) (A) (A)
                 (A) (A) (A) (A) (A) (A) (A) (A) (A) (A) (A) (A)
                 (A) (A) (A) (A) (A) (A) (A) (A) (A) (A) (A) (A)
                 (A) (A) (A) (A) (A) (A) (A) (A) (A) (A) (A) (A)
                 (A) (A) (A) (A) (A) (A) (A) (A) (A) (A) (A) (A)
                 (A) (A) (A) (A) (A) (A) (A) (A) (A) (A) (A) (A)
                 (A) (A) (A) (A) (A) (A) (A) (A) (A) (A) (A) (A)
                 (A) (A) (A) (A) (A) (A) (A) (A) (A) (A) (A) (A)
                 (A) (A) (A) (A) (A) (A) (A) (A) (A) (A) (A) (A)
                 (A) (A) (A) (A) (A) (A) (A) (A) (A) (A) (A) (A)
                 (A) (A) (A) (A) (A) (A) (A) (A) (A) (A) (A) (A)
                 (A) (A) (A) (A) (A) (A) (A) (A) (A) (A) (A) (A)
                 (A) (A) (A) (A) (A) (A) (A) (A) (A) (A) (A) (A)
                 (A) (A) (A) (A) (A) (A) (A) (A) (A) (A) (A) (A)
                 (A) (A) (A) (A) (A) (A) (A) (A) (A) (A) (A) (A)
                 (A) (A) (A) (A) (A) (A) (A) (A) (A) (A) (A) (A)
                 (A) (A) (A) (A) (A) (A) (A) (A) (A) (A) (A) (A)
                 (A) (A) (A) (A) (A) (A) (A) (A) (A) (A) (A) (A)
                 (A) (A) (A) (A) (A) (A) (A) (A) (A) (A) (A) (A)
                 (A) (A) (A) (A) (A) (A) (A) (A) (A) (A) (A) (A)
                 (A) (A) (A) (A) (A) (A) (A) (A) (A) (A) (A) (A)
                 (A) (A) (A) (A) (A) (A) (A) (A) (A) (A) (A) (A)
                 (A) (A) (A) (A) (A) (A) (A) (A) (A) (A) (A) (A)
                 (A) (A) (A) (A) (A) (A) (A) (A) (A) (A) (A) (A)
                 (A) (A) (A) (A) (A) (A) (A) (A) (A) (A) (A) (A)
                 (A) (A) (A) (A) (A) (A) (A) (A) (A) (A) (A) (A)
                 (A) (A) (A) (A) (A) (A) (A) (A) (A) (A) (A) (A)
                 (A) (A) (A) (A) (A) (A) (A) (A) (A) (A) (A) (A)
                 (A) (A) (A) (A) (A) (A) (A) (A) (A) (A) (A) (A)
                 (A) (A) (A) (A) (A) (A) (A) (A) (A) (A) (A) (A)
                 (A) (A) (A) (A) (A) (A) (A) (A) (A) (A) (A) (A)
                 (A) (A) (A) (A) (A) (A) (A) (A) (A) (A) (A) (A)
                 (A) (A) (A) (A) (A) (A) (A) (A) (A) (A) (A) (A)
                 (A) (A) (A) (A) (A) (A) (A) (A) (A) (A) (A) (A)
                 (A) (A) (A) (A) (A) (A) (A) (A) (A) (A)
     4 initial guesses have been made.
 Convergence on wavefunction:    0.001000000000000
 Iteration     1 Dimension     4 NMult     0 NNew      4
 CISAX will form     4 AO SS matrices at one time.
 Iteration     2 Dimension     6 NMult     4 NNew      2
 Iteration     3 Dimension     8 NMult     6 NNew      2
 Iteration     4 Dimension    10 NMult     8 NNew      2
 Iteration     5 Dimension    12 NMult    10 NNew      2
 Iteration     6 Dimension    14 NMult    12 NNew      2
 Iteration     7 Dimension    16 NMult    14 NNew      2
 ***********************************************************************
 Excited states from <AA,BB:AA,BB> singles matrix:
 ***********************************************************************
 
 Ground to excited state transition densities written to RWF  633
 Ground to excited state transition electric dipole moments (Au):
       state          X           Y           Z        Dip. S.      Osc.
         1        -0.1539      1.6282      0.1713      2.7040      0.1339
 Ground to excited state transition velocity dipole moments (Au):
       state          X           Y           Z        Dip. S.      Osc.
         1         0.0102     -0.1187     -0.0132      0.0144      0.1289
 Ground to excited state transition magnetic dipole moments (Au):
       state          X           Y           Z
         1        -0.2237     -0.3199      2.5765
 Ground to excited state transition velocity quadrupole moments (Au):
       state          XX          YY          ZZ          XY          XZ          YZ
         1        -0.2667     -0.1378     -0.0085      1.5672      0.1457     -0.0284
 <0|del|b> * <b|rxdel|0> + <0|del|b> * <b|delr+rdel|0>
 Rotatory Strengths (R) in cgs (10**-40 erg-esu-cm/Gauss)
       state          XX          YY          ZZ    R(velocity)    E-M Angle
         1         3.4803    -75.5243     88.9183      5.6248       89.67
 1/2[<0|r|b>*<b|rxdel|0> + (<0|rxdel|b>*<b|r|0>)*]
 Rotatory Strengths (R) in cgs (10**-40 erg-esu-cm/Gauss)
       state          XX          YY          ZZ     R(length)
         1       -24.3420    368.2881   -312.1136     10.6108
  1/2[<0|del|b>*<b|r|0> + (<0|r|b>*<b|del|0>)*] (Au)
       state          X           Y           Z        Dip. S.   Osc.(frdel)
         1        -0.0016     -0.1932     -0.0023      0.1970      0.1314

 Excitation energies and oscillator strengths:
 
 Excited State   1:      Singlet-A      2.0205 eV  613.63 nm  f=0.1339  <S**2>=0.000
     235 -> 238       -0.33686
     236 -> 237        0.61309
 This state for optimization and/or second-order correction.
 Total Energy, E(TD-HF/TD-DFT) =  -2732.90107298    
 Copying the excited state density for this state as the 1-particle RhoCI density.
 SavETr:  write IOETrn=   770 NScale= 10 NData=  16 NLR=1 NState=    1 LETran=      28.
 Hyperfine terms turned off by default for NAtoms > 100.

 **********************************************************************

            Population analysis using the SCF density.

 **********************************************************************

 Orbital symmetries:
       Occupied  (A) (A) (A) (A) (A) (A) (A) (A) (A) (A) (A) (A)
                 (A) (A) (A) (A) (A) (A) (A) (A) (A) (A) (A) (A)
                 (A) (A) (A) (A) (A) (A) (A) (A) (A) (A) (A) (A)
                 (A) (A) (A) (A) (A) (A) (A) (A) (A) (A) (A) (A)
                 (A) (A) (A) (A) (A) (A) (A) (A) (A) (A) (A) (A)
                 (A) (A) (A) (A) (A) (A) (A) (A) (A) (A) (A) (A)
                 (A) (A) (A) (A) (A) (A) (A) (A) (A) (A) (A) (A)
                 (A) (A) (A) (A) (A) (A) (A) (A) (A) (A) (A) (A)
                 (A) (A) (A) (A) (A) (A) (A) (A) (A) (A) (A) (A)
                 (A) (A) (A) (A) (A) (A) (A) (A) (A) (A) (A) (A)
                 (A) (A) (A) (A) (A) (A) (A) (A) (A) (A) (A) (A)
                 (A) (A) (A) (A) (A) (A) (A) (A) (A) (A) (A) (A)
                 (A) (A) (A) (A) (A) (A) (A) (A) (A) (A) (A) (A)
                 (A) (A) (A) (A) (A) (A) (A) (A) (A) (A) (A) (A)
                 (A) (A) (A) (A) (A) (A) (A) (A) (A) (A) (A) (A)
                 (A) (A) (A) (A) (A) (A) (A) (A) (A) (A) (A) (A)
                 (A) (A) (A) (A) (A) (A) (A) (A) (A) (A) (A) (A)
                 (A) (A) (A) (A) (A) (A) (A) (A) (A) (A) (A) (A)
                 (A) (A) (A) (A) (A) (A) (A) (A) (A) (A) (A) (A)
                 (A) (A) (A) (A) (A) (A) (A) (A)
       Virtual   (A) (A) (A) (A) (A) (A) (A) (A) (A) (A) (A) (A)
                 (A) (A) (A) (A) (A) (A) (A) (A) (A) (A) (A) (A)
                 (A) (A) (A) (A) (A) (A) (A) (A) (A) (A) (A) (A)
                 (A) (A) (A) (A) (A) (A) (A) (A) (A) (A) (A) (A)
                 (A) (A) (A) (A) (A) (A) (A) (A) (A) (A) (A) (A)
                 (A) (A) (A) (A) (A) (A) (A) (A) (A) (A) (A) (A)
                 (A) (A) (A) (A) (A) (A) (A) (A) (A) (A) (A) (A)
                 (A) (A) (A) (A) (A) (A) (A) (A) (A) (A) (A) (A)
                 (A) (A) (A) (A) (A) (A) (A) (A) (A) (A) (A) (A)
                 (A) (A) (A) (A) (A) (A) (A) (A) (A) (A) (A) (A)
                 (A) (A) (A) (A) (A) (A) (A) (A) (A) (A) (A) (A)
                 (A) (A) (A) (A) (A) (A) (A) (A) (A) (A) (A) (A)
                 (A) (A) (A) (A) (A) (A) (A) (A) (A) (A) (A) (A)
                 (A) (A) (A) (A) (A) (A) (A) (A) (A) (A) (A) (A)
                 (A) (A) (A) (A) (A) (A) (A) (A) (A) (A) (A) (A)
                 (A) (A) (A) (A) (A) (A) (A) (A) (A) (A) (A) (A)
                 (A) (A) (A) (A) (A) (A) (A) (A) (A) (A) (A) (A)
                 (A) (A) (A) (A) (A) (A) (A) (A) (A) (A) (A) (A)
                 (A) (A) (A) (A) (A) (A) (A) (A) (A) (A) (A) (A)
                 (A) (A) (A) (A) (A) (A) (A) (A) (A) (A) (A) (A)
                 (A) (A) (A) (A) (A) (A) (A) (A) (A) (A) (A) (A)
                 (A) (A) (A) (A) (A) (A) (A) (A) (A) (A) (A) (A)
                 (A) (A) (A) (A) (A) (A) (A) (A) (A) (A) (A) (A)
                 (A) (A) (A) (A) (A) (A) (A) (A) (A) (A) (A) (A)
                 (A) (A) (A) (A) (A) (A) (A) (A) (A) (A) (A) (A)
                 (A) (A) (A) (A) (A) (A) (A) (A) (A) (A) (A) (A)
                 (A) (A) (A) (A) (A) (A) (A) (A) (A) (A) (A) (A)
                 (A) (A) (A) (A) (A) (A) (A) (A) (A) (A) (A) (A)
                 (A) (A) (A) (A) (A) (A) (A) (A) (A) (A) (A) (A)
                 (A) (A) (A) (A) (A) (A) (A) (A) (A) (A) (A) (A)
                 (A) (A) (A) (A) (A) (A) (A) (A) (A) (A) (A) (A)
                 (A) (A) (A) (A) (A) (A) (A) (A) (A) (A) (A) (A)
                 (A) (A) (A) (A) (A) (A) (A) (A) (A) (A) (A) (A)
                 (A) (A) (A) (A) (A) (A) (A) (A) (A) (A) (A) (A)
                 (A) (A) (A) (A) (A) (A) (A) (A) (A) (A) (A) (A)
                 (A) (A) (A) (A) (A) (A) (A) (A) (A) (A) (A) (A)
                 (A) (A) (A) (A) (A) (A) (A) (A) (A) (A) (A) (A)
                 (A) (A) (A) (A) (A) (A) (A) (A) (A) (A) (A) (A)
                 (A) (A) (A) (A) (A) (A) (A) (A) (A) (A) (A) (A)
                 (A) (A) (A) (A) (A) (A) (A) (A) (A) (A) (A) (A)
                 (A) (A) (A) (A) (A) (A) (A) (A) (A) (A) (A) (A)
                 (A) (A) (A) (A) (A) (A) (A) (A) (A) (A) (A) (A)
                 (A) (A) (A) (A) (A) (A) (A) (A) (A) (A) (A) (A)
                 (A) (A) (A) (A) (A) (A) (A) (A) (A) (A) (A) (A)
                 (A) (A) (A) (A) (A) (A) (A) (A) (A) (A) (A) (A)
                 (A) (A) (A) (A) (A) (A) (A) (A) (A) (A) (A) (A)
                 (A) (A) (A) (A) (A) (A) (A) (A) (A) (A) (A) (A)
                 (A) (A) (A) (A) (A) (A) (A) (A) (A) (A) (A) (A)
                 (A) (A) (A) (A) (A) (A) (A) (A) (A) (A) (A) (A)
                 (A) (A) (A) (A) (A) (A) (A) (A) (A) (A) (A) (A)
                 (A) (A) (A) (A) (A) (A) (A) (A) (A) (A) (A) (A)
                 (A) (A) (A) (A) (A) (A) (A) (A) (A) (A) (A) (A)
                 (A) (A) (A) (A) (A) (A) (A) (A) (A) (A) (A) (A)
                 (A) (A) (A) (A) (A) (A) (A) (A) (A) (A) (A) (A)
                 (A) (A) (A) (A) (A) (A) (A) (A) (A) (A) (A) (A)
                 (A) (A) (A) (A) (A) (A) (A) (A) (A) (A) (A) (A)
                 (A) (A) (A) (A) (A) (A) (A) (A) (A) (A) (A) (A)
                 (A) (A) (A) (A) (A) (A) (A) (A) (A) (A) (A) (A)
                 (A) (A) (A) (A) (A) (A) (A) (A) (A) (A) (A) (A)
                 (A) (A) (A) (A) (A) (A) (A) (A) (A) (A) (A) (A)
                 (A) (A) (A) (A) (A) (A) (A) (A) (A) (A) (A) (A)
                 (A) (A) (A) (A) (A) (A) (A) (A) (A) (A) (A) (A)
                 (A) (A) (A) (A) (A) (A) (A) (A) (A) (A) (A) (A)
                 (A) (A) (A) (A) (A) (A) (A) (A) (A) (A) (A) (A)
                 (A) (A) (A) (A) (A) (A) (A) (A) (A) (A) (A) (A)
                 (A) (A) (A) (A) (A) (A) (A) (A) (A) (A) (A) (A)
                 (A) (A) (A) (A) (A) (A) (A) (A) (A) (A) (A) (A)
                 (A) (A) (A) (A) (A) (A) (A) (A) (A) (A) (A) (A)
                 (A) (A) (A) (A) (A) (A) (A) (A) (A) (A) (A) (A)
                 (A) (A) (A) (A) (A) (A) (A) (A) (A) (A) (A) (A)
                 (A) (A) (A) (A) (A) (A) (A) (A) (A) (A) (A) (A)
                 (A) (A) (A) (A) (A) (A) (A) (A) (A) (A) (A) (A)
                 (A) (A) (A) (A) (A) (A) (A) (A) (A) (A) (A) (A)
                 (A) (A) (A) (A) (A) (A) (A) (A) (A) (A) (A) (A)
                 (A) (A) (A) (A) (A) (A) (A) (A) (A) (A) (A) (A)
                 (A) (A) (A) (A) (A) (A) (A) (A) (A) (A) (A) (A)
                 (A) (A) (A) (A) (A) (A) (A) (A) (A) (A) (A) (A)
                 (A) (A) (A) (A) (A) (A) (A) (A) (A) (A) (A) (A)
                 (A) (A) (A) (A) (A) (A) (A) (A) (A) (A) (A) (A)
                 (A) (A) (A) (A) (A) (A) (A) (A) (A) (A) (A) (A)
                 (A) (A) (A) (A) (A) (A) (A) (A) (A) (A) (A) (A)
                 (A) (A) (A) (A) (A) (A) (A) (A) (A) (A) (A) (A)
                 (A) (A) (A) (A) (A) (A) (A) (A) (A) (A) (A) (A)
                 (A) (A) (A) (A) (A) (A) (A) (A) (A) (A) (A) (A)
                 (A) (A) (A) (A) (A) (A) (A) (A) (A) (A) (A) (A)
                 (A) (A) (A) (A) (A) (A) (A) (A) (A) (A)
 The electronic state is 1-A.
 Alpha  occ. eigenvalues --  -19.18179 -19.17139 -19.13114 -19.12720 -19.12244
 Alpha  occ. eigenvalues --  -14.37018 -14.36997 -14.31747 -14.29397 -10.32079
 Alpha  occ. eigenvalues --  -10.31884 -10.27772 -10.26486 -10.25965 -10.23850
 Alpha  occ. eigenvalues --  -10.23748 -10.23510 -10.22972 -10.22960 -10.22913
 Alpha  occ. eigenvalues --  -10.22336 -10.22163 -10.21727 -10.21104 -10.21068
 Alpha  occ. eigenvalues --  -10.20996 -10.20835 -10.20787 -10.20464 -10.20355
 Alpha  occ. eigenvalues --  -10.20294 -10.20239 -10.20163 -10.20161 -10.20079
 Alpha  occ. eigenvalues --  -10.20072 -10.20068 -10.20039 -10.19963 -10.19835
 Alpha  occ. eigenvalues --  -10.19831 -10.19810 -10.19769 -10.19746 -10.19610
 Alpha  occ. eigenvalues --  -10.19429 -10.19323 -10.19263 -10.19100 -10.18902
 Alpha  occ. eigenvalues --  -10.18751 -10.18656 -10.18280 -10.18153 -10.17705
 Alpha  occ. eigenvalues --  -10.17658 -10.17563 -10.17510 -10.17244 -10.17224
 Alpha  occ. eigenvalues --  -10.17186 -10.17147 -10.17041 -10.16586  -1.09073
 Alpha  occ. eigenvalues --   -1.08191  -1.06611  -1.00490  -0.99828  -0.98386
 Alpha  occ. eigenvalues --   -0.94921  -0.94118  -0.93600  -0.84481  -0.83253
 Alpha  occ. eigenvalues --   -0.82287  -0.81433  -0.81432  -0.80816  -0.80359
 Alpha  occ. eigenvalues --   -0.79931  -0.79356  -0.79231  -0.79125  -0.77588
 Alpha  occ. eigenvalues --   -0.76730  -0.76168  -0.75862  -0.75233  -0.74887
 Alpha  occ. eigenvalues --   -0.73784  -0.73591  -0.72523  -0.72294  -0.69775
 Alpha  occ. eigenvalues --   -0.69456  -0.68902  -0.68349  -0.68157  -0.67783
 Alpha  occ. eigenvalues --   -0.66946  -0.66874  -0.65906  -0.65847  -0.64728
 Alpha  occ. eigenvalues --   -0.64024  -0.62697  -0.62526  -0.60961  -0.60216
 Alpha  occ. eigenvalues --   -0.60131  -0.58727  -0.58470  -0.57752  -0.57645
 Alpha  occ. eigenvalues --   -0.57345  -0.55986  -0.55890  -0.55030  -0.55005
 Alpha  occ. eigenvalues --   -0.54776  -0.54601  -0.54494  -0.53489  -0.53403
 Alpha  occ. eigenvalues --   -0.52679  -0.51926  -0.51899  -0.51015  -0.50366
 Alpha  occ. eigenvalues --   -0.49759  -0.49428  -0.48648  -0.48505  -0.48250
 Alpha  occ. eigenvalues --   -0.47762  -0.47662  -0.47416  -0.47116  -0.46983
 Alpha  occ. eigenvalues --   -0.46421  -0.46256  -0.46145  -0.45790  -0.45546
 Alpha  occ. eigenvalues --   -0.45484  -0.45208  -0.45130  -0.45056  -0.44640
 Alpha  occ. eigenvalues --   -0.44252  -0.44243  -0.44148  -0.44009  -0.43742
 Alpha  occ. eigenvalues --   -0.43556  -0.43483  -0.43105  -0.42828  -0.42742
 Alpha  occ. eigenvalues --   -0.42599  -0.42464  -0.42257  -0.41603  -0.41433
 Alpha  occ. eigenvalues --   -0.41015  -0.40862  -0.40798  -0.40674  -0.40539
 Alpha  occ. eigenvalues --   -0.40528  -0.40339  -0.39829  -0.39747  -0.39454
 Alpha  occ. eigenvalues --   -0.39262  -0.38766  -0.38689  -0.38637  -0.38526
 Alpha  occ. eigenvalues --   -0.37854  -0.37771  -0.37537  -0.37303  -0.37233
 Alpha  occ. eigenvalues --   -0.37033  -0.36956  -0.36762  -0.36654  -0.36599
 Alpha  occ. eigenvalues --   -0.36556  -0.36032  -0.35771  -0.35673  -0.35551
 Alpha  occ. eigenvalues --   -0.35325  -0.35212  -0.34983  -0.34777  -0.34757
 Alpha  occ. eigenvalues --   -0.34623  -0.34345  -0.34100  -0.33497  -0.33311
 Alpha  occ. eigenvalues --   -0.33262  -0.32966  -0.32639  -0.32577  -0.32517
 Alpha  occ. eigenvalues --   -0.32170  -0.31856  -0.31716  -0.31436  -0.31329
 Alpha  occ. eigenvalues --   -0.30886  -0.30646  -0.30393  -0.30126  -0.29941
 Alpha  occ. eigenvalues --   -0.29413  -0.28806  -0.28491  -0.28223  -0.28100
 Alpha  occ. eigenvalues --   -0.27598  -0.26688  -0.26226  -0.26156  -0.25963
 Alpha  occ. eigenvalues --   -0.25243  -0.23977  -0.23640  -0.22054  -0.19528
 Alpha  occ. eigenvalues --   -0.18670
 Alpha virt. eigenvalues --   -0.09996  -0.08002  -0.03694  -0.01676  -0.01338
 Alpha virt. eigenvalues --   -0.01216  -0.00541   0.00646   0.01578   0.03044
 Alpha virt. eigenvalues --    0.03762   0.03811   0.04360   0.04672   0.04845
 Alpha virt. eigenvalues --    0.05005   0.05192   0.05210   0.05525   0.05661
 Alpha virt. eigenvalues --    0.05913   0.06172   0.06260   0.06419   0.06545
 Alpha virt. eigenvalues --    0.06643   0.06852   0.06888   0.07243   0.07765
 Alpha virt. eigenvalues --    0.07843   0.08080   0.08207   0.08602   0.08839
 Alpha virt. eigenvalues --    0.09136   0.09280   0.09622   0.09737   0.09954
 Alpha virt. eigenvalues --    0.10019   0.10236   0.10340   0.10512   0.10809
 Alpha virt. eigenvalues --    0.10907   0.11128   0.11339   0.11494   0.11606
 Alpha virt. eigenvalues --    0.11731   0.11880   0.11912   0.12025   0.12116
 Alpha virt. eigenvalues --    0.12611   0.12655   0.12660   0.13060   0.13086
 Alpha virt. eigenvalues --    0.13174   0.13212   0.13349   0.13762   0.13904
 Alpha virt. eigenvalues --    0.14069   0.14154   0.14223   0.14482   0.14606
 Alpha virt. eigenvalues --    0.14672   0.15529   0.15759   0.16098   0.16215
 Alpha virt. eigenvalues --    0.16326   0.16394   0.16732   0.16838   0.16924
 Alpha virt. eigenvalues --    0.17129   0.17334   0.17489   0.17819   0.17916
 Alpha virt. eigenvalues --    0.17995   0.18038   0.18437   0.18780   0.18922
 Alpha virt. eigenvalues --    0.18972   0.19271   0.19364   0.19646   0.19814
 Alpha virt. eigenvalues --    0.20145   0.20595   0.20653   0.21067   0.21356
 Alpha virt. eigenvalues --    0.21387   0.21870   0.22283   0.22385   0.22638
 Alpha virt. eigenvalues --    0.23285   0.23329   0.23409   0.23444   0.24049
 Alpha virt. eigenvalues --    0.24439   0.24513   0.24717   0.24848   0.25131
 Alpha virt. eigenvalues --    0.25482   0.25761   0.25965   0.26354   0.26744
 Alpha virt. eigenvalues --    0.26848   0.26964   0.27167   0.27366   0.27777
 Alpha virt. eigenvalues --    0.27953   0.28286   0.28472   0.28739   0.29111
 Alpha virt. eigenvalues --    0.29643   0.29990   0.30227   0.30561   0.31761
 Alpha virt. eigenvalues --    0.32153   0.32183   0.32590   0.32722   0.32976
 Alpha virt. eigenvalues --    0.33247   0.33781   0.33984   0.34721   0.35203
 Alpha virt. eigenvalues --    0.35798   0.35942   0.36096   0.36800   0.37278
 Alpha virt. eigenvalues --    0.37478   0.38024   0.38214   0.38534   0.38685
 Alpha virt. eigenvalues --    0.39273   0.39547   0.39598   0.39754   0.39982
 Alpha virt. eigenvalues --    0.40167   0.40273   0.40444   0.40747   0.40822
 Alpha virt. eigenvalues --    0.41288   0.41783   0.41893   0.42105   0.42332
 Alpha virt. eigenvalues --    0.42406   0.42758   0.42949   0.43103   0.43138
 Alpha virt. eigenvalues --    0.43281   0.43759   0.43828   0.43910   0.44486
 Alpha virt. eigenvalues --    0.44789   0.44920   0.45112   0.45296   0.45531
 Alpha virt. eigenvalues --    0.45695   0.45861   0.46223   0.46477   0.46913
 Alpha virt. eigenvalues --    0.47187   0.47347   0.47749   0.47951   0.47982
 Alpha virt. eigenvalues --    0.48225   0.48428   0.48488   0.48819   0.48928
 Alpha virt. eigenvalues --    0.49052   0.49159   0.49502   0.50004   0.50155
 Alpha virt. eigenvalues --    0.50475   0.50569   0.50670   0.50897   0.51016
 Alpha virt. eigenvalues --    0.51456   0.51689   0.51866   0.52570   0.52885
 Alpha virt. eigenvalues --    0.53034   0.53521   0.53642   0.53763   0.54052
 Alpha virt. eigenvalues --    0.54522   0.54589   0.54760   0.55234   0.55319
 Alpha virt. eigenvalues --    0.55429   0.55556   0.55833   0.56159   0.56189
 Alpha virt. eigenvalues --    0.56439   0.56743   0.57295   0.57418   0.57713
 Alpha virt. eigenvalues --    0.57914   0.58102   0.58128   0.58392   0.58444
 Alpha virt. eigenvalues --    0.58655   0.59067   0.59133   0.59223   0.59449
 Alpha virt. eigenvalues --    0.59503   0.59730   0.59964   0.60087   0.60140
 Alpha virt. eigenvalues --    0.60390   0.60603   0.60768   0.60935   0.61101
 Alpha virt. eigenvalues --    0.61218   0.61300   0.61493   0.61589   0.61815
 Alpha virt. eigenvalues --    0.62048   0.62372   0.62439   0.62483   0.62590
 Alpha virt. eigenvalues --    0.62663   0.62794   0.62986   0.63207   0.63232
 Alpha virt. eigenvalues --    0.63339   0.63562   0.63847   0.64096   0.64284
 Alpha virt. eigenvalues --    0.64303   0.64496   0.64696   0.64834   0.64977
 Alpha virt. eigenvalues --    0.65195   0.65362   0.65398   0.65485   0.65657
 Alpha virt. eigenvalues --    0.65768   0.65793   0.65930   0.66108   0.66248
 Alpha virt. eigenvalues --    0.66321   0.66476   0.66590   0.66823   0.66970
 Alpha virt. eigenvalues --    0.67136   0.67157   0.67212   0.67276   0.67534
 Alpha virt. eigenvalues --    0.67612   0.67840   0.68047   0.68159   0.68215
 Alpha virt. eigenvalues --    0.68287   0.68557   0.68735   0.68872   0.69106
 Alpha virt. eigenvalues --    0.69323   0.69386   0.69477   0.69656   0.69757
 Alpha virt. eigenvalues --    0.69957   0.70009   0.70167   0.70205   0.70430
 Alpha virt. eigenvalues --    0.70568   0.70828   0.70955   0.71214   0.71429
 Alpha virt. eigenvalues --    0.71490   0.71552   0.71689   0.71800   0.71842
 Alpha virt. eigenvalues --    0.72009   0.72272   0.72417   0.72635   0.72815
 Alpha virt. eigenvalues --    0.72861   0.73039   0.73348   0.73572   0.73753
 Alpha virt. eigenvalues --    0.73918   0.74070   0.74150   0.74361   0.74556
 Alpha virt. eigenvalues --    0.74604   0.74815   0.75151   0.75276   0.75419
 Alpha virt. eigenvalues --    0.75684   0.76001   0.76070   0.76214   0.76515
 Alpha virt. eigenvalues --    0.76567   0.76763   0.77043   0.77201   0.77831
 Alpha virt. eigenvalues --    0.78146   0.78280   0.78421   0.78514   0.78810
 Alpha virt. eigenvalues --    0.79057   0.79436   0.79709   0.79915   0.80106
 Alpha virt. eigenvalues --    0.80292   0.80775   0.81150   0.81245   0.81464
 Alpha virt. eigenvalues --    0.82006   0.82301   0.82558   0.82634   0.83092
 Alpha virt. eigenvalues --    0.83552   0.83902   0.84791   0.85590   0.85891
 Alpha virt. eigenvalues --    0.86333   0.86488   0.86929   0.87580   0.88070
 Alpha virt. eigenvalues --    0.88321   0.88973   0.89326   0.90001   0.90381
 Alpha virt. eigenvalues --    0.90604   0.90763   0.91881   0.92254   0.92500
 Alpha virt. eigenvalues --    0.93394   0.93517   0.93867   0.94200   0.95091
 Alpha virt. eigenvalues --    0.95184   0.95670   0.96937   0.97053   0.97313
 Alpha virt. eigenvalues --    0.97720   0.98154   0.98288   0.98910   0.99329
 Alpha virt. eigenvalues --    0.99428   0.99907   1.00408   1.01364   1.01649
 Alpha virt. eigenvalues --    1.02198   1.02559   1.02991   1.03617   1.03854
 Alpha virt. eigenvalues --    1.04139   1.04927   1.05409   1.05589   1.05744
 Alpha virt. eigenvalues --    1.06187   1.06726   1.07345   1.07641   1.08163
 Alpha virt. eigenvalues --    1.09232   1.09313   1.09371   1.09864   1.10195
 Alpha virt. eigenvalues --    1.10527   1.10714   1.10997   1.11468   1.12100
 Alpha virt. eigenvalues --    1.12770   1.13234   1.14224   1.15058   1.15330
 Alpha virt. eigenvalues --    1.15931   1.16171   1.16341   1.16514   1.17396
 Alpha virt. eigenvalues --    1.17636   1.17993   1.18156   1.18375   1.18790
 Alpha virt. eigenvalues --    1.18964   1.19739   1.19910   1.20291   1.20903
 Alpha virt. eigenvalues --    1.21579   1.21995   1.22049   1.22370   1.23372
 Alpha virt. eigenvalues --    1.23707   1.23932   1.24708   1.25171   1.25289
 Alpha virt. eigenvalues --    1.25649   1.26303   1.26427   1.26861   1.27131
 Alpha virt. eigenvalues --    1.27580   1.27898   1.28046   1.28359   1.28618
 Alpha virt. eigenvalues --    1.28802   1.29197   1.29393   1.29602   1.30485
 Alpha virt. eigenvalues --    1.30967   1.31312   1.31556   1.32121   1.32445
 Alpha virt. eigenvalues --    1.32989   1.33184   1.33239   1.33697   1.34113
 Alpha virt. eigenvalues --    1.34382   1.34765   1.35683   1.36097   1.36854
 Alpha virt. eigenvalues --    1.36901   1.37721   1.37933   1.38482   1.38525
 Alpha virt. eigenvalues --    1.39040   1.39577   1.40361   1.40551   1.40925
 Alpha virt. eigenvalues --    1.41266   1.41423   1.43083   1.43222   1.43721
 Alpha virt. eigenvalues --    1.44197   1.44235   1.44866   1.45184   1.45349
 Alpha virt. eigenvalues --    1.46095   1.46705   1.47201   1.47496   1.48150
 Alpha virt. eigenvalues --    1.48383   1.48938   1.49071   1.49624   1.49852
 Alpha virt. eigenvalues --    1.50143   1.50214   1.50408   1.50681   1.50755
 Alpha virt. eigenvalues --    1.51569   1.51743   1.52685   1.53115   1.53300
 Alpha virt. eigenvalues --    1.53516   1.53543   1.53945   1.54439   1.54454
 Alpha virt. eigenvalues --    1.54535   1.55014   1.55016   1.55230   1.55332
 Alpha virt. eigenvalues --    1.55770   1.56004   1.56262   1.56706   1.57259
 Alpha virt. eigenvalues --    1.57809   1.58188   1.58468   1.58561   1.59032
 Alpha virt. eigenvalues --    1.59613   1.59646   1.59835   1.60976   1.61262
 Alpha virt. eigenvalues --    1.61492   1.61631   1.61884   1.62993   1.63263
 Alpha virt. eigenvalues --    1.63568   1.63868   1.64626   1.64984   1.65121
 Alpha virt. eigenvalues --    1.65460   1.65957   1.66085   1.66357   1.66640
 Alpha virt. eigenvalues --    1.67167   1.67283   1.67488   1.67736   1.68140
 Alpha virt. eigenvalues --    1.68318   1.68727   1.68794   1.68891   1.69208
 Alpha virt. eigenvalues --    1.69347   1.69671   1.70020   1.70226   1.70354
 Alpha virt. eigenvalues --    1.70663   1.71183   1.71238   1.71735   1.72155
 Alpha virt. eigenvalues --    1.72211   1.72301   1.72876   1.73301   1.73584
 Alpha virt. eigenvalues --    1.73835   1.74012   1.74484   1.74587   1.74800
 Alpha virt. eigenvalues --    1.74907   1.75057   1.75156   1.75369   1.75493
 Alpha virt. eigenvalues --    1.75619   1.75969   1.76353   1.76414   1.76672
 Alpha virt. eigenvalues --    1.77046   1.77085   1.77313   1.77535   1.77653
 Alpha virt. eigenvalues --    1.77930   1.77955   1.78485   1.78533   1.78551
 Alpha virt. eigenvalues --    1.79188   1.79225   1.79485   1.79746   1.79948
 Alpha virt. eigenvalues --    1.80074   1.80634   1.80874   1.81082   1.81332
 Alpha virt. eigenvalues --    1.81411   1.81744   1.81879   1.81936   1.82253
 Alpha virt. eigenvalues --    1.82387   1.82544   1.82778   1.82910   1.83000
 Alpha virt. eigenvalues --    1.83359   1.83554   1.83651   1.84046   1.84187
 Alpha virt. eigenvalues --    1.84341   1.84546   1.84922   1.85223   1.85275
 Alpha virt. eigenvalues --    1.85536   1.85681   1.85970   1.86074   1.86289
 Alpha virt. eigenvalues --    1.86452   1.86658   1.86765   1.87259   1.87313
 Alpha virt. eigenvalues --    1.87417   1.87639   1.87948   1.88016   1.88234
 Alpha virt. eigenvalues --    1.88609   1.88730   1.89236   1.89497   1.89877
 Alpha virt. eigenvalues --    1.89989   1.90082   1.90399   1.90577   1.90649
 Alpha virt. eigenvalues --    1.90816   1.91140   1.91647   1.91743   1.92035
 Alpha virt. eigenvalues --    1.92335   1.92437   1.92516   1.92751   1.93020
 Alpha virt. eigenvalues --    1.93312   1.93483   1.93622   1.93961   1.94127
 Alpha virt. eigenvalues --    1.94500   1.94572   1.94827   1.95164   1.95333
 Alpha virt. eigenvalues --    1.95732   1.96365   1.96774   1.96864   1.96920
 Alpha virt. eigenvalues --    1.97286   1.97374   1.97970   1.98139   1.98287
 Alpha virt. eigenvalues --    1.98460   1.98870   1.99484   1.99758   2.00001
 Alpha virt. eigenvalues --    2.00183   2.00270   2.00768   2.01110   2.01271
 Alpha virt. eigenvalues --    2.01405   2.01495   2.02559   2.02907   2.03219
 Alpha virt. eigenvalues --    2.03458   2.03885   2.04151   2.04985   2.05175
 Alpha virt. eigenvalues --    2.05851   2.06009   2.06209   2.06538   2.07042
 Alpha virt. eigenvalues --    2.07317   2.07504   2.07790   2.08041   2.08590
 Alpha virt. eigenvalues --    2.08646   2.09335   2.09518   2.09703   2.10254
 Alpha virt. eigenvalues --    2.10653   2.10677   2.11635   2.11737   2.11802
 Alpha virt. eigenvalues --    2.12932   2.13270   2.13576   2.14489   2.14561
 Alpha virt. eigenvalues --    2.14608   2.15593   2.15929   2.15956   2.16755
 Alpha virt. eigenvalues --    2.16905   2.17069   2.18119   2.18294   2.18466
 Alpha virt. eigenvalues --    2.19135   2.19346   2.19597   2.19828   2.20071
 Alpha virt. eigenvalues --    2.20341   2.21043   2.21205   2.21299   2.21571
 Alpha virt. eigenvalues --    2.22096   2.22322   2.22653   2.23105   2.23261
 Alpha virt. eigenvalues --    2.23788   2.24498   2.24586   2.24888   2.25472
 Alpha virt. eigenvalues --    2.25923   2.26010   2.26252   2.26702   2.27090
 Alpha virt. eigenvalues --    2.27305   2.27522   2.27586   2.28598   2.28687
 Alpha virt. eigenvalues --    2.29335   2.29643   2.29930   2.30070   2.31160
 Alpha virt. eigenvalues --    2.31657   2.32088   2.32496   2.32716   2.32777
 Alpha virt. eigenvalues --    2.32984   2.33762   2.33846   2.34302   2.34723
 Alpha virt. eigenvalues --    2.35205   2.35641   2.35889   2.36144   2.37130
 Alpha virt. eigenvalues --    2.37539   2.37679   2.38183   2.38263   2.39417
 Alpha virt. eigenvalues --    2.39838   2.39891   2.40043   2.40757   2.40817
 Alpha virt. eigenvalues --    2.41303   2.41511   2.41711   2.42421   2.43138
 Alpha virt. eigenvalues --    2.43224   2.43852   2.44455   2.44568   2.44646
 Alpha virt. eigenvalues --    2.45037   2.45184   2.45272   2.45606   2.45767
 Alpha virt. eigenvalues --    2.46423   2.47098   2.47156   2.47908   2.48096
 Alpha virt. eigenvalues --    2.48329   2.49232   2.49607   2.49707   2.50035
 Alpha virt. eigenvalues --    2.50786   2.50952   2.51314   2.51838   2.52057
 Alpha virt. eigenvalues --    2.52329   2.52785   2.52953   2.53621   2.54275
 Alpha virt. eigenvalues --    2.54470   2.55383   2.55415   2.55785   2.56101
 Alpha virt. eigenvalues --    2.56430   2.56651   2.57263   2.58418   2.58732
 Alpha virt. eigenvalues --    2.60303   2.60499   2.60738   2.61295   2.61366
 Alpha virt. eigenvalues --    2.61594   2.62379   2.62493   2.62850   2.63355
 Alpha virt. eigenvalues --    2.63446   2.64023   2.64503   2.64603   2.65104
 Alpha virt. eigenvalues --    2.65252   2.66086   2.66169   2.66679   2.66817
 Alpha virt. eigenvalues --    2.67543   2.67732   2.68229   2.68443   2.69074
 Alpha virt. eigenvalues --    2.69354   2.69749   2.71118   2.71206   2.71547
 Alpha virt. eigenvalues --    2.71850   2.72762   2.73189   2.73370   2.73926
 Alpha virt. eigenvalues --    2.74172   2.74925   2.75657   2.75708   2.76122
 Alpha virt. eigenvalues --    2.76321   2.76491   2.76887   2.77244   2.77923
 Alpha virt. eigenvalues --    2.78090   2.79319   2.79440   2.79851   2.80767
 Alpha virt. eigenvalues --    2.80787   2.81214   2.81376   2.81716   2.82073
 Alpha virt. eigenvalues --    2.82514   2.83017   2.83338   2.84271   2.84316
 Alpha virt. eigenvalues --    2.84567   2.85496   2.86010   2.86188   2.86496
 Alpha virt. eigenvalues --    2.86933   2.87624   2.88119   2.88639   2.89539
 Alpha virt. eigenvalues --    2.89739   2.89886   2.89959   2.91217   2.91330
 Alpha virt. eigenvalues --    2.91689   2.92237   2.92553   2.92869   2.93136
 Alpha virt. eigenvalues --    2.93509   2.93904   2.94041   2.94898   2.95385
 Alpha virt. eigenvalues --    2.95552   2.96428   2.96536   2.97538   2.97586
 Alpha virt. eigenvalues --    2.97794   2.98074   2.98646   2.99756   3.00901
 Alpha virt. eigenvalues --    3.01303   3.02266   3.02503   3.03065   3.04011
 Alpha virt. eigenvalues --    3.04263   3.05504   3.06442   3.06763   3.07421
 Alpha virt. eigenvalues --    3.07684   3.08264   3.08941   3.09585   3.10388
 Alpha virt. eigenvalues --    3.11265   3.11431   3.12554   3.13109   3.13144
 Alpha virt. eigenvalues --    3.14975   3.15847   3.16031   3.16841   3.17014
 Alpha virt. eigenvalues --    3.18244   3.19342   3.20619   3.20942   3.22101
 Alpha virt. eigenvalues --    3.23446   3.24050   3.24597   3.25138   3.25418
 Alpha virt. eigenvalues --    3.25941   3.26038   3.27340   3.29256   3.34892
 Alpha virt. eigenvalues --    3.36769   3.38743   3.39534   3.40854   3.46781
 Alpha virt. eigenvalues --    3.48808   3.54352   3.55664   3.57938   3.59137
 Alpha virt. eigenvalues --    3.59703   3.60991   3.63911   3.66690   3.73459
          Condensed to atoms (all electrons):
 Mulliken charges:
               1
     1  C   -0.019806
     2  C    0.053301
     3  C   -0.048863
     4  C   -0.079786
     5  N   -0.163864
     6  C   -0.110239
     7  C   -0.047832
     8  C   -0.044344
     9  C    0.025938
    10  C    0.002228
    11  C    0.115431
    12  C   -0.073856
    13  C    0.215400
    14  O   -0.229029
    15  O   -0.339041
    16  N   -0.224385
    17  C    0.140521
    18  C   -0.086061
    19  C    0.018488
    20  C   -0.002050
    21  C    0.085066
    22  C   -0.072590
    23  C    0.069274
    24  N   -0.246134
    25  C    0.133445
    26  C   -0.067968
    27  C   -0.120357
    28  C   -0.004638
    29  C    0.011344
    30  C    0.144867
    31  C   -0.012446
    32  N   -0.033554
    33  C    0.096552
    34  C   -0.115566
    35  C   -0.017297
    36  C    0.071788
    37  C   -0.013767
    38  C    0.043396
    39  O   -0.081923
    40  C   -0.043808
    41  C    0.229806
    42  O   -0.251916
    43  O   -0.289120
    44  C    0.138647
    45  C    0.237282
    46  C   -0.096908
    47  C   -0.105530
    48  C    0.052428
    49  C    0.099851
    50  C    0.044537
    51  C   -0.055397
    52  C    0.056527
    53  C   -0.082635
    54  C   -0.049460
    55  C    0.125676
    56  C    0.148498
    57  C   -0.084198
    58  C    0.008938
    59  C    0.059583
    60  C    0.031477
    61  C   -0.069605
    62  C   -0.130146
    63  C    0.067418
    64  C    0.109913
    65  H   -0.149354
    66  H   -0.033131
    67  H    0.007005
    68  H    0.036947
    69  H    0.000344
    70  H    0.005949
    71  H    0.022903
    72  H    0.051343
    73  H    0.044710
    74  H   -0.027948
    75  H    0.068250
    76  H    0.065213
    77  H    0.028005
    78  H   -0.001795
    79  H    0.023504
    80  H   -0.007537
    81  H   -0.047135
    82  H    0.042416
    83  H    0.041857
    84  H    0.032625
    85  H    0.022906
    86  H   -0.007929
    87  H   -0.017018
    88  H    0.002062
    89  H    0.010969
    90  H   -0.015248
    91  H    0.045081
    92  H    0.055883
    93  H    0.058069
    94  H    0.061560
    95  H    0.053626
    96  H    0.034414
    97  H    0.066164
    98  H    0.055119
    99  H    0.035506
   100  H   -0.033599
   101  H    0.010863
   102  H    0.017347
   103  H    0.036097
   104  H   -0.027605
   105  H    0.030623
   106  H    0.006296
   107  H   -0.021640
   108  H    0.003388
   109  H   -0.002431
   110  H   -0.062375
   111  H    0.028193
   112  H    0.019906
   113  H    0.025596
   114  H   -0.020621
   115  H    0.010074
   116  H   -0.053253
   117  H   -0.032975
   118  H   -0.029367
   119  H   -0.053829
   120  H    0.001331
   121  H    0.027715
   122  H    0.021943
   123  H    0.020737
   124  H   -0.033416
   125  H    0.012677
   126  H   -0.016644
   127  H   -0.014783
   128  H   -0.000900
   129  H   -0.011172
   130  H    0.009034
   131  H   -0.007942
   132  H   -0.012646
   133  H    0.015459
   134  H   -0.010314
   135  H   -0.012055
   136  H   -0.006122
   137  H    0.251960
   138  H    0.125613
 Sum of Mulliken charges =  -0.00000
 Mulliken charges with hydrogens summed into heavy atoms:
               1
     1  C   -0.019806
     2  C   -0.096054
     3  C   -0.081994
     4  C   -0.072781
     5  N   -0.163864
     6  C   -0.110239
     7  C   -0.010885
     8  C   -0.044000
     9  C    0.025938
    10  C    0.082423
    11  C    0.132193
    12  C    0.059608
    13  C    0.215400
    14  O   -0.229029
    15  O   -0.339041
    16  N    0.027575
    17  C    0.140521
    18  C   -0.086061
    19  C    0.018488
    20  C   -0.002050
    21  C    0.134781
    22  C   -0.080127
    23  C    0.064555
    24  N   -0.246134
    25  C    0.133445
    26  C   -0.067968
    27  C   -0.120357
    28  C   -0.004638
    29  C    0.108732
    30  C    0.119920
    31  C   -0.014663
    32  N    0.092059
    33  C    0.096552
    34  C   -0.115566
    35  C   -0.017297
    36  C    0.071788
    37  C    0.145266
    38  C    0.043396
    39  O   -0.081923
    40  C    0.017752
    41  C    0.229806
    42  O   -0.251916
    43  O   -0.289120
    44  C    0.292851
    45  C    0.327907
    46  C   -0.130507
    47  C   -0.105530
    48  C    0.116735
    49  C    0.102869
    50  C    0.029193
    51  C   -0.054439
    52  C   -0.005847
    53  C   -0.008941
    54  C   -0.060007
    55  C    0.039448
    56  C    0.065301
    57  C   -0.082867
    58  C    0.079334
    59  C    0.038843
    60  C    0.000050
    61  C   -0.081676
    62  C   -0.121111
    63  C    0.062290
    64  C    0.081422
 Electronic spatial extent (au):  <R**2>=         177734.1895
 Charge=             -0.0000 electrons
 Dipole moment (field-independent basis, Debye):
    X=              4.6429    Y=              3.6235    Z=              0.0726  Tot=              5.8900
 Quadrupole moment (field-independent basis, Debye-Ang):
   XX=           -365.5995   YY=           -374.7220   ZZ=           -397.5869
   XY=            -14.3327   XZ=             -2.0952   YZ=             -3.9982
 Traceless Quadrupole moment (field-independent basis, Debye-Ang):
   XX=             13.7033   YY=              4.5808   ZZ=            -18.2841
   XY=            -14.3327   XZ=             -2.0952   YZ=             -3.9982
 Octapole moment (field-independent basis, Debye-Ang**2):
  XXX=            -59.9346  YYY=            125.6492  ZZZ=              6.6216  XYY=           -118.0296
  XXY=             53.4334  XXZ=           -233.8134  XZZ=             60.9137  YZZ=            -23.8582
  YYZ=             67.3681  XYZ=             -2.0427
 Hexadecapole moment (field-independent basis, Debye-Ang**3):
 XXXX=        -218698.7038 YYYY=         -16873.7289 ZZZZ=          -4317.2932 XXXY=            174.0746
 XXXZ=           -222.4327 YYYX=          -1176.1384 YYYZ=           -258.2058 ZZZX=           -120.9850
 ZZZY=           -109.1777 XXYY=         -40178.6478 XXZZ=         -39308.0965 YYZZ=          -3549.7037
 XXYZ=             -5.7035 YYXZ=           -104.1413 ZZXY=             32.8446
 N-N= 8.305396367326D+03 E-N=-2.294621479340D+04  KE= 2.701810416512D+03
 1\1\GINC-RYZEN-SSD1\SP\RB3LYP TD-FC\SVP\C55H74N4O5\PADAWAN\16-Aug-2019
 \0\\# td=(NStates=1) B3LYP/SVP\\TD\\0,1\C,0,-4.9875616067,-1.905580364
 ,0.4411527404\C,0,-4.7514012983,2.8137516042,1.3550221783\C,0,-9.44522
 3766,3.2981260089,-0.2003546517\C,0,-9.7417660277,-1.5019417888,-0.916
 0177472\N,0,-5.1881255606,0.4562120823,0.8442618842\C,0,-4.4869867963,
 -0.6614451281,0.8529113767\C,0,-3.0535571094,-0.4982203055,1.211594408
 8\C,0,-3.0483889913,1.0465297706,1.7901435198\C,0,-4.3849234504,1.4959
 666421,1.3113030417\C,0,-2.8917556735,1.0014884498,3.2682166797\C,0,-2
 .0234076836,-0.6636413782,-0.0000834006\C,0,-0.6179101791,-0.634102265
 ,0.5036681319\C,0,0.2945139573,-0.8129382111,-0.7882246797\O,0,-0.0980
 500691,-1.1854382337,-1.8731697716\O,0,1.6139164668,-0.7410605246,-0.4
 243674287\N,0,-7.1129744784,2.7208468266,0.5813487289\C,0,-5.963730554
 1,3.4309198245,0.9903031557\C,0,-6.3610673792,4.7738954733,1.224944046
 1\C,0,-7.615674632,4.9706083838,0.7321484449\C,0,-8.209806431,3.584857
 0846,0.3231036467\C,0,-5.4264518016,5.8086346459,1.6072967336\C,0,-8.2
 09307519,6.3174414618,0.3409691512\C,0,-8.9982573485,6.5211414047,-0.7
 563142477\N,0,-9.235236923,0.856014076,-0.4993869141\C,0,-9.946776455,
 2.0481481165,-0.542413052\C,0,-11.2956358016,1.7798216217,-0.943038375
 1\C,0,-11.3328087214,0.4310671481,-1.1256626279\C,0,-10.0441411225,-0.
 1109081402,-0.8930827887\C,0,-12.3218063778,2.8007626454,-1.0685512842
 \C,0,-12.6208921866,-0.365135612,-1.5669789329\C,0,-12.5862130909,-0.7
 567703234,-2.9470118856\N,0,-7.5328064063,-1.2769520097,-0.0810944545\
 C,0,-8.5454605316,-2.0636729815,-0.5262695554\C,0,-8.0755811653,-3.430
 5176533,-0.615425281\C,0,-6.7473167599,-3.4294088252,-0.2244045458\C,0
 ,-6.4109196316,-2.0572075199,0.1217843325\C,0,-9.0223562207,-4.5116345
 635,-1.0749700038\C,0,-5.6007461961,-4.2884440713,-0.0304003704\O,0,-5
 .4117130274,-5.4149280015,-0.1881318928\C,0,-4.4408396886,-3.303167429
 4,0.4194471943\C,0,-3.7880512199,-3.7277664718,1.7419160769\O,0,-4.102
 042816,-3.2492958855,2.8313035944\O,0,-3.0527777935,-4.8293632176,1.57
 46132043\C,0,-2.4539889292,-5.5255634616,2.6973062009\C,0,2.6212221656
 ,-0.8346221528,-1.4790121065\C,0,3.9315372635,-0.6552301464,-0.8677133
 845\C,0,4.9723795382,0.2020392515,-1.2425696616\C,0,4.9257730875,1.001
 8740291,-2.4202145605\C,0,6.1846821803,0.1858412124,-0.3145529184\C,0,
 7.540388266,-0.4157309062,-1.0934667001\C,0,8.7871721942,-0.1195071576
 ,-0.2450193818\C,0,10.0532371784,-0.7491994025,-0.7306940493\C,0,9.942
 0980032,-2.1979249583,-0.7735614708\C,0,11.2276434389,-0.2997496456,0.
 1498625183\C,0,12.653913976,-0.5118996684,-0.5527131485\C,0,13.8220386
 111,-0.063109014,0.2865950221\C,0,15.2461564367,-0.3992729631,-0.29909
 37452\C,0,15.6072880564,-1.8273768996,-0.3401337489\C,0,16.2479973969,
 0.4278937006,0.5875320176\C,0,17.6315199907,0.4694026742,-0.0006845763
 \C,0,18.6320230533,1.414330052,0.628001493\C,0,20.1349833942,1.4694825
 736,0.0764004004\C,0,20.0976606956,2.2542348547,-1.3453109401\C,0,20.9
 582762932,2.2364673828,1.1113075315\H,0,-4.1271708847,3.3517015545,1.8
 181340517\H,0,-9.8601536004,4.3085202885,-0.2728659605\H,0,-10.7220205
 42,-2.037939804,-0.8866785618\H,0,-3.1379498465,-1.0568560497,2.217853
 5801\H,0,-2.1535559232,1.4795979109,1.2952890273\H,0,-2.0137988958,0.5
 435217739,3.6600227276\H,0,-2.8438376841,2.0787225159,3.7323523364\H,0
 ,-3.756096189,0.2398746898,3.8216710128\H,0,-2.2586853224,-1.761610038
 7,-0.5413109874\H,0,-2.18401434,-0.00434296,-0.7049991606\H,0,-0.39770
 40938,0.2929334192,1.2522112516\H,0,-0.5057735903,-1.7134405241,1.1157
 786969\H,0,-4.5821428717,5.8943775754,0.8344165797\H,0,-5.7409253113,6
 .8024353622,1.745460143\H,0,-4.8255443314,5.5422640758,2.5450155622\H,
 0,-8.0290130002,7.1839554292,0.9364749538\H,0,-9.167862179,5.742892274
 7,-1.2738967857\H,0,-9.2250267819,7.615426828,-0.9559653006\H,0,-12.18
 46330107,3.6294234408,-0.1553079294\H,0,-12.0237913014,3.3619511598,-2
 .0655837759\H,0,-13.4080982098,2.6324188601,-1.2022832752\H,0,-12.7916
 339893,-1.2892390502,-1.0394585197\H,0,-13.4688576281,0.3056702284,-1.
 4212057979\H,0,-12.7159261076,0.0633633514,-3.8385326967\H,0,-11.58154
 43621,-1.2265420506,-3.1136121579\H,0,-13.3487529485,-1.3591432724,-3.
 2828621449\H,0,-9.9794754943,-4.4717592678,-0.5771235163\H,0,-8.955317
 4419,-4.481725186,-2.5521257332\H,0,-8.5173734428,-5.5688576657,-0.856
 6303165\H,0,-3.7779435217,-3.3607934306,-0.4951725771\H,0,-1.989385806
 6,-6.3762942331,2.1808937934\H,0,-1.7239589676,-4.9446942084,3.2295574
 06\H,0,-3.4119822536,-5.7471917192,3.5538069009\H,0,2.3865004418,-1.86
 69334344,-1.9748046138\H,0,2.5864804909,0.2454231043,-2.1184594652\H,0
 ,4.0436658025,-1.2524933198,-0.0180027559\H,0,5.402025467,2.0279304908
 ,-2.1209346809\H,0,5.4591328771,0.6934753027,-3.2327363407\H,0,3.89162
 56478,1.3692497309,-2.855500907\H,0,6.3947695741,1.1348366276,-0.06294
 14945\H,0,6.1601038362,-0.4825238377,0.6630059947\H,0,7.386149268,-1.4
 772517706,-1.2548903351\H,0,7.7257523263,-0.0007545709,-2.0266915269\H
 ,0,9.0694613877,1.0232201735,-0.0973184733\H,0,8.5953822681,-0.4641435
 014,0.9253453874\H,0,10.205967462,-0.4229120929,-1.6558563085\H,0,9.13
 99211797,-2.7157702398,-1.5291921447\H,0,10.9057774387,-2.7294946259,-
 1.2152772733\H,0,9.7607345153,-2.735175395,0.3262191004\H,0,11.1879029
 804,0.743571981,0.3416276254\H,0,10.9999375632,-0.9170301885,1.2381543
 371\H,0,12.5103775458,-1.4539192709,-0.8954729901\H,0,12.5607863952,0.
 0910518323,-1.418755194\H,0,13.7023812736,0.9329936952,0.6719523693\H,
 0,13.7143162671,-0.5412170757,1.1749370699\H,0,15.2541769151,0.0365868
 585,-1.3841550653\H,0,15.0854539404,-2.2619844822,-1.314755496\H,0,16.
 7485115875,-2.0024660861,-0.5725086435\H,0,15.4220449221,-2.2648361022
 ,0.6731600173\H,0,15.9238095726,1.3923123199,0.7334171853\H,0,16.66194
 2517,-0.0135475457,1.6704690437\H,0,18.1457106484,-0.4381422928,-0.155
 1802027\H,0,17.6125339788,0.960439007,-1.0770650111\H,0,18.1022619321,
 2.4682855563,0.5816746625\H,0,18.7255255668,1.2812169585,1.831414397\H
 ,0,20.6152097508,0.4584865824,-0.1341004729\H,0,19.8100437016,3.233725
 5047,-1.1071356878\H,0,21.1093494521,2.3887444782,-1.7144167651\H,0,19
 .5904172775,1.6882388605,-2.0895441356\H,0,20.9089859117,1.7569552458,
 2.0413180596\H,0,21.8977836201,2.3684649631,0.7067225721\H,0,20.535431
 2058,3.2155912296,1.4100136058\H,0,-7.1985736399,1.5668709591,0.138637
 1205\H,0,-7.5916305297,-0.2636612417,0.0044371235\\Version=ES64L-G16Re
 vA.03\State=1-A\HF=-2732.9753246\RMSD=6.192e-09\PG=C01 [X(C55H74N4O5)]
 \\@


  DISAPPOINTMENT IS THE NURSE OF WISDOM.               
                              SIR BOYLE ROCHE                 
 Job cpu time:       1 days  5 hours 54 minutes 30.0 seconds.
 Elapsed time:       0 days  7 hours 31 minutes 38.6 seconds.
 File lengths (MBytes):  RWF=   6378 Int=      0 D2E=      0 Chk=    163 Scr=      1
 Normal termination of Gaussian 16 at Fri Aug 16 09:53:54 2019.
