 Entering Gaussian System, Link 0=g16
 Input=Geometria-410-.com
 Output=Geometria-410-.log
 Initial command:
 /usr/local/g16/l1.exe "/home/padawan/israel-mol/pheophytin/spectra/emi/Gau-93166.inp" -scrdir="/home/padawan/israel-mol/pheophytin/spectra/emi/"
 Entering Link 1 = /usr/local/g16/l1.exe PID=     93168.
  
 Copyright (c) 1988,1990,1992,1993,1995,1998,2003,2009,2016,
            Gaussian, Inc.  All Rights Reserved.
  
 This is part of the Gaussian(R) 16 program.  It is based on
 the Gaussian(R) 09 system (copyright 2009, Gaussian, Inc.),
 the Gaussian(R) 03 system (copyright 2003, Gaussian, Inc.),
 the Gaussian(R) 98 system (copyright 1998, Gaussian, Inc.),
 the Gaussian(R) 94 system (copyright 1995, Gaussian, Inc.),
 the Gaussian 92(TM) system (copyright 1992, Gaussian, Inc.),
 the Gaussian 90(TM) system (copyright 1990, Gaussian, Inc.),
 the Gaussian 88(TM) system (copyright 1988, Gaussian, Inc.),
 the Gaussian 86(TM) system (copyright 1986, Carnegie Mellon
 University), and the Gaussian 82(TM) system (copyright 1983,
 Carnegie Mellon University). Gaussian is a federally registered
 trademark of Gaussian, Inc.
  
 This software contains proprietary and confidential information,
 including trade secrets, belonging to Gaussian, Inc.
  
 This software is provided under written license and may be
 used, copied, transmitted, or stored only in accord with that
 written license.
  
 The following legend is applicable only to US Government
 contracts under FAR:
  
                    RESTRICTED RIGHTS LEGEND
  
 Use, reproduction and disclosure by the US Government is
 subject to restrictions as set forth in subparagraphs (a)
 and (c) of the Commercial Computer Software - Restricted
 Rights clause in FAR 52.227-19.
  
 Gaussian, Inc.
 340 Quinnipiac St., Bldg. 40, Wallingford CT 06492
  
  
 ---------------------------------------------------------------
 Warning -- This program may not be used in any manner that
 competes with the business of Gaussian, Inc. or will provide
 assistance to any competitor of Gaussian, Inc.  The licensee
 of this program is prohibited from giving any competitor of
 Gaussian, Inc. access to this program.  By using this program,
 the user acknowledges that Gaussian, Inc. is engaged in the
 business of creating and licensing software in the field of
 computational chemistry and represents and warrants to the
 licensee that it is not a competitor of Gaussian, Inc. and that
 it will not use this program in any manner prohibited above.
 ---------------------------------------------------------------
  

 Cite this work as:
 Gaussian 16, Revision A.03,
 M. J. Frisch, G. W. Trucks, H. B. Schlegel, G. E. Scuseria, 
 M. A. Robb, J. R. Cheeseman, G. Scalmani, V. Barone, 
 G. A. Petersson, H. Nakatsuji, X. Li, M. Caricato, A. V. Marenich, 
 J. Bloino, B. G. Janesko, R. Gomperts, B. Mennucci, H. P. Hratchian, 
 J. V. Ortiz, A. F. Izmaylov, J. L. Sonnenberg, D. Williams-Young, 
 F. Ding, F. Lipparini, F. Egidi, J. Goings, B. Peng, A. Petrone, 
 T. Henderson, D. Ranasinghe, V. G. Zakrzewski, J. Gao, N. Rega, 
 G. Zheng, W. Liang, M. Hada, M. Ehara, K. Toyota, R. Fukuda, 
 J. Hasegawa, M. Ishida, T. Nakajima, Y. Honda, O. Kitao, H. Nakai, 
 T. Vreven, K. Throssell, J. A. Montgomery, Jr., J. E. Peralta, 
 F. Ogliaro, M. J. Bearpark, J. J. Heyd, E. N. Brothers, K. N. Kudin, 
 V. N. Staroverov, T. A. Keith, R. Kobayashi, J. Normand, 
 K. Raghavachari, A. P. Rendell, J. C. Burant, S. S. Iyengar, 
 J. Tomasi, M. Cossi, J. M. Millam, M. Klene, C. Adamo, R. Cammi, 
 J. W. Ochterski, R. L. Martin, K. Morokuma, O. Farkas, 
 J. B. Foresman, and D. J. Fox, Gaussian, Inc., Wallingford CT, 2016.
 
 ******************************************
 Gaussian 16:  ES64L-G16RevA.03 25-Dec-2016
                27-Aug-2019 
 ******************************************
 %nproc=4
 Will use up to    4 processors via shared memory.
 %Mem=2GB
 --------------------------
 # td=(NStates=1) B3LYP/SVP
 --------------------------
 1/38=1,172=1/1;
 2/12=2,17=6,18=5,40=1/2;
 3/5=18,7=101,11=9,25=1,30=1,74=-5/1,2,3,8;
 4//1;
 5/5=2,38=5/2;
 8/6=1,10=1,108=1/1;
 9/41=1,42=1,70=2/14;
 6/7=2,8=2,9=2,10=2/1;
 99/5=1,9=1/99;
 --
 TD
 --
 Symbolic Z-matrix:
 Charge =  0 Multiplicity = 1
 6                    -5.18217  -1.9426    0.60346 
 6                    -4.77403   2.75077   1.49818 
 6                    -9.30041   3.25894  -0.40346 
 6                    -9.82208  -1.49426  -0.96016 
 7                    -5.21366   0.45957   0.84349 
 6                    -4.49213  -0.77314   0.90284 
 6                    -2.99926  -0.51678   1.36471 
 6                    -3.16394   0.87287   1.98604 
 6                    -4.43226   1.49545   1.36746 
 6                    -3.10857   0.88255   3.53578 
 6                    -2.10323  -0.66182   0.23408 
 6                    -0.68583  -0.82797   0.62949 
 6                     0.32753  -0.95471  -0.60211 
 8                     0.06945  -1.28262  -1.72414 
 8                     1.6182   -0.8425   -0.19976 
 7                    -6.9656    2.79079   0.34193 
 6                    -5.91935   3.40079   0.95657 
 6                    -6.2837    4.79986   1.00475 
 6                    -7.62889   4.92207   0.55612 
 6                    -8.07033   3.64071   0.18974 
 6                    -5.31386   5.85358   1.4053 
 6                    -8.22308   6.22605   0.46711 
 6                    -9.19839   6.65927  -0.2658 
 7                    -9.14278   0.87637  -0.50806 
 6                    -9.85788   2.01901  -0.67454 
 6                    -11.20988   1.93896  -1.07026 
 6                    -11.40269   0.60197  -1.26263 
 6                    -10.01487   0.01994  -0.91478 
 6                    -12.17831   3.03763  -1.26151 
 6                    -12.63348  -0.23712  -1.80961 
 6                    -12.5048  -0.46481  -3.35713 
 7                    -7.57782  -1.25094  -0.21464 
 6                    -8.57269  -2.08571  -0.63915 
 6                    -8.12156  -3.37941  -0.77336 
 6                    -6.80867  -3.39154  -0.18369 
 6                    -6.51212  -2.06187   0.10175 
 6                    -8.88393  -4.61376  -1.13159 
 6                    -5.66439  -4.32019   0.05838 
 8                    -5.60738  -5.53634  -0.00719 
 6                    -4.4863   -3.35337   0.46644 
 6                    -3.9425   -3.80583   1.7698 
 8                    -4.25337  -3.43626   2.89407 
 8                    -3.00488  -4.77463   1.66457 
 6                    -2.38752  -5.3247    2.74844 
 6                     2.63462  -0.91765  -1.17134 
 6                     3.98389  -0.68507  -0.42557 
 6                     4.93796   0.05858  -0.95483 
 6                     4.85197   0.83566  -2.29468 
 6                     6.33337   0.22848  -0.26669 
 6                     7.43074  -0.47486  -0.99453 
 6                     8.80313  -0.32024  -0.15815 
 6                     10.04287  -0.85347  -0.89704 
 6                     10.04801  -2.33419  -1.2272 
 6                     11.29742  -0.45723   0.02509 
 6                     12.68361  -0.59355  -0.58109 
 6                     13.84701  -0.10053   0.21144 
 6                     15.21869  -0.13478  -0.40934 
 6                     15.72323  -1.62456  -0.73501 
 6                     16.27935   0.55191   0.54882 
 6                     17.67446   0.70304  -0.17248 
 6                     18.67711   1.42466   0.71005 
 6                     20.04615   1.68788   0.02249 
 6                     19.91166   2.45915  -1.28555 
 6                     21.03921   2.19001   1.02482 
 1                    -4.18073   3.5119    2.23445 
 1                    -10.01484   3.94501  -0.08203 
 1                    -10.54318  -2.19691  -1.40298 
 1                    -2.82596  -1.2849    2.21673 
 1                    -2.32862   1.52696   1.70773 
 1                    -2.25969   0.2057    3.77539 
 1                    -2.98175   2.10436   3.98643 
 1                    -3.97873   0.48607   4.08277 
 1                    -2.33052  -1.54177  -0.39448 
 1                    -2.42719   0.46429  -0.28192 
 1                    -0.35162   0.11146   1.49177 
 1                    -0.57477  -1.94451   1.27198 
 1                    -4.44227   5.57346   0.79278 
 1                    -5.68389   6.83963   1.3863 
 1                    -4.92077   5.3845    2.48348 
 1                    -7.77597   7.08781   1.11023 
 1                    -9.89013   5.9613   -1.05041 
 1                    -9.3706    7.78588  -0.4254 
 1                    -12.6049   3.3658   -0.35634 
 1                    -11.88796   3.91966  -1.95407 
 1                    -13.07963   2.49627  -1.7651 
 1                    -12.89965  -1.1796   -1.39949 
 1                    -13.58917   0.31213  -1.65598 
 1                    -12.38742   0.44018  -3.84704 
 1                    -11.54681  -0.92419  -3.51665 
 1                    -13.23173  -1.20351  -3.77534 
 1                    -9.69714  -4.75751  -0.49614 
 1                    -9.16598  -4.53901  -2.16629 
 1                    -8.25465  -5.7094   -1.07502 
 1                    -3.695    -3.52362  -0.38193 
 1                    -1.78457  -6.14279   2.2979 
 1                    -1.58677  -4.8586    3.27696 
 1                    -3.07428  -5.66989   3.61663 
 1                     2.46134  -1.87161  -1.48513 
 1                     2.29703  -0.15809  -1.79677 
 1                     4.0637   -1.38321   0.34126 
 1                     5.4407    1.80017  -2.21329 
 1                     5.38621   0.26498  -3.20951 
 1                     3.88671   1.04581  -2.86002 
 1                     6.50737   1.23437  -0.27792 
 1                     6.29027  -0.20528   0.74872 
 1                     7.22487  -1.62064  -1.06808 
 1                     7.64703  -0.18055  -2.01717 
 1                     9.09084   0.6804   -0.34055 
 1                     8.68328  -0.73742   0.91791 
 1                     10.21876  -0.22019  -1.79235 
 1                     9.10628  -2.71592  -1.75218 
 1                     10.91507  -2.79511  -1.76667 
 1                     9.81366  -2.76852  -0.28956 
 1                     11.17482   0.58832   0.27799 
 1                     11.27088  -0.9346    0.83926 
 1                     12.77711  -1.54803  -0.93365 
 1                     12.79592   0.02652  -1.48481 
 1                     13.65016   0.94148   0.48994 
 1                     13.81615  -0.63584   1.09681 
 1                     15.07693   0.31788  -1.25239 
 1                     15.15681  -2.07818  -1.5447 
 1                     16.73806  -1.62917  -1.16843 
 1                     15.79635  -2.10504   0.20471 
 1                     15.91182   1.45553   0.87175 
 1                     16.54092   0.02435   1.56366 
 1                     18.22518  -0.3171   -0.35375 
 1                     17.26884   1.12331  -1.06957 
 1                     18.40398   2.56342   1.0367 
 1                     18.88349   0.72909   1.68017 
 1                     20.32866   0.55081  -0.27449 
 1                     19.63426   3.49615  -1.24997 
 1                     21.03951   2.91097  -1.73865 
 1                     19.42832   2.04148  -2.018 
 1                     21.29498   1.71713   1.90597 
 1                     21.97214   2.36336   0.57943 
 1                     20.94196   3.1813    1.39064 
 1                    -7.0472    1.8444    0.10692 
 1                    -7.73003  -0.1896   -0.05025 
 
 Stoichiometry    C55H74N4O5
 Framework group  C1[X(C55H74N4O5)]
 Deg. of freedom   408
 Full point group                 C1      NOp   1
 Largest Abelian subgroup         C1      NOp   1
 Largest concise Abelian subgroup C1      NOp   1
                         Standard orientation:                         
 ---------------------------------------------------------------------
 Center     Atomic      Atomic             Coordinates (Angstroms)
 Number     Number       Type             X           Y           Z
 ---------------------------------------------------------------------
      1          6           0       -5.178770   -1.955209    0.599986
      2          6           0       -4.783122    2.737165    1.505471
      3          6           0       -9.310430    3.237802   -0.395952
      4          6           0       -9.819526   -1.515472   -0.963578
      5          7           0       -5.216605    0.446324    0.845480
      6          6           0       -4.491856   -0.784621    0.902169
      7          6           0       -2.999761   -0.525406    1.364936
      8          6           0       -3.168209    0.862394    1.989397
      9          6           0       -4.438030    1.483048    1.371967
     10          6           0       -3.113176    0.868684    3.539167
     11          6           0       -2.103119   -0.665520    0.234166
     12          6           0       -0.685370   -0.828854    0.629493
     13          6           0        0.328563   -0.950132   -0.602178
     14          8           0        0.071570   -1.276158   -1.725014
     15          8           0        1.618852   -0.835454   -0.199313
     16          7           0       -6.974552    2.774080    0.348867
     17          6           0       -5.930026    3.385413    0.965107
     18          6           0       -6.298057    4.783411    1.016398
     19          6           0       -7.643468    4.903121    0.567766
     20          6           0       -8.081478    3.621444    0.198377
     21          6           0       -5.331065    5.838756    1.419543
     22          6           0       -8.241060    6.205736    0.481602
     23          6           0       -9.217353    6.638059   -0.250520
     24          7           0       -9.146530    0.855892   -0.505936
     25          6           0       -9.864590    1.997028   -0.669962
     26          6           0      -11.216295    1.914338   -1.066150
     27          6           0      -11.405558    0.577295   -1.261599
     28          6           0      -10.016289   -0.001884   -0.914794
     29          6           0      -12.187568    3.010896   -1.255100
     30          6           0      -12.634040   -0.263778   -1.810751
     31          6           0      -12.504451   -0.487604   -3.358759
     32          7           0       -7.576060   -1.267966   -0.217034
     33          6           0       -8.568654   -2.104368   -0.643654
     34          6           0       -8.114098   -3.396580   -0.780715
     35          6           0       -6.801307   -3.406603   -0.190800
     36          6           0       -6.508300   -2.076816    0.097731
     37          6           0       -8.873163   -4.632107   -1.141908
     38          6           0       -5.654645   -4.332801    0.049393
     39          8           0       -5.594433   -5.548647   -0.018936
     40          6           0       -4.479178   -3.363832    0.459902
     41          6           0       -3.934450   -3.817834    1.762339
     42          8           0       -4.246517   -3.451641    2.887384
     43          8           0       -2.994278   -4.783923    1.655102
     44          6           0       -2.375697   -5.334845    2.737845
     45          6           0        2.635669   -0.905726   -1.170846
     46          6           0        3.984173   -0.671311   -0.424265
     47          6           0        4.936390    0.076049   -0.951634
     48          6           0        4.848634    0.855943   -2.289730
     49          6           0        6.331211    0.248030   -0.262815
     50          6           0        7.430570   -0.450763   -0.992024
     51          6           0        8.802386   -0.294451   -0.155012
     52          6           0       10.043662   -0.822747   -0.894855
     53          6           0       10.052755   -2.302692   -1.228381
     54          6           0       11.296987   -0.425316    0.028437
     55          6           0       12.683649   -0.556623   -0.577759
     56          6           0       13.845595   -0.062366    0.216127
     57          6           0       15.217489   -0.091599   -0.404445
     58          6           0       15.725996   -1.579306   -0.733399
     59          6           0       16.276147    0.595678    0.555500
     60          6           0       17.671006    0.752107   -0.165163
     61          6           0       18.671575    1.474347    0.719218
     62          6           0       20.040066    1.742724    0.032540
     63          6           0       19.903817    2.516606   -1.273769
     64          6           0       21.031603    2.245170    1.036222
     65          1           0       -4.191962    3.498171    2.243595
     66          1           0      -10.026721    3.921265   -0.073102
     67          1           0      -10.538690   -2.218995   -1.408145
     68          1           0       -2.824617   -1.295004    2.215245
     69          1           0       -2.334554    1.519304    1.712748
     70          1           0       -2.262579    0.193519    3.777413
     71          1           0       -2.989656    2.089791    3.992618
     72          1           0       -3.982405    0.468682    4.085065
     73          1           0       -2.327980   -1.544626   -0.396440
     74          1           0       -2.429929    0.460914   -0.279334
     75          1           0       -0.353801    0.109480    1.493973
     76          1           0       -0.571516   -1.946561    1.269466
     77          1           0       -4.458618    5.562314    0.806575
     78          1           0       -5.703675    6.823873    1.402719
     79          1           0       -4.936968    5.368254    2.496737
     80          1           0       -7.796340    7.067192    1.126776
     81          1           0       -9.907108    5.940075   -1.036871
     82          1           0       -9.392488    7.764582   -0.407598
     83          1           0      -12.615194    3.335885   -0.349271
     84          1           0      -11.899388    3.895260   -1.945591
     85          1           0      -13.087357    2.468322   -1.760108
     86          1           0      -12.897822   -1.207880   -1.402835
     87          1           0      -13.591194    0.282617   -1.656067
     88          1           0      -12.389344    0.418806   -3.846583
     89          1           0      -11.545224   -0.944107   -3.519124
     90          1           0      -13.229353   -1.227249   -3.778799
     91          1           0       -9.686117   -4.779429   -0.506956
     92          1           0       -9.155194   -4.555737   -2.176495
     93          1           0       -8.241018   -5.726217   -1.087708
     94          1           0       -3.687254   -3.530072   -0.388691
     95          1           0       -1.770505   -6.150321    2.285564
     96          1           0       -1.576272   -4.867844    3.267593
     97          1           0       -3.061721   -5.683811    3.605106
     98          1           0        2.464949   -1.859423   -1.486838
     99          1           0        2.296213   -0.145628   -1.794612
    100          1           0        4.065653   -1.370977    0.340992
    101          1           0        5.434820    1.821806   -2.206023
    102          1           0        5.384554    0.288755   -3.205747
    103          1           0        3.882940    1.064848   -2.854791
    104          1           0        6.502579    1.254397   -0.271723
    105          1           0        6.289043   -0.188144    0.751599
    106          1           0        7.227726   -1.596908   -1.068230
    107          1           0        7.646301   -0.153565   -2.013950
    108          1           0        9.087508    0.707346   -0.335075
    109          1           0        8.683410   -0.714397    0.920076
    110          1           0       10.218075   -0.186973   -1.788684
    111          1           0        9.112134   -2.685695   -1.754432
    112          1           0       10.921129   -2.760110   -1.768723
    113          1           0        9.819356   -2.739769   -0.291787
    114          1           0       11.171595    0.619322    0.283692
    115          1           0       11.271538   -0.904613    0.841517
    116          1           0       12.779730   -1.510050   -0.932472
    117          1           0       12.794518    0.065789   -1.480047
    118          1           0       13.645952    0.978495    0.496965
    119          1           0       13.815955   -0.599763    1.100272
    120          1           0       15.074709    0.362608   -1.246489
    121          1           0       15.160932   -2.032564   -1.544233
    122          1           0       16.740923   -1.580270   -1.166612
    123          1           0       15.800188   -2.061735    0.205246
    124          1           0       15.906181    1.497596    0.880413
    125          1           0       16.538894    0.066496    1.569191
    126          1           0       18.224430   -0.266166   -0.348639
    127          1           0       17.264462    1.173354   -1.061381
    128          1           0       18.395398    2.611634    1.048403
    129          1           0       18.879585    0.777114    1.687795
    130          1           0       20.325613    0.607069   -0.266969
    131          1           0       19.623685    3.552798   -1.235881
    132          1           0       21.030570    2.972414   -1.725598
    133          1           0       19.421721    2.099348   -2.007260
    134          1           0       21.288433    1.770956    1.916352
    135          1           0       21.964162    2.421981    0.591423
    136          1           0       20.931677    3.235361    1.404280
    137          1           0       -7.053621    1.828012    0.111685
    138          1           0       -7.731089   -0.207410   -0.050260
 ---------------------------------------------------------------------
 Rotational constants (GHZ):           0.0631471           0.0061613           0.0057989
 Standard basis: SVP (5D, 7F)
 There are  1330 symmetry adapted cartesian basis functions of A   symmetry.
 There are  1266 symmetry adapted basis functions of A   symmetry.
  1266 basis functions,  2118 primitive gaussians,  1330 cartesian basis functions
   236 alpha electrons      236 beta electrons
       nuclear repulsion energy      8296.7541736900 Hartrees.
 NAtoms=  138 NActive=  138 NUniq=  138 SFac= 1.00D+00 NAtFMM=   60 NAOKFM=T Big=T
 Integral buffers will be    131072 words long.
 Regular integral format.
 Two-electron integral symmetry is turned on.
 One-electron integrals computed using PRISM.
 NBasis=  1266 RedAO= T EigKep=  3.09D-04  NBF=  1266
 NBsUse=  1266 1.00D-06 EigRej= -1.00D+00 NBFU=  1266
 ExpMin= 1.22D-01 ExpMax= 2.27D+03 ExpMxC= 3.41D+02 IAcc=3 IRadAn=         5 AccDes= 0.00D+00
 Harris functional with IExCor=  402 and IRadAn=       5 diagonalized for initial guess.
 HarFok:  IExCor=  402 AccDes= 0.00D+00 IRadAn=         5 IDoV= 1 UseB2=F ITyADJ=14
 ICtDFT=  3500011 ScaDFX=  1.000000  1.000000  1.000000  1.000000
 FoFCou: FMM=F IPFlag=           0 FMFlag=      100000 FMFlg1=        2001
         NFxFlg=           0 DoJE=T BraDBF=F KetDBF=T FulRan=T
         wScrn=  0.000000 ICntrl=       500 IOpCl=  0 I1Cent=   200000004 NGrid=           0
         NMat0=    1 NMatS0=      1 NMatT0=    0 NMatD0=    1 NMtDS0=    0 NMtDT0=    0
 Petite list used in FoFCou.
 Requested convergence on RMS density matrix=1.00D-08 within 128 cycles.
 Requested convergence on MAX density matrix=1.00D-06.
 Requested convergence on             energy=1.00D-06.
 No special actions if energy rises.
 Integral accuracy reduced to 1.0D-05 until final iterations.
 Initial convergence to 1.0D-05 achieved.  Increase integral accuracy.
 SCF Done:  E(RB3LYP) =  -2733.03998972     A.U. after   18 cycles
            NFock= 18  Conv=0.28D-08     -V/T= 2.0112
 DoSCS=F DFT=T ScalE2(SS,OS)=  1.000000  1.000000
 ExpMin= 1.22D-01 ExpMax= 2.27D+03 ExpMxC= 3.41D+02 IAcc=3 IRadAn=         5 AccDes= 0.00D+00
 HarFok:  IExCor=  205 AccDes= 0.00D+00 IRadAn=         5 IDoV=-2 UseB2=F ITyADJ=14
 ICtDFT= 12500011 ScaDFX=  1.000000  1.000000  1.000000  1.000000
 GSVD:  LWork=       -4608 too small for GESVD, short by       21440 words or       21440 for optimal perf.
 Range of M.O.s used for correlation:    65  1266
 NBasis=  1266 NAE=   236 NBE=   236 NFC=    64 NFV=     0
 NROrb=   1202 NOA=   172 NOB=   172 NVA=  1030 NVB=  1030

 **** Warning!!: The smallest alpha delta epsilon is  0.83562345D-01

 Orbital symmetries:
       Occupied  (A) (A) (A) (A) (A) (A) (A) (A) (A) (A) (A) (A)
                 (A) (A) (A) (A) (A) (A) (A) (A) (A) (A) (A) (A)
                 (A) (A) (A) (A) (A) (A) (A) (A) (A) (A) (A) (A)
                 (A) (A) (A) (A) (A) (A) (A) (A) (A) (A) (A) (A)
                 (A) (A) (A) (A) (A) (A) (A) (A) (A) (A) (A) (A)
                 (A) (A) (A) (A) (A) (A) (A) (A) (A) (A) (A) (A)
                 (A) (A) (A) (A) (A) (A) (A) (A) (A) (A) (A) (A)
                 (A) (A) (A) (A) (A) (A) (A) (A) (A) (A) (A) (A)
                 (A) (A) (A) (A) (A) (A) (A) (A) (A) (A) (A) (A)
                 (A) (A) (A) (A) (A) (A) (A) (A) (A) (A) (A) (A)
                 (A) (A) (A) (A) (A) (A) (A) (A) (A) (A) (A) (A)
                 (A) (A) (A) (A) (A) (A) (A) (A) (A) (A) (A) (A)
                 (A) (A) (A) (A) (A) (A) (A) (A) (A) (A) (A) (A)
                 (A) (A) (A) (A) (A) (A) (A) (A) (A) (A) (A) (A)
                 (A) (A) (A) (A) (A) (A) (A) (A) (A) (A) (A) (A)
                 (A) (A) (A) (A) (A) (A) (A) (A) (A) (A) (A) (A)
                 (A) (A) (A) (A) (A) (A) (A) (A) (A) (A) (A) (A)
                 (A) (A) (A) (A) (A) (A) (A) (A) (A) (A) (A) (A)
                 (A) (A) (A) (A) (A) (A) (A) (A) (A) (A) (A) (A)
                 (A) (A) (A) (A) (A) (A) (A) (A)
       Virtual   (A) (A) (A) (A) (A) (A) (A) (A) (A) (A) (A) (A)
                 (A) (A) (A) (A) (A) (A) (A) (A) (A) (A) (A) (A)
                 (A) (A) (A) (A) (A) (A) (A) (A) (A) (A) (A) (A)
                 (A) (A) (A) (A) (A) (A) (A) (A) (A) (A) (A) (A)
                 (A) (A) (A) (A) (A) (A) (A) (A) (A) (A) (A) (A)
                 (A) (A) (A) (A) (A) (A) (A) (A) (A) (A) (A) (A)
                 (A) (A) (A) (A) (A) (A) (A) (A) (A) (A) (A) (A)
                 (A) (A) (A) (A) (A) (A) (A) (A) (A) (A) (A) (A)
                 (A) (A) (A) (A) (A) (A) (A) (A) (A) (A) (A) (A)
                 (A) (A) (A) (A) (A) (A) (A) (A) (A) (A) (A) (A)
                 (A) (A) (A) (A) (A) (A) (A) (A) (A) (A) (A) (A)
                 (A) (A) (A) (A) (A) (A) (A) (A) (A) (A) (A) (A)
                 (A) (A) (A) (A) (A) (A) (A) (A) (A) (A) (A) (A)
                 (A) (A) (A) (A) (A) (A) (A) (A) (A) (A) (A) (A)
                 (A) (A) (A) (A) (A) (A) (A) (A) (A) (A) (A) (A)
                 (A) (A) (A) (A) (A) (A) (A) (A) (A) (A) (A) (A)
                 (A) (A) (A) (A) (A) (A) (A) (A) (A) (A) (A) (A)
                 (A) (A) (A) (A) (A) (A) (A) (A) (A) (A) (A) (A)
                 (A) (A) (A) (A) (A) (A) (A) (A) (A) (A) (A) (A)
                 (A) (A) (A) (A) (A) (A) (A) (A) (A) (A) (A) (A)
                 (A) (A) (A) (A) (A) (A) (A) (A) (A) (A) (A) (A)
                 (A) (A) (A) (A) (A) (A) (A) (A) (A) (A) (A) (A)
                 (A) (A) (A) (A) (A) (A) (A) (A) (A) (A) (A) (A)
                 (A) (A) (A) (A) (A) (A) (A) (A) (A) (A) (A) (A)
                 (A) (A) (A) (A) (A) (A) (A) (A) (A) (A) (A) (A)
                 (A) (A) (A) (A) (A) (A) (A) (A) (A) (A) (A) (A)
                 (A) (A) (A) (A) (A) (A) (A) (A) (A) (A) (A) (A)
                 (A) (A) (A) (A) (A) (A) (A) (A) (A) (A) (A) (A)
                 (A) (A) (A) (A) (A) (A) (A) (A) (A) (A) (A) (A)
                 (A) (A) (A) (A) (A) (A) (A) (A) (A) (A) (A) (A)
                 (A) (A) (A) (A) (A) (A) (A) (A) (A) (A) (A) (A)
                 (A) (A) (A) (A) (A) (A) (A) (A) (A) (A) (A) (A)
                 (A) (A) (A) (A) (A) (A) (A) (A) (A) (A) (A) (A)
                 (A) (A) (A) (A) (A) (A) (A) (A) (A) (A) (A) (A)
                 (A) (A) (A) (A) (A) (A) (A) (A) (A) (A) (A) (A)
                 (A) (A) (A) (A) (A) (A) (A) (A) (A) (A) (A) (A)
                 (A) (A) (A) (A) (A) (A) (A) (A) (A) (A) (A) (A)
                 (A) (A) (A) (A) (A) (A) (A) (A) (A) (A) (A) (A)
                 (A) (A) (A) (A) (A) (A) (A) (A) (A) (A) (A) (A)
                 (A) (A) (A) (A) (A) (A) (A) (A) (A) (A) (A) (A)
                 (A) (A) (A) (A) (A) (A) (A) (A) (A) (A) (A) (A)
                 (A) (A) (A) (A) (A) (A) (A) (A) (A) (A) (A) (A)
                 (A) (A) (A) (A) (A) (A) (A) (A) (A) (A) (A) (A)
                 (A) (A) (A) (A) (A) (A) (A) (A) (A) (A) (A) (A)
                 (A) (A) (A) (A) (A) (A) (A) (A) (A) (A) (A) (A)
                 (A) (A) (A) (A) (A) (A) (A) (A) (A) (A) (A) (A)
                 (A) (A) (A) (A) (A) (A) (A) (A) (A) (A) (A) (A)
                 (A) (A) (A) (A) (A) (A) (A) (A) (A) (A) (A) (A)
                 (A) (A) (A) (A) (A) (A) (A) (A) (A) (A) (A) (A)
                 (A) (A) (A) (A) (A) (A) (A) (A) (A) (A) (A) (A)
                 (A) (A) (A) (A) (A) (A) (A) (A) (A) (A) (A) (A)
                 (A) (A) (A) (A) (A) (A) (A) (A) (A) (A) (A) (A)
                 (A) (A) (A) (A) (A) (A) (A) (A) (A) (A) (A) (A)
                 (A) (A) (A) (A) (A) (A) (A) (A) (A) (A) (A) (A)
                 (A) (A) (A) (A) (A) (A) (A) (A) (A) (A) (A) (A)
                 (A) (A) (A) (A) (A) (A) (A) (A) (A) (A) (A) (A)
                 (A) (A) (A) (A) (A) (A) (A) (A) (A) (A) (A) (A)
                 (A) (A) (A) (A) (A) (A) (A) (A) (A) (A) (A) (A)
                 (A) (A) (A) (A) (A) (A) (A) (A) (A) (A) (A) (A)
                 (A) (A) (A) (A) (A) (A) (A) (A) (A) (A) (A) (A)
                 (A) (A) (A) (A) (A) (A) (A) (A) (A) (A) (A) (A)
                 (A) (A) (A) (A) (A) (A) (A) (A) (A) (A) (A) (A)
                 (A) (A) (A) (A) (A) (A) (A) (A) (A) (A) (A) (A)
                 (A) (A) (A) (A) (A) (A) (A) (A) (A) (A) (A) (A)
                 (A) (A) (A) (A) (A) (A) (A) (A) (A) (A) (A) (A)
                 (A) (A) (A) (A) (A) (A) (A) (A) (A) (A) (A) (A)
                 (A) (A) (A) (A) (A) (A) (A) (A) (A) (A) (A) (A)
                 (A) (A) (A) (A) (A) (A) (A) (A) (A) (A) (A) (A)
                 (A) (A) (A) (A) (A) (A) (A) (A) (A) (A) (A) (A)
                 (A) (A) (A) (A) (A) (A) (A) (A) (A) (A) (A) (A)
                 (A) (A) (A) (A) (A) (A) (A) (A) (A) (A) (A) (A)
                 (A) (A) (A) (A) (A) (A) (A) (A) (A) (A) (A) (A)
                 (A) (A) (A) (A) (A) (A) (A) (A) (A) (A) (A) (A)
                 (A) (A) (A) (A) (A) (A) (A) (A) (A) (A) (A) (A)
                 (A) (A) (A) (A) (A) (A) (A) (A) (A) (A) (A) (A)
                 (A) (A) (A) (A) (A) (A) (A) (A) (A) (A) (A) (A)
                 (A) (A) (A) (A) (A) (A) (A) (A) (A) (A) (A) (A)
                 (A) (A) (A) (A) (A) (A) (A) (A) (A) (A) (A) (A)
                 (A) (A) (A) (A) (A) (A) (A) (A) (A) (A) (A) (A)
                 (A) (A) (A) (A) (A) (A) (A) (A) (A) (A) (A) (A)
                 (A) (A) (A) (A) (A) (A) (A) (A) (A) (A) (A) (A)
                 (A) (A) (A) (A) (A) (A) (A) (A) (A) (A) (A) (A)
                 (A) (A) (A) (A) (A) (A) (A) (A) (A) (A) (A) (A)
                 (A) (A) (A) (A) (A) (A) (A) (A) (A) (A) (A) (A)
                 (A) (A) (A) (A) (A) (A) (A) (A) (A) (A) (A) (A)
                 (A) (A) (A) (A) (A) (A) (A) (A) (A) (A)
     4 initial guesses have been made.
 Convergence on wavefunction:    0.001000000000000
 Iteration     1 Dimension     4 NMult     0 NNew      4
 CISAX will form     4 AO SS matrices at one time.
 Iteration     2 Dimension     6 NMult     4 NNew      2
 Iteration     3 Dimension     8 NMult     6 NNew      2
 Iteration     4 Dimension    10 NMult     8 NNew      2
 Iteration     5 Dimension    12 NMult    10 NNew      2
 Iteration     6 Dimension    14 NMult    12 NNew      2
 Iteration     7 Dimension    16 NMult    14 NNew      2
 Iteration     8 Dimension    18 NMult    16 NNew      2
 Iteration     9 Dimension    20 NMult    18 NNew      2
 ***********************************************************************
 Excited states from <AA,BB:AA,BB> singles matrix:
 ***********************************************************************
 
 Ground to excited state transition densities written to RWF  633
 Ground to excited state transition electric dipole moments (Au):
       state          X           Y           Z        Dip. S.      Osc.
         1        -0.0496      1.7611      0.2326      3.1580      0.1555
 Ground to excited state transition velocity dipole moments (Au):
       state          X           Y           Z        Dip. S.      Osc.
         1         0.0039     -0.1268     -0.0173      0.0164      0.1479
 Ground to excited state transition magnetic dipole moments (Au):
       state          X           Y           Z
         1        -0.2851     -0.3508      2.6081
 Ground to excited state transition velocity quadrupole moments (Au):
       state          XX          YY          ZZ          XY          XZ          YZ
         1        -0.0934     -0.2285     -0.0312      1.6402      0.1924     -0.0972
 <0|del|b> * <b|rxdel|0> + <0|del|b> * <b|delr+rdel|0>
 Rotatory Strengths (R) in cgs (10**-40 erg-esu-cm/Gauss)
       state          XX          YY          ZZ    R(velocity)    E-M Angle
         1       -21.8735    -87.2364     92.6575     -5.4841       90.29
 1/2[<0|r|b>*<b|rxdel|0> + (<0|rxdel|b>*<b|r|0>)*]
 Rotatory Strengths (R) in cgs (10**-40 erg-esu-cm/Gauss)
       state          XX          YY          ZZ     R(length)
         1       -10.0083    436.9120   -429.0186     -0.7050
  1/2[<0|del|b>*<b|r|0> + (<0|r|b>*<b|del|0>)*] (Au)
       state          X           Y           Z        Dip. S.   Osc.(frdel)
         1        -0.0002     -0.2232     -0.0040      0.2274      0.1516

 Excitation energies and oscillator strengths:
 
 Excited State   1:      Singlet-A      2.0095 eV  616.98 nm  f=0.1555  <S**2>=0.000
     235 -> 237       -0.28596
     235 -> 238        0.26160
     236 -> 237        0.56461
     236 -> 238        0.16662
 This state for optimization and/or second-order correction.
 Total Energy, E(TD-HF/TD-DFT) =  -2732.96614094    
 Copying the excited state density for this state as the 1-particle RhoCI density.
 SavETr:  write IOETrn=   770 NScale= 10 NData=  16 NLR=1 NState=    1 LETran=      28.
 Hyperfine terms turned off by default for NAtoms > 100.

 **********************************************************************

            Population analysis using the SCF density.

 **********************************************************************

 Orbital symmetries:
       Occupied  (A) (A) (A) (A) (A) (A) (A) (A) (A) (A) (A) (A)
                 (A) (A) (A) (A) (A) (A) (A) (A) (A) (A) (A) (A)
                 (A) (A) (A) (A) (A) (A) (A) (A) (A) (A) (A) (A)
                 (A) (A) (A) (A) (A) (A) (A) (A) (A) (A) (A) (A)
                 (A) (A) (A) (A) (A) (A) (A) (A) (A) (A) (A) (A)
                 (A) (A) (A) (A) (A) (A) (A) (A) (A) (A) (A) (A)
                 (A) (A) (A) (A) (A) (A) (A) (A) (A) (A) (A) (A)
                 (A) (A) (A) (A) (A) (A) (A) (A) (A) (A) (A) (A)
                 (A) (A) (A) (A) (A) (A) (A) (A) (A) (A) (A) (A)
                 (A) (A) (A) (A) (A) (A) (A) (A) (A) (A) (A) (A)
                 (A) (A) (A) (A) (A) (A) (A) (A) (A) (A) (A) (A)
                 (A) (A) (A) (A) (A) (A) (A) (A) (A) (A) (A) (A)
                 (A) (A) (A) (A) (A) (A) (A) (A) (A) (A) (A) (A)
                 (A) (A) (A) (A) (A) (A) (A) (A) (A) (A) (A) (A)
                 (A) (A) (A) (A) (A) (A) (A) (A) (A) (A) (A) (A)
                 (A) (A) (A) (A) (A) (A) (A) (A) (A) (A) (A) (A)
                 (A) (A) (A) (A) (A) (A) (A) (A) (A) (A) (A) (A)
                 (A) (A) (A) (A) (A) (A) (A) (A) (A) (A) (A) (A)
                 (A) (A) (A) (A) (A) (A) (A) (A) (A) (A) (A) (A)
                 (A) (A) (A) (A) (A) (A) (A) (A)
       Virtual   (A) (A) (A) (A) (A) (A) (A) (A) (A) (A) (A) (A)
                 (A) (A) (A) (A) (A) (A) (A) (A) (A) (A) (A) (A)
                 (A) (A) (A) (A) (A) (A) (A) (A) (A) (A) (A) (A)
                 (A) (A) (A) (A) (A) (A) (A) (A) (A) (A) (A) (A)
                 (A) (A) (A) (A) (A) (A) (A) (A) (A) (A) (A) (A)
                 (A) (A) (A) (A) (A) (A) (A) (A) (A) (A) (A) (A)
                 (A) (A) (A) (A) (A) (A) (A) (A) (A) (A) (A) (A)
                 (A) (A) (A) (A) (A) (A) (A) (A) (A) (A) (A) (A)
                 (A) (A) (A) (A) (A) (A) (A) (A) (A) (A) (A) (A)
                 (A) (A) (A) (A) (A) (A) (A) (A) (A) (A) (A) (A)
                 (A) (A) (A) (A) (A) (A) (A) (A) (A) (A) (A) (A)
                 (A) (A) (A) (A) (A) (A) (A) (A) (A) (A) (A) (A)
                 (A) (A) (A) (A) (A) (A) (A) (A) (A) (A) (A) (A)
                 (A) (A) (A) (A) (A) (A) (A) (A) (A) (A) (A) (A)
                 (A) (A) (A) (A) (A) (A) (A) (A) (A) (A) (A) (A)
                 (A) (A) (A) (A) (A) (A) (A) (A) (A) (A) (A) (A)
                 (A) (A) (A) (A) (A) (A) (A) (A) (A) (A) (A) (A)
                 (A) (A) (A) (A) (A) (A) (A) (A) (A) (A) (A) (A)
                 (A) (A) (A) (A) (A) (A) (A) (A) (A) (A) (A) (A)
                 (A) (A) (A) (A) (A) (A) (A) (A) (A) (A) (A) (A)
                 (A) (A) (A) (A) (A) (A) (A) (A) (A) (A) (A) (A)
                 (A) (A) (A) (A) (A) (A) (A) (A) (A) (A) (A) (A)
                 (A) (A) (A) (A) (A) (A) (A) (A) (A) (A) (A) (A)
                 (A) (A) (A) (A) (A) (A) (A) (A) (A) (A) (A) (A)
                 (A) (A) (A) (A) (A) (A) (A) (A) (A) (A) (A) (A)
                 (A) (A) (A) (A) (A) (A) (A) (A) (A) (A) (A) (A)
                 (A) (A) (A) (A) (A) (A) (A) (A) (A) (A) (A) (A)
                 (A) (A) (A) (A) (A) (A) (A) (A) (A) (A) (A) (A)
                 (A) (A) (A) (A) (A) (A) (A) (A) (A) (A) (A) (A)
                 (A) (A) (A) (A) (A) (A) (A) (A) (A) (A) (A) (A)
                 (A) (A) (A) (A) (A) (A) (A) (A) (A) (A) (A) (A)
                 (A) (A) (A) (A) (A) (A) (A) (A) (A) (A) (A) (A)
                 (A) (A) (A) (A) (A) (A) (A) (A) (A) (A) (A) (A)
                 (A) (A) (A) (A) (A) (A) (A) (A) (A) (A) (A) (A)
                 (A) (A) (A) (A) (A) (A) (A) (A) (A) (A) (A) (A)
                 (A) (A) (A) (A) (A) (A) (A) (A) (A) (A) (A) (A)
                 (A) (A) (A) (A) (A) (A) (A) (A) (A) (A) (A) (A)
                 (A) (A) (A) (A) (A) (A) (A) (A) (A) (A) (A) (A)
                 (A) (A) (A) (A) (A) (A) (A) (A) (A) (A) (A) (A)
                 (A) (A) (A) (A) (A) (A) (A) (A) (A) (A) (A) (A)
                 (A) (A) (A) (A) (A) (A) (A) (A) (A) (A) (A) (A)
                 (A) (A) (A) (A) (A) (A) (A) (A) (A) (A) (A) (A)
                 (A) (A) (A) (A) (A) (A) (A) (A) (A) (A) (A) (A)
                 (A) (A) (A) (A) (A) (A) (A) (A) (A) (A) (A) (A)
                 (A) (A) (A) (A) (A) (A) (A) (A) (A) (A) (A) (A)
                 (A) (A) (A) (A) (A) (A) (A) (A) (A) (A) (A) (A)
                 (A) (A) (A) (A) (A) (A) (A) (A) (A) (A) (A) (A)
                 (A) (A) (A) (A) (A) (A) (A) (A) (A) (A) (A) (A)
                 (A) (A) (A) (A) (A) (A) (A) (A) (A) (A) (A) (A)
                 (A) (A) (A) (A) (A) (A) (A) (A) (A) (A) (A) (A)
                 (A) (A) (A) (A) (A) (A) (A) (A) (A) (A) (A) (A)
                 (A) (A) (A) (A) (A) (A) (A) (A) (A) (A) (A) (A)
                 (A) (A) (A) (A) (A) (A) (A) (A) (A) (A) (A) (A)
                 (A) (A) (A) (A) (A) (A) (A) (A) (A) (A) (A) (A)
                 (A) (A) (A) (A) (A) (A) (A) (A) (A) (A) (A) (A)
                 (A) (A) (A) (A) (A) (A) (A) (A) (A) (A) (A) (A)
                 (A) (A) (A) (A) (A) (A) (A) (A) (A) (A) (A) (A)
                 (A) (A) (A) (A) (A) (A) (A) (A) (A) (A) (A) (A)
                 (A) (A) (A) (A) (A) (A) (A) (A) (A) (A) (A) (A)
                 (A) (A) (A) (A) (A) (A) (A) (A) (A) (A) (A) (A)
                 (A) (A) (A) (A) (A) (A) (A) (A) (A) (A) (A) (A)
                 (A) (A) (A) (A) (A) (A) (A) (A) (A) (A) (A) (A)
                 (A) (A) (A) (A) (A) (A) (A) (A) (A) (A) (A) (A)
                 (A) (A) (A) (A) (A) (A) (A) (A) (A) (A) (A) (A)
                 (A) (A) (A) (A) (A) (A) (A) (A) (A) (A) (A) (A)
                 (A) (A) (A) (A) (A) (A) (A) (A) (A) (A) (A) (A)
                 (A) (A) (A) (A) (A) (A) (A) (A) (A) (A) (A) (A)
                 (A) (A) (A) (A) (A) (A) (A) (A) (A) (A) (A) (A)
                 (A) (A) (A) (A) (A) (A) (A) (A) (A) (A) (A) (A)
                 (A) (A) (A) (A) (A) (A) (A) (A) (A) (A) (A) (A)
                 (A) (A) (A) (A) (A) (A) (A) (A) (A) (A) (A) (A)
                 (A) (A) (A) (A) (A) (A) (A) (A) (A) (A) (A) (A)
                 (A) (A) (A) (A) (A) (A) (A) (A) (A) (A) (A) (A)
                 (A) (A) (A) (A) (A) (A) (A) (A) (A) (A) (A) (A)
                 (A) (A) (A) (A) (A) (A) (A) (A) (A) (A) (A) (A)
                 (A) (A) (A) (A) (A) (A) (A) (A) (A) (A) (A) (A)
                 (A) (A) (A) (A) (A) (A) (A) (A) (A) (A) (A) (A)
                 (A) (A) (A) (A) (A) (A) (A) (A) (A) (A) (A) (A)
                 (A) (A) (A) (A) (A) (A) (A) (A) (A) (A) (A) (A)
                 (A) (A) (A) (A) (A) (A) (A) (A) (A) (A) (A) (A)
                 (A) (A) (A) (A) (A) (A) (A) (A) (A) (A) (A) (A)
                 (A) (A) (A) (A) (A) (A) (A) (A) (A) (A) (A) (A)
                 (A) (A) (A) (A) (A) (A) (A) (A) (A) (A) (A) (A)
                 (A) (A) (A) (A) (A) (A) (A) (A) (A) (A) (A) (A)
                 (A) (A) (A) (A) (A) (A) (A) (A) (A) (A) (A) (A)
                 (A) (A) (A) (A) (A) (A) (A) (A) (A) (A)
 The electronic state is 1-A.
 Alpha  occ. eigenvalues --  -19.17516 -19.16012 -19.13180 -19.12624 -19.11893
 Alpha  occ. eigenvalues --  -14.36646 -14.36592 -14.32243 -14.31491 -10.31751
 Alpha  occ. eigenvalues --  -10.31642 -10.28974 -10.24197 -10.24063 -10.23876
 Alpha  occ. eigenvalues --  -10.23773 -10.23452 -10.23438 -10.23227 -10.23039
 Alpha  occ. eigenvalues --  -10.22879 -10.22811 -10.22260 -10.21398 -10.21324
 Alpha  occ. eigenvalues --  -10.21285 -10.21194 -10.21045 -10.20931 -10.20878
 Alpha  occ. eigenvalues --  -10.20758 -10.20749 -10.20646 -10.20434 -10.20421
 Alpha  occ. eigenvalues --  -10.20317 -10.20228 -10.20209 -10.20159 -10.20103
 Alpha  occ. eigenvalues --  -10.20091 -10.20081 -10.20044 -10.19947 -10.19927
 Alpha  occ. eigenvalues --  -10.19348 -10.19250 -10.19195 -10.19155 -10.19069
 Alpha  occ. eigenvalues --  -10.18900 -10.18681 -10.18583 -10.18474 -10.18150
 Alpha  occ. eigenvalues --  -10.18131 -10.17832 -10.17815 -10.17807 -10.17174
 Alpha  occ. eigenvalues --  -10.16417 -10.16389 -10.16262 -10.15984  -1.10130
 Alpha  occ. eigenvalues --   -1.09649  -1.03067  -1.00894  -0.99922  -0.98724
 Alpha  occ. eigenvalues --   -0.98184  -0.96787  -0.91787  -0.84834  -0.82501
 Alpha  occ. eigenvalues --   -0.82416  -0.81954  -0.81762  -0.81088  -0.80741
 Alpha  occ. eigenvalues --   -0.80690  -0.79932  -0.79750  -0.78481  -0.77341
 Alpha  occ. eigenvalues --   -0.77062  -0.76596  -0.75967  -0.75372  -0.74857
 Alpha  occ. eigenvalues --   -0.73611  -0.73154  -0.72541  -0.71780  -0.71145
 Alpha  occ. eigenvalues --   -0.69807  -0.69378  -0.69294  -0.68960  -0.68250
 Alpha  occ. eigenvalues --   -0.67964  -0.67401  -0.66604  -0.66419  -0.66062
 Alpha  occ. eigenvalues --   -0.64353  -0.62399  -0.62308  -0.62205  -0.61544
 Alpha  occ. eigenvalues --   -0.60437  -0.59428  -0.58159  -0.57814  -0.57712
 Alpha  occ. eigenvalues --   -0.57272  -0.56859  -0.56306  -0.55454  -0.55181
 Alpha  occ. eigenvalues --   -0.55127  -0.54822  -0.54350  -0.54041  -0.53490
 Alpha  occ. eigenvalues --   -0.53051  -0.52151  -0.51738  -0.51035  -0.50869
 Alpha  occ. eigenvalues --   -0.50195  -0.50079  -0.49109  -0.48660  -0.48580
 Alpha  occ. eigenvalues --   -0.48187  -0.47774  -0.47607  -0.47369  -0.47273
 Alpha  occ. eigenvalues --   -0.46765  -0.46562  -0.46310  -0.45786  -0.45584
 Alpha  occ. eigenvalues --   -0.45548  -0.45356  -0.45065  -0.44946  -0.44737
 Alpha  occ. eigenvalues --   -0.44558  -0.44177  -0.43975  -0.43832  -0.43704
 Alpha  occ. eigenvalues --   -0.43488  -0.43347  -0.43129  -0.43069  -0.42868
 Alpha  occ. eigenvalues --   -0.42548  -0.42341  -0.42205  -0.41991  -0.41573
 Alpha  occ. eigenvalues --   -0.41537  -0.41277  -0.40973  -0.40591  -0.40559
 Alpha  occ. eigenvalues --   -0.40263  -0.40114  -0.39834  -0.39436  -0.39351
 Alpha  occ. eigenvalues --   -0.39092  -0.38993  -0.38746  -0.38622  -0.38392
 Alpha  occ. eigenvalues --   -0.38313  -0.38173  -0.38017  -0.37809  -0.37569
 Alpha  occ. eigenvalues --   -0.37297  -0.37247  -0.37189  -0.37009  -0.36910
 Alpha  occ. eigenvalues --   -0.36878  -0.36740  -0.36274  -0.36057  -0.35717
 Alpha  occ. eigenvalues --   -0.35444  -0.35259  -0.34909  -0.34590  -0.34488
 Alpha  occ. eigenvalues --   -0.34397  -0.34212  -0.33975  -0.33885  -0.33664
 Alpha  occ. eigenvalues --   -0.33510  -0.33391  -0.33147  -0.32678  -0.32638
 Alpha  occ. eigenvalues --   -0.32148  -0.32056  -0.32017  -0.31576  -0.31537
 Alpha  occ. eigenvalues --   -0.31212  -0.30980  -0.30786  -0.30152  -0.29763
 Alpha  occ. eigenvalues --   -0.29548  -0.29122  -0.29023  -0.28073  -0.27843
 Alpha  occ. eigenvalues --   -0.27665  -0.27389  -0.27093  -0.26186  -0.26158
 Alpha  occ. eigenvalues --   -0.25721  -0.25537  -0.24676  -0.23329  -0.19838
 Alpha  occ. eigenvalues --   -0.19344
 Alpha virt. eigenvalues --   -0.10988  -0.07894  -0.04709  -0.01679  -0.00612
 Alpha virt. eigenvalues --   -0.00330   0.00295   0.00387   0.01970   0.02405
 Alpha virt. eigenvalues --    0.03406   0.03791   0.04041   0.04205   0.04553
 Alpha virt. eigenvalues --    0.05149   0.05278   0.05389   0.05506   0.06086
 Alpha virt. eigenvalues --    0.06301   0.06601   0.06798   0.06893   0.07156
 Alpha virt. eigenvalues --    0.07265   0.07452   0.07915   0.08224   0.08490
 Alpha virt. eigenvalues --    0.08759   0.08802   0.08977   0.09009   0.09231
 Alpha virt. eigenvalues --    0.09446   0.09668   0.09852   0.10129   0.10428
 Alpha virt. eigenvalues --    0.10535   0.10591   0.10695   0.10777   0.11159
 Alpha virt. eigenvalues --    0.11234   0.11351   0.11398   0.11658   0.11718
 Alpha virt. eigenvalues --    0.11871   0.11985   0.12063   0.12268   0.12304
 Alpha virt. eigenvalues --    0.12448   0.12537   0.12799   0.12955   0.13137
 Alpha virt. eigenvalues --    0.13246   0.13410   0.13540   0.13966   0.14079
 Alpha virt. eigenvalues --    0.14382   0.14513   0.14623   0.14943   0.15039
 Alpha virt. eigenvalues --    0.15414   0.15429   0.15827   0.15997   0.16182
 Alpha virt. eigenvalues --    0.16246   0.16410   0.16727   0.16777   0.16822
 Alpha virt. eigenvalues --    0.16966   0.17137   0.17279   0.17539   0.17998
 Alpha virt. eigenvalues --    0.18107   0.18336   0.18593   0.18646   0.18867
 Alpha virt. eigenvalues --    0.19131   0.19314   0.19723   0.19932   0.19994
 Alpha virt. eigenvalues --    0.20339   0.20446   0.20538   0.20726   0.20860
 Alpha virt. eigenvalues --    0.21020   0.21457   0.21580   0.21833   0.22195
 Alpha virt. eigenvalues --    0.22246   0.22456   0.22712   0.23036   0.23188
 Alpha virt. eigenvalues --    0.23399   0.23781   0.24117   0.24238   0.24649
 Alpha virt. eigenvalues --    0.24788   0.25001   0.25165   0.25320   0.25541
 Alpha virt. eigenvalues --    0.25716   0.26096   0.26518   0.26900   0.27350
 Alpha virt. eigenvalues --    0.27509   0.27802   0.28311   0.28382   0.29048
 Alpha virt. eigenvalues --    0.29130   0.29783   0.30393   0.30649   0.30767
 Alpha virt. eigenvalues --    0.32039   0.32265   0.32478   0.32817   0.33110
 Alpha virt. eigenvalues --    0.33265   0.33374   0.33849   0.33969   0.34406
 Alpha virt. eigenvalues --    0.35065   0.35322   0.35779   0.36035   0.36743
 Alpha virt. eigenvalues --    0.37391   0.37542   0.37711   0.37805   0.38181
 Alpha virt. eigenvalues --    0.38557   0.39169   0.39292   0.39582   0.39896
 Alpha virt. eigenvalues --    0.40091   0.40184   0.40423   0.40738   0.41002
 Alpha virt. eigenvalues --    0.41225   0.41269   0.41782   0.41792   0.41895
 Alpha virt. eigenvalues --    0.42027   0.42121   0.42290   0.42658   0.42767
 Alpha virt. eigenvalues --    0.42981   0.43535   0.43667   0.44012   0.44061
 Alpha virt. eigenvalues --    0.44373   0.44564   0.44671   0.44771   0.45294
 Alpha virt. eigenvalues --    0.45367   0.45459   0.45738   0.46030   0.46270
 Alpha virt. eigenvalues --    0.46678   0.46892   0.46953   0.47383   0.47647
 Alpha virt. eigenvalues --    0.47921   0.48218   0.48581   0.48745   0.49070
 Alpha virt. eigenvalues --    0.49130   0.49527   0.49817   0.50071   0.50357
 Alpha virt. eigenvalues --    0.50529   0.50678   0.50857   0.50934   0.51091
 Alpha virt. eigenvalues --    0.51293   0.51569   0.51748   0.52136   0.52306
 Alpha virt. eigenvalues --    0.52710   0.53051   0.53504   0.53818   0.53962
 Alpha virt. eigenvalues --    0.54215   0.54403   0.54510   0.55066   0.55172
 Alpha virt. eigenvalues --    0.55704   0.55770   0.55941   0.56179   0.56234
 Alpha virt. eigenvalues --    0.56569   0.56691   0.56861   0.56922   0.57234
 Alpha virt. eigenvalues --    0.57908   0.57982   0.58646   0.58884   0.59064
 Alpha virt. eigenvalues --    0.59197   0.59336   0.59392   0.59564   0.59581
 Alpha virt. eigenvalues --    0.59671   0.59950   0.60224   0.60392   0.60437
 Alpha virt. eigenvalues --    0.60686   0.60778   0.60816   0.61025   0.61447
 Alpha virt. eigenvalues --    0.61777   0.61891   0.61986   0.62286   0.62539
 Alpha virt. eigenvalues --    0.62616   0.62735   0.62815   0.62934   0.63081
 Alpha virt. eigenvalues --    0.63207   0.63274   0.63516   0.63545   0.63675
 Alpha virt. eigenvalues --    0.63960   0.63984   0.64167   0.64283   0.64359
 Alpha virt. eigenvalues --    0.64559   0.64682   0.64751   0.65185   0.65438
 Alpha virt. eigenvalues --    0.65493   0.65671   0.65698   0.65742   0.65919
 Alpha virt. eigenvalues --    0.65964   0.66105   0.66171   0.66487   0.66596
 Alpha virt. eigenvalues --    0.66655   0.66730   0.66859   0.66939   0.67142
 Alpha virt. eigenvalues --    0.67203   0.67245   0.67448   0.67594   0.67667
 Alpha virt. eigenvalues --    0.67877   0.67884   0.68110   0.68445   0.68521
 Alpha virt. eigenvalues --    0.68638   0.68774   0.68955   0.69017   0.69198
 Alpha virt. eigenvalues --    0.69247   0.69310   0.69460   0.69745   0.69769
 Alpha virt. eigenvalues --    0.69895   0.70067   0.70229   0.70335   0.70494
 Alpha virt. eigenvalues --    0.70584   0.70599   0.70801   0.70952   0.71244
 Alpha virt. eigenvalues --    0.71308   0.71394   0.71601   0.71710   0.71905
 Alpha virt. eigenvalues --    0.72018   0.72204   0.72239   0.72304   0.72443
 Alpha virt. eigenvalues --    0.72686   0.72770   0.73204   0.73255   0.73481
 Alpha virt. eigenvalues --    0.73655   0.73843   0.74001   0.74079   0.74446
 Alpha virt. eigenvalues --    0.74721   0.74885   0.74918   0.75337   0.75570
 Alpha virt. eigenvalues --    0.75694   0.75949   0.76155   0.76232   0.76484
 Alpha virt. eigenvalues --    0.76650   0.76888   0.77242   0.77621   0.77653
 Alpha virt. eigenvalues --    0.78021   0.78512   0.78617   0.78978   0.79270
 Alpha virt. eigenvalues --    0.79322   0.79849   0.80150   0.80279   0.80458
 Alpha virt. eigenvalues --    0.80726   0.80979   0.80999   0.81416   0.81666
 Alpha virt. eigenvalues --    0.81861   0.82277   0.82890   0.83366   0.84080
 Alpha virt. eigenvalues --    0.84351   0.84428   0.85008   0.85268   0.85978
 Alpha virt. eigenvalues --    0.86336   0.86636   0.87359   0.87771   0.88670
 Alpha virt. eigenvalues --    0.88909   0.89115   0.89569   0.89984   0.90400
 Alpha virt. eigenvalues --    0.91484   0.91745   0.92290   0.92363   0.92936
 Alpha virt. eigenvalues --    0.93528   0.94229   0.94424   0.95015   0.95221
 Alpha virt. eigenvalues --    0.95706   0.96845   0.96973   0.97239   0.97667
 Alpha virt. eigenvalues --    0.97857   0.98146   0.98275   0.98822   0.99091
 Alpha virt. eigenvalues --    0.99787   1.00018   1.00146   1.00647   1.00784
 Alpha virt. eigenvalues --    1.01213   1.01699   1.02050   1.03170   1.03912
 Alpha virt. eigenvalues --    1.04270   1.04336   1.04732   1.04934   1.05656
 Alpha virt. eigenvalues --    1.05920   1.06307   1.06529   1.06629   1.07322
 Alpha virt. eigenvalues --    1.07588   1.08148   1.08406   1.08652   1.08941
 Alpha virt. eigenvalues --    1.09673   1.10209   1.10790   1.10946   1.11486
 Alpha virt. eigenvalues --    1.11731   1.12838   1.13082   1.13500   1.13722
 Alpha virt. eigenvalues --    1.14160   1.14634   1.15261   1.15419   1.15706
 Alpha virt. eigenvalues --    1.15872   1.16797   1.17269   1.17461   1.17541
 Alpha virt. eigenvalues --    1.18838   1.19301   1.19878   1.20190   1.20411
 Alpha virt. eigenvalues --    1.21103   1.21266   1.21422   1.21567   1.22054
 Alpha virt. eigenvalues --    1.22296   1.22926   1.23731   1.24839   1.25233
 Alpha virt. eigenvalues --    1.25453   1.25676   1.25730   1.26300   1.26621
 Alpha virt. eigenvalues --    1.26954   1.27527   1.28055   1.28154   1.28484
 Alpha virt. eigenvalues --    1.28733   1.29865   1.30188   1.30547   1.31251
 Alpha virt. eigenvalues --    1.31573   1.31935   1.32278   1.32779   1.33350
 Alpha virt. eigenvalues --    1.33421   1.33625   1.34109   1.34221   1.34417
 Alpha virt. eigenvalues --    1.34950   1.35065   1.35961   1.36485   1.36537
 Alpha virt. eigenvalues --    1.36612   1.37002   1.37836   1.38059   1.38724
 Alpha virt. eigenvalues --    1.38828   1.39095   1.39874   1.40604   1.40845
 Alpha virt. eigenvalues --    1.41196   1.41412   1.41541   1.42308   1.43584
 Alpha virt. eigenvalues --    1.43929   1.44255   1.44714   1.45319   1.45772
 Alpha virt. eigenvalues --    1.46463   1.47445   1.47692   1.48125   1.48323
 Alpha virt. eigenvalues --    1.48555   1.48695   1.49119   1.49499   1.49557
 Alpha virt. eigenvalues --    1.50334   1.50628   1.50963   1.51355   1.51611
 Alpha virt. eigenvalues --    1.52125   1.52661   1.52807   1.52840   1.52860
 Alpha virt. eigenvalues --    1.53002   1.53215   1.53565   1.53822   1.53865
 Alpha virt. eigenvalues --    1.54027   1.54323   1.54417   1.54678   1.55151
 Alpha virt. eigenvalues --    1.55932   1.56096   1.56372   1.56805   1.57412
 Alpha virt. eigenvalues --    1.57570   1.58189   1.58501   1.58719   1.59227
 Alpha virt. eigenvalues --    1.60351   1.60647   1.61308   1.62207   1.62219
 Alpha virt. eigenvalues --    1.62514   1.63008   1.63119   1.63440   1.63977
 Alpha virt. eigenvalues --    1.64103   1.64216   1.64606   1.65002   1.65059
 Alpha virt. eigenvalues --    1.65279   1.65633   1.65795   1.66537   1.66932
 Alpha virt. eigenvalues --    1.67549   1.67778   1.67869   1.68300   1.68530
 Alpha virt. eigenvalues --    1.68597   1.69262   1.69581   1.69629   1.69730
 Alpha virt. eigenvalues --    1.70036   1.70239   1.70435   1.70608   1.70862
 Alpha virt. eigenvalues --    1.71039   1.71563   1.71645   1.72090   1.72273
 Alpha virt. eigenvalues --    1.72426   1.72657   1.72819   1.73190   1.73488
 Alpha virt. eigenvalues --    1.73805   1.74071   1.74450   1.75001   1.75329
 Alpha virt. eigenvalues --    1.75416   1.75728   1.75830   1.76046   1.76169
 Alpha virt. eigenvalues --    1.76320   1.76422   1.76641   1.76850   1.77142
 Alpha virt. eigenvalues --    1.77332   1.77575   1.78131   1.78166   1.78383
 Alpha virt. eigenvalues --    1.78538   1.78923   1.79139   1.79383   1.79685
 Alpha virt. eigenvalues --    1.79770   1.79951   1.80196   1.80306   1.80538
 Alpha virt. eigenvalues --    1.80636   1.80881   1.81229   1.81579   1.81695
 Alpha virt. eigenvalues --    1.82038   1.82340   1.82557   1.82652   1.82842
 Alpha virt. eigenvalues --    1.83206   1.83368   1.83735   1.84013   1.84230
 Alpha virt. eigenvalues --    1.84483   1.84543   1.84760   1.85010   1.85393
 Alpha virt. eigenvalues --    1.85607   1.85800   1.85877   1.86226   1.86392
 Alpha virt. eigenvalues --    1.86696   1.86887   1.87042   1.87054   1.87217
 Alpha virt. eigenvalues --    1.87374   1.87636   1.87796   1.88022   1.88246
 Alpha virt. eigenvalues --    1.88297   1.88633   1.89004   1.89276   1.89423
 Alpha virt. eigenvalues --    1.89466   1.89626   1.90637   1.90690   1.90869
 Alpha virt. eigenvalues --    1.90952   1.91264   1.91498   1.91676   1.91818
 Alpha virt. eigenvalues --    1.91854   1.92193   1.92213   1.92481   1.92598
 Alpha virt. eigenvalues --    1.92928   1.93540   1.93569   1.93980   1.94504
 Alpha virt. eigenvalues --    1.94588   1.94743   1.94789   1.95147   1.95394
 Alpha virt. eigenvalues --    1.95581   1.95977   1.96177   1.96435   1.96597
 Alpha virt. eigenvalues --    1.96735   1.97061   1.97508   1.97616   1.97663
 Alpha virt. eigenvalues --    1.97885   1.98003   1.98392   1.98795   1.99016
 Alpha virt. eigenvalues --    1.99135   1.99537   1.99792   2.00048   2.00552
 Alpha virt. eigenvalues --    2.01053   2.01244   2.01460   2.01729   2.02269
 Alpha virt. eigenvalues --    2.02338   2.02874   2.03012   2.03355   2.03827
 Alpha virt. eigenvalues --    2.04175   2.04507   2.04721   2.04991   2.05420
 Alpha virt. eigenvalues --    2.05673   2.05932   2.06363   2.06706   2.07069
 Alpha virt. eigenvalues --    2.07568   2.07741   2.08029   2.08281   2.08552
 Alpha virt. eigenvalues --    2.09037   2.09879   2.10309   2.10709   2.10893
 Alpha virt. eigenvalues --    2.11108   2.11655   2.12114   2.12466   2.13235
 Alpha virt. eigenvalues --    2.13267   2.13584   2.13713   2.14066   2.14372
 Alpha virt. eigenvalues --    2.14792   2.15089   2.15485   2.16163   2.16350
 Alpha virt. eigenvalues --    2.16466   2.16840   2.17372   2.18040   2.18565
 Alpha virt. eigenvalues --    2.19062   2.19283   2.19896   2.20419   2.20729
 Alpha virt. eigenvalues --    2.20874   2.21495   2.21702   2.22361   2.22427
 Alpha virt. eigenvalues --    2.22512   2.23327   2.23458   2.23692   2.24175
 Alpha virt. eigenvalues --    2.24819   2.24987   2.25652   2.26213   2.26848
 Alpha virt. eigenvalues --    2.27017   2.27568   2.27618   2.27768   2.28268
 Alpha virt. eigenvalues --    2.28571   2.28993   2.29043   2.29821   2.30154
 Alpha virt. eigenvalues --    2.30636   2.31081   2.31205   2.31664   2.32392
 Alpha virt. eigenvalues --    2.32893   2.33367   2.33537   2.34046   2.34586
 Alpha virt. eigenvalues --    2.34870   2.34924   2.35299   2.35582   2.35700
 Alpha virt. eigenvalues --    2.36267   2.36499   2.36720   2.36990   2.37313
 Alpha virt. eigenvalues --    2.37602   2.38157   2.38606   2.38953   2.39424
 Alpha virt. eigenvalues --    2.39993   2.40111   2.40786   2.41039   2.41606
 Alpha virt. eigenvalues --    2.41789   2.42329   2.43049   2.43314   2.43532
 Alpha virt. eigenvalues --    2.43781   2.44156   2.44303   2.45263   2.45960
 Alpha virt. eigenvalues --    2.46301   2.46661   2.47016   2.47342   2.47955
 Alpha virt. eigenvalues --    2.48123   2.48663   2.48782   2.49214   2.49960
 Alpha virt. eigenvalues --    2.50111   2.50524   2.50738   2.50923   2.51830
 Alpha virt. eigenvalues --    2.52026   2.52431   2.53142   2.53786   2.54021
 Alpha virt. eigenvalues --    2.54651   2.55152   2.55692   2.56026   2.56544
 Alpha virt. eigenvalues --    2.56990   2.57647   2.58063   2.58597   2.58678
 Alpha virt. eigenvalues --    2.59333   2.59761   2.60299   2.60640   2.60761
 Alpha virt. eigenvalues --    2.60833   2.61153   2.61333   2.61811   2.62124
 Alpha virt. eigenvalues --    2.62138   2.63050   2.63587   2.63680   2.63961
 Alpha virt. eigenvalues --    2.64343   2.64461   2.64891   2.65630   2.65983
 Alpha virt. eigenvalues --    2.66176   2.66318   2.66976   2.67092   2.67570
 Alpha virt. eigenvalues --    2.68433   2.68598   2.68790   2.69267   2.69545
 Alpha virt. eigenvalues --    2.70368   2.70877   2.71325   2.71816   2.72187
 Alpha virt. eigenvalues --    2.72217   2.72398   2.72715   2.72794   2.73901
 Alpha virt. eigenvalues --    2.74365   2.74581   2.74745   2.75902   2.76551
 Alpha virt. eigenvalues --    2.76768   2.77366   2.77546   2.78122   2.78249
 Alpha virt. eigenvalues --    2.79226   2.79542   2.79892   2.80830   2.81401
 Alpha virt. eigenvalues --    2.82212   2.82759   2.83245   2.83710   2.84047
 Alpha virt. eigenvalues --    2.84508   2.85028   2.85461   2.86284   2.86464
 Alpha virt. eigenvalues --    2.86692   2.86899   2.87226   2.87849   2.88149
 Alpha virt. eigenvalues --    2.89143   2.89221   2.89416   2.89825   2.90242
 Alpha virt. eigenvalues --    2.90451   2.90612   2.90837   2.91677   2.92000
 Alpha virt. eigenvalues --    2.92097   2.92521   2.93014   2.93562   2.93752
 Alpha virt. eigenvalues --    2.95489   2.95596   2.96023   2.96386   2.96852
 Alpha virt. eigenvalues --    2.96876   2.97001   2.97505   2.97828   2.97994
 Alpha virt. eigenvalues --    2.98990   2.99553   2.99656   3.00279   3.00669
 Alpha virt. eigenvalues --    3.01162   3.01303   3.01533   3.02627   3.02815
 Alpha virt. eigenvalues --    3.03351   3.03844   3.05341   3.05912   3.06104
 Alpha virt. eigenvalues --    3.06341   3.07808   3.08335   3.08711   3.09533
 Alpha virt. eigenvalues --    3.10096   3.10221   3.10966   3.12763   3.13711
 Alpha virt. eigenvalues --    3.14662   3.14867   3.15183   3.15490   3.15668
 Alpha virt. eigenvalues --    3.16518   3.16940   3.18942   3.19224   3.19724
 Alpha virt. eigenvalues --    3.21291   3.21790   3.22687   3.23069   3.25242
 Alpha virt. eigenvalues --    3.25970   3.30156   3.30453   3.33480   3.35975
 Alpha virt. eigenvalues --    3.36239   3.40668   3.41879   3.46896   3.48242
 Alpha virt. eigenvalues --    3.49412   3.50258   3.51624   3.57589   3.61704
 Alpha virt. eigenvalues --    3.63185   3.63779   3.64595   3.65192   3.66364
          Condensed to atoms (all electrons):
 Mulliken charges:
               1
     1  C   -0.022245
     2  C   -0.098105
     3  C   -0.065975
     4  C   -0.065718
     5  N   -0.255145
     6  C   -0.059920
     7  C   -0.031866
     8  C   -0.016977
     9  C    0.071849
    10  C    0.004273
    11  C    0.070156
    12  C   -0.122434
    13  C    0.202659
    14  O   -0.221688
    15  O   -0.337808
    16  N   -0.033229
    17  C    0.061153
    18  C   -0.182237
    19  C    0.110576
    20  C    0.020042
    21  C    0.112878
    22  C   -0.059388
    23  C   -0.132491
    24  N   -0.179300
    25  C    0.061693
    26  C   -0.123522
    27  C   -0.099058
    28  C    0.018046
    29  C    0.089294
    30  C    0.064446
    31  C    0.042201
    32  N   -0.079482
    33  C    0.071299
    34  C   -0.124616
    35  C   -0.055868
    36  C    0.165409
    37  C    0.061190
    38  C    0.089323
    39  O   -0.160572
    40  C   -0.085121
    41  C    0.204923
    42  O   -0.236227
    43  O   -0.268200
    44  C    0.169756
    45  C    0.351271
    46  C   -0.070001
    47  C   -0.077263
    48  C   -0.016288
    49  C    0.158170
    50  C   -0.023212
    51  C    0.013863
    52  C   -0.090559
    53  C    0.052508
    54  C    0.110891
    55  C    0.090319
    56  C    0.075654
    57  C   -0.002377
    58  C    0.042494
    59  C    0.038612
    60  C    0.016376
    61  C   -0.049752
    62  C   -0.076986
    63  C    0.058815
    64  C    0.133743
    65  H    0.014544
    66  H   -0.001772
    67  H   -0.010171
    68  H    0.024542
    69  H   -0.015411
    70  H    0.024798
    71  H    0.029367
    72  H    0.032882
    73  H    0.026240
    74  H    0.040953
    75  H    0.060260
    76  H    0.067509
    77  H    0.033673
    78  H    0.015532
    79  H    0.042355
    80  H    0.019224
    81  H    0.047137
    82  H    0.034881
    83  H    0.017783
    84  H    0.046846
    85  H    0.013808
    86  H   -0.005834
    87  H   -0.001610
    88  H   -0.006930
    89  H   -0.011413
    90  H    0.020028
    91  H    0.025807
    92  H    0.018552
    93  H    0.063728
    94  H    0.088970
    95  H    0.018170
    96  H    0.001045
    97  H    0.038272
    98  H   -0.019145
    99  H   -0.012656
   100  H   -0.030377
   101  H    0.022548
   102  H    0.040313
   103  H    0.030639
   104  H   -0.025395
   105  H   -0.002411
   106  H    0.006100
   107  H   -0.005653
   108  H   -0.009301
   109  H    0.023208
   110  H   -0.016523
   111  H    0.000375
   112  H    0.031845
   113  H   -0.020804
   114  H   -0.031126
   115  H   -0.078852
   116  H   -0.043516
   117  H   -0.038598
   118  H   -0.024082
   119  H   -0.044652
   120  H   -0.069356
   121  H    0.006688
   122  H   -0.004670
   123  H    0.001711
   124  H   -0.032682
   125  H   -0.006298
   126  H    0.023053
   127  H   -0.001308
   128  H    0.006686
   129  H    0.019789
   130  H   -0.003072
   131  H   -0.007747
   132  H   -0.005260
   133  H   -0.017836
   134  H   -0.021857
   135  H   -0.030626
   136  H   -0.029655
   137  H    0.103611
   138  H    0.192873
 Sum of Mulliken charges =  -0.00000
 Mulliken charges with hydrogens summed into heavy atoms:
               1
     1  C   -0.022245
     2  C   -0.083561
     3  C   -0.067747
     4  C   -0.075889
     5  N   -0.255145
     6  C   -0.059920
     7  C   -0.007324
     8  C   -0.032388
     9  C    0.071849
    10  C    0.091320
    11  C    0.137350
    12  C    0.005334
    13  C    0.202659
    14  O   -0.221688
    15  O   -0.337808
    16  N    0.070381
    17  C    0.061153
    18  C   -0.182237
    19  C    0.110576
    20  C    0.020042
    21  C    0.204438
    22  C   -0.040165
    23  C   -0.050472
    24  N   -0.179300
    25  C    0.061693
    26  C   -0.123522
    27  C   -0.099058
    28  C    0.018046
    29  C    0.167731
    30  C    0.057002
    31  C    0.043887
    32  N    0.113391
    33  C    0.071299
    34  C   -0.124616
    35  C   -0.055868
    36  C    0.165409
    37  C    0.169277
    38  C    0.089323
    39  O   -0.160572
    40  C    0.003849
    41  C    0.204923
    42  O   -0.236227
    43  O   -0.268200
    44  C    0.227243
    45  C    0.319470
    46  C   -0.100378
    47  C   -0.077263
    48  C    0.077212
    49  C    0.130365
    50  C   -0.022765
    51  C    0.027770
    52  C   -0.107082
    53  C    0.063924
    54  C    0.000913
    55  C    0.008205
    56  C    0.006920
    57  C   -0.071732
    58  C    0.046223
    59  C   -0.000368
    60  C    0.038121
    61  C   -0.023277
    62  C   -0.080059
    63  C    0.027972
    64  C    0.051605
 Electronic spatial extent (au):  <R**2>=         178276.5226
 Charge=             -0.0000 electrons
 Dipole moment (field-independent basis, Debye):
    X=              1.4206    Y=              4.2677    Z=             -0.3700  Tot=              4.5131
 Quadrupole moment (field-independent basis, Debye-Ang):
   XX=           -346.3966   YY=           -385.2435   ZZ=           -397.1274
   XY=            -15.6997   XZ=             14.2259   YZ=              1.8258
 Traceless Quadrupole moment (field-independent basis, Debye-Ang):
   XX=             29.8593   YY=             -8.9877   ZZ=            -20.8716
   XY=            -15.6997   XZ=             14.2259   YZ=              1.8258
 Octapole moment (field-independent basis, Debye-Ang**2):
  XXX=           -730.4792  YYY=            139.1077  ZZZ=             -0.3869  XYY=            -30.9112
  XXY=            152.6975  XXZ=           -178.8919  XZZ=             47.1700  YZZ=            -22.3347
  YYZ=             28.5332  XYZ=            -72.4001
 Hexadecapole moment (field-independent basis, Debye-Ang**3):
 XXXX=        -221567.7808 YYYY=         -17764.5268 ZZZZ=          -4580.7596 XXXY=           2080.9002
 XXXZ=           3572.1913 YYYX=          -1011.6328 YYYZ=           -101.8287 ZZZX=             -5.0459
 ZZZY=            -88.9731 XXYY=         -39842.8527 XXZZ=         -38925.4913 YYZZ=          -3677.4293
 XXYZ=            224.8939 YYXZ=             69.2212 ZZXY=             83.6153
 N-N= 8.296754173690D+03 E-N=-2.292879283563D+04  KE= 2.702669850799D+03
 1\1\GINC-RYZEN-SSD1\SP\RB3LYP TD-FC\SVP\C55H74N4O5\PADAWAN\28-Aug-2019
 \0\\# td=(NStates=1) B3LYP/SVP\\TD\\0,1\C,0,-5.1821710676,-1.942604066
 4,0.603458971\C,0,-4.7740335616,2.7507653055,1.4981764937\C,0,-9.30040
 92845,3.2589420905,-0.4034649627\C,0,-9.8220840595,-1.4942610207,-0.96
 01621616\N,0,-5.2136581138,0.4595724183,0.8434918072\C,0,-4.4921273103
 ,-0.7731362972,0.9028363692\C,0,-2.9992616799,-0.5167821617,1.36470972
 04\C,0,-3.1639405465,0.8728724048,1.9860431097\C,0,-4.4322581839,1.495
 4465901,1.3674586573\C,0,-3.1085673546,0.8825465557,3.5357834363\C,0,-
 2.1032256654,-0.6618211962,0.2340800157\C,0,-0.6858269708,-0.827971652
 ,0.6294907142\C,0,0.3275272586,-0.9547123885,-0.6021060678\O,0,0.06944
 66806,-1.2826179517,-1.7241448691\O,0,1.6181968949,-0.8425006686,-0.19
 97649685\N,0,-6.965599741,2.7907938213,0.3419347875\C,0,-5.9193461156,
 3.4007868112,0.9565697824\C,0,-6.2836996425,4.7998580696,1.0047520269\
 C,0,-7.6288859531,4.9220735304,0.5561208422\C,0,-8.0703324836,3.640712
 6702,0.1897403103\C,0,-5.3138605425,5.8535791403,1.4052965336\C,0,-8.2
 230788961,6.2260523229,0.4671117655\C,0,-9.1983873615,6.6592652171,-0.
 2657951958\N,0,-9.1427776771,0.8763661112,-0.5080577812\C,0,-9.8578775
 652,2.0190052022,-0.6745362643\C,0,-11.2098772257,1.9389575353,-1.0702
 610974\C,0,-11.4026857091,0.6019742388,-1.2626263242\C,0,-10.014868195
 2,0.0199449451,-0.9147849589\C,0,-12.1783120284,3.0376263317,-1.261510
 5802\C,0,-12.6334834457,-0.2371228107,-1.8096131963\C,0,-12.5048049501
 ,-0.4648111275,-3.3571328977\N,0,-7.5778209078,-1.2509394084,-0.214637
 8089\C,0,-8.5726932548,-2.0857051847,-0.6391508435\C,0,-8.1215557628,-
 3.3794125428,-0.7733610746\C,0,-6.8086728955,-3.3915350378,-0.18369047
 43\C,0,-6.5121197516,-2.0618679859,0.1017523293\C,0,-8.8839323783,-4.6
 137647765,-1.1315856654\C,0,-5.6643925608,-4.3201872456,0.0583785075\O
 ,0,-5.6073825944,-5.5363401427,-0.007193799\C,0,-4.486304235,-3.353372
 4499,0.4664418938\C,0,-3.9424966645,-3.8058342786,1.7697988652\O,0,-4.
 2533679485,-3.4362645824,2.894069871\O,0,-3.004883004,-4.7746277441,1.
 6645722002\C,0,-2.3875222825,-5.3247033756,2.7484413144\C,0,2.63462350
 58,-0.9176504556,-1.1713413394\C,0,3.983892499,-0.6850731307,-0.425569
 1701\C,0,4.9379560958,0.0585849061,-0.9548308877\C,0,4.8519657068,0.83
 56574074,-2.2946820072\C,0,6.3333670488,0.2284754758,-0.2666881319\C,0
 ,7.4307373009,-0.4748568188,-0.9945268061\C,0,8.8031337904,-0.32023723
 06,-0.158150695\C,0,10.0428661413,-0.8534698296,-0.897040684\C,0,10.04
 80085943,-2.3341885847,-1.2271968344\C,0,11.2974204166,-0.4572253931,0
 .025090041\C,0,12.6836069453,-0.5935478332,-0.5810859858\C,0,13.847011
 1083,-0.1005327564,0.2114375064\C,0,15.2186936905,-0.1347765135,-0.409
 3447703\C,0,15.7232296506,-1.6245566176,-0.7350132368\C,0,16.279350532
 3,0.5519061018,0.5488181462\C,0,17.6744642851,0.7030360375,-0.17248175
 6\C,0,18.6771075618,1.4246610851,0.7100496979\C,0,20.0461545114,1.6878
 844137,0.0224850089\C,0,19.9116620957,2.4591453457,-1.2855549645\C,0,2
 1.039214387,2.1900127374,1.0248188826\H,0,-4.1807262402,3.5118975741,2
 .2344456829\H,0,-10.0148390689,3.9450139379,-0.0820268766\H,0,-10.5431
 826582,-2.1969057006,-1.4029801919\H,0,-2.8259586474,-1.284898854,2.21
 6733468\H,0,-2.3286234299,1.5269626474,1.7077302714\H,0,-2.2596934852,
 0.2056979915,3.7753942647\H,0,-2.9817514754,2.1043550791,3.986427744\H
 ,0,-3.9787284522,0.4860693092,4.0827671224\H,0,-2.3305225062,-1.541768
 0545,-0.3944763039\H,0,-2.4271886575,0.4642939037,-0.2819168524\H,0,-0
 .3516194853,0.1114552714,1.491765207\H,0,-0.5747704899,-1.9445136314,1
 .2719843174\H,0,-4.4422688843,5.5734554831,0.7927824162\H,0,-5.6838896
 078,6.8396290816,1.3863042274\H,0,-4.9207738544,5.3844982992,2.4834794
 085\H,0,-7.7759676957,7.0878058143,1.1102323295\H,0,-9.8901344062,5.96
 13041159,-1.0504144374\H,0,-9.3706013393,7.7858838737,-0.4254022443\H,
 0,-12.6048950369,3.3657970782,-0.3563380324\H,0,-11.8879577181,3.91965
 69304,-1.9540726248\H,0,-13.0796253625,2.4962652447,-1.7650995569\H,0,
 -12.8996547914,-1.1795980861,-1.3994945233\H,0,-13.5891696593,0.312130
 8745,-1.6559792752\H,0,-12.3874232573,0.4401810332,-3.8470435478\H,0,-
 11.5468108888,-0.9241918156,-3.5166524619\H,0,-13.2317312463,-1.203507
 7089,-3.7753413928\H,0,-9.6971372605,-4.7575078427,-0.4961354174\H,0,-
 9.1659785081,-4.5390109146,-2.1662871493\H,0,-8.2546471702,-5.70940172
 01,-1.0750221557\H,0,-3.6949952268,-3.5236197133,-0.3819312529\H,0,-1.
 7845653245,-6.1427908828,2.2978954935\H,0,-1.5867652482,-4.8585955986,
 3.2769621465\H,0,-3.0742784832,-5.6698939894,3.6166331835\H,0,2.461337
 9256,-1.8716139025,-1.4851256459\H,0,2.2970315461,-0.1580872467,-1.796
 767296\H,0,4.0636978057,-1.3832063911,0.3412631707\H,0,5.4406993344,1.
 8001677146,-2.2132939168\H,0,5.3862055844,0.2649824534,-3.2095140185\H
 ,0,3.8867051557,1.0458073866,-2.860021359\H,0,6.5073708342,1.234366580
 6,-0.2779229927\H,0,6.2902668525,-0.2052761129,0.7487245666\H,0,7.2248
 731404,-1.620636109,-1.0680816543\H,0,7.6470344545,-0.1805525507,-2.01
 71705748\H,0,9.090843526,0.6803958911,-0.3405527968\H,0,8.683281058,-0
 .7374208291,0.9179146444\H,0,10.2187587412,-0.2201918209,-1.7923499579
 \H,0,9.1062778154,-2.7159202548,-1.7521844439\H,0,10.9150683678,-2.795
 1111875,-1.7666724128\H,0,9.8136598078,-2.7685187294,-0.2895624777\H,0
 ,11.1748216723,0.5883164554,0.2779912617\H,0,11.2708846579,-0.93460194
 57,0.8392644481\H,0,12.7771142194,-1.5480286819,-0.9336468075\H,0,12.7
 959199086,0.0265153786,-1.4848117997\H,0,13.6501560511,0.9414845443,0.
 4899441685\H,0,13.8161464501,-0.6358365377,1.0968092571\H,0,15.0769291
 903,0.3178849883,-1.252391889\H,0,15.1568110761,-2.0781761014,-1.54469
 84903\H,0,16.7380605424,-1.6291687564,-1.1684282354\H,0,15.7963523528,
 -2.1050401226,0.2047131726\H,0,15.9118183734,1.4555286416,0.8717510187
 \H,0,16.5409204147,0.0243462437,1.5636583626\H,0,18.2251785952,-0.3171
 001886,-0.3537500597\H,0,17.2688396094,1.1233052936,-1.069574262\H,0,1
 8.4039821041,2.5634150692,1.036700165\H,0,18.8834913633,0.729091746,1.
 6801692725\H,0,20.3286610959,0.5508058143,-0.2744945124\H,0,19.6342561
 228,3.4961517473,-1.2499699712\H,0,21.0395124684,2.9109667005,-1.73864
 91883\H,0,19.4283210679,2.041484185,-2.0179969809\H,0,21.2949845116,1.
 7171312634,1.9059745253\H,0,21.9721410558,2.363364453,0.5794298428\H,0
 ,20.9419618589,3.1812978003,1.3906416686\H,0,-7.0471985024,1.844398711
 9,0.1069239492\H,0,-7.73003437,-0.189603836,-0.050248345\\Version=ES64
 L-G16RevA.03\State=1-A\HF=-2733.0399897\RMSD=2.796e-09\PG=C01 [X(C55H7
 4N4O5)]\\@


 ...THE PHYSICISTS HAVE MADE THEIR UNIVERSE, AND IF YOU DO NOT LIKE
 IT, YOU MUST MAKE YOUR OWN.
                               -- E. R. HARRISON IN "COSMOLOGY" (1980)
 Job cpu time:       1 days 13 hours 30 minutes  4.9 seconds.
 Elapsed time:       0 days  9 hours 26 minutes 21.4 seconds.
 File lengths (MBytes):  RWF=   6378 Int=      0 D2E=      0 Chk=    163 Scr=      1
 Normal termination of Gaussian 16 at Wed Aug 28 00:45:51 2019.
