 Entering Gaussian System, Link 0=g16
 Input=Geometria-310-.com
 Output=Geometria-310-.log
 Initial command:
 /usr/local/g16/l1.exe "/home/padawan/israel-mol/pheophytin/spectra/emi/Gau-15916.inp" -scrdir="/home/padawan/israel-mol/pheophytin/spectra/emi/"
 Entering Link 1 = /usr/local/g16/l1.exe PID=     15918.
  
 Copyright (c) 1988,1990,1992,1993,1995,1998,2003,2009,2016,
            Gaussian, Inc.  All Rights Reserved.
  
 This is part of the Gaussian(R) 16 program.  It is based on
 the Gaussian(R) 09 system (copyright 2009, Gaussian, Inc.),
 the Gaussian(R) 03 system (copyright 2003, Gaussian, Inc.),
 the Gaussian(R) 98 system (copyright 1998, Gaussian, Inc.),
 the Gaussian(R) 94 system (copyright 1995, Gaussian, Inc.),
 the Gaussian 92(TM) system (copyright 1992, Gaussian, Inc.),
 the Gaussian 90(TM) system (copyright 1990, Gaussian, Inc.),
 the Gaussian 88(TM) system (copyright 1988, Gaussian, Inc.),
 the Gaussian 86(TM) system (copyright 1986, Carnegie Mellon
 University), and the Gaussian 82(TM) system (copyright 1983,
 Carnegie Mellon University). Gaussian is a federally registered
 trademark of Gaussian, Inc.
  
 This software contains proprietary and confidential information,
 including trade secrets, belonging to Gaussian, Inc.
  
 This software is provided under written license and may be
 used, copied, transmitted, or stored only in accord with that
 written license.
  
 The following legend is applicable only to US Government
 contracts under FAR:
  
                    RESTRICTED RIGHTS LEGEND
  
 Use, reproduction and disclosure by the US Government is
 subject to restrictions as set forth in subparagraphs (a)
 and (c) of the Commercial Computer Software - Restricted
 Rights clause in FAR 52.227-19.
  
 Gaussian, Inc.
 340 Quinnipiac St., Bldg. 40, Wallingford CT 06492
  
  
 ---------------------------------------------------------------
 Warning -- This program may not be used in any manner that
 competes with the business of Gaussian, Inc. or will provide
 assistance to any competitor of Gaussian, Inc.  The licensee
 of this program is prohibited from giving any competitor of
 Gaussian, Inc. access to this program.  By using this program,
 the user acknowledges that Gaussian, Inc. is engaged in the
 business of creating and licensing software in the field of
 computational chemistry and represents and warrants to the
 licensee that it is not a competitor of Gaussian, Inc. and that
 it will not use this program in any manner prohibited above.
 ---------------------------------------------------------------
  

 Cite this work as:
 Gaussian 16, Revision A.03,
 M. J. Frisch, G. W. Trucks, H. B. Schlegel, G. E. Scuseria, 
 M. A. Robb, J. R. Cheeseman, G. Scalmani, V. Barone, 
 G. A. Petersson, H. Nakatsuji, X. Li, M. Caricato, A. V. Marenich, 
 J. Bloino, B. G. Janesko, R. Gomperts, B. Mennucci, H. P. Hratchian, 
 J. V. Ortiz, A. F. Izmaylov, J. L. Sonnenberg, D. Williams-Young, 
 F. Ding, F. Lipparini, F. Egidi, J. Goings, B. Peng, A. Petrone, 
 T. Henderson, D. Ranasinghe, V. G. Zakrzewski, J. Gao, N. Rega, 
 G. Zheng, W. Liang, M. Hada, M. Ehara, K. Toyota, R. Fukuda, 
 J. Hasegawa, M. Ishida, T. Nakajima, Y. Honda, O. Kitao, H. Nakai, 
 T. Vreven, K. Throssell, J. A. Montgomery, Jr., J. E. Peralta, 
 F. Ogliaro, M. J. Bearpark, J. J. Heyd, E. N. Brothers, K. N. Kudin, 
 V. N. Staroverov, T. A. Keith, R. Kobayashi, J. Normand, 
 K. Raghavachari, A. P. Rendell, J. C. Burant, S. S. Iyengar, 
 J. Tomasi, M. Cossi, J. M. Millam, M. Klene, C. Adamo, R. Cammi, 
 J. W. Ochterski, R. L. Martin, K. Morokuma, O. Farkas, 
 J. B. Foresman, and D. J. Fox, Gaussian, Inc., Wallingford CT, 2016.
 
 ******************************************
 Gaussian 16:  ES64L-G16RevA.03 25-Dec-2016
                22-Aug-2019 
 ******************************************
 %nproc=4
 Will use up to    4 processors via shared memory.
 %Mem=2GB
 --------------------------
 # td=(NStates=1) B3LYP/SVP
 --------------------------
 1/38=1,172=1/1;
 2/12=2,17=6,18=5,40=1/2;
 3/5=18,7=101,11=9,25=1,30=1,74=-5/1,2,3,8;
 4//1;
 5/5=2,38=5/2;
 8/6=1,10=1,108=1/1;
 9/41=1,42=1,70=2/14;
 6/7=2,8=2,9=2,10=2/1;
 99/5=1,9=1/99;
 --
 TD
 --
 Symbolic Z-matrix:
 Charge =  0 Multiplicity = 1
 6                    -5.08151  -1.89509   0.40088 
 6                    -4.81729   2.87381   1.28104 
 6                    -9.36259   3.25519  -0.18849 
 6                    -9.9319   -1.59092  -0.88836 
 7                    -5.18678   0.44363   0.76328 
 6                    -4.5524   -0.67414   0.73214 
 6                    -3.0649   -0.5732    1.20086 
 6                    -3.04191   0.97847   1.77832 
 6                    -4.45522   1.48327   1.27079 
 6                    -2.8597    0.90389   3.27501 
 6                    -2.07496  -0.79622   0.018 
 6                    -0.57401  -0.80013   0.59932 
 6                     0.48257  -1.11315  -0.48341 
 8                     0.17114  -1.48824  -1.59245 
 8                     1.69627  -0.75885  -0.17623 
 7                    -7.03877   2.74115   0.56649 
 6                    -6.03347   3.53425   0.95417 
 6                    -6.23435   4.8373    1.0246 
 6                    -7.58837   5.02018   0.45034 
 6                    -8.09152   3.67115   0.16021 
 6                    -5.33283   5.9924    1.57953 
 6                    -8.30297   6.22568   0.26677 
 6                    -9.28553   6.61174  -0.53565 
 7                    -9.27941   0.70652  -0.46142 
 6                    -9.90033   2.03309  -0.5484 
 6                    -11.38967   1.77423  -0.9274 
 6                    -11.50332   0.44115  -1.14758 
 6                    -10.27113  -0.16892  -0.8113 
 6                    -12.23557   2.9269   -1.09649 
 6                    -12.63743  -0.2519   -1.76334 
 6                    -12.5676  -0.59004  -3.17389 
 7                    -7.59065  -1.22847  -0.23318 
 6                    -8.62975  -2.04843  -0.61696 
 6                    -8.16974  -3.49676  -0.59826 
 6                    -6.81587  -3.49499  -0.26265 
 6                    -6.46726  -2.11205  -0.06884 
 6                    -8.98013  -4.7003   -1.11421 
 6                    -5.72785  -4.26191   0.07896 
 8                    -5.68684  -5.4732   -0.01999 
 6                    -4.56201  -3.26715   0.33064 
 6                    -3.87424  -3.71014   1.57054 
 8                    -4.10398  -3.1759    2.72275 
 8                    -3.13872  -4.7552    1.36424 
 6                    -2.50219  -5.43741   2.41645 
 6                     2.83648  -1.07618  -1.02646 
 6                     4.06722  -0.66238  -0.35704 
 6                     4.96008   0.24027  -0.73102 
 6                     4.92484   1.07854  -2.01641 
 6                     6.24987   0.24753   0.06328 
 6                     7.53096  -0.16733  -0.70262 
 6                     8.75498  -0.11001   0.19015 
 6                     10.09658  -0.63425  -0.52138 
 6                     9.98502  -2.12895  -1.0772 
 6                     11.33259  -0.36636   0.34562 
 6                     12.64119  -0.47985  -0.46133 
 6                     13.94294  -0.12899   0.39223 
 6                     15.3069  -0.26654  -0.40261 
 6                     15.60785  -1.71702  -0.75815 
 6                     16.30078   0.49454   0.32567 
 6                     17.6374   0.63234  -0.43579 
 6                     18.70846   1.4628    0.42538 
 6                     20.20708   1.50125  -0.13011 
 6                     20.17545   2.1438   -1.47188 
 6                     21.07823   2.09579   0.95427 
 1                    -3.92954   3.53168   1.87237 
 1                    -9.95912   4.10975  -0.51632 
 1                    -10.78384  -2.29132  -1.25746 
 1                    -2.65329  -1.36341   1.95107 
 1                    -2.33731   1.54319   1.31718 
 1                    -1.79169   0.55704   3.4728 
 1                    -2.8606    2.14054   3.70576 
 1                    -3.72487   0.33629   3.85212 
 1                    -2.21995  -1.89584  -0.4323 
 1                    -2.12512  -0.05295  -0.72704 
 1                    -0.25409   0.17095   1.1131 
 1                    -0.50338  -1.39486   1.5222 
 1                    -4.64827   6.53972   0.82726 
 1                    -6.10325   6.8273    2.16292 
 1                    -4.57914   5.37745   2.5355 
 1                    -7.65341   7.23227   0.7471 
 1                    -10.00398   6.03576  -1.2204 
 1                    -9.62528   7.62047  -0.36934 
 1                    -12.60209   3.38517  -0.07592 
 1                    -11.85072   3.73681  -1.6837 
 1                    -13.22557   2.57054  -1.38617 
 1                    -12.84771  -1.21152  -1.13924 
 1                    -13.56088   0.38097  -1.57708 
 1                    -12.25121   0.24169  -3.71372 
 1                    -11.87466  -1.52238  -3.43473 
 1                    -13.47978  -0.93822  -3.7826 
 1                    -10.1143  -4.6101   -0.8155 
 1                    -9.1837   -4.88472  -2.44604 
 1                    -8.55981  -5.62894  -0.64477 
 1                    -3.83321  -3.5047   -0.50923 
 1                    -2.01282  -6.12178   1.93324 
 1                    -1.74803  -4.96875   3.12146 
 1                    -3.3183   -5.9614    3.06478 
 1                     2.77409  -2.06362  -1.41111 
 1                     2.39538  -0.46462  -1.97323 
 1                     3.92024  -1.36318   0.50993 
 1                     5.08982   2.26435  -1.78467 
 1                     5.5852    0.90434  -2.90238 
 1                     3.94999   1.21921  -2.37659 
 1                     6.35769   1.27503   0.41826 
 1                     6.06716  -0.35172   0.83234 
 1                     7.33281  -1.2408   -0.9734 
 1                     7.78756   0.4331   -1.50435 
 1                     9.013     0.95704   0.54915 
 1                     8.71805  -0.6495    1.26144 
 1                     9.98557  -0.03565  -1.49657 
 1                     9.10151  -2.31401  -1.70071 
 1                     10.9535  -2.30606  -1.74446 
 1                     10.38695  -2.8995   -0.31231 
 1                     11.0645   0.59297   0.84432 
 1                     11.35973  -1.09662   1.24715 
 1                     12.55222  -1.63267  -0.88971 
 1                     12.49097   0.12094  -1.53975 
 1                     13.64425   0.78303   0.62405 
 1                     14.03478  -0.71005   1.49873 
 1                     15.16142   0.26369  -1.37863 
 1                     14.84357  -2.10095  -1.38159 
 1                     16.60896  -1.80298  -1.29041 
 1                     15.93713  -2.50681   0.10449 
 1                     15.97057   1.41389   0.57629 
 1                     16.53359   0.08829   1.25508 
 1                     18.05924  -0.271    -0.83559 
 1                     17.46803   1.2877   -1.3782 
 1                     18.33868   2.58098   0.74138 
 1                     18.7738   0.97641   1.45829 
 1                     20.63697   0.48686  -0.39177 
 1                     20.0194   3.18331  -1.44015 
 1                     21.36133   2.00613  -1.7668 
 1                     19.27019   1.76126  -2.12503 
 1                     20.89829   1.75503   2.05956 
 1                     22.23571   1.92101   0.91734 
 1                     20.74086   3.13706   1.14439 
 1                    -7.04526   1.70323   0.30142 
 1                    -7.55275  -0.2529   -0.35869 
 
 Stoichiometry    C55H74N4O5
 Framework group  C1[X(C55H74N4O5)]
 Deg. of freedom   408
 Full point group                 C1      NOp   1
 Largest Abelian subgroup         C1      NOp   1
 Largest concise Abelian subgroup C1      NOp   1
                         Standard orientation:                         
 ---------------------------------------------------------------------
 Center     Atomic      Atomic             Coordinates (Angstroms)
 Number     Number       Type             X           Y           Z
 ---------------------------------------------------------------------
      1          6           0       -5.076758   -1.899757    0.423706
      2          6           0       -4.823388    2.879664    1.248225
      3          6           0       -9.369938    3.233368   -0.224359
      4          6           0       -9.928168   -1.621871   -0.867610
      5          7           0       -5.187362    0.442773    0.758893
      6          6           0       -4.550403   -0.673806    0.740581
      7          6           0       -3.063016   -0.563967    1.207675
      8          6           0       -3.043482    0.994370    1.767026
      9          6           0       -4.458094    1.489940    1.254053
     10          6           0       -2.860718    0.937637    3.264426
     11          6           0       -2.072870   -0.798451    0.027204
     12          6           0       -0.571758   -0.792105    0.608102
     13          6           0        0.485266   -1.115256   -0.471213
     14          8           0        0.174417   -1.503953   -1.575721
     15          8           0        1.698221   -0.754593   -0.168522
     16          7           0       -7.044737    2.733542    0.535892
     17          6           0       -6.041183    3.533433    0.914030
     18          6           0       -6.245079    4.836746    0.969349
     19          6           0       -7.599665    5.009789    0.393380
     20          6           0       -8.099757    3.656301    0.119114
     21          6           0       -5.346099    6.000318    1.510538
     22          6           0       -8.317106    6.211408    0.195995
     23          6           0       -9.300766    6.585818   -0.610589
     24          7           0       -9.280913    0.681891   -0.467626
     25          6           0       -9.904936    2.005912   -0.569866
     26          6           0      -11.393762    1.739207   -0.945396
     27          6           0      -11.504372    0.403391   -1.150019
     28          6           0      -10.270689   -0.199864   -0.807011
     29          6           0      -12.242384    2.887859   -1.127659
     30          6           0      -12.637035   -0.299412   -1.757341
     31          6           0      -12.566781   -0.653786   -3.163885
     32          7           0       -7.587604   -1.246384   -0.217355
     33          6           0       -8.624892   -2.073169   -0.591267
     34          6           0       -8.161515   -3.520115   -0.555845
     35          6           0       -6.807570   -3.511288   -0.220659
     36          6           0       -6.462115   -2.125388   -0.043066
     37          6           0       -8.969242   -4.731456   -1.057520
     38          6           0       -5.717678   -4.271659    0.129545
     39          8           0       -5.673881   -5.483923    0.044694
     40          6           0       -4.554091   -3.271337    0.369294
     41          6           0       -3.864972   -3.698267    1.614071
     42          8           0       -4.095659   -3.151178    2.760054
     43          8           0       -3.127076   -4.743939    1.419744
     44          6           0       -2.488699   -5.412385    2.479639
     45          6           0        2.838945   -1.079147   -1.015320
     46          6           0        4.068890   -0.654732   -0.351118
     47          6           0        4.959551    0.245576   -0.735830
     48          6           0        4.922037    1.068740   -2.030886
     49          6           0        6.249526    0.265069    0.057968
     50          6           0        7.531378   -0.155699   -0.703418
     51          6           0        8.755493   -0.085151    0.188277
     52          6           0       10.098126   -0.614526   -0.517491
     53          6           0        9.989897   -2.115850   -1.055841
     54          6           0       11.333736   -0.333693    0.345985
     55          6           0       12.642387   -0.453533   -0.459968
     56          6           0       13.943536   -0.089740    0.389079
     57          6           0       15.307609   -0.233373   -0.404494
     58          6           0       15.611832   -1.687187   -0.743203
     59          6           0       16.299906    0.538438    0.314594
     60          6           0       17.636004    0.670463   -0.448793
     61          6           0       18.705354    1.513381    0.402346
     62          6           0       20.203737    1.548829   -0.153982
     63          6           0       20.170267    2.175649   -1.503135
     64          6           0       21.073781    2.157980    0.923158
     65          1           0       -3.937020    3.546432    1.831599
     66          1           0       -9.968544    4.082666   -0.561942
     67          1           0      -10.778575   -2.328489   -1.228280
     68          1           0       -2.649381   -1.344432    1.966909
     69          1           0       -2.340321    1.555318    1.299142
     70          1           0       -1.791848    0.595596    3.465942
     71          1           0       -2.864377    2.179212    3.680754
     72          1           0       -3.724418    0.374794    3.848357
     73          1           0       -2.215419   -1.903571   -0.410222
     74          1           0       -2.124944   -0.064016   -0.726423
     75          1           0       -0.253966    0.185629    1.110452
     76          1           0       -0.499516   -1.375886    1.537824
     77          1           0       -4.663004    6.540429    0.751745
     78          1           0       -6.118306    6.840158    2.084387
     79          1           0       -4.590734    5.398283    2.473388
     80          1           0       -7.669761    7.225023    0.664385
     81          1           0      -10.018052    6.000241   -1.288382
     82          1           0       -9.642817    7.595622   -0.455930
     83          1           0      -12.609711    3.357131   -0.112384
     84          1           0      -11.859574    3.691773   -1.724358
     85          1           0      -13.231630    2.525863   -1.412887
     86          1           0      -12.844920   -1.252184   -1.122053
     87          1           0      -13.561898    0.333442   -1.578201
     88          1           0      -12.252461    0.172340   -3.713446
     89          1           0      -11.871746   -1.587487   -3.414052
     90          1           0      -13.478301   -1.011141   -3.768239
     91          1           0      -10.103538   -4.640416   -0.759551
     92          1           0       -9.172724   -4.931831   -2.387046
     93          1           0       -8.546640   -5.653590   -0.577417
     94          1           0       -3.824954   -3.516950   -0.467964
     95          1           0       -1.997859   -6.101190    2.004290
     96          1           0       -1.735446   -4.933793    3.178929
     97          1           0       -3.303421   -5.930682    3.134257
     98          1           0        2.778745   -2.071147   -1.388433
     99          1           0        2.396179   -0.479676   -1.969027
    100          1           0        3.923764   -1.345735    0.523996
    101          1           0        5.084323    2.257550   -1.813009
    102          1           0        5.582565    0.885766   -2.914956
    103          1           0        3.946769    1.202949   -2.392401
    104          1           0        6.355047    1.296882    0.400924
    105          1           0        6.068413   -0.325608    0.834001
    106          1           0        7.335659   -1.232708   -0.961632
    107          1           0        7.786377    0.435946   -1.512158
    108          1           0        9.011122    0.986602    0.534750
    109          1           0        8.720098   -0.612223    1.265780
    110          1           0        9.985469   -0.027583   -1.499549
    111          1           0        9.106653   -2.310207   -1.676901
    112          1           0       10.958613   -2.298472   -1.721269
    113          1           0       10.393808   -2.876513   -0.282151
    114          1           0       11.063544    0.630746    0.833556
    115          1           0       11.362805   -1.053345    1.255940
    116          1           0       12.555984   -1.611465   -0.874873
    117          1           0       12.490491    0.134314   -1.545259
    118          1           0       13.642783    0.824216    0.610354
    119          1           0       14.037009   -0.657673    1.502246
    120          1           0       15.160642    0.285120   -1.386579
    121          1           0       14.848287   -2.080123   -1.361920
    122          1           0       16.613002   -1.777015   -1.274716
    123          1           0       15.943167   -2.466120    0.128477
    124          1           0       15.967627    1.459879    0.554595
    125          1           0       16.533896    0.143578    1.248606
    126          1           0       18.059840   -0.236483   -0.838170
    127          1           0       17.464868    1.314416   -1.398716
    128          1           0       18.333053    2.634295    0.705414
    129          1           0       18.772090    1.039192    1.440826
    130          1           0       20.635917    0.532466   -0.403934
    131          1           0       20.011816    3.215090   -1.483458
    132          1           0       21.356394    2.037299   -1.796768
    133          1           0       19.265726    1.783425   -2.151524
    134          1           0       20.894924    1.829685    2.032389
    135          1           0       22.231653    1.985464    0.887938
    136          1           0       20.734045    3.200607    1.101236
    137          1           0       -7.048885    1.692600    0.282930
    138          1           0       -7.551998   -0.272259   -0.354223
 ---------------------------------------------------------------------
 Rotational constants (GHZ):           0.0648895           0.0061269           0.0057546
 Standard basis: SVP (5D, 7F)
 There are  1330 symmetry adapted cartesian basis functions of A   symmetry.
 There are  1266 symmetry adapted basis functions of A   symmetry.
  1266 basis functions,  2118 primitive gaussians,  1330 cartesian basis functions
   236 alpha electrons      236 beta electrons
       nuclear repulsion energy      8277.7980055838 Hartrees.
 NAtoms=  138 NActive=  138 NUniq=  138 SFac= 1.00D+00 NAtFMM=   60 NAOKFM=T Big=T
 Integral buffers will be    131072 words long.
 Regular integral format.
 Two-electron integral symmetry is turned on.
 One-electron integrals computed using PRISM.
 NBasis=  1266 RedAO= T EigKep=  3.26D-04  NBF=  1266
 NBsUse=  1266 1.00D-06 EigRej= -1.00D+00 NBFU=  1266
 ExpMin= 1.22D-01 ExpMax= 2.27D+03 ExpMxC= 3.41D+02 IAcc=3 IRadAn=         5 AccDes= 0.00D+00
 Harris functional with IExCor=  402 and IRadAn=       5 diagonalized for initial guess.
 HarFok:  IExCor=  402 AccDes= 0.00D+00 IRadAn=         5 IDoV= 1 UseB2=F ITyADJ=14
 ICtDFT=  3500011 ScaDFX=  1.000000  1.000000  1.000000  1.000000
 FoFCou: FMM=F IPFlag=           0 FMFlag=      100000 FMFlg1=        2001
         NFxFlg=           0 DoJE=T BraDBF=F KetDBF=T FulRan=T
         wScrn=  0.000000 ICntrl=       500 IOpCl=  0 I1Cent=   200000004 NGrid=           0
         NMat0=    1 NMatS0=      1 NMatT0=    0 NMatD0=    1 NMtDS0=    0 NMtDT0=    0
 Petite list used in FoFCou.
 Requested convergence on RMS density matrix=1.00D-08 within 128 cycles.
 Requested convergence on MAX density matrix=1.00D-06.
 Requested convergence on             energy=1.00D-06.
 No special actions if energy rises.
 Integral accuracy reduced to 1.0D-05 until final iterations.
 Initial convergence to 1.0D-05 achieved.  Increase integral accuracy.
 SCF Done:  E(RB3LYP) =  -2732.98890506     A.U. after   18 cycles
            NFock= 18  Conv=0.43D-08     -V/T= 2.0123
 DoSCS=F DFT=T ScalE2(SS,OS)=  1.000000  1.000000
 ExpMin= 1.22D-01 ExpMax= 2.27D+03 ExpMxC= 3.41D+02 IAcc=3 IRadAn=         5 AccDes= 0.00D+00
 HarFok:  IExCor=  205 AccDes= 0.00D+00 IRadAn=         5 IDoV=-2 UseB2=F ITyADJ=14
 ICtDFT= 12500011 ScaDFX=  1.000000  1.000000  1.000000  1.000000
 GSVD:  LWork=       -4608 too small for GESVD, short by       21440 words or       21440 for optimal perf.
 Range of M.O.s used for correlation:    65  1266
 NBasis=  1266 NAE=   236 NBE=   236 NFC=    64 NFV=     0
 NROrb=   1202 NOA=   172 NOB=   172 NVA=  1030 NVB=  1030

 **** Warning!!: The smallest alpha delta epsilon is  0.81221915D-01

 Orbital symmetries:
       Occupied  (A) (A) (A) (A) (A) (A) (A) (A) (A) (A) (A) (A)
                 (A) (A) (A) (A) (A) (A) (A) (A) (A) (A) (A) (A)
                 (A) (A) (A) (A) (A) (A) (A) (A) (A) (A) (A) (A)
                 (A) (A) (A) (A) (A) (A) (A) (A) (A) (A) (A) (A)
                 (A) (A) (A) (A) (A) (A) (A) (A) (A) (A) (A) (A)
                 (A) (A) (A) (A) (A) (A) (A) (A) (A) (A) (A) (A)
                 (A) (A) (A) (A) (A) (A) (A) (A) (A) (A) (A) (A)
                 (A) (A) (A) (A) (A) (A) (A) (A) (A) (A) (A) (A)
                 (A) (A) (A) (A) (A) (A) (A) (A) (A) (A) (A) (A)
                 (A) (A) (A) (A) (A) (A) (A) (A) (A) (A) (A) (A)
                 (A) (A) (A) (A) (A) (A) (A) (A) (A) (A) (A) (A)
                 (A) (A) (A) (A) (A) (A) (A) (A) (A) (A) (A) (A)
                 (A) (A) (A) (A) (A) (A) (A) (A) (A) (A) (A) (A)
                 (A) (A) (A) (A) (A) (A) (A) (A) (A) (A) (A) (A)
                 (A) (A) (A) (A) (A) (A) (A) (A) (A) (A) (A) (A)
                 (A) (A) (A) (A) (A) (A) (A) (A) (A) (A) (A) (A)
                 (A) (A) (A) (A) (A) (A) (A) (A) (A) (A) (A) (A)
                 (A) (A) (A) (A) (A) (A) (A) (A) (A) (A) (A) (A)
                 (A) (A) (A) (A) (A) (A) (A) (A) (A) (A) (A) (A)
                 (A) (A) (A) (A) (A) (A) (A) (A)
       Virtual   (A) (A) (A) (A) (A) (A) (A) (A) (A) (A) (A) (A)
                 (A) (A) (A) (A) (A) (A) (A) (A) (A) (A) (A) (A)
                 (A) (A) (A) (A) (A) (A) (A) (A) (A) (A) (A) (A)
                 (A) (A) (A) (A) (A) (A) (A) (A) (A) (A) (A) (A)
                 (A) (A) (A) (A) (A) (A) (A) (A) (A) (A) (A) (A)
                 (A) (A) (A) (A) (A) (A) (A) (A) (A) (A) (A) (A)
                 (A) (A) (A) (A) (A) (A) (A) (A) (A) (A) (A) (A)
                 (A) (A) (A) (A) (A) (A) (A) (A) (A) (A) (A) (A)
                 (A) (A) (A) (A) (A) (A) (A) (A) (A) (A) (A) (A)
                 (A) (A) (A) (A) (A) (A) (A) (A) (A) (A) (A) (A)
                 (A) (A) (A) (A) (A) (A) (A) (A) (A) (A) (A) (A)
                 (A) (A) (A) (A) (A) (A) (A) (A) (A) (A) (A) (A)
                 (A) (A) (A) (A) (A) (A) (A) (A) (A) (A) (A) (A)
                 (A) (A) (A) (A) (A) (A) (A) (A) (A) (A) (A) (A)
                 (A) (A) (A) (A) (A) (A) (A) (A) (A) (A) (A) (A)
                 (A) (A) (A) (A) (A) (A) (A) (A) (A) (A) (A) (A)
                 (A) (A) (A) (A) (A) (A) (A) (A) (A) (A) (A) (A)
                 (A) (A) (A) (A) (A) (A) (A) (A) (A) (A) (A) (A)
                 (A) (A) (A) (A) (A) (A) (A) (A) (A) (A) (A) (A)
                 (A) (A) (A) (A) (A) (A) (A) (A) (A) (A) (A) (A)
                 (A) (A) (A) (A) (A) (A) (A) (A) (A) (A) (A) (A)
                 (A) (A) (A) (A) (A) (A) (A) (A) (A) (A) (A) (A)
                 (A) (A) (A) (A) (A) (A) (A) (A) (A) (A) (A) (A)
                 (A) (A) (A) (A) (A) (A) (A) (A) (A) (A) (A) (A)
                 (A) (A) (A) (A) (A) (A) (A) (A) (A) (A) (A) (A)
                 (A) (A) (A) (A) (A) (A) (A) (A) (A) (A) (A) (A)
                 (A) (A) (A) (A) (A) (A) (A) (A) (A) (A) (A) (A)
                 (A) (A) (A) (A) (A) (A) (A) (A) (A) (A) (A) (A)
                 (A) (A) (A) (A) (A) (A) (A) (A) (A) (A) (A) (A)
                 (A) (A) (A) (A) (A) (A) (A) (A) (A) (A) (A) (A)
                 (A) (A) (A) (A) (A) (A) (A) (A) (A) (A) (A) (A)
                 (A) (A) (A) (A) (A) (A) (A) (A) (A) (A) (A) (A)
                 (A) (A) (A) (A) (A) (A) (A) (A) (A) (A) (A) (A)
                 (A) (A) (A) (A) (A) (A) (A) (A) (A) (A) (A) (A)
                 (A) (A) (A) (A) (A) (A) (A) (A) (A) (A) (A) (A)
                 (A) (A) (A) (A) (A) (A) (A) (A) (A) (A) (A) (A)
                 (A) (A) (A) (A) (A) (A) (A) (A) (A) (A) (A) (A)
                 (A) (A) (A) (A) (A) (A) (A) (A) (A) (A) (A) (A)
                 (A) (A) (A) (A) (A) (A) (A) (A) (A) (A) (A) (A)
                 (A) (A) (A) (A) (A) (A) (A) (A) (A) (A) (A) (A)
                 (A) (A) (A) (A) (A) (A) (A) (A) (A) (A) (A) (A)
                 (A) (A) (A) (A) (A) (A) (A) (A) (A) (A) (A) (A)
                 (A) (A) (A) (A) (A) (A) (A) (A) (A) (A) (A) (A)
                 (A) (A) (A) (A) (A) (A) (A) (A) (A) (A) (A) (A)
                 (A) (A) (A) (A) (A) (A) (A) (A) (A) (A) (A) (A)
                 (A) (A) (A) (A) (A) (A) (A) (A) (A) (A) (A) (A)
                 (A) (A) (A) (A) (A) (A) (A) (A) (A) (A) (A) (A)
                 (A) (A) (A) (A) (A) (A) (A) (A) (A) (A) (A) (A)
                 (A) (A) (A) (A) (A) (A) (A) (A) (A) (A) (A) (A)
                 (A) (A) (A) (A) (A) (A) (A) (A) (A) (A) (A) (A)
                 (A) (A) (A) (A) (A) (A) (A) (A) (A) (A) (A) (A)
                 (A) (A) (A) (A) (A) (A) (A) (A) (A) (A) (A) (A)
                 (A) (A) (A) (A) (A) (A) (A) (A) (A) (A) (A) (A)
                 (A) (A) (A) (A) (A) (A) (A) (A) (A) (A) (A) (A)
                 (A) (A) (A) (A) (A) (A) (A) (A) (A) (A) (A) (A)
                 (A) (A) (A) (A) (A) (A) (A) (A) (A) (A) (A) (A)
                 (A) (A) (A) (A) (A) (A) (A) (A) (A) (A) (A) (A)
                 (A) (A) (A) (A) (A) (A) (A) (A) (A) (A) (A) (A)
                 (A) (A) (A) (A) (A) (A) (A) (A) (A) (A) (A) (A)
                 (A) (A) (A) (A) (A) (A) (A) (A) (A) (A) (A) (A)
                 (A) (A) (A) (A) (A) (A) (A) (A) (A) (A) (A) (A)
                 (A) (A) (A) (A) (A) (A) (A) (A) (A) (A) (A) (A)
                 (A) (A) (A) (A) (A) (A) (A) (A) (A) (A) (A) (A)
                 (A) (A) (A) (A) (A) (A) (A) (A) (A) (A) (A) (A)
                 (A) (A) (A) (A) (A) (A) (A) (A) (A) (A) (A) (A)
                 (A) (A) (A) (A) (A) (A) (A) (A) (A) (A) (A) (A)
                 (A) (A) (A) (A) (A) (A) (A) (A) (A) (A) (A) (A)
                 (A) (A) (A) (A) (A) (A) (A) (A) (A) (A) (A) (A)
                 (A) (A) (A) (A) (A) (A) (A) (A) (A) (A) (A) (A)
                 (A) (A) (A) (A) (A) (A) (A) (A) (A) (A) (A) (A)
                 (A) (A) (A) (A) (A) (A) (A) (A) (A) (A) (A) (A)
                 (A) (A) (A) (A) (A) (A) (A) (A) (A) (A) (A) (A)
                 (A) (A) (A) (A) (A) (A) (A) (A) (A) (A) (A) (A)
                 (A) (A) (A) (A) (A) (A) (A) (A) (A) (A) (A) (A)
                 (A) (A) (A) (A) (A) (A) (A) (A) (A) (A) (A) (A)
                 (A) (A) (A) (A) (A) (A) (A) (A) (A) (A) (A) (A)
                 (A) (A) (A) (A) (A) (A) (A) (A) (A) (A) (A) (A)
                 (A) (A) (A) (A) (A) (A) (A) (A) (A) (A) (A) (A)
                 (A) (A) (A) (A) (A) (A) (A) (A) (A) (A) (A) (A)
                 (A) (A) (A) (A) (A) (A) (A) (A) (A) (A) (A) (A)
                 (A) (A) (A) (A) (A) (A) (A) (A) (A) (A) (A) (A)
                 (A) (A) (A) (A) (A) (A) (A) (A) (A) (A) (A) (A)
                 (A) (A) (A) (A) (A) (A) (A) (A) (A) (A) (A) (A)
                 (A) (A) (A) (A) (A) (A) (A) (A) (A) (A) (A) (A)
                 (A) (A) (A) (A) (A) (A) (A) (A) (A) (A) (A) (A)
                 (A) (A) (A) (A) (A) (A) (A) (A) (A) (A)
     4 initial guesses have been made.
 Convergence on wavefunction:    0.001000000000000
 Iteration     1 Dimension     4 NMult     0 NNew      4
 CISAX will form     4 AO SS matrices at one time.
 Iteration     2 Dimension     6 NMult     4 NNew      2
 Iteration     3 Dimension     8 NMult     6 NNew      2
 Iteration     4 Dimension    10 NMult     8 NNew      2
 Iteration     5 Dimension    12 NMult    10 NNew      2
 Iteration     6 Dimension    14 NMult    12 NNew      2
 Iteration     7 Dimension    16 NMult    14 NNew      2
 Iteration     8 Dimension    18 NMult    16 NNew      2
 Iteration     9 Dimension    20 NMult    18 NNew      2
 Iteration    10 Dimension    22 NMult    20 NNew      2
 ***********************************************************************
 Excited states from <AA,BB:AA,BB> singles matrix:
 ***********************************************************************
 
 Ground to excited state transition densities written to RWF  633
 Ground to excited state transition electric dipole moments (Au):
       state          X           Y           Z        Dip. S.      Osc.
         1        -0.2782     -1.7231     -0.2585      3.1133      0.1464
 Ground to excited state transition velocity dipole moments (Au):
       state          X           Y           Z        Dip. S.      Osc.
         1         0.0192      0.1194      0.0185      0.0150      0.1414
 Ground to excited state transition magnetic dipole moments (Au):
       state          X           Y           Z
         1         0.1139      0.3394     -2.2514
 Ground to excited state transition velocity quadrupole moments (Au):
       state          XX          YY          ZZ          XY          XZ          YZ
         1        -0.5477      0.2533      0.0105     -1.6168     -0.2313      0.0126
 <0|del|b> * <b|rxdel|0> + <0|del|b> * <b|delr+rdel|0>
 Rotatory Strengths (R) in cgs (10**-40 erg-esu-cm/Gauss)
       state          XX          YY          ZZ    R(velocity)    E-M Angle
         1       -16.3355    -46.5026     74.4370      3.8663       89.76
 1/2[<0|r|b>*<b|rxdel|0> + (<0|rxdel|b>*<b|r|0>)*]
 Rotatory Strengths (R) in cgs (10**-40 erg-esu-cm/Gauss)
       state          XX          YY          ZZ     R(length)
         1        22.4087    413.5511   -411.6086      8.1171
  1/2[<0|del|b>*<b|r|0> + (<0|r|b>*<b|del|0>)*] (Au)
       state          X           Y           Z        Dip. S.   Osc.(frdel)
         1        -0.0053     -0.2057     -0.0048      0.2158      0.1439

 Excitation energies and oscillator strengths:
 
 Excited State   1:      Singlet-A      1.9194 eV  645.96 nm  f=0.1464  <S**2>=0.000
     235 -> 237       -0.24811
     235 -> 238       -0.28392
     236 -> 237        0.56775
     236 -> 238       -0.17166
 This state for optimization and/or second-order correction.
 Total Energy, E(TD-HF/TD-DFT) =  -2732.91836930    
 Copying the excited state density for this state as the 1-particle RhoCI density.
 SavETr:  write IOETrn=   770 NScale= 10 NData=  16 NLR=1 NState=    1 LETran=      28.
 Hyperfine terms turned off by default for NAtoms > 100.

 **********************************************************************

            Population analysis using the SCF density.

 **********************************************************************

 Orbital symmetries:
       Occupied  (A) (A) (A) (A) (A) (A) (A) (A) (A) (A) (A) (A)
                 (A) (A) (A) (A) (A) (A) (A) (A) (A) (A) (A) (A)
                 (A) (A) (A) (A) (A) (A) (A) (A) (A) (A) (A) (A)
                 (A) (A) (A) (A) (A) (A) (A) (A) (A) (A) (A) (A)
                 (A) (A) (A) (A) (A) (A) (A) (A) (A) (A) (A) (A)
                 (A) (A) (A) (A) (A) (A) (A) (A) (A) (A) (A) (A)
                 (A) (A) (A) (A) (A) (A) (A) (A) (A) (A) (A) (A)
                 (A) (A) (A) (A) (A) (A) (A) (A) (A) (A) (A) (A)
                 (A) (A) (A) (A) (A) (A) (A) (A) (A) (A) (A) (A)
                 (A) (A) (A) (A) (A) (A) (A) (A) (A) (A) (A) (A)
                 (A) (A) (A) (A) (A) (A) (A) (A) (A) (A) (A) (A)
                 (A) (A) (A) (A) (A) (A) (A) (A) (A) (A) (A) (A)
                 (A) (A) (A) (A) (A) (A) (A) (A) (A) (A) (A) (A)
                 (A) (A) (A) (A) (A) (A) (A) (A) (A) (A) (A) (A)
                 (A) (A) (A) (A) (A) (A) (A) (A) (A) (A) (A) (A)
                 (A) (A) (A) (A) (A) (A) (A) (A) (A) (A) (A) (A)
                 (A) (A) (A) (A) (A) (A) (A) (A) (A) (A) (A) (A)
                 (A) (A) (A) (A) (A) (A) (A) (A) (A) (A) (A) (A)
                 (A) (A) (A) (A) (A) (A) (A) (A) (A) (A) (A) (A)
                 (A) (A) (A) (A) (A) (A) (A) (A)
       Virtual   (A) (A) (A) (A) (A) (A) (A) (A) (A) (A) (A) (A)
                 (A) (A) (A) (A) (A) (A) (A) (A) (A) (A) (A) (A)
                 (A) (A) (A) (A) (A) (A) (A) (A) (A) (A) (A) (A)
                 (A) (A) (A) (A) (A) (A) (A) (A) (A) (A) (A) (A)
                 (A) (A) (A) (A) (A) (A) (A) (A) (A) (A) (A) (A)
                 (A) (A) (A) (A) (A) (A) (A) (A) (A) (A) (A) (A)
                 (A) (A) (A) (A) (A) (A) (A) (A) (A) (A) (A) (A)
                 (A) (A) (A) (A) (A) (A) (A) (A) (A) (A) (A) (A)
                 (A) (A) (A) (A) (A) (A) (A) (A) (A) (A) (A) (A)
                 (A) (A) (A) (A) (A) (A) (A) (A) (A) (A) (A) (A)
                 (A) (A) (A) (A) (A) (A) (A) (A) (A) (A) (A) (A)
                 (A) (A) (A) (A) (A) (A) (A) (A) (A) (A) (A) (A)
                 (A) (A) (A) (A) (A) (A) (A) (A) (A) (A) (A) (A)
                 (A) (A) (A) (A) (A) (A) (A) (A) (A) (A) (A) (A)
                 (A) (A) (A) (A) (A) (A) (A) (A) (A) (A) (A) (A)
                 (A) (A) (A) (A) (A) (A) (A) (A) (A) (A) (A) (A)
                 (A) (A) (A) (A) (A) (A) (A) (A) (A) (A) (A) (A)
                 (A) (A) (A) (A) (A) (A) (A) (A) (A) (A) (A) (A)
                 (A) (A) (A) (A) (A) (A) (A) (A) (A) (A) (A) (A)
                 (A) (A) (A) (A) (A) (A) (A) (A) (A) (A) (A) (A)
                 (A) (A) (A) (A) (A) (A) (A) (A) (A) (A) (A) (A)
                 (A) (A) (A) (A) (A) (A) (A) (A) (A) (A) (A) (A)
                 (A) (A) (A) (A) (A) (A) (A) (A) (A) (A) (A) (A)
                 (A) (A) (A) (A) (A) (A) (A) (A) (A) (A) (A) (A)
                 (A) (A) (A) (A) (A) (A) (A) (A) (A) (A) (A) (A)
                 (A) (A) (A) (A) (A) (A) (A) (A) (A) (A) (A) (A)
                 (A) (A) (A) (A) (A) (A) (A) (A) (A) (A) (A) (A)
                 (A) (A) (A) (A) (A) (A) (A) (A) (A) (A) (A) (A)
                 (A) (A) (A) (A) (A) (A) (A) (A) (A) (A) (A) (A)
                 (A) (A) (A) (A) (A) (A) (A) (A) (A) (A) (A) (A)
                 (A) (A) (A) (A) (A) (A) (A) (A) (A) (A) (A) (A)
                 (A) (A) (A) (A) (A) (A) (A) (A) (A) (A) (A) (A)
                 (A) (A) (A) (A) (A) (A) (A) (A) (A) (A) (A) (A)
                 (A) (A) (A) (A) (A) (A) (A) (A) (A) (A) (A) (A)
                 (A) (A) (A) (A) (A) (A) (A) (A) (A) (A) (A) (A)
                 (A) (A) (A) (A) (A) (A) (A) (A) (A) (A) (A) (A)
                 (A) (A) (A) (A) (A) (A) (A) (A) (A) (A) (A) (A)
                 (A) (A) (A) (A) (A) (A) (A) (A) (A) (A) (A) (A)
                 (A) (A) (A) (A) (A) (A) (A) (A) (A) (A) (A) (A)
                 (A) (A) (A) (A) (A) (A) (A) (A) (A) (A) (A) (A)
                 (A) (A) (A) (A) (A) (A) (A) (A) (A) (A) (A) (A)
                 (A) (A) (A) (A) (A) (A) (A) (A) (A) (A) (A) (A)
                 (A) (A) (A) (A) (A) (A) (A) (A) (A) (A) (A) (A)
                 (A) (A) (A) (A) (A) (A) (A) (A) (A) (A) (A) (A)
                 (A) (A) (A) (A) (A) (A) (A) (A) (A) (A) (A) (A)
                 (A) (A) (A) (A) (A) (A) (A) (A) (A) (A) (A) (A)
                 (A) (A) (A) (A) (A) (A) (A) (A) (A) (A) (A) (A)
                 (A) (A) (A) (A) (A) (A) (A) (A) (A) (A) (A) (A)
                 (A) (A) (A) (A) (A) (A) (A) (A) (A) (A) (A) (A)
                 (A) (A) (A) (A) (A) (A) (A) (A) (A) (A) (A) (A)
                 (A) (A) (A) (A) (A) (A) (A) (A) (A) (A) (A) (A)
                 (A) (A) (A) (A) (A) (A) (A) (A) (A) (A) (A) (A)
                 (A) (A) (A) (A) (A) (A) (A) (A) (A) (A) (A) (A)
                 (A) (A) (A) (A) (A) (A) (A) (A) (A) (A) (A) (A)
                 (A) (A) (A) (A) (A) (A) (A) (A) (A) (A) (A) (A)
                 (A) (A) (A) (A) (A) (A) (A) (A) (A) (A) (A) (A)
                 (A) (A) (A) (A) (A) (A) (A) (A) (A) (A) (A) (A)
                 (A) (A) (A) (A) (A) (A) (A) (A) (A) (A) (A) (A)
                 (A) (A) (A) (A) (A) (A) (A) (A) (A) (A) (A) (A)
                 (A) (A) (A) (A) (A) (A) (A) (A) (A) (A) (A) (A)
                 (A) (A) (A) (A) (A) (A) (A) (A) (A) (A) (A) (A)
                 (A) (A) (A) (A) (A) (A) (A) (A) (A) (A) (A) (A)
                 (A) (A) (A) (A) (A) (A) (A) (A) (A) (A) (A) (A)
                 (A) (A) (A) (A) (A) (A) (A) (A) (A) (A) (A) (A)
                 (A) (A) (A) (A) (A) (A) (A) (A) (A) (A) (A) (A)
                 (A) (A) (A) (A) (A) (A) (A) (A) (A) (A) (A) (A)
                 (A) (A) (A) (A) (A) (A) (A) (A) (A) (A) (A) (A)
                 (A) (A) (A) (A) (A) (A) (A) (A) (A) (A) (A) (A)
                 (A) (A) (A) (A) (A) (A) (A) (A) (A) (A) (A) (A)
                 (A) (A) (A) (A) (A) (A) (A) (A) (A) (A) (A) (A)
                 (A) (A) (A) (A) (A) (A) (A) (A) (A) (A) (A) (A)
                 (A) (A) (A) (A) (A) (A) (A) (A) (A) (A) (A) (A)
                 (A) (A) (A) (A) (A) (A) (A) (A) (A) (A) (A) (A)
                 (A) (A) (A) (A) (A) (A) (A) (A) (A) (A) (A) (A)
                 (A) (A) (A) (A) (A) (A) (A) (A) (A) (A) (A) (A)
                 (A) (A) (A) (A) (A) (A) (A) (A) (A) (A) (A) (A)
                 (A) (A) (A) (A) (A) (A) (A) (A) (A) (A) (A) (A)
                 (A) (A) (A) (A) (A) (A) (A) (A) (A) (A) (A) (A)
                 (A) (A) (A) (A) (A) (A) (A) (A) (A) (A) (A) (A)
                 (A) (A) (A) (A) (A) (A) (A) (A) (A) (A) (A) (A)
                 (A) (A) (A) (A) (A) (A) (A) (A) (A) (A) (A) (A)
                 (A) (A) (A) (A) (A) (A) (A) (A) (A) (A) (A) (A)
                 (A) (A) (A) (A) (A) (A) (A) (A) (A) (A) (A) (A)
                 (A) (A) (A) (A) (A) (A) (A) (A) (A) (A) (A) (A)
                 (A) (A) (A) (A) (A) (A) (A) (A) (A) (A) (A) (A)
                 (A) (A) (A) (A) (A) (A) (A) (A) (A) (A)
 The electronic state is 1-A.
 Alpha  occ. eigenvalues --  -19.19646 -19.17352 -19.12370 -19.11234 -19.11065
 Alpha  occ. eigenvalues --  -14.37123 -14.36631 -14.32050 -14.30400 -10.31647
 Alpha  occ. eigenvalues --  -10.30905 -10.27602 -10.25128 -10.24815 -10.24724
 Alpha  occ. eigenvalues --  -10.24570 -10.24479 -10.23744 -10.23377 -10.23343
 Alpha  occ. eigenvalues --  -10.22944 -10.22815 -10.22751 -10.21919 -10.21748
 Alpha  occ. eigenvalues --  -10.21690 -10.21632 -10.21382 -10.21373 -10.21282
 Alpha  occ. eigenvalues --  -10.21149 -10.21069 -10.20667 -10.20664 -10.20639
 Alpha  occ. eigenvalues --  -10.20489 -10.20414 -10.20275 -10.20124 -10.20113
 Alpha  occ. eigenvalues --  -10.20075 -10.20014 -10.19798 -10.19780 -10.19733
 Alpha  occ. eigenvalues --  -10.19713 -10.19696 -10.19415 -10.19381 -10.19355
 Alpha  occ. eigenvalues --  -10.19342 -10.19335 -10.19266 -10.19241 -10.19097
 Alpha  occ. eigenvalues --  -10.19061 -10.19028 -10.18884 -10.18738 -10.18695
 Alpha  occ. eigenvalues --  -10.18669 -10.18257 -10.18036 -10.16288  -1.11512
 Alpha  occ. eigenvalues --   -1.10113  -1.03168  -0.99799  -0.97326  -0.97190
 Alpha  occ. eigenvalues --   -0.96909  -0.94571  -0.91355  -0.86177  -0.83310
 Alpha  occ. eigenvalues --   -0.82204  -0.81615  -0.80837  -0.80443  -0.80230
 Alpha  occ. eigenvalues --   -0.80146  -0.79618  -0.79296  -0.78151  -0.77840
 Alpha  occ. eigenvalues --   -0.77517  -0.76454  -0.75589  -0.75316  -0.74455
 Alpha  occ. eigenvalues --   -0.73761  -0.73157  -0.72477  -0.71120  -0.70103
 Alpha  occ. eigenvalues --   -0.69784  -0.69083  -0.68439  -0.68175  -0.67425
 Alpha  occ. eigenvalues --   -0.67257  -0.66971  -0.66221  -0.66179  -0.65047
 Alpha  occ. eigenvalues --   -0.63766  -0.63016  -0.61994  -0.61455  -0.61348
 Alpha  occ. eigenvalues --   -0.60407  -0.59270  -0.58538  -0.57889  -0.57083
 Alpha  occ. eigenvalues --   -0.56674  -0.56207  -0.55986  -0.55770  -0.55728
 Alpha  occ. eigenvalues --   -0.55364  -0.55341  -0.54689  -0.54235  -0.52933
 Alpha  occ. eigenvalues --   -0.52563  -0.51527  -0.51219  -0.51010  -0.50690
 Alpha  occ. eigenvalues --   -0.50067  -0.49785  -0.49372  -0.48852  -0.48403
 Alpha  occ. eigenvalues --   -0.47891  -0.47664  -0.47261  -0.46937  -0.46880
 Alpha  occ. eigenvalues --   -0.46461  -0.46166  -0.45980  -0.45663  -0.45535
 Alpha  occ. eigenvalues --   -0.45370  -0.45072  -0.44986  -0.44596  -0.44497
 Alpha  occ. eigenvalues --   -0.44313  -0.44111  -0.43962  -0.43880  -0.43767
 Alpha  occ. eigenvalues --   -0.43536  -0.43099  -0.42881  -0.42392  -0.42325
 Alpha  occ. eigenvalues --   -0.42032  -0.41787  -0.41663  -0.41411  -0.41156
 Alpha  occ. eigenvalues --   -0.40997  -0.40666  -0.40342  -0.40121  -0.39707
 Alpha  occ. eigenvalues --   -0.39558  -0.39305  -0.39163  -0.39058  -0.38957
 Alpha  occ. eigenvalues --   -0.38819  -0.38614  -0.38454  -0.38178  -0.38060
 Alpha  occ. eigenvalues --   -0.37958  -0.37561  -0.37290  -0.37188  -0.37122
 Alpha  occ. eigenvalues --   -0.36875  -0.36758  -0.36705  -0.36417  -0.36245
 Alpha  occ. eigenvalues --   -0.36160  -0.36135  -0.35941  -0.35853  -0.35760
 Alpha  occ. eigenvalues --   -0.35454  -0.35343  -0.35043  -0.34640  -0.34507
 Alpha  occ. eigenvalues --   -0.34270  -0.34138  -0.34043  -0.33733  -0.33491
 Alpha  occ. eigenvalues --   -0.33404  -0.33011  -0.32968  -0.32730  -0.32572
 Alpha  occ. eigenvalues --   -0.32116  -0.32097  -0.31579  -0.31462  -0.31012
 Alpha  occ. eigenvalues --   -0.30763  -0.30623  -0.30023  -0.29992  -0.29667
 Alpha  occ. eigenvalues --   -0.29329  -0.28773  -0.28394  -0.28125  -0.27260
 Alpha  occ. eigenvalues --   -0.26720  -0.26511  -0.26467  -0.26171  -0.25991
 Alpha  occ. eigenvalues --   -0.25771  -0.25228  -0.23799  -0.22852  -0.19585
 Alpha  occ. eigenvalues --   -0.19234
 Alpha virt. eigenvalues --   -0.11112  -0.08489  -0.05142  -0.02249  -0.01045
 Alpha virt. eigenvalues --   -0.00906   0.00026   0.01039   0.01557   0.02066
 Alpha virt. eigenvalues --    0.03364   0.03817   0.03858   0.04079   0.04349
 Alpha virt. eigenvalues --    0.04710   0.04885   0.04991   0.05234   0.05781
 Alpha virt. eigenvalues --    0.05942   0.06171   0.06195   0.06658   0.06867
 Alpha virt. eigenvalues --    0.06990   0.07298   0.07376   0.07714   0.07822
 Alpha virt. eigenvalues --    0.07982   0.08177   0.08342   0.08457   0.08493
 Alpha virt. eigenvalues --    0.08918   0.08942   0.09096   0.09306   0.09501
 Alpha virt. eigenvalues --    0.09545   0.09860   0.10035   0.10121   0.10237
 Alpha virt. eigenvalues --    0.10390   0.10412   0.10577   0.10988   0.11380
 Alpha virt. eigenvalues --    0.11606   0.11730   0.11816   0.11903   0.11983
 Alpha virt. eigenvalues --    0.12077   0.12164   0.12466   0.12674   0.12728
 Alpha virt. eigenvalues --    0.12937   0.13182   0.13240   0.13422   0.13602
 Alpha virt. eigenvalues --    0.13820   0.13900   0.14292   0.14398   0.14450
 Alpha virt. eigenvalues --    0.14673   0.14869   0.15190   0.15223   0.15514
 Alpha virt. eigenvalues --    0.15713   0.16051   0.16243   0.16705   0.16784
 Alpha virt. eigenvalues --    0.17085   0.17193   0.17457   0.17504   0.17936
 Alpha virt. eigenvalues --    0.17981   0.18135   0.18311   0.18428   0.18574
 Alpha virt. eigenvalues --    0.18963   0.19062   0.19128   0.19252   0.19417
 Alpha virt. eigenvalues --    0.19681   0.20115   0.20182   0.20347   0.20639
 Alpha virt. eigenvalues --    0.20981   0.21012   0.21091   0.21984   0.22024
 Alpha virt. eigenvalues --    0.22169   0.22353   0.22641   0.22805   0.23027
 Alpha virt. eigenvalues --    0.23353   0.23403   0.23828   0.24029   0.24412
 Alpha virt. eigenvalues --    0.24634   0.24707   0.25270   0.25457   0.25954
 Alpha virt. eigenvalues --    0.26146   0.26435   0.26621   0.27000   0.27301
 Alpha virt. eigenvalues --    0.27474   0.28208   0.28566   0.28767   0.29047
 Alpha virt. eigenvalues --    0.29386   0.29973   0.30433   0.30941   0.31236
 Alpha virt. eigenvalues --    0.31383   0.31803   0.32176   0.32724   0.33138
 Alpha virt. eigenvalues --    0.33562   0.33913   0.34013   0.34746   0.35413
 Alpha virt. eigenvalues --    0.35457   0.35936   0.36206   0.36661   0.37158
 Alpha virt. eigenvalues --    0.37320   0.37696   0.37733   0.37821   0.38465
 Alpha virt. eigenvalues --    0.38806   0.38842   0.39156   0.39520   0.39638
 Alpha virt. eigenvalues --    0.39760   0.39899   0.40353   0.40507   0.40561
 Alpha virt. eigenvalues --    0.40785   0.40944   0.41318   0.41484   0.41688
 Alpha virt. eigenvalues --    0.42065   0.42111   0.42312   0.42637   0.42885
 Alpha virt. eigenvalues --    0.43104   0.43362   0.43389   0.43599   0.43888
 Alpha virt. eigenvalues --    0.44044   0.44124   0.44347   0.44479   0.44904
 Alpha virt. eigenvalues --    0.45273   0.45419   0.45749   0.46124   0.46361
 Alpha virt. eigenvalues --    0.46653   0.47051   0.47068   0.47421   0.47619
 Alpha virt. eigenvalues --    0.47718   0.48057   0.48558   0.48682   0.48749
 Alpha virt. eigenvalues --    0.49145   0.49558   0.49671   0.49772   0.50017
 Alpha virt. eigenvalues --    0.50172   0.50287   0.50445   0.50571   0.50734
 Alpha virt. eigenvalues --    0.51202   0.51434   0.51675   0.51950   0.52262
 Alpha virt. eigenvalues --    0.52426   0.52536   0.52860   0.53119   0.53239
 Alpha virt. eigenvalues --    0.53510   0.53864   0.54288   0.54766   0.54843
 Alpha virt. eigenvalues --    0.54844   0.55457   0.55558   0.55685   0.55765
 Alpha virt. eigenvalues --    0.56091   0.56171   0.56230   0.56513   0.56957
 Alpha virt. eigenvalues --    0.57215   0.57380   0.57437   0.57692   0.58083
 Alpha virt. eigenvalues --    0.58360   0.58414   0.58512   0.58656   0.58893
 Alpha virt. eigenvalues --    0.59090   0.59159   0.59425   0.59712   0.59771
 Alpha virt. eigenvalues --    0.59909   0.60070   0.60165   0.60271   0.60364
 Alpha virt. eigenvalues --    0.60857   0.61007   0.61190   0.61443   0.61602
 Alpha virt. eigenvalues --    0.61772   0.61855   0.61876   0.61971   0.62168
 Alpha virt. eigenvalues --    0.62449   0.62619   0.62748   0.62873   0.63072
 Alpha virt. eigenvalues --    0.63128   0.63249   0.63271   0.63438   0.63512
 Alpha virt. eigenvalues --    0.63660   0.63719   0.63837   0.63912   0.64137
 Alpha virt. eigenvalues --    0.64291   0.64392   0.64487   0.64768   0.64869
 Alpha virt. eigenvalues --    0.64909   0.65054   0.65351   0.65413   0.65472
 Alpha virt. eigenvalues --    0.65636   0.65905   0.66070   0.66157   0.66191
 Alpha virt. eigenvalues --    0.66374   0.66387   0.66522   0.66539   0.66771
 Alpha virt. eigenvalues --    0.66821   0.66905   0.67191   0.67383   0.67397
 Alpha virt. eigenvalues --    0.67551   0.67685   0.67859   0.67944   0.68205
 Alpha virt. eigenvalues --    0.68470   0.68532   0.68642   0.68796   0.68883
 Alpha virt. eigenvalues --    0.69042   0.69142   0.69449   0.69490   0.69672
 Alpha virt. eigenvalues --    0.69880   0.70011   0.70135   0.70375   0.70556
 Alpha virt. eigenvalues --    0.70689   0.70873   0.71072   0.71187   0.71251
 Alpha virt. eigenvalues --    0.71496   0.71749   0.71834   0.72072   0.72117
 Alpha virt. eigenvalues --    0.72341   0.72537   0.72628   0.72965   0.73144
 Alpha virt. eigenvalues --    0.73290   0.73374   0.73675   0.73832   0.74151
 Alpha virt. eigenvalues --    0.74286   0.74314   0.74512   0.74688   0.74804
 Alpha virt. eigenvalues --    0.75241   0.75412   0.75523   0.75574   0.76010
 Alpha virt. eigenvalues --    0.76132   0.76321   0.76446   0.76621   0.76781
 Alpha virt. eigenvalues --    0.76904   0.77448   0.77560   0.77989   0.78341
 Alpha virt. eigenvalues --    0.78386   0.78634   0.78935   0.79445   0.79577
 Alpha virt. eigenvalues --    0.79940   0.79983   0.80827   0.81292   0.81442
 Alpha virt. eigenvalues --    0.81994   0.82272   0.82500   0.83027   0.83180
 Alpha virt. eigenvalues --    0.83552   0.83636   0.84232   0.85335   0.86151
 Alpha virt. eigenvalues --    0.86560   0.87206   0.87238   0.88011   0.88487
 Alpha virt. eigenvalues --    0.88773   0.89176   0.89624   0.89671   0.90410
 Alpha virt. eigenvalues --    0.90642   0.91140   0.91633   0.92224   0.92573
 Alpha virt. eigenvalues --    0.93019   0.93092   0.93486   0.94258   0.95055
 Alpha virt. eigenvalues --    0.95179   0.95734   0.96386   0.96414   0.96902
 Alpha virt. eigenvalues --    0.97162   0.97729   0.98087   0.98218   0.98556
 Alpha virt. eigenvalues --    0.99067   0.99348   1.00047   1.00461   1.01052
 Alpha virt. eigenvalues --    1.01672   1.02265   1.02844   1.03007   1.03287
 Alpha virt. eigenvalues --    1.03617   1.04021   1.04701   1.04769   1.05271
 Alpha virt. eigenvalues --    1.05611   1.05653   1.06256   1.06424   1.07234
 Alpha virt. eigenvalues --    1.08144   1.08458   1.08648   1.09442   1.09928
 Alpha virt. eigenvalues --    1.10142   1.10841   1.10994   1.11292   1.12037
 Alpha virt. eigenvalues --    1.12091   1.12264   1.12435   1.12979   1.13942
 Alpha virt. eigenvalues --    1.14366   1.14854   1.16001   1.16039   1.16147
 Alpha virt. eigenvalues --    1.16386   1.16989   1.17377   1.17536   1.17842
 Alpha virt. eigenvalues --    1.18381   1.19077   1.19205   1.19619   1.19762
 Alpha virt. eigenvalues --    1.20280   1.20494   1.20764   1.21024   1.21604
 Alpha virt. eigenvalues --    1.22547   1.23246   1.23448   1.24287   1.24805
 Alpha virt. eigenvalues --    1.25319   1.25687   1.26182   1.26347   1.26918
 Alpha virt. eigenvalues --    1.27111   1.27772   1.28194   1.28295   1.29095
 Alpha virt. eigenvalues --    1.29370   1.29616   1.29956   1.30218   1.30459
 Alpha virt. eigenvalues --    1.30699   1.31079   1.31516   1.31593   1.31759
 Alpha virt. eigenvalues --    1.32375   1.32717   1.33355   1.33435   1.33862
 Alpha virt. eigenvalues --    1.34501   1.35042   1.36037   1.36117   1.36534
 Alpha virt. eigenvalues --    1.36862   1.37408   1.37622   1.37625   1.38028
 Alpha virt. eigenvalues --    1.38396   1.39198   1.39459   1.40127   1.40169
 Alpha virt. eigenvalues --    1.40597   1.41255   1.41722   1.42669   1.43013
 Alpha virt. eigenvalues --    1.43241   1.43430   1.45186   1.45362   1.45634
 Alpha virt. eigenvalues --    1.45853   1.46002   1.46309   1.46890   1.47146
 Alpha virt. eigenvalues --    1.47628   1.47795   1.48000   1.48434   1.49234
 Alpha virt. eigenvalues --    1.49666   1.49908   1.50344   1.51170   1.51512
 Alpha virt. eigenvalues --    1.51685   1.51821   1.52026   1.52233   1.52299
 Alpha virt. eigenvalues --    1.52384   1.52420   1.53416   1.53566   1.53666
 Alpha virt. eigenvalues --    1.53962   1.54602   1.55009   1.55414   1.55879
 Alpha virt. eigenvalues --    1.56079   1.56182   1.56744   1.57155   1.57503
 Alpha virt. eigenvalues --    1.58302   1.58564   1.58911   1.59019   1.59356
 Alpha virt. eigenvalues --    1.59876   1.60189   1.60392   1.60682   1.60922
 Alpha virt. eigenvalues --    1.61533   1.61857   1.62247   1.62356   1.62518
 Alpha virt. eigenvalues --    1.62685   1.62929   1.63568   1.64292   1.64679
 Alpha virt. eigenvalues --    1.65357   1.65412   1.65558   1.65758   1.65788
 Alpha virt. eigenvalues --    1.66102   1.66433   1.66957   1.67014   1.67410
 Alpha virt. eigenvalues --    1.67602   1.67651   1.68063   1.68328   1.68364
 Alpha virt. eigenvalues --    1.68430   1.68984   1.69255   1.69607   1.70065
 Alpha virt. eigenvalues --    1.70416   1.70567   1.70763   1.71132   1.71624
 Alpha virt. eigenvalues --    1.71697   1.72022   1.72250   1.72394   1.72868
 Alpha virt. eigenvalues --    1.72901   1.72994   1.73470   1.73584   1.73859
 Alpha virt. eigenvalues --    1.73971   1.74264   1.74621   1.74715   1.74912
 Alpha virt. eigenvalues --    1.75141   1.75203   1.75577   1.75697   1.75748
 Alpha virt. eigenvalues --    1.75888   1.76102   1.76343   1.76487   1.76599
 Alpha virt. eigenvalues --    1.76914   1.76999   1.77148   1.77281   1.77501
 Alpha virt. eigenvalues --    1.78187   1.78239   1.78313   1.78614   1.78760
 Alpha virt. eigenvalues --    1.78967   1.79142   1.79270   1.79843   1.80112
 Alpha virt. eigenvalues --    1.80440   1.80494   1.80635   1.80874   1.81051
 Alpha virt. eigenvalues --    1.81287   1.81550   1.81697   1.82056   1.82182
 Alpha virt. eigenvalues --    1.82372   1.82541   1.82734   1.82834   1.83015
 Alpha virt. eigenvalues --    1.83133   1.83241   1.83348   1.83593   1.83833
 Alpha virt. eigenvalues --    1.84022   1.84277   1.84473   1.84993   1.85150
 Alpha virt. eigenvalues --    1.85351   1.85527   1.85673   1.85876   1.85942
 Alpha virt. eigenvalues --    1.86078   1.86247   1.86348   1.86769   1.87062
 Alpha virt. eigenvalues --    1.87691   1.87883   1.88137   1.88349   1.88722
 Alpha virt. eigenvalues --    1.88853   1.89018   1.89156   1.89613   1.89673
 Alpha virt. eigenvalues --    1.90123   1.90440   1.90746   1.90999   1.91206
 Alpha virt. eigenvalues --    1.91355   1.91752   1.91856   1.92062   1.92251
 Alpha virt. eigenvalues --    1.92443   1.92797   1.93043   1.93171   1.93557
 Alpha virt. eigenvalues --    1.93574   1.93852   1.94017   1.94411   1.94567
 Alpha virt. eigenvalues --    1.94992   1.95036   1.95293   1.95658   1.96068
 Alpha virt. eigenvalues --    1.96178   1.96690   1.96744   1.97186   1.97249
 Alpha virt. eigenvalues --    1.97961   1.98125   1.98798   1.99060   1.99446
 Alpha virt. eigenvalues --    1.99496   1.99804   2.00286   2.00431   2.00825
 Alpha virt. eigenvalues --    2.00984   2.01400   2.01614   2.01810   2.02184
 Alpha virt. eigenvalues --    2.02477   2.02575   2.02853   2.03097   2.03860
 Alpha virt. eigenvalues --    2.04031   2.04212   2.04482   2.04569   2.05188
 Alpha virt. eigenvalues --    2.05360   2.05609   2.06501   2.06656   2.06855
 Alpha virt. eigenvalues --    2.07077   2.07553   2.08060   2.08446   2.08566
 Alpha virt. eigenvalues --    2.08796   2.08970   2.09938   2.10594   2.11015
 Alpha virt. eigenvalues --    2.11085   2.11200   2.11856   2.12129   2.12761
 Alpha virt. eigenvalues --    2.13065   2.13307   2.13580   2.14135   2.14253
 Alpha virt. eigenvalues --    2.15034   2.15189   2.15363   2.15626   2.15906
 Alpha virt. eigenvalues --    2.16547   2.17077   2.17516   2.18504   2.18929
 Alpha virt. eigenvalues --    2.19005   2.19413   2.20035   2.20558   2.20975
 Alpha virt. eigenvalues --    2.21671   2.21924   2.21939   2.22303   2.22441
 Alpha virt. eigenvalues --    2.22568   2.23048   2.24016   2.24442   2.24626
 Alpha virt. eigenvalues --    2.25311   2.25329   2.25596   2.25708   2.26445
 Alpha virt. eigenvalues --    2.26646   2.27556   2.27771   2.27961   2.28103
 Alpha virt. eigenvalues --    2.28685   2.28824   2.29090   2.29376   2.29582
 Alpha virt. eigenvalues --    2.30154   2.30290   2.30570   2.30900   2.31116
 Alpha virt. eigenvalues --    2.31578   2.31931   2.32575   2.33439   2.33850
 Alpha virt. eigenvalues --    2.34004   2.34263   2.34359   2.35508   2.35590
 Alpha virt. eigenvalues --    2.35776   2.35906   2.36265   2.36613   2.36716
 Alpha virt. eigenvalues --    2.37030   2.37444   2.37822   2.38229   2.38395
 Alpha virt. eigenvalues --    2.38700   2.39210   2.39762   2.39882   2.40433
 Alpha virt. eigenvalues --    2.41085   2.41196   2.41498   2.41722   2.42249
 Alpha virt. eigenvalues --    2.42411   2.42893   2.43488   2.43510   2.43641
 Alpha virt. eigenvalues --    2.44480   2.45220   2.45515   2.45738   2.46539
 Alpha virt. eigenvalues --    2.46936   2.47005   2.47406   2.47809   2.48005
 Alpha virt. eigenvalues --    2.48672   2.48843   2.49096   2.49387   2.49708
 Alpha virt. eigenvalues --    2.50146   2.50274   2.50589   2.51160   2.52802
 Alpha virt. eigenvalues --    2.53553   2.53680   2.54136   2.54531   2.55078
 Alpha virt. eigenvalues --    2.55333   2.55820   2.56762   2.56782   2.57160
 Alpha virt. eigenvalues --    2.57672   2.58083   2.58253   2.58485   2.58837
 Alpha virt. eigenvalues --    2.59251   2.60250   2.60511   2.60687   2.60843
 Alpha virt. eigenvalues --    2.61654   2.61802   2.62317   2.63178   2.63469
 Alpha virt. eigenvalues --    2.63509   2.64100   2.64655   2.65078   2.65752
 Alpha virt. eigenvalues --    2.65780   2.66289   2.66356   2.67008   2.67236
 Alpha virt. eigenvalues --    2.68128   2.68972   2.69004   2.69178   2.69700
 Alpha virt. eigenvalues --    2.70330   2.70601   2.70610   2.71236   2.71959
 Alpha virt. eigenvalues --    2.72167   2.72528   2.72897   2.73401   2.74001
 Alpha virt. eigenvalues --    2.74140   2.74622   2.75153   2.75343   2.76065
 Alpha virt. eigenvalues --    2.76273   2.76908   2.77391   2.77708   2.78004
 Alpha virt. eigenvalues --    2.78698   2.79285   2.80459   2.80921   2.81150
 Alpha virt. eigenvalues --    2.81940   2.82402   2.82414   2.82712   2.83066
 Alpha virt. eigenvalues --    2.83529   2.83752   2.84083   2.84444   2.85755
 Alpha virt. eigenvalues --    2.86163   2.86440   2.86701   2.87364   2.88030
 Alpha virt. eigenvalues --    2.88094   2.88497   2.89172   2.89537   2.89674
 Alpha virt. eigenvalues --    2.90106   2.90444   2.90963   2.91060   2.91249
 Alpha virt. eigenvalues --    2.91623   2.91966   2.92867   2.93262   2.94059
 Alpha virt. eigenvalues --    2.94257   2.94587   2.94891   2.95913   2.96450
 Alpha virt. eigenvalues --    2.96721   2.96864   2.97395   2.97878   2.98049
 Alpha virt. eigenvalues --    2.99443   2.99705   3.00234   3.01055   3.01215
 Alpha virt. eigenvalues --    3.01646   3.01964   3.02368   3.02563   3.02669
 Alpha virt. eigenvalues --    3.03806   3.04545   3.05249   3.05930   3.06329
 Alpha virt. eigenvalues --    3.08074   3.08972   3.09248   3.10534   3.10747
 Alpha virt. eigenvalues --    3.12607   3.12654   3.12757   3.13357   3.13502
 Alpha virt. eigenvalues --    3.13781   3.16186   3.17106   3.18844   3.19065
 Alpha virt. eigenvalues --    3.20585   3.20905   3.22252   3.22655   3.23372
 Alpha virt. eigenvalues --    3.26282   3.26591   3.26661   3.28671   3.30900
 Alpha virt. eigenvalues --    3.32500   3.39816   3.41263   3.41813   3.44254
 Alpha virt. eigenvalues --    3.46804   3.48211   3.53494   3.55214   3.57045
 Alpha virt. eigenvalues --    3.62041   3.63366   3.66919   3.68017   3.68661
          Condensed to atoms (all electrons):
 Mulliken charges:
               1
     1  C    0.137858
     2  C   -0.120488
     3  C   -0.019322
     4  C   -0.100134
     5  N   -0.119196
     6  C   -0.069560
     7  C   -0.157934
     8  C    0.044919
     9  C   -0.030396
    10  C   -0.016349
    11  C    0.055531
    12  C   -0.035705
    13  C    0.176688
    14  O   -0.251345
    15  O   -0.292551
    16  N   -0.122024
    17  C    0.160064
    18  C   -0.094662
    19  C    0.065435
    20  C    0.067723
    21  C   -0.069923
    22  C   -0.095109
    23  C   -0.066004
    24  N   -0.311870
    25  C    0.047664
    26  C   -0.117677
    27  C   -0.071525
    28  C    0.048051
    29  C    0.110132
    30  C    0.051403
    31  C    0.011177
    32  N   -0.040969
    33  C    0.118177
    34  C   -0.118393
    35  C    0.115091
    36  C    0.009878
    37  C   -0.028287
    38  C   -0.001909
    39  O   -0.171929
    40  C   -0.037422
    41  C    0.182493
    42  O   -0.308001
    43  O   -0.234270
    44  C    0.212094
    45  C    0.194018
    46  C   -0.063543
    47  C   -0.096178
    48  C    0.045386
    49  C    0.178682
    50  C    0.067617
    51  C   -0.051782
    52  C   -0.113583
    53  C   -0.013600
    54  C    0.044812
    55  C   -0.079210
    56  C    0.074354
    57  C   -0.042099
    58  C    0.020082
    59  C    0.159002
    60  C    0.009854
    61  C   -0.077656
    62  C   -0.058538
    63  C    0.016295
    64  C   -0.006455
    65  H    0.017300
    66  H   -0.043918
    67  H    0.016683
    68  H    0.045617
    69  H   -0.030947
    70  H    0.028909
    71  H    0.008446
    72  H    0.068648
    73  H    0.044866
    74  H    0.000156
    75  H    0.024901
    76  H    0.013184
    77  H    0.070801
    78  H    0.067208
    79  H    0.055458
    80  H    0.026077
    81  H    0.044600
    82  H    0.023270
    83  H    0.025088
    84  H    0.032058
    85  H   -0.014532
    86  H    0.007588
    87  H    0.001532
    88  H   -0.004164
    89  H    0.014313
    90  H    0.014909
    91  H    0.037286
    92  H    0.063472
    93  H    0.060093
    94  H    0.073268
    95  H   -0.016551
    96  H    0.043045
    97  H    0.045705
    98  H    0.021763
    99  H    0.022560
   100  H    0.006382
   101  H    0.016039
   102  H    0.048909
   103  H   -0.006785
   104  H   -0.011168
   105  H   -0.051724
   106  H    0.014522
   107  H   -0.015676
   108  H    0.000603
   109  H    0.000215
   110  H   -0.004553
   111  H    0.027349
   112  H    0.007917
   113  H    0.013955
   114  H   -0.009430
   115  H    0.011239
   116  H    0.016218
   117  H    0.022999
   118  H   -0.041580
   119  H    0.016609
   120  H   -0.016043
   121  H    0.009104
   122  H    0.001677
   123  H    0.013538
   124  H   -0.053508
   125  H   -0.040910
   126  H    0.000616
   127  H    0.001398
   128  H    0.012207
   129  H    0.000119
   130  H    0.002136
   131  H   -0.017576
   132  H    0.018867
   133  H    0.034836
   134  H    0.004845
   135  H    0.026926
   136  H   -0.000579
   137  H    0.182146
   138  H    0.130587
 Sum of Mulliken charges =  -0.00000
 Mulliken charges with hydrogens summed into heavy atoms:
               1
     1  C    0.137858
     2  C   -0.103188
     3  C   -0.063240
     4  C   -0.083451
     5  N   -0.119196
     6  C   -0.069560
     7  C   -0.112317
     8  C    0.013973
     9  C   -0.030396
    10  C    0.089654
    11  C    0.100553
    12  C    0.002380
    13  C    0.176688
    14  O   -0.251345
    15  O   -0.292551
    16  N    0.060122
    17  C    0.160064
    18  C   -0.094662
    19  C    0.065435
    20  C    0.067723
    21  C    0.123544
    22  C   -0.069032
    23  C    0.001866
    24  N   -0.311870
    25  C    0.047664
    26  C   -0.117677
    27  C   -0.071525
    28  C    0.048051
    29  C    0.152745
    30  C    0.060523
    31  C    0.036236
    32  N    0.089618
    33  C    0.118177
    34  C   -0.118393
    35  C    0.115091
    36  C    0.009878
    37  C    0.132565
    38  C   -0.001909
    39  O   -0.171929
    40  C    0.035846
    41  C    0.182493
    42  O   -0.308001
    43  O   -0.234270
    44  C    0.284292
    45  C    0.238341
    46  C   -0.057161
    47  C   -0.096178
    48  C    0.103548
    49  C    0.115789
    50  C    0.066463
    51  C   -0.050964
    52  C   -0.118135
    53  C    0.035620
    54  C    0.046622
    55  C   -0.039993
    56  C    0.049383
    57  C   -0.058142
    58  C    0.044401
    59  C    0.064584
    60  C    0.011868
    61  C   -0.065330
    62  C   -0.056402
    63  C    0.052423
    64  C    0.024737
 Electronic spatial extent (au):  <R**2>=         179151.4979
 Charge=             -0.0000 electrons
 Dipole moment (field-independent basis, Debye):
    X=              2.5752    Y=              3.0577    Z=             -0.6635  Tot=              4.0524
 Quadrupole moment (field-independent basis, Debye-Ang):
   XX=           -351.1388   YY=           -379.6252   ZZ=           -401.2576
   XY=            -20.1937   XZ=             24.3064   YZ=             -3.6257
 Traceless Quadrupole moment (field-independent basis, Debye-Ang):
   XX=             26.2017   YY=             -2.2847   ZZ=            -23.9170
   XY=            -20.1937   XZ=             24.3064   YZ=             -3.6257
 Octapole moment (field-independent basis, Debye-Ang**2):
  XXX=           -717.9181  YYY=             65.0542  ZZZ=             -7.2066  XYY=           -112.8363
  XXY=             67.3995  XXZ=           -156.4495  XZZ=             18.8091  YZZ=            -34.4912
  YYZ=             48.4627  XYZ=             -8.3591
 Hexadecapole moment (field-independent basis, Debye-Ang**3):
 XXXX=        -225139.6625 YYYY=         -17608.4706 ZZZZ=          -4055.2462 XXXY=          -2220.4651
 XXXZ=           5186.4942 YYYX=          -1047.5485 YYYZ=           -298.6027 ZZZX=            173.9810
 ZZZY=           -111.4851 XXYY=         -40866.3569 XXZZ=         -39800.3465 YYZZ=          -3613.2140
 XXYZ=            445.3066 YYXZ=            108.3861 ZZXY=            125.6188
 N-N= 8.277798005584D+03 E-N=-2.288901957960D+04  KE= 2.699877048332D+03
 1\1\GINC-RYZEN-SSD1\SP\RB3LYP TD-FC\SVP\C55H74N4O5\PADAWAN\23-Aug-2019
 \0\\# td=(NStates=1) B3LYP/SVP\\TD\\0,1\C,0,-5.0815110016,-1.895089314
 9,0.400878713\C,0,-4.817287887,2.8738076098,1.2810447806\C,0,-9.362585
 5022,3.2551917155,-0.1884934655\C,0,-9.9318950406,-1.5909206867,-0.888
 3649819\N,0,-5.1867754255,0.4436308242,0.7632837864\C,0,-4.5524033379,
 -0.6741363972,0.7321392995\C,0,-3.0648982435,-0.5731978033,1.200863335
 7\C,0,-3.0419083432,0.9784729649,1.7783223376\C,0,-4.4552204801,1.4832
 653719,1.2707889903\C,0,-2.8597024681,0.9038886899,3.2750073587\C,0,-2
 .0749628391,-0.7962246366,0.0179984075\C,0,-0.5740057887,-0.8001288677
 ,0.5993176969\C,0,0.4825727632,-1.1131482321,-0.4834141986\O,0,0.17113
 68496,-1.4882385138,-1.5924516998\O,0,1.6962747027,-0.7588523037,-0.17
 62326153\N,0,-7.0387670577,2.7411488568,0.5664872427\C,0,-6.0334675278
 ,3.5342501575,0.9541695424\C,0,-6.234354708,4.837301814,1.0246040121\C
 ,0,-7.5883719017,5.0201833413,0.4503402641\C,0,-8.0915246029,3.6711457
 135,0.160207357\C,0,-5.3328324396,5.9924030227,1.5795339573\C,0,-8.302
 9668849,6.2256822859,0.2667717315\C,0,-9.2855260754,6.6117404646,-0.53
 56521815\N,0,-9.2794113404,0.7065191265,-0.4614231177\C,0,-9.900331810
 6,2.0330866104,-0.5484036511\C,0,-11.3896652045,1.7742310626,-0.927396
 811\C,0,-11.5033157721,0.4411481562,-1.1475848201\C,0,-10.2711338218,-
 0.1689239418,-0.8113046109\C,0,-12.235567754,2.9268952586,-1.096494078
 5\C,0,-12.6374338408,-0.2519042888,-1.7633385689\C,0,-12.5676012297,-0
 .5900436508,-3.1738945739\N,0,-7.5906521909,-1.2284671612,-0.233179663
 1\C,0,-8.6297489604,-2.0484314573,-0.6169586243\C,0,-8.1697405813,-3.4
 967642779,-0.5982635649\C,0,-6.8158736156,-3.4949853828,-0.2626483701\
 C,0,-6.4672552651,-2.1120530044,-0.0688447304\C,0,-8.9801319983,-4.700
 3034303,-1.1142139282\C,0,-5.7278489064,-4.261911418,0.0789605657\O,0,
 -5.6868405402,-5.4732038291,-0.0199850781\C,0,-4.5620118058,-3.2671538
 281,0.3306383134\C,0,-3.8742398388,-3.7101447097,1.5705389392\O,0,-4.1
 0398301,-3.1758985458,2.7227527393\O,0,-3.1387163873,-4.7551958009,1.3
 642421672\C,0,-2.5021937497,-5.4374146468,2.4164481151\C,0,2.836483691
 8,-1.0761763082,-1.026456851\C,0,4.0672208319,-0.6623808615,-0.3570423
 174\C,0,4.960078308,0.2402730749,-0.7310185065\C,0,4.9248429945,1.0785
 416959,-2.0164141804\C,0,6.249868699,0.247527381,0.0632848654\C,0,7.53
 09573229,-0.1673260657,-0.7026176152\C,0,8.7549789749,-0.1100062075,0.
 1901541355\C,0,10.0965815129,-0.6342479074,-0.5213831182\C,0,9.9850222
 956,-2.1289480606,-1.0772018349\C,0,11.332593934,-0.3663563062,0.34562
 20942\C,0,12.6411927039,-0.479846463,-0.4613340106\C,0,13.9429407013,-
 0.1289856017,0.3922255852\C,0,15.3069025114,-0.2665396898,-0.402614097
 2\C,0,15.6078481124,-1.7170158635,-0.7581455501\C,0,16.3007826755,0.49
 45403652,0.325665831\C,0,17.6374005788,0.6323389678,-0.4357880866\C,0,
 18.7084606971,1.4628048995,0.425381231\C,0,20.207080604,1.5012457499,-
 0.1301102506\C,0,20.1754484743,2.1438038116,-1.4718835974\C,0,21.07822
 82884,2.0957933154,0.9542718279\H,0,-3.9295411217,3.5316795523,1.87236
 94752\H,0,-9.9591234973,4.1097504115,-0.5163203059\H,0,-10.7838367236,
 -2.2913151415,-1.2574556395\H,0,-2.6532913806,-1.3634067048,1.95106690
 14\H,0,-2.337314299,1.5431942705,1.3171812165\H,0,-1.7916866846,0.5570
 43126,3.4728040057\H,0,-2.8605993602,2.1405386975,3.7057596772\H,0,-3.
 7248730667,0.3362943317,3.8521240581\H,0,-2.219951449,-1.895843462,-0.
 4323000863\H,0,-2.1251184504,-0.0529478205,-0.7270413648\H,0,-0.254089
 7324,0.170951221,1.1130973402\H,0,-0.5033833512,-1.3948586659,1.522199
 3389\H,0,-4.6482694843,6.5397221098,0.8272558636\H,0,-6.103251544,6.82
 72978485,2.1629218892\H,0,-4.579139691,5.3774475942,2.5355046111\H,0,-
 7.6534054394,7.2322702607,0.7470960159\H,0,-10.0039757904,6.0357615617
 ,-1.2204014361\H,0,-9.6252768069,7.620467332,-0.3693366378\H,0,-12.602
 0947569,3.3851690154,-0.0759199906\H,0,-11.8507239947,3.7368086456,-1.
 6836955871\H,0,-13.225569957,2.5705426725,-1.3861716641\H,0,-12.847709
 5969,-1.2115212784,-1.1392384976\H,0,-13.56087683,0.3809677582,-1.5770
 813854\H,0,-12.251209636,0.2416911842,-3.7137202154\H,0,-11.8746636741
 ,-1.5223816346,-3.4347342701\H,0,-13.4797760508,-0.9382211802,-3.78260
 21189\H,0,-10.1142989767,-4.6101031022,-0.8154973536\H,0,-9.1837002802
 ,-4.884715485,-2.4460351241\H,0,-8.5598076863,-5.6289436743,-0.6447691
 304\H,0,-3.8332090482,-3.5046978211,-0.5092339832\H,0,-2.0128181498,-6
 .1217787816,1.9332390279\H,0,-1.7480313748,-4.9687466137,3.121456596\H
 ,0,-3.3183028857,-5.9614031403,3.064777998\H,0,2.7740892007,-2.0636231
 034,-1.4111082441\H,0,2.395381381,-0.4646178998,-1.9732349428\H,0,3.92
 02434602,-1.3631843889,0.5099300374\H,0,5.0898242469,2.2643541332,-1.7
 846710545\H,0,5.5851954833,0.9043363888,-2.9023833054\H,0,3.9499914843
 ,1.2192147274,-2.3765930162\H,0,6.3576858657,1.275030647,0.4182566253\
 H,0,6.0671645423,-0.3517207574,0.8323429284\H,0,7.3328139345,-1.240798
 1252,-0.9734021863\H,0,7.787558507,0.4330988145,-1.5043492926\H,0,9.01
 29957412,0.9570435559,0.5491461731\H,0,8.7180545354,-0.6495020372,1.26
 14389968\H,0,9.9855654218,-0.035653367,-1.4965703799\H,0,9.1015073383,
 -2.3140100638,-1.7007092964\H,0,10.9535022112,-2.3060622826,-1.7444601
 916\H,0,10.3869471365,-2.8995018277,-0.312314753\H,0,11.0645006402,0.5
 929669205,0.8443178944\H,0,11.3597335428,-1.0966181473,1.2471452362\H,
 0,12.5522217302,-1.6326671457,-0.889712414\H,0,12.4909694135,0.1209448
 216,-1.5397472932\H,0,13.64424546,0.7830286987,0.6240475789\H,0,14.034
 7783133,-0.7100539594,1.4987294491\H,0,15.1614176392,0.2636895688,-1.3
 786345133\H,0,14.843569752,-2.1009483786,-1.3815921797\H,0,16.60895763
 21,-1.8029761371,-1.2904104336\H,0,15.9371264302,-2.5068102996,0.10449
 31506\H,0,15.970574249,1.4138944781,0.5762914727\H,0,16.5335896817,0.0
 882926384,1.2550775046\H,0,18.0592420015,-0.2709955782,-0.8355882435\H
 ,0,17.4680295284,1.2877017333,-1.3781951241\H,0,18.3386755735,2.580976
 8254,0.7413806331\H,0,18.7738003942,0.9764064774,1.4582870843\H,0,20.6
 36971927,0.4868594196,-0.3917662395\H,0,20.0194046377,3.1833104631,-1.
 4401489891\H,0,21.3613346507,2.0061262164,-1.7668020036\H,0,19.2701852
 543,1.7612561622,-2.125027684\H,0,20.8982948426,1.7550250528,2.0595598
 838\H,0,22.2357074124,1.9210102176,0.9173436342\H,0,20.7408617489,3.13
 70633768,1.1443870431\H,0,-7.0452583083,1.7032345955,0.3014233991\H,0,
 -7.5527466413,-0.2529001656,-0.3586891891\\Version=ES64L-G16RevA.03\St
 ate=1-A\HF=-2732.9889051\RMSD=4.303e-09\PG=C01 [X(C55H74N4O5)]\\@


 YOU SHOULDN'T LET PEOPLE DRIVE YOU CRAZY
 WHEN YOU KNOW IT'S WITHIN WALKING DISTANCE.
 Job cpu time:       1 days 16 hours 58 minutes  7.1 seconds.
 Elapsed time:       0 days 10 hours 19 minutes 26.7 seconds.
 File lengths (MBytes):  RWF=   6378 Int=      0 D2E=      0 Chk=    163 Scr=      1
 Normal termination of Gaussian 16 at Fri Aug 23 09:03:26 2019.
