 Entering Gaussian System, Link 0=g16
 Input=dihydrobiliverdin_s0-geom.com
 Output=dihydrobiliverdin_s0-geom.log
 Initial command:
 /usr/local/g09/l1.exe "/home/padawan/israel-mol/dihydrobiliverdin/geometria/s0/Gau-52607.inp" -scrdir="/home/padawan/israel-mol/dihydrobiliverdin/geometria/s0/"
 Entering Link 1 = /usr/local/g09/l1.exe PID=     52609.
  
 Copyright (c) 1988,1990,1992,1993,1995,1998,2003,2009,2013,
            Gaussian, Inc.  All Rights Reserved.
  
 This is part of the Gaussian(R) 09 program.  It is based on
 the Gaussian(R) 03 system (copyright 2003, Gaussian, Inc.),
 the Gaussian(R) 98 system (copyright 1998, Gaussian, Inc.),
 the Gaussian(R) 94 system (copyright 1995, Gaussian, Inc.),
 the Gaussian 92(TM) system (copyright 1992, Gaussian, Inc.),
 the Gaussian 90(TM) system (copyright 1990, Gaussian, Inc.),
 the Gaussian 88(TM) system (copyright 1988, Gaussian, Inc.),
 the Gaussian 86(TM) system (copyright 1986, Carnegie Mellon
 University), and the Gaussian 82(TM) system (copyright 1983,
 Carnegie Mellon University). Gaussian is a federally registered
 trademark of Gaussian, Inc.
  
 This software contains proprietary and confidential information,
 including trade secrets, belonging to Gaussian, Inc.
  
 This software is provided under written license and may be
 used, copied, transmitted, or stored only in accord with that
 written license.
  
 The following legend is applicable only to US Government
 contracts under FAR:
  
                    RESTRICTED RIGHTS LEGEND
  
 Use, reproduction and disclosure by the US Government is
 subject to restrictions as set forth in subparagraphs (a)
 and (c) of the Commercial Computer Software - Restricted
 Rights clause in FAR 52.227-19.
  
 Gaussian, Inc.
 340 Quinnipiac St., Bldg. 40, Wallingford CT 06492
  
  
 ---------------------------------------------------------------
 Warning -- This program may not be used in any manner that
 competes with the business of Gaussian, Inc. or will provide
 assistance to any competitor of Gaussian, Inc.  The licensee
 of this program is prohibited from giving any competitor of
 Gaussian, Inc. access to this program.  By using this program,
 the user acknowledges that Gaussian, Inc. is engaged in the
 business of creating and licensing software in the field of
 computational chemistry and represents and warrants to the
 licensee that it is not a competitor of Gaussian, Inc. and that
 it will not use this program in any manner prohibited above.
 ---------------------------------------------------------------
  

 Cite this work as:
 Gaussian 09, Revision D.01,
 M. J. Frisch, G. W. Trucks, H. B. Schlegel, G. E. Scuseria, 
 M. A. Robb, J. R. Cheeseman, G. Scalmani, V. Barone, B. Mennucci, 
 G. A. Petersson, H. Nakatsuji, M. Caricato, X. Li, H. P. Hratchian, 
 A. F. Izmaylov, J. Bloino, G. Zheng, J. L. Sonnenberg, M. Hada, 
 M. Ehara, K. Toyota, R. Fukuda, J. Hasegawa, M. Ishida, T. Nakajima, 
 Y. Honda, O. Kitao, H. Nakai, T. Vreven, J. A. Montgomery, Jr., 
 J. E. Peralta, F. Ogliaro, M. Bearpark, J. J. Heyd, E. Brothers, 
 K. N. Kudin, V. N. Staroverov, T. Keith, R. Kobayashi, J. Normand, 
 K. Raghavachari, A. Rendell, J. C. Burant, S. S. Iyengar, J. Tomasi, 
 M. Cossi, N. Rega, J. M. Millam, M. Klene, J. E. Knox, J. B. Cross, 
 V. Bakken, C. Adamo, J. Jaramillo, R. Gomperts, R. E. Stratmann, 
 O. Yazyev, A. J. Austin, R. Cammi, C. Pomelli, J. W. Ochterski, 
 R. L. Martin, K. Morokuma, V. G. Zakrzewski, G. A. Voth, 
 P. Salvador, J. J. Dannenberg, S. Dapprich, A. D. Daniels, 
 O. Farkas, J. B. Foresman, J. V. Ortiz, J. Cioslowski, 
 and D. J. Fox, Gaussian, Inc., Wallingford CT, 2013.
 
 ******************************************
 Gaussian 09:  ES64L-G09RevD.01 24-Apr-2013
                28-Mar-2019 
 ******************************************
 %NProcShared=4
 Will use up to    4 processors via shared memory.
 %Chk=dihydrobiliverdin_s0-geom.chk
 ----------------
 #n B3LYP/SVP Opt
 ----------------
 1/14=-1,18=20,19=15,26=3,38=1/1,3;
 2/9=110,12=2,17=6,18=5,40=1/2;
 3/5=18,7=101,11=2,16=1,25=1,30=1,71=1,74=-5/1,2,3;
 4//1;
 5/5=2,38=5/2;
 6/7=2,8=2,9=2,10=2,28=1/1;
 7//1,2,3,16;
 1/14=-1,18=20,19=15,26=3/3(2);
 2/9=110/2;
 99//99;
 2/9=110/2;
 3/5=18,7=101,11=2,16=1,25=1,30=1,71=1,74=-5/1,2,3;
 4/5=5,16=3,69=1/1;
 5/5=2,38=5/2;
 7//1,2,3,16;
 1/14=-1,18=20,19=15,26=3/3(-5);
 2/9=110/2;
 6/7=2,8=2,9=2,10=2,19=2,28=1/1;
 99/9=1/99;
 -------------------------
 dihydrobiliverdin-s0-geom
 -------------------------
 Symbolic Z-matrix:
 Charge =  0 Multiplicity = 1
 O                     5.6578   -1.1383    2.8248 
 O                    -0.4589    2.4393   -4.2322 
 O                    -2.0586    0.9595   -3.7802 
 O                    -5.7031   -4.3372    2.0729 
 O                    -5.106    -3.2877    3.9432 
 O                     1.1544    4.0947   -2.108 
 N                     0.9448   -2.4921    0.7607 
 N                     4.3837   -1.6364    1.0375 
 N                    -1.6355    0.9136    0.5642 
 N                    -0.5742    3.3113   -0.7854 
 C                     4.3954   -2.616    -0.0189 
 C                     3.1215   -3.4827    0.0258 
 C                     1.8757   -2.6646   -0.1921 
 C                     1.4865   -2.01     -1.3524 
 C                     0.2639   -1.3922   -1.0732 
 C                    -0.0292   -1.7045    0.2652 
 C                     5.6447   -3.4297    0.2755 
 C                    -0.6186   -0.6723   -2.0729 
 C                     6.2419   -2.9622    1.4013 
 C                    -1.2246   -1.3942    1.0952 
 C                    -1.9465   -0.2531    1.1711 
 C                     5.432    -1.8318    1.845 
 C                    -3.0985   -0.0905    1.9449 
 C                     2.2119   -2.0356   -2.6681 
 C                     6.0666   -4.5354   -0.6572 
 C                    -3.4958    1.2335    1.7805 
 C                     0.0327    0.5706   -2.7044 
 C                    -2.5672    1.8277    0.9288 
 C                    -3.7785   -1.1489    2.7898 
 C                     7.4626   -3.3737    2.1615 
 C                    -4.4085   -2.2486    1.9155 
 C                    -4.6868    1.9242    2.3943 
 C                    -2.6092    3.1296    0.5503 
 C                    -0.9059    1.3301   -3.607 
 C                    -1.6373    3.852    -0.3199 
 C                     8.1753   -4.4979    2.0302 
 C                    -5.0942   -3.3219    2.7206 
 C                    -1.7503    5.2809   -0.7576 
 C                    -0.651     5.5354   -1.5071 
 C                     0.0912    4.2851   -1.5394 
 C                    -2.9008    6.1607   -0.3727 
 C                    -0.1443    6.7817   -2.1821 
 C                    -3.2483    7.3281   -0.9256 
 H                     4.5061   -2.1043   -0.9963 
 H                     3.0691   -3.9656    1.0267 
 H                     3.1564   -4.286    -0.7395 
 H                     0.9762   -2.8929    1.7254 
 H                     3.68     -0.8921    1.1558 
 H                    -0.8827   -1.3844   -2.8842 
 H                    -1.5706   -0.3906   -1.5854 
 H                    -1.5072   -2.2089    1.752 
 H                     3.0924   -2.706    -2.6382 
 H                     1.5331   -2.4176   -3.4586 
 H                     2.5766   -1.025    -2.9309 
 H                     6.1492   -4.1158   -1.6813 
 H                     5.3017   -5.3384   -0.6646 
 H                     7.0428   -4.9788   -0.4424 
 H                     0.3916    1.2514   -1.9122 
 H                     0.9025    0.2782   -3.3158 
 H                    -0.8038    1.0685   -0.0332 
 H                    -4.5903   -0.7096    3.3979 
 H                    -3.0367   -1.5754    3.4987 
 H                     7.7933   -2.6918    2.9399 
 H                    -3.6411   -2.7388    1.2845 
 H                    -5.1616   -1.7825    1.2437 
 H                    -5.297     1.2631    3.0342 
 H                    -5.3453    2.3078    1.5873 
 H                    -4.3403    2.7754    3.0169 
 H                    -3.4317    3.7207    0.9257 
 H                     7.9474   -5.2915    1.3461 
 H                     9.0336   -4.6539    2.6763 
 H                    -1.0316    2.9562   -4.8163 
 H                    -3.5568    5.8149    0.4151 
 H                    -0.7249    7.6891   -1.9856 
 H                     0.8767    6.995    -1.8023 
 H                    -0.085     6.6116   -3.2772 
 H                    -6.1537   -5.0457    2.5542 
 H                    -4.1232    7.85     -0.5501 
 H                    -2.7421    7.7841   -1.7541 
 

 GradGradGradGradGradGradGradGradGradGradGradGradGradGradGradGradGradGrad
 Berny optimization.
 Initialization pass.
                           ----------------------------
                           !    Initial Parameters    !
                           ! (Angstroms and Degrees)  !
 --------------------------                            --------------------------
 ! Name  Definition              Value          Derivative Info.                !
 --------------------------------------------------------------------------------
 ! R1    R(1,22)                 1.2214         estimate D2E/DX2                !
 ! R2    R(2,34)                 1.3494         estimate D2E/DX2                !
 ! R3    R(2,72)                 0.9676         estimate D2E/DX2                !
 ! R4    R(3,34)                 1.2231         estimate D2E/DX2                !
 ! R5    R(4,37)                 1.3495         estimate D2E/DX2                !
 ! R6    R(4,77)                 0.9678         estimate D2E/DX2                !
 ! R7    R(5,37)                 1.2231         estimate D2E/DX2                !
 ! R8    R(6,40)                 1.2206         estimate D2E/DX2                !
 ! R9    R(7,13)                 1.3432         estimate D2E/DX2                !
 ! R10   R(7,16)                 1.347          estimate D2E/DX2                !
 ! R11   R(7,47)                 1.0451         estimate D2E/DX2                !
 ! R12   R(8,11)                 1.4407         estimate D2E/DX2                !
 ! R13   R(8,22)                 1.3376         estimate D2E/DX2                !
 ! R14   R(8,48)                 1.0311         estimate D2E/DX2                !
 ! R15   R(9,21)                 1.3514         estimate D2E/DX2                !
 ! R16   R(9,28)                 1.3552         estimate D2E/DX2                !
 ! R17   R(9,60)                 1.0357         estimate D2E/DX2                !
 ! R18   R(10,35)                1.2803         estimate D2E/DX2                !
 ! R19   R(10,40)                1.3998         estimate D2E/DX2                !
 ! R20   R(11,12)                1.5414         estimate D2E/DX2                !
 ! R21   R(11,17)                1.5197         estimate D2E/DX2                !
 ! R22   R(11,44)                1.1088         estimate D2E/DX2                !
 ! R23   R(12,13)                1.5062         estimate D2E/DX2                !
 ! R24   R(12,45)                1.1125         estimate D2E/DX2                !
 ! R25   R(12,46)                1.11           estimate D2E/DX2                !
 ! R26   R(13,14)                1.3879         estimate D2E/DX2                !
 ! R27   R(14,15)                1.398          estimate D2E/DX2                !
 ! R28   R(14,24)                1.5026         estimate D2E/DX2                !
 ! R29   R(15,16)                1.4053         estimate D2E/DX2                !
 ! R30   R(15,18)                1.5154         estimate D2E/DX2                !
 ! R31   R(16,20)                1.488          estimate D2E/DX2                !
 ! R32   R(17,19)                1.3574         estimate D2E/DX2                !
 ! R33   R(17,25)                1.5068         estimate D2E/DX2                !
 ! R34   R(18,27)                1.5388         estimate D2E/DX2                !
 ! R35   R(18,49)                1.1113         estimate D2E/DX2                !
 ! R36   R(18,50)                1.106          estimate D2E/DX2                !
 ! R37   R(19,22)                1.4597         estimate D2E/DX2                !
 ! R38   R(19,30)                1.4958         estimate D2E/DX2                !
 ! R39   R(20,21)                1.3524         estimate D2E/DX2                !
 ! R40   R(20,51)                1.084          estimate D2E/DX2                !
 ! R41   R(21,23)                1.3973         estimate D2E/DX2                !
 ! R42   R(23,26)                1.3921         estimate D2E/DX2                !
 ! R43   R(23,29)                1.5154         estimate D2E/DX2                !
 ! R44   R(24,52)                1.1071         estimate D2E/DX2                !
 ! R45   R(24,53)                1.1098         estimate D2E/DX2                !
 ! R46   R(24,54)                1.1061         estimate D2E/DX2                !
 ! R47   R(25,55)                1.1098         estimate D2E/DX2                !
 ! R48   R(25,56)                1.109          estimate D2E/DX2                !
 ! R49   R(25,57)                1.0935         estimate D2E/DX2                !
 ! R50   R(26,28)                1.3931         estimate D2E/DX2                !
 ! R51   R(26,32)                1.5074         estimate D2E/DX2                !
 ! R52   R(27,34)                1.5075         estimate D2E/DX2                !
 ! R53   R(27,58)                1.1045         estimate D2E/DX2                !
 ! R54   R(27,59)                1.1027         estimate D2E/DX2                !
 ! R55   R(28,33)                1.3565         estimate D2E/DX2                !
 ! R56   R(29,31)                1.5397         estimate D2E/DX2                !
 ! R57   R(29,61)                1.1053         estimate D2E/DX2                !
 ! R58   R(29,62)                1.1112         estimate D2E/DX2                !
 ! R59   R(30,36)                1.3375         estimate D2E/DX2                !
 ! R60   R(30,63)                1.0864         estimate D2E/DX2                !
 ! R61   R(31,37)                1.5068         estimate D2E/DX2                !
 ! R62   R(31,64)                1.1079         estimate D2E/DX2                !
 ! R63   R(31,65)                1.1116         estimate D2E/DX2                !
 ! R64   R(32,66)                1.104          estimate D2E/DX2                !
 ! R65   R(32,67)                1.11           estimate D2E/DX2                !
 ! R66   R(32,68)                1.1101         estimate D2E/DX2                !
 ! R67   R(33,35)                1.4912         estimate D2E/DX2                !
 ! R68   R(33,69)                1.0802         estimate D2E/DX2                !
 ! R69   R(35,38)                1.4987         estimate D2E/DX2                !
 ! R70   R(36,70)                1.0723         estimate D2E/DX2                !
 ! R71   R(36,71)                1.0856         estimate D2E/DX2                !
 ! R72   R(38,39)                1.3546         estimate D2E/DX2                !
 ! R73   R(38,41)                1.4986         estimate D2E/DX2                !
 ! R74   R(39,40)                1.4544         estimate D2E/DX2                !
 ! R75   R(39,42)                1.5052         estimate D2E/DX2                !
 ! R76   R(41,43)                1.3376         estimate D2E/DX2                !
 ! R77   R(41,73)                1.0819         estimate D2E/DX2                !
 ! R78   R(42,74)                1.095          estimate D2E/DX2                !
 ! R79   R(42,75)                1.11           estimate D2E/DX2                !
 ! R80   R(42,76)                1.1098         estimate D2E/DX2                !
 ! R81   R(43,78)                1.0857         estimate D2E/DX2                !
 ! R82   R(43,79)                1.0727         estimate D2E/DX2                !
 ! A1    A(34,2,72)            121.5131         estimate D2E/DX2                !
 ! A2    A(37,4,77)            121.4776         estimate D2E/DX2                !
 ! A3    A(13,7,16)            108.3777         estimate D2E/DX2                !
 ! A4    A(13,7,47)            125.7818         estimate D2E/DX2                !
 ! A5    A(16,7,47)            125.8377         estimate D2E/DX2                !
 ! A6    A(11,8,22)            109.6917         estimate D2E/DX2                !
 ! A7    A(11,8,48)            125.4838         estimate D2E/DX2                !
 ! A8    A(22,8,48)            124.8237         estimate D2E/DX2                !
 ! A9    A(21,9,28)            107.6553         estimate D2E/DX2                !
 ! A10   A(21,9,60)            124.9588         estimate D2E/DX2                !
 ! A11   A(28,9,60)            127.33           estimate D2E/DX2                !
 ! A12   A(35,10,40)           107.2622         estimate D2E/DX2                !
 ! A13   A(8,11,12)            110.7524         estimate D2E/DX2                !
 ! A14   A(8,11,17)            103.2198         estimate D2E/DX2                !
 ! A15   A(8,11,44)            109.4738         estimate D2E/DX2                !
 ! A16   A(12,11,17)           111.8831         estimate D2E/DX2                !
 ! A17   A(12,11,44)           111.5653         estimate D2E/DX2                !
 ! A18   A(17,11,44)           109.6206         estimate D2E/DX2                !
 ! A19   A(11,12,13)           111.9597         estimate D2E/DX2                !
 ! A20   A(11,12,45)           108.0032         estimate D2E/DX2                !
 ! A21   A(11,12,46)           111.1568         estimate D2E/DX2                !
 ! A22   A(13,12,45)           109.0833         estimate D2E/DX2                !
 ! A23   A(13,12,46)           108.6217         estimate D2E/DX2                !
 ! A24   A(45,12,46)           107.9161         estimate D2E/DX2                !
 ! A25   A(7,13,12)            122.7074         estimate D2E/DX2                !
 ! A26   A(7,13,14)            109.7617         estimate D2E/DX2                !
 ! A27   A(12,13,14)           127.5204         estimate D2E/DX2                !
 ! A28   A(13,14,15)           106.661          estimate D2E/DX2                !
 ! A29   A(13,14,24)           126.0573         estimate D2E/DX2                !
 ! A30   A(15,14,24)           127.1988         estimate D2E/DX2                !
 ! A31   A(14,15,16)           105.9268         estimate D2E/DX2                !
 ! A32   A(14,15,18)           125.978          estimate D2E/DX2                !
 ! A33   A(16,15,18)           127.7643         estimate D2E/DX2                !
 ! A34   A(7,16,15)            109.2366         estimate D2E/DX2                !
 ! A35   A(7,16,20)            119.8432         estimate D2E/DX2                !
 ! A36   A(15,16,20)           130.728          estimate D2E/DX2                !
 ! A37   A(11,17,19)           109.7506         estimate D2E/DX2                !
 ! A38   A(11,17,25)           120.2092         estimate D2E/DX2                !
 ! A39   A(19,17,25)           130.0083         estimate D2E/DX2                !
 ! A40   A(15,18,27)           114.0768         estimate D2E/DX2                !
 ! A41   A(15,18,49)           108.3963         estimate D2E/DX2                !
 ! A42   A(15,18,50)           109.3583         estimate D2E/DX2                !
 ! A43   A(27,18,49)           108.5753         estimate D2E/DX2                !
 ! A44   A(27,18,50)           109.8452         estimate D2E/DX2                !
 ! A45   A(49,18,50)           106.2854         estimate D2E/DX2                !
 ! A46   A(17,19,22)           105.9447         estimate D2E/DX2                !
 ! A47   A(17,19,30)           133.2985         estimate D2E/DX2                !
 ! A48   A(22,19,30)           120.7556         estimate D2E/DX2                !
 ! A49   A(16,20,21)           129.5            estimate D2E/DX2                !
 ! A50   A(16,20,51)           112.9974         estimate D2E/DX2                !
 ! A51   A(21,20,51)           117.4509         estimate D2E/DX2                !
 ! A52   A(9,21,20)            125.4785         estimate D2E/DX2                !
 ! A53   A(9,21,23)            109.754          estimate D2E/DX2                !
 ! A54   A(20,21,23)           124.706          estimate D2E/DX2                !
 ! A55   A(1,22,8)             123.1067         estimate D2E/DX2                !
 ! A56   A(1,22,19)            125.5181         estimate D2E/DX2                !
 ! A57   A(8,22,19)            111.3751         estimate D2E/DX2                !
 ! A58   A(21,23,26)           106.2952         estimate D2E/DX2                !
 ! A59   A(21,23,29)           126.6876         estimate D2E/DX2                !
 ! A60   A(26,23,29)           127.017          estimate D2E/DX2                !
 ! A61   A(14,24,52)           111.7538         estimate D2E/DX2                !
 ! A62   A(14,24,53)           109.5287         estimate D2E/DX2                !
 ! A63   A(14,24,54)           110.5882         estimate D2E/DX2                !
 ! A64   A(52,24,53)           107.2938         estimate D2E/DX2                !
 ! A65   A(52,24,54)           107.3055         estimate D2E/DX2                !
 ! A66   A(53,24,54)           110.3004         estimate D2E/DX2                !
 ! A67   A(17,25,55)           108.3359         estimate D2E/DX2                !
 ! A68   A(17,25,56)           110.0189         estimate D2E/DX2                !
 ! A69   A(17,25,57)           115.209          estimate D2E/DX2                !
 ! A70   A(55,25,56)           108.5983         estimate D2E/DX2                !
 ! A71   A(55,25,57)           105.5532         estimate D2E/DX2                !
 ! A72   A(56,25,57)           108.871          estimate D2E/DX2                !
 ! A73   A(23,26,28)           106.7163         estimate D2E/DX2                !
 ! A74   A(23,26,32)           127.8216         estimate D2E/DX2                !
 ! A75   A(28,26,32)           125.4614         estimate D2E/DX2                !
 ! A76   A(18,27,34)           112.9009         estimate D2E/DX2                !
 ! A77   A(18,27,58)           109.9415         estimate D2E/DX2                !
 ! A78   A(18,27,59)           110.3187         estimate D2E/DX2                !
 ! A79   A(34,27,58)           108.7371         estimate D2E/DX2                !
 ! A80   A(34,27,59)           107.0227         estimate D2E/DX2                !
 ! A81   A(58,27,59)           107.7481         estimate D2E/DX2                !
 ! A82   A(9,28,26)            109.5753         estimate D2E/DX2                !
 ! A83   A(9,28,33)            126.4128         estimate D2E/DX2                !
 ! A84   A(26,28,33)           124.0092         estimate D2E/DX2                !
 ! A85   A(23,29,31)           111.46           estimate D2E/DX2                !
 ! A86   A(23,29,61)           111.0208         estimate D2E/DX2                !
 ! A87   A(23,29,62)           108.9178         estimate D2E/DX2                !
 ! A88   A(31,29,61)           107.2023         estimate D2E/DX2                !
 ! A89   A(31,29,62)           111.1789         estimate D2E/DX2                !
 ! A90   A(61,29,62)           106.9694         estimate D2E/DX2                !
 ! A91   A(19,30,36)           128.0385         estimate D2E/DX2                !
 ! A92   A(19,30,63)           116.0969         estimate D2E/DX2                !
 ! A93   A(36,30,63)           115.8295         estimate D2E/DX2                !
 ! A94   A(29,31,37)           113.0516         estimate D2E/DX2                !
 ! A95   A(29,31,64)           110.8563         estimate D2E/DX2                !
 ! A96   A(29,31,65)           108.7172         estimate D2E/DX2                !
 ! A97   A(37,31,64)           107.7207         estimate D2E/DX2                !
 ! A98   A(37,31,65)           108.2569         estimate D2E/DX2                !
 ! A99   A(64,31,65)           108.0949         estimate D2E/DX2                !
 ! A100  A(26,32,66)           113.4734         estimate D2E/DX2                !
 ! A101  A(26,32,67)           109.332          estimate D2E/DX2                !
 ! A102  A(26,32,68)           109.4574         estimate D2E/DX2                !
 ! A103  A(66,32,67)           107.4847         estimate D2E/DX2                !
 ! A104  A(66,32,68)           107.8551         estimate D2E/DX2                !
 ! A105  A(67,32,68)           109.145          estimate D2E/DX2                !
 ! A106  A(28,33,35)           127.4168         estimate D2E/DX2                !
 ! A107  A(28,33,69)           116.8598         estimate D2E/DX2                !
 ! A108  A(35,33,69)           115.7202         estimate D2E/DX2                !
 ! A109  A(2,34,3)             119.7104         estimate D2E/DX2                !
 ! A110  A(2,34,27)            119.0308         estimate D2E/DX2                !
 ! A111  A(3,34,27)            121.2588         estimate D2E/DX2                !
 ! A112  A(10,35,33)           123.2818         estimate D2E/DX2                !
 ! A113  A(10,35,38)           111.043          estimate D2E/DX2                !
 ! A114  A(33,35,38)           125.6734         estimate D2E/DX2                !
 ! A115  A(30,36,70)           124.8514         estimate D2E/DX2                !
 ! A116  A(30,36,71)           118.924          estimate D2E/DX2                !
 ! A117  A(70,36,71)           116.1937         estimate D2E/DX2                !
 ! A118  A(4,37,5)             119.7644         estimate D2E/DX2                !
 ! A119  A(4,37,31)            118.9997         estimate D2E/DX2                !
 ! A120  A(5,37,31)            121.2359         estimate D2E/DX2                !
 ! A121  A(35,38,39)           106.2321         estimate D2E/DX2                !
 ! A122  A(35,38,41)           122.8613         estimate D2E/DX2                !
 ! A123  A(39,38,41)           130.9061         estimate D2E/DX2                !
 ! A124  A(38,39,40)           105.3619         estimate D2E/DX2                !
 ! A125  A(38,39,42)           132.5993         estimate D2E/DX2                !
 ! A126  A(40,39,42)           122.0101         estimate D2E/DX2                !
 ! A127  A(6,40,10)            123.8091         estimate D2E/DX2                !
 ! A128  A(6,40,39)            126.0826         estimate D2E/DX2                !
 ! A129  A(10,40,39)           110.0904         estimate D2E/DX2                !
 ! A130  A(38,41,43)           127.2748         estimate D2E/DX2                !
 ! A131  A(38,41,73)           117.7014         estimate D2E/DX2                !
 ! A132  A(43,41,73)           114.9862         estimate D2E/DX2                !
 ! A133  A(39,42,74)           115.2876         estimate D2E/DX2                !
 ! A134  A(39,42,75)           108.3789         estimate D2E/DX2                !
 ! A135  A(39,42,76)           109.4862         estimate D2E/DX2                !
 ! A136  A(74,42,75)           105.4892         estimate D2E/DX2                !
 ! A137  A(74,42,76)           109.4148         estimate D2E/DX2                !
 ! A138  A(75,42,76)           108.5371         estimate D2E/DX2                !
 ! A139  A(41,43,78)           119.0712         estimate D2E/DX2                !
 ! A140  A(41,43,79)           124.588          estimate D2E/DX2                !
 ! A141  A(78,43,79)           116.2988         estimate D2E/DX2                !
 ! D1    D(72,2,34,3)            0.2517         estimate D2E/DX2                !
 ! D2    D(72,2,34,27)        -179.7307         estimate D2E/DX2                !
 ! D3    D(77,4,37,5)            0.0344         estimate D2E/DX2                !
 ! D4    D(77,4,37,31)         179.9631         estimate D2E/DX2                !
 ! D5    D(16,7,13,12)         179.2645         estimate D2E/DX2                !
 ! D6    D(16,7,13,14)          -1.831          estimate D2E/DX2                !
 ! D7    D(47,7,13,12)          -0.1596         estimate D2E/DX2                !
 ! D8    D(47,7,13,14)         178.7448         estimate D2E/DX2                !
 ! D9    D(13,7,16,15)           1.9504         estimate D2E/DX2                !
 ! D10   D(13,7,16,20)         177.4383         estimate D2E/DX2                !
 ! D11   D(47,7,16,15)        -178.6259         estimate D2E/DX2                !
 ! D12   D(47,7,16,20)          -3.138          estimate D2E/DX2                !
 ! D13   D(22,8,11,12)         119.1352         estimate D2E/DX2                !
 ! D14   D(22,8,11,17)          -0.7612         estimate D2E/DX2                !
 ! D15   D(22,8,11,44)        -117.4361         estimate D2E/DX2                !
 ! D16   D(48,8,11,12)         -61.1721         estimate D2E/DX2                !
 ! D17   D(48,8,11,17)         178.9315         estimate D2E/DX2                !
 ! D18   D(48,8,11,44)          62.2566         estimate D2E/DX2                !
 ! D19   D(11,8,22,1)         -179.8717         estimate D2E/DX2                !
 ! D20   D(11,8,22,19)          -0.0012         estimate D2E/DX2                !
 ! D21   D(48,8,22,1)            0.4331         estimate D2E/DX2                !
 ! D22   D(48,8,22,19)        -179.6964         estimate D2E/DX2                !
 ! D23   D(28,9,21,20)        -177.3864         estimate D2E/DX2                !
 ! D24   D(28,9,21,23)          -0.137          estimate D2E/DX2                !
 ! D25   D(60,9,21,20)           0.06           estimate D2E/DX2                !
 ! D26   D(60,9,21,23)         177.3094         estimate D2E/DX2                !
 ! D27   D(21,9,28,26)          -0.2712         estimate D2E/DX2                !
 ! D28   D(21,9,28,33)         179.1479         estimate D2E/DX2                !
 ! D29   D(60,9,28,26)        -177.6391         estimate D2E/DX2                !
 ! D30   D(60,9,28,33)           1.7799         estimate D2E/DX2                !
 ! D31   D(40,10,35,33)       -179.4131         estimate D2E/DX2                !
 ! D32   D(40,10,35,38)          0.1224         estimate D2E/DX2                !
 ! D33   D(35,10,40,6)         179.0577         estimate D2E/DX2                !
 ! D34   D(35,10,40,39)          0.514          estimate D2E/DX2                !
 ! D35   D(8,11,12,13)          62.3525         estimate D2E/DX2                !
 ! D36   D(8,11,12,45)         -57.7602         estimate D2E/DX2                !
 ! D37   D(8,11,12,46)        -175.964          estimate D2E/DX2                !
 ! D38   D(17,11,12,13)        176.9181         estimate D2E/DX2                !
 ! D39   D(17,11,12,45)         56.8054         estimate D2E/DX2                !
 ! D40   D(17,11,12,46)        -61.3984         estimate D2E/DX2                !
 ! D41   D(44,11,12,13)        -59.8625         estimate D2E/DX2                !
 ! D42   D(44,11,12,45)       -179.9752         estimate D2E/DX2                !
 ! D43   D(44,11,12,46)         61.821          estimate D2E/DX2                !
 ! D44   D(8,11,17,19)           1.323          estimate D2E/DX2                !
 ! D45   D(8,11,17,25)        -176.8227         estimate D2E/DX2                !
 ! D46   D(12,11,17,19)       -117.7937         estimate D2E/DX2                !
 ! D47   D(12,11,17,25)         64.0605         estimate D2E/DX2                !
 ! D48   D(44,11,17,19)        117.894          estimate D2E/DX2                !
 ! D49   D(44,11,17,25)        -60.2518         estimate D2E/DX2                !
 ! D50   D(11,12,13,7)        -114.1326         estimate D2E/DX2                !
 ! D51   D(11,12,13,14)         67.1674         estimate D2E/DX2                !
 ! D52   D(45,12,13,7)           5.3474         estimate D2E/DX2                !
 ! D53   D(45,12,13,14)       -173.3526         estimate D2E/DX2                !
 ! D54   D(46,12,13,7)         122.7389         estimate D2E/DX2                !
 ! D55   D(46,12,13,14)        -55.9611         estimate D2E/DX2                !
 ! D56   D(7,13,14,15)           0.9887         estimate D2E/DX2                !
 ! D57   D(7,13,14,24)        -175.8851         estimate D2E/DX2                !
 ! D58   D(12,13,14,15)        179.8264         estimate D2E/DX2                !
 ! D59   D(12,13,14,24)          2.9527         estimate D2E/DX2                !
 ! D60   D(13,14,15,16)          0.1983         estimate D2E/DX2                !
 ! D61   D(13,14,15,18)       -173.5992         estimate D2E/DX2                !
 ! D62   D(24,14,15,16)        177.0254         estimate D2E/DX2                !
 ! D63   D(24,14,15,18)          3.2278         estimate D2E/DX2                !
 ! D64   D(13,14,24,52)          3.6103         estimate D2E/DX2                !
 ! D65   D(13,14,24,53)        122.3698         estimate D2E/DX2                !
 ! D66   D(13,14,24,54)       -115.8631         estimate D2E/DX2                !
 ! D67   D(15,14,24,52)       -172.6289         estimate D2E/DX2                !
 ! D68   D(15,14,24,53)        -53.8694         estimate D2E/DX2                !
 ! D69   D(15,14,24,54)         67.8977         estimate D2E/DX2                !
 ! D70   D(14,15,16,7)          -1.3144         estimate D2E/DX2                !
 ! D71   D(14,15,16,20)       -176.1482         estimate D2E/DX2                !
 ! D72   D(18,15,16,7)         172.3358         estimate D2E/DX2                !
 ! D73   D(18,15,16,20)         -2.498          estimate D2E/DX2                !
 ! D74   D(14,15,18,27)        -63.0511         estimate D2E/DX2                !
 ! D75   D(14,15,18,49)         58.0337         estimate D2E/DX2                !
 ! D76   D(14,15,18,50)        173.5064         estimate D2E/DX2                !
 ! D77   D(16,15,18,27)        124.5007         estimate D2E/DX2                !
 ! D78   D(16,15,18,49)       -114.4145         estimate D2E/DX2                !
 ! D79   D(16,15,18,50)          1.0582         estimate D2E/DX2                !
 ! D80   D(7,16,20,21)         144.0949         estimate D2E/DX2                !
 ! D81   D(7,16,20,51)         -33.1838         estimate D2E/DX2                !
 ! D82   D(15,16,20,21)        -41.53           estimate D2E/DX2                !
 ! D83   D(15,16,20,51)        141.1913         estimate D2E/DX2                !
 ! D84   D(11,17,19,22)         -1.3243         estimate D2E/DX2                !
 ! D85   D(11,17,19,30)        179.0899         estimate D2E/DX2                !
 ! D86   D(25,17,19,22)        176.5835         estimate D2E/DX2                !
 ! D87   D(25,17,19,30)         -3.0023         estimate D2E/DX2                !
 ! D88   D(11,17,25,55)         54.3333         estimate D2E/DX2                !
 ! D89   D(11,17,25,56)        -64.244          estimate D2E/DX2                !
 ! D90   D(11,17,25,57)        172.2523         estimate D2E/DX2                !
 ! D91   D(19,17,25,55)       -123.388          estimate D2E/DX2                !
 ! D92   D(19,17,25,56)        118.0347         estimate D2E/DX2                !
 ! D93   D(19,17,25,57)         -5.469          estimate D2E/DX2                !
 ! D94   D(15,18,27,34)       -175.2642         estimate D2E/DX2                !
 ! D95   D(15,18,27,58)        -53.6485         estimate D2E/DX2                !
 ! D96   D(15,18,27,59)         65.0458         estimate D2E/DX2                !
 ! D97   D(49,18,27,34)         63.7505         estimate D2E/DX2                !
 ! D98   D(49,18,27,58)       -174.6338         estimate D2E/DX2                !
 ! D99   D(49,18,27,59)        -55.9395         estimate D2E/DX2                !
 ! D100  D(50,18,27,34)        -52.0856         estimate D2E/DX2                !
 ! D101  D(50,18,27,58)         69.5301         estimate D2E/DX2                !
 ! D102  D(50,18,27,59)       -171.7756         estimate D2E/DX2                !
 ! D103  D(17,19,22,1)        -179.2684         estimate D2E/DX2                !
 ! D104  D(17,19,22,8)           0.8648         estimate D2E/DX2                !
 ! D105  D(30,19,22,1)           0.3807         estimate D2E/DX2                !
 ! D106  D(30,19,22,8)        -179.486          estimate D2E/DX2                !
 ! D107  D(17,19,30,36)        -12.7635         estimate D2E/DX2                !
 ! D108  D(17,19,30,63)        169.4989         estimate D2E/DX2                !
 ! D109  D(22,19,30,36)        167.7            estimate D2E/DX2                !
 ! D110  D(22,19,30,63)        -10.0375         estimate D2E/DX2                !
 ! D111  D(16,20,21,9)          -6.334          estimate D2E/DX2                !
 ! D112  D(16,20,21,23)        176.8154         estimate D2E/DX2                !
 ! D113  D(51,20,21,9)         170.843          estimate D2E/DX2                !
 ! D114  D(51,20,21,23)         -6.0076         estimate D2E/DX2                !
 ! D115  D(9,21,23,26)           0.4852         estimate D2E/DX2                !
 ! D116  D(9,21,23,29)        -179.6809         estimate D2E/DX2                !
 ! D117  D(20,21,23,26)        177.7605         estimate D2E/DX2                !
 ! D118  D(20,21,23,29)         -2.4056         estimate D2E/DX2                !
 ! D119  D(21,23,26,28)         -0.6294         estimate D2E/DX2                !
 ! D120  D(21,23,26,32)        179.6822         estimate D2E/DX2                !
 ! D121  D(29,23,26,28)        179.5375         estimate D2E/DX2                !
 ! D122  D(29,23,26,32)         -0.151          estimate D2E/DX2                !
 ! D123  D(21,23,29,31)        -68.0629         estimate D2E/DX2                !
 ! D124  D(21,23,29,61)        172.4982         estimate D2E/DX2                !
 ! D125  D(21,23,29,62)         54.9676         estimate D2E/DX2                !
 ! D126  D(26,23,29,31)        111.7374         estimate D2E/DX2                !
 ! D127  D(26,23,29,61)         -7.7015         estimate D2E/DX2                !
 ! D128  D(26,23,29,62)       -125.2321         estimate D2E/DX2                !
 ! D129  D(23,26,28,9)           0.5697         estimate D2E/DX2                !
 ! D130  D(23,26,28,33)       -178.8663         estimate D2E/DX2                !
 ! D131  D(32,26,28,9)        -179.7324         estimate D2E/DX2                !
 ! D132  D(32,26,28,33)          0.8316         estimate D2E/DX2                !
 ! D133  D(23,26,32,66)         -0.7643         estimate D2E/DX2                !
 ! D134  D(23,26,32,67)       -120.7298         estimate D2E/DX2                !
 ! D135  D(23,26,32,68)        119.7621         estimate D2E/DX2                !
 ! D136  D(28,26,32,66)        179.602          estimate D2E/DX2                !
 ! D137  D(28,26,32,67)         59.6365         estimate D2E/DX2                !
 ! D138  D(28,26,32,68)        -59.8716         estimate D2E/DX2                !
 ! D139  D(18,27,34,2)        -179.6324         estimate D2E/DX2                !
 ! D140  D(18,27,34,3)           0.3854         estimate D2E/DX2                !
 ! D141  D(58,27,34,2)          58.0742         estimate D2E/DX2                !
 ! D142  D(58,27,34,3)        -121.9079         estimate D2E/DX2                !
 ! D143  D(59,27,34,2)         -58.0611         estimate D2E/DX2                !
 ! D144  D(59,27,34,3)         121.9568         estimate D2E/DX2                !
 ! D145  D(9,28,33,35)          -1.3503         estimate D2E/DX2                !
 ! D146  D(9,28,33,69)         179.3348         estimate D2E/DX2                !
 ! D147  D(26,28,33,35)        177.9894         estimate D2E/DX2                !
 ! D148  D(26,28,33,69)         -1.3255         estimate D2E/DX2                !
 ! D149  D(23,29,31,37)        179.943          estimate D2E/DX2                !
 ! D150  D(23,29,31,64)         58.8714         estimate D2E/DX2                !
 ! D151  D(23,29,31,65)        -59.815          estimate D2E/DX2                !
 ! D152  D(61,29,31,37)        -58.3767         estimate D2E/DX2                !
 ! D153  D(61,29,31,64)       -179.4483         estimate D2E/DX2                !
 ! D154  D(61,29,31,65)         61.8653         estimate D2E/DX2                !
 ! D155  D(62,29,31,37)         58.2139         estimate D2E/DX2                !
 ! D156  D(62,29,31,64)        -62.8577         estimate D2E/DX2                !
 ! D157  D(62,29,31,65)        178.4559         estimate D2E/DX2                !
 ! D158  D(19,30,36,70)         -1.0777         estimate D2E/DX2                !
 ! D159  D(19,30,36,71)       -178.9745         estimate D2E/DX2                !
 ! D160  D(63,30,36,70)        176.665          estimate D2E/DX2                !
 ! D161  D(63,30,36,71)         -1.2318         estimate D2E/DX2                !
 ! D162  D(29,31,37,4)         179.1523         estimate D2E/DX2                !
 ! D163  D(29,31,37,5)          -0.9202         estimate D2E/DX2                !
 ! D164  D(64,31,37,4)         -58.0164         estimate D2E/DX2                !
 ! D165  D(64,31,37,5)         121.9112         estimate D2E/DX2                !
 ! D166  D(65,31,37,4)          58.6476         estimate D2E/DX2                !
 ! D167  D(65,31,37,5)        -121.4248         estimate D2E/DX2                !
 ! D168  D(28,33,35,10)         -3.0644         estimate D2E/DX2                !
 ! D169  D(28,33,35,38)        177.4692         estimate D2E/DX2                !
 ! D170  D(69,33,35,10)        176.2572         estimate D2E/DX2                !
 ! D171  D(69,33,35,38)         -3.2092         estimate D2E/DX2                !
 ! D172  D(10,35,38,39)         -0.7487         estimate D2E/DX2                !
 ! D173  D(10,35,38,41)        179.4738         estimate D2E/DX2                !
 ! D174  D(33,35,38,39)        178.7733         estimate D2E/DX2                !
 ! D175  D(33,35,38,41)         -1.0042         estimate D2E/DX2                !
 ! D176  D(35,38,39,40)          0.9845         estimate D2E/DX2                !
 ! D177  D(35,38,39,42)       -177.0342         estimate D2E/DX2                !
 ! D178  D(41,38,39,40)       -179.2628         estimate D2E/DX2                !
 ! D179  D(41,38,39,42)          2.7186         estimate D2E/DX2                !
 ! D180  D(35,38,41,43)       -164.3928         estimate D2E/DX2                !
 ! D181  D(35,38,41,73)         13.2497         estimate D2E/DX2                !
 ! D182  D(39,38,41,43)         15.8898         estimate D2E/DX2                !
 ! D183  D(39,38,41,73)       -166.4677         estimate D2E/DX2                !
 ! D184  D(38,39,40,6)        -179.4805         estimate D2E/DX2                !
 ! D185  D(38,39,40,10)         -0.9778         estimate D2E/DX2                !
 ! D186  D(42,39,40,6)          -1.2004         estimate D2E/DX2                !
 ! D187  D(42,39,40,10)        177.3023         estimate D2E/DX2                !
 ! D188  D(38,39,42,74)          5.0183         estimate D2E/DX2                !
 ! D189  D(38,39,42,75)        122.9357         estimate D2E/DX2                !
 ! D190  D(38,39,42,76)       -118.84           estimate D2E/DX2                !
 ! D191  D(40,39,42,74)       -172.7285         estimate D2E/DX2                !
 ! D192  D(40,39,42,75)        -54.811          estimate D2E/DX2                !
 ! D193  D(40,39,42,76)         63.4133         estimate D2E/DX2                !
 ! D194  D(38,41,43,78)        178.9633         estimate D2E/DX2                !
 ! D195  D(38,41,43,79)          1.4119         estimate D2E/DX2                !
 ! D196  D(73,41,43,78)          1.2661         estimate D2E/DX2                !
 ! D197  D(73,41,43,79)       -176.2854         estimate D2E/DX2                !
 --------------------------------------------------------------------------------
 Trust Radius=3.00D-01 FncErr=1.00D-07 GrdErr=1.00D-06
 Number of steps in this run=    430 maximum allowed number of steps=    474.
 GradGradGradGradGradGradGradGradGradGradGradGradGradGradGradGradGradGrad

 Stoichiometry    C33H36N4O6
 Framework group  C1[X(C33H36N4O6)]
 Deg. of freedom   231
 Full point group                 C1      NOp   1
 Largest Abelian subgroup         C1      NOp   1
 Largest concise Abelian subgroup C1      NOp   1
                         Standard orientation:                         
 ---------------------------------------------------------------------
 Center     Atomic      Atomic             Coordinates (Angstroms)
 Number     Number       Type             X           Y           Z
 ---------------------------------------------------------------------
      1          8           0        5.323545   -1.278653   -3.180675
      2          8           0       -2.408766   -3.258178    2.844882
      3          8           0       -2.658709   -1.128210    3.439793
      4          8           0       -1.486909    7.240280    1.392492
      5          8           0       -1.482563    7.080278   -0.827954
      6          8           0       -1.975973   -4.300125   -0.084683
      7          7           0        2.322703    1.449659    0.262711
      8          7           0        4.460457   -1.032767   -1.116578
      9          7           0       -1.827248    0.689319   -0.440953
     10          7           0       -2.667720   -2.136272   -0.520884
     11          6           0        4.969898   -0.899951    0.224527
     12          6           0        4.540085    0.445733    0.841279
     13          6           0        3.042847    0.557304    0.962178
     14          6           0        2.204067   -0.179999    1.786257
     15          6           0        0.905309    0.281265    1.552069
     16          6           0        1.023294    1.288064    0.578833
     17          6           0        6.475460   -0.980536    0.033953
     18          6           0       -0.336465   -0.127947    2.318232
     19          6           0        6.764371   -1.112432   -1.285806
     20          6           0       -0.000551    2.191460   -0.012593
     21          6           0       -1.265704    1.917968   -0.404511
     22          6           0        5.478633   -1.153569   -1.975587
     23          6           0       -2.169385    2.864908   -0.893362
     24          6           0        2.633812   -1.215297    2.786958
     25          6           0        7.393438   -0.953079    1.228551
     26          6           0       -3.326278    2.165630   -1.225716
     27          6           0       -0.686840   -1.621166    2.194462
     28          6           0       -3.079270    0.824320   -0.941746
     29          6           0       -1.933760    4.355740   -1.028880
     30          6           0        8.045981   -1.218252   -2.049757
     31          6           0       -1.822460    5.035888    0.347947
     32          6           0       -4.609856    2.717837   -1.791218
     33          6           0       -3.972404   -0.173691   -1.156817
     34          6           0       -1.986033   -1.976924    2.871241
     35          6           0       -3.774786   -1.632831   -0.921108
     36          6           0        9.287338   -0.976255   -1.614466
     37          6           0       -1.586215    6.521109    0.254933
     38          6           0       -4.808965   -2.698647   -1.122639
     39          6           0       -4.205635   -3.873476   -0.821394
     40          6           0       -2.851359   -3.520741   -0.425582
     41          6           0       -6.205515   -2.400972   -1.577486
     42          6           0       -4.674179   -5.302850   -0.876078
     43          6           0       -7.268208   -3.210853   -1.513823
     44          1           0        4.625740   -1.757546    0.837298
     45          1           0        4.913555    1.260798    0.182546
     46          1           0        4.988399    0.586946    1.846896
     47          1           0        2.705008    2.144289   -0.418174
     48          1           0        3.463660   -1.039583   -1.380247
     49          1           0       -0.180638    0.111275    3.392259
     50          1           0       -1.192654    0.487549    1.984435
     51          1           0        0.366816    3.198008   -0.176569
     52          1           0        3.736406   -1.292594    2.849592
     53          1           0        2.265135   -0.932603    3.794800
     54          1           0        2.249600   -2.213067    2.503729
     55          1           0        7.080489   -1.756003    1.927867
     56          1           0        7.309435    0.022332    1.749562
     57          1           0        8.447119   -1.148150    1.010807
     58          1           0       -0.752131   -1.905738    1.129270
     59          1           0        0.099234   -2.238752    2.659796
     60          1           0       -1.350427   -0.189337   -0.170377
     61          1           0       -2.768013    4.841702   -1.567074
     62          1           0       -1.016801    4.521997   -1.634069
     63          1           0        7.956786   -1.493154   -3.097005
     64          1           0       -0.992852    4.598774    0.937898
     65          1           0       -2.768958    4.868105    0.906260
     66          1           0       -4.593051    3.812654   -1.932510
     67          1           0       -5.446501    2.483531   -1.100461
     68          1           0       -4.810540    2.250370   -2.777846
     69          1           0       -4.935966    0.110795   -1.553612
     70          1           0        9.536271   -0.646013   -0.625171
     71          1           0       10.116814   -1.084815   -2.306307
     72          1           0       -3.238805   -3.525647    3.264213
     73          1           0       -6.406119   -1.414012   -1.972720
     74          1           0       -5.670313   -5.452461   -1.305517
     75          1           0       -3.981158   -5.873607   -1.528876
     76          1           0       -4.641765   -5.742296    0.142515
     77          1           0       -1.334899    8.195913    1.374570
     78          1           0       -8.228529   -2.850047   -1.869397
     79          1           0       -7.256674   -4.198889   -1.096403
 ---------------------------------------------------------------------
 Rotational constants (GHZ):      0.0755866      0.0442493      0.0332804
 Standard basis: SVP (5D, 7F)
 There are   825 symmetry adapted cartesian basis functions of A   symmetry.
 There are   782 symmetry adapted basis functions of A   symmetry.
   782 basis functions,  1327 primitive gaussians,   825 cartesian basis functions
   155 alpha electrons      155 beta electrons
       nuclear repulsion energy      4928.8078899464 Hartrees.
 NAtoms=   79 NActive=   79 NUniq=   79 SFac= 1.00D+00 NAtFMM=   60 NAOKFM=T Big=T
 Integral buffers will be    131072 words long.
 Raffenetti 2 integral format.
 Two-electron integral symmetry is turned on.
 One-electron integrals computed using PRISM.
 NBasis=   782 RedAO= T EigKep=  2.93D-04  NBF=   782
 NBsUse=   782 1.00D-06 EigRej= -1.00D+00 NBFU=   782
 ExpMin= 1.22D-01 ExpMax= 2.27D+03 ExpMxC= 3.41D+02 IAcc=1 IRadAn=         1 AccDes= 0.00D+00
 Harris functional with IExCor=  402 and IRadAn=       1 diagonalized for initial guess.
 HarFok:  IExCor=  402 AccDes= 0.00D+00 IRadAn=         1 IDoV= 1 UseB2=F ITyADJ=14
 ICtDFT=  3500011 ScaDFX=  1.000000  1.000000  1.000000  1.000000
 FoFCou: FMM=F IPFlag=           0 FMFlag=      100000 FMFlg1=        2001
         NFxFlg=           0 DoJE=T BraDBF=F KetDBF=T FulRan=T
         wScrn=  0.000000 ICntrl=     500 IOpCl=  0 I1Cent=   200000004 NGrid=           0
         NMat0=    1 NMatS0=      1 NMatT0=    0 NMatD0=    1 NMtDS0=    0 NMtDT0=    0
 Petite list used in FoFCou.
 Requested convergence on RMS density matrix=1.00D-08 within 128 cycles.
 Requested convergence on MAX density matrix=1.00D-06.
 Requested convergence on             energy=1.00D-06.
 No special actions if energy rises.
 Integral accuracy reduced to 1.0D-05 until final iterations.
 Initial convergence to 1.0D-05 achieved.  Increase integral accuracy.
 SCF Done:  E(RB3LYP) =  -1948.07980724     A.U. after   16 cycles
            NFock= 16  Conv=0.92D-08     -V/T= 2.0101

 **********************************************************************

            Population analysis using the SCF density.

 **********************************************************************

 Orbital symmetries:
       Occupied  (A) (A) (A) (A) (A) (A) (A) (A) (A) (A) (A) (A)
                 (A) (A) (A) (A) (A) (A) (A) (A) (A) (A) (A) (A)
                 (A) (A) (A) (A) (A) (A) (A) (A) (A) (A) (A) (A)
                 (A) (A) (A) (A) (A) (A) (A) (A) (A) (A) (A) (A)
                 (A) (A) (A) (A) (A) (A) (A) (A) (A) (A) (A) (A)
                 (A) (A) (A) (A) (A) (A) (A) (A) (A) (A) (A) (A)
                 (A) (A) (A) (A) (A) (A) (A) (A) (A) (A) (A) (A)
                 (A) (A) (A) (A) (A) (A) (A) (A) (A) (A) (A) (A)
                 (A) (A) (A) (A) (A) (A) (A) (A) (A) (A) (A) (A)
                 (A) (A) (A) (A) (A) (A) (A) (A) (A) (A) (A) (A)
                 (A) (A) (A) (A) (A) (A) (A) (A) (A) (A) (A) (A)
                 (A) (A) (A) (A) (A) (A) (A) (A) (A) (A) (A) (A)
                 (A) (A) (A) (A) (A) (A) (A) (A) (A) (A) (A)
       Virtual   (A) (A) (A) (A) (A) (A) (A) (A) (A) (A) (A) (A)
                 (A) (A) (A) (A) (A) (A) (A) (A) (A) (A) (A) (A)
                 (A) (A) (A) (A) (A) (A) (A) (A) (A) (A) (A) (A)
                 (A) (A) (A) (A) (A) (A) (A) (A) (A) (A) (A) (A)
                 (A) (A) (A) (A) (A) (A) (A) (A) (A) (A) (A) (A)
                 (A) (A) (A) (A) (A) (A) (A) (A) (A) (A) (A) (A)
                 (A) (A) (A) (A) (A) (A) (A) (A) (A) (A) (A) (A)
                 (A) (A) (A) (A) (A) (A) (A) (A) (A) (A) (A) (A)
                 (A) (A) (A) (A) (A) (A) (A) (A) (A) (A) (A) (A)
                 (A) (A) (A) (A) (A) (A) (A) (A) (A) (A) (A) (A)
                 (A) (A) (A) (A) (A) (A) (A) (A) (A) (A) (A) (A)
                 (A) (A) (A) (A) (A) (A) (A) (A) (A) (A) (A) (A)
                 (A) (A) (A) (A) (A) (A) (A) (A) (A) (A) (A) (A)
                 (A) (A) (A) (A) (A) (A) (A) (A) (A) (A) (A) (A)
                 (A) (A) (A) (A) (A) (A) (A) (A) (A) (A) (A) (A)
                 (A) (A) (A) (A) (A) (A) (A) (A) (A) (A) (A) (A)
                 (A) (A) (A) (A) (A) (A) (A) (A) (A) (A) (A) (A)
                 (A) (A) (A) (A) (A) (A) (A) (A) (A) (A) (A) (A)
                 (A) (A) (A) (A) (A) (A) (A) (A) (A) (A) (A) (A)
                 (A) (A) (A) (A) (A) (A) (A) (A) (A) (A) (A) (A)
                 (A) (A) (A) (A) (A) (A) (A) (A) (A) (A) (A) (A)
                 (A) (A) (A) (A) (A) (A) (A) (A) (A) (A) (A) (A)
                 (A) (A) (A) (A) (A) (A) (A) (A) (A) (A) (A) (A)
                 (A) (A) (A) (A) (A) (A) (A) (A) (A) (A) (A) (A)
                 (A) (A) (A) (A) (A) (A) (A) (A) (A) (A) (A) (A)
                 (A) (A) (A) (A) (A) (A) (A) (A) (A) (A) (A) (A)
                 (A) (A) (A) (A) (A) (A) (A) (A) (A) (A) (A) (A)
                 (A) (A) (A) (A) (A) (A) (A) (A) (A) (A) (A) (A)
                 (A) (A) (A) (A) (A) (A) (A) (A) (A) (A) (A) (A)
                 (A) (A) (A) (A) (A) (A) (A) (A) (A) (A) (A) (A)
                 (A) (A) (A) (A) (A) (A) (A) (A) (A) (A) (A) (A)
                 (A) (A) (A) (A) (A) (A) (A) (A) (A) (A) (A) (A)
                 (A) (A) (A) (A) (A) (A) (A) (A) (A) (A) (A) (A)
                 (A) (A) (A) (A) (A) (A) (A) (A) (A) (A) (A) (A)
                 (A) (A) (A) (A) (A) (A) (A) (A) (A) (A) (A) (A)
                 (A) (A) (A) (A) (A) (A) (A) (A) (A) (A) (A) (A)
                 (A) (A) (A) (A) (A) (A) (A) (A) (A) (A) (A) (A)
                 (A) (A) (A) (A) (A) (A) (A) (A) (A) (A) (A) (A)
                 (A) (A) (A) (A) (A) (A) (A) (A) (A) (A) (A) (A)
                 (A) (A) (A) (A) (A) (A) (A) (A) (A) (A) (A) (A)
                 (A) (A) (A) (A) (A) (A) (A) (A) (A) (A) (A) (A)
                 (A) (A) (A) (A) (A) (A) (A) (A) (A) (A) (A) (A)
                 (A) (A) (A) (A) (A) (A) (A) (A) (A) (A) (A) (A)
                 (A) (A) (A) (A) (A) (A) (A) (A) (A) (A) (A) (A)
                 (A) (A) (A) (A) (A) (A) (A) (A) (A) (A) (A) (A)
                 (A) (A) (A) (A) (A) (A) (A) (A) (A) (A) (A) (A)
                 (A) (A) (A) (A) (A) (A) (A) (A) (A) (A) (A) (A)
                 (A) (A) (A) (A) (A) (A) (A) (A) (A) (A) (A) (A)
                 (A) (A) (A) (A) (A) (A) (A) (A) (A) (A) (A) (A)
                 (A) (A) (A) (A) (A) (A) (A) (A) (A) (A) (A) (A)
                 (A) (A) (A) (A) (A) (A) (A) (A) (A) (A) (A) (A)
                 (A) (A) (A) (A) (A) (A) (A) (A) (A) (A) (A) (A)
                 (A) (A) (A)
 The electronic state is 1-A.
 Alpha  occ. eigenvalues --  -19.18471 -19.16204 -19.12400 -19.10503 -19.10210
 Alpha  occ. eigenvalues --  -19.07733 -14.39244 -14.36781 -14.34765 -14.28774
 Alpha  occ. eigenvalues --  -10.32882 -10.30678 -10.26725 -10.26043 -10.24679
 Alpha  occ. eigenvalues --  -10.23689 -10.23428 -10.23274 -10.22672 -10.22389
 Alpha  occ. eigenvalues --  -10.22118 -10.22065 -10.21983 -10.21410 -10.21150
 Alpha  occ. eigenvalues --  -10.21077 -10.20818 -10.20643 -10.20499 -10.20385
 Alpha  occ. eigenvalues --  -10.20339 -10.20038 -10.20009 -10.19970 -10.19327
 Alpha  occ. eigenvalues --  -10.19301 -10.19293 -10.19241 -10.19152 -10.18978
 Alpha  occ. eigenvalues --  -10.18764 -10.18728 -10.18403  -1.09434  -1.07189
 Alpha  occ. eigenvalues --   -1.01722  -1.01610  -1.00437  -1.00102  -1.00030
 Alpha  occ. eigenvalues --   -0.97876  -0.93932  -0.93389  -0.83212  -0.82246
 Alpha  occ. eigenvalues --   -0.81939  -0.81711  -0.80296  -0.79948  -0.78189
 Alpha  occ. eigenvalues --   -0.76973  -0.76366  -0.75887  -0.74731  -0.72547
 Alpha  occ. eigenvalues --   -0.72024  -0.71522  -0.69934  -0.69546  -0.69287
 Alpha  occ. eigenvalues --   -0.67568  -0.66305  -0.64225  -0.62473  -0.61052
 Alpha  occ. eigenvalues --   -0.60964  -0.60056  -0.58522  -0.58011  -0.57648
 Alpha  occ. eigenvalues --   -0.57064  -0.56504  -0.55752  -0.54504  -0.53967
 Alpha  occ. eigenvalues --   -0.52745  -0.52263  -0.51148  -0.50913  -0.50118
 Alpha  occ. eigenvalues --   -0.49378  -0.48918  -0.48374  -0.47821  -0.47368
 Alpha  occ. eigenvalues --   -0.47233  -0.46946  -0.46468  -0.45970  -0.45534
 Alpha  occ. eigenvalues --   -0.45138  -0.44941  -0.44202  -0.43864  -0.43567
 Alpha  occ. eigenvalues --   -0.43462  -0.43143  -0.42960  -0.42766  -0.42336
 Alpha  occ. eigenvalues --   -0.42240  -0.42004  -0.41649  -0.41340  -0.41310
 Alpha  occ. eigenvalues --   -0.41110  -0.40624  -0.40357  -0.40144  -0.40048
 Alpha  occ. eigenvalues --   -0.39868  -0.39492  -0.39478  -0.38864  -0.38692
 Alpha  occ. eigenvalues --   -0.38466  -0.38060  -0.37767  -0.37616  -0.37296
 Alpha  occ. eigenvalues --   -0.36673  -0.36477  -0.35938  -0.35315  -0.34985
 Alpha  occ. eigenvalues --   -0.34540  -0.34170  -0.33374  -0.32493  -0.31576
 Alpha  occ. eigenvalues --   -0.31464  -0.30257  -0.29213  -0.27982  -0.27198
 Alpha  occ. eigenvalues --   -0.26391  -0.25876  -0.25470  -0.25156  -0.24485
 Alpha  occ. eigenvalues --   -0.24155  -0.23965  -0.23802  -0.22867  -0.18740
 Alpha virt. eigenvalues --   -0.10581  -0.06184  -0.05258  -0.00344  -0.00058
 Alpha virt. eigenvalues --    0.01823   0.02083   0.02220   0.02959   0.03409
 Alpha virt. eigenvalues --    0.03788   0.04469   0.05054   0.05537   0.05861
 Alpha virt. eigenvalues --    0.05915   0.06914   0.07285   0.07548   0.07829
 Alpha virt. eigenvalues --    0.08229   0.08457   0.09100   0.09411   0.09736
 Alpha virt. eigenvalues --    0.09888   0.10174   0.10329   0.10725   0.10932
 Alpha virt. eigenvalues --    0.11190   0.11403   0.12435   0.12614   0.12930
 Alpha virt. eigenvalues --    0.13082   0.13262   0.13909   0.14002   0.14879
 Alpha virt. eigenvalues --    0.15037   0.15364   0.15920   0.16130   0.16245
 Alpha virt. eigenvalues --    0.16687   0.16913   0.17937   0.18336   0.18593
 Alpha virt. eigenvalues --    0.19005   0.19257   0.19981   0.20269   0.20517
 Alpha virt. eigenvalues --    0.20769   0.21306   0.22048   0.22356   0.22726
 Alpha virt. eigenvalues --    0.23085   0.23560   0.24093   0.24830   0.25198
 Alpha virt. eigenvalues --    0.25364   0.26057   0.26293   0.26457   0.26756
 Alpha virt. eigenvalues --    0.27342   0.27925   0.28304   0.28905   0.29228
 Alpha virt. eigenvalues --    0.30150   0.30369   0.30754   0.31222   0.32073
 Alpha virt. eigenvalues --    0.32449   0.32903   0.33101   0.33913   0.34510
 Alpha virt. eigenvalues --    0.34886   0.35097   0.35604   0.36427   0.36660
 Alpha virt. eigenvalues --    0.37618   0.37741   0.37871   0.38463   0.39585
 Alpha virt. eigenvalues --    0.40284   0.40815   0.41473   0.41689   0.42092
 Alpha virt. eigenvalues --    0.42624   0.42783   0.43494   0.44158   0.44253
 Alpha virt. eigenvalues --    0.44456   0.45308   0.45589   0.45735   0.46061
 Alpha virt. eigenvalues --    0.46227   0.46664   0.47253   0.47498   0.47557
 Alpha virt. eigenvalues --    0.47636   0.47948   0.48362   0.48669   0.48781
 Alpha virt. eigenvalues --    0.49088   0.49952   0.50078   0.50441   0.50608
 Alpha virt. eigenvalues --    0.50937   0.51350   0.51601   0.51865   0.52325
 Alpha virt. eigenvalues --    0.52637   0.52750   0.52907   0.53166   0.53623
 Alpha virt. eigenvalues --    0.53907   0.55066   0.55444   0.55770   0.56255
 Alpha virt. eigenvalues --    0.56753   0.57287   0.57540   0.58261   0.58959
 Alpha virt. eigenvalues --    0.59158   0.59363   0.59948   0.60142   0.60347
 Alpha virt. eigenvalues --    0.60409   0.60763   0.60883   0.61223   0.61728
 Alpha virt. eigenvalues --    0.62059   0.62184   0.62591   0.62859   0.63124
 Alpha virt. eigenvalues --    0.63210   0.63573   0.63689   0.64065   0.64297
 Alpha virt. eigenvalues --    0.64456   0.64548   0.64944   0.65014   0.65228
 Alpha virt. eigenvalues --    0.65535   0.65668   0.65757   0.65775   0.66167
 Alpha virt. eigenvalues --    0.66506   0.66981   0.67129   0.67563   0.67806
 Alpha virt. eigenvalues --    0.67833   0.68026   0.68268   0.68606   0.68957
 Alpha virt. eigenvalues --    0.69025   0.69350   0.69467   0.69557   0.69839
 Alpha virt. eigenvalues --    0.70018   0.70304   0.70465   0.70691   0.71121
 Alpha virt. eigenvalues --    0.71627   0.71791   0.72615   0.72722   0.72983
 Alpha virt. eigenvalues --    0.73061   0.73392   0.73816   0.74079   0.74666
 Alpha virt. eigenvalues --    0.74978   0.75509   0.75787   0.76122   0.76425
 Alpha virt. eigenvalues --    0.76752   0.77028   0.77298   0.77794   0.78550
 Alpha virt. eigenvalues --    0.79907   0.80124   0.80352   0.80602   0.81745
 Alpha virt. eigenvalues --    0.82017   0.82948   0.83204   0.84175   0.84318
 Alpha virt. eigenvalues --    0.84768   0.85148   0.85455   0.85769   0.86768
 Alpha virt. eigenvalues --    0.87531   0.88312   0.88813   0.88895   0.89870
 Alpha virt. eigenvalues --    0.90119   0.91109   0.92237   0.93105   0.93349
 Alpha virt. eigenvalues --    0.93927   0.94933   0.95632   0.95865   0.96140
 Alpha virt. eigenvalues --    0.97220   0.97907   0.98538   0.99185   0.99983
 Alpha virt. eigenvalues --    1.00483   1.01094   1.01690   1.01954   1.02232
 Alpha virt. eigenvalues --    1.03681   1.04492   1.05436   1.06782   1.07436
 Alpha virt. eigenvalues --    1.07788   1.08520   1.09236   1.09706   1.10058
 Alpha virt. eigenvalues --    1.10950   1.11444   1.12303   1.12880   1.12906
 Alpha virt. eigenvalues --    1.13437   1.14162   1.15003   1.15650   1.16160
 Alpha virt. eigenvalues --    1.16887   1.17507   1.17960   1.19054   1.20010
 Alpha virt. eigenvalues --    1.20853   1.21156   1.21541   1.21817   1.22460
 Alpha virt. eigenvalues --    1.22807   1.23290   1.24027   1.24606   1.25170
 Alpha virt. eigenvalues --    1.25472   1.26182   1.26339   1.27058   1.27371
 Alpha virt. eigenvalues --    1.27921   1.28095   1.28448   1.28952   1.29418
 Alpha virt. eigenvalues --    1.30355   1.30678   1.31743   1.32376   1.32770
 Alpha virt. eigenvalues --    1.32918   1.33643   1.33900   1.34745   1.35528
 Alpha virt. eigenvalues --    1.37468   1.37538   1.38001   1.38874   1.39816
 Alpha virt. eigenvalues --    1.40461   1.41366   1.41839   1.43369   1.44279
 Alpha virt. eigenvalues --    1.45174   1.45886   1.46528   1.48261   1.48994
 Alpha virt. eigenvalues --    1.49863   1.50667   1.50995   1.51117   1.51401
 Alpha virt. eigenvalues --    1.51667   1.52320   1.52524   1.52555   1.52995
 Alpha virt. eigenvalues --    1.53242   1.53404   1.54626   1.55099   1.55757
 Alpha virt. eigenvalues --    1.56562   1.57345   1.57993   1.58508   1.58767
 Alpha virt. eigenvalues --    1.59493   1.60374   1.61169   1.61716   1.61783
 Alpha virt. eigenvalues --    1.62647   1.63093   1.64064   1.64877   1.65704
 Alpha virt. eigenvalues --    1.65846   1.66317   1.66712   1.67610   1.67630
 Alpha virt. eigenvalues --    1.68747   1.68950   1.69328   1.69896   1.71501
 Alpha virt. eigenvalues --    1.71855   1.72086   1.72511   1.73072   1.73189
 Alpha virt. eigenvalues --    1.73753   1.73810   1.74620   1.75132   1.75479
 Alpha virt. eigenvalues --    1.75597   1.76019   1.76318   1.76533   1.77183
 Alpha virt. eigenvalues --    1.77677   1.77921   1.78309   1.78540   1.78890
 Alpha virt. eigenvalues --    1.79139   1.79778   1.79953   1.80073   1.80592
 Alpha virt. eigenvalues --    1.80900   1.81463   1.82096   1.82278   1.82451
 Alpha virt. eigenvalues --    1.82795   1.83234   1.83415   1.83603   1.84035
 Alpha virt. eigenvalues --    1.84103   1.84401   1.84591   1.85012   1.86029
 Alpha virt. eigenvalues --    1.86616   1.86750   1.87387   1.87728   1.88242
 Alpha virt. eigenvalues --    1.88309   1.89138   1.89694   1.90725   1.90972
 Alpha virt. eigenvalues --    1.91268   1.91764   1.92464   1.92791   1.93230
 Alpha virt. eigenvalues --    1.93782   1.94327   1.94682   1.95165   1.95760
 Alpha virt. eigenvalues --    1.96068   1.97318   1.97335   1.98286   1.98341
 Alpha virt. eigenvalues --    1.98902   1.99140   1.99742   2.00727   2.00832
 Alpha virt. eigenvalues --    2.01804   2.02293   2.02823   2.03474   2.03973
 Alpha virt. eigenvalues --    2.04845   2.04935   2.05749   2.06458   2.07133
 Alpha virt. eigenvalues --    2.07553   2.07721   2.08505   2.08764   2.09177
 Alpha virt. eigenvalues --    2.09432   2.10322   2.10569   2.10951   2.11994
 Alpha virt. eigenvalues --    2.13024   2.13732   2.14236   2.14393   2.14853
 Alpha virt. eigenvalues --    2.15506   2.15811   2.16217   2.17835   2.18590
 Alpha virt. eigenvalues --    2.18772   2.19092   2.20340   2.20597   2.20988
 Alpha virt. eigenvalues --    2.21180   2.22126   2.22375   2.22438   2.23257
 Alpha virt. eigenvalues --    2.24064   2.24566   2.25244   2.25910   2.27770
 Alpha virt. eigenvalues --    2.27924   2.28046   2.30773   2.31309   2.32252
 Alpha virt. eigenvalues --    2.32684   2.33483   2.33964   2.34664   2.35455
 Alpha virt. eigenvalues --    2.35889   2.36482   2.36535   2.37040   2.37560
 Alpha virt. eigenvalues --    2.37985   2.38757   2.39422   2.39727   2.40030
 Alpha virt. eigenvalues --    2.40157   2.41807   2.42217   2.43358   2.43601
 Alpha virt. eigenvalues --    2.44531   2.45127   2.45617   2.45788   2.46708
 Alpha virt. eigenvalues --    2.47590   2.47881   2.48213   2.50745   2.51510
 Alpha virt. eigenvalues --    2.52418   2.52850   2.54208   2.55279   2.55423
 Alpha virt. eigenvalues --    2.55486   2.56794   2.58202   2.59069   2.60355
 Alpha virt. eigenvalues --    2.60957   2.62414   2.62673   2.62911   2.63373
 Alpha virt. eigenvalues --    2.63883   2.65040   2.65656   2.65919   2.66836
 Alpha virt. eigenvalues --    2.67045   2.67793   2.68692   2.69565   2.69697
 Alpha virt. eigenvalues --    2.69830   2.70754   2.71807   2.72343   2.72700
 Alpha virt. eigenvalues --    2.73593   2.74013   2.74237   2.74774   2.75310
 Alpha virt. eigenvalues --    2.76317   2.77560   2.77883   2.78289   2.78477
 Alpha virt. eigenvalues --    2.79179   2.79508   2.80825   2.81783   2.82422
 Alpha virt. eigenvalues --    2.82918   2.83935   2.84553   2.86172   2.86962
 Alpha virt. eigenvalues --    2.87322   2.88136   2.88224   2.89504   2.90290
 Alpha virt. eigenvalues --    2.90370   2.90661   2.90922   2.91598   2.92066
 Alpha virt. eigenvalues --    2.92926   2.93584   2.94185   2.94660   2.95139
 Alpha virt. eigenvalues --    2.95309   2.96135   2.96682   2.97407   2.98236
 Alpha virt. eigenvalues --    2.98968   2.99438   2.99586   3.00094   3.01464
 Alpha virt. eigenvalues --    3.02584   3.04292   3.05601   3.07001   3.08342
 Alpha virt. eigenvalues --    3.09080   3.09299   3.13502   3.14186   3.14729
 Alpha virt. eigenvalues --    3.18158   3.18409   3.20483   3.20784   3.20871
 Alpha virt. eigenvalues --    3.22599   3.25070   3.26165   3.27801   3.31300
 Alpha virt. eigenvalues --    3.35712   3.36968   3.37918   3.39465   3.49929
 Alpha virt. eigenvalues --    3.55251   3.55635   3.57170   3.57889   3.58069
 Alpha virt. eigenvalues --    3.58389   3.59865   3.62255   3.66846   3.71204
 Alpha virt. eigenvalues --    3.76283   3.78961
          Condensed to atoms (all electrons):
 Mulliken charges:
               1
     1  O   -0.240466
     2  O   -0.187558
     3  O   -0.250518
     4  O   -0.194429
     5  O   -0.241179
     6  O   -0.178574
     7  N   -0.008936
     8  N   -0.157910
     9  N   -0.040327
    10  N   -0.198444
    11  C    0.083010
    12  C    0.193002
    13  C   -0.149488
    14  C   -0.143309
    15  C   -0.103199
    16  C    0.005908
    17  C   -0.204086
    18  C    0.101378
    19  C   -0.000989
    20  C   -0.131859
    21  C    0.099198
    22  C    0.089129
    23  C   -0.085927
    24  C    0.098974
    25  C    0.098826
    26  C   -0.159621
    27  C   -0.012536
    28  C    0.174249
    29  C    0.133703
    30  C    0.004380
    31  C   -0.017264
    32  C    0.119838
    33  C   -0.149696
    34  C    0.141531
    35  C    0.024689
    36  C   -0.018644
    37  C    0.136218
    38  C    0.045805
    39  C   -0.205895
    40  C    0.111915
    41  C   -0.013290
    42  C    0.109487
    43  C   -0.009991
    44  H    0.022385
    45  H   -0.023716
    46  H    0.017317
    47  H    0.134574
    48  H    0.141458
    49  H    0.009727
    50  H    0.011261
    51  H   -0.026271
    52  H   -0.001991
    53  H    0.024879
    54  H    0.042801
    55  H    0.025232
    56  H    0.033354
    57  H    0.018203
    58  H    0.064152
    59  H    0.023771
    60  H    0.156334
    61  H    0.010163
    62  H    0.024030
    63  H    0.008626
    64  H    0.043868
    65  H    0.045525
    66  H    0.011976
    67  H    0.032860
    68  H    0.033861
    69  H   -0.051603
    70  H    0.003081
    71  H    0.024468
    72  H    0.188408
    73  H   -0.013466
    74  H    0.004745
    75  H    0.033541
    76  H    0.032127
    77  H    0.195370
    78  H    0.019090
    79  H    0.012760
 Sum of Mulliken charges =   0.00000
 Mulliken charges with hydrogens summed into heavy atoms:
               1
     1  O   -0.240466
     2  O    0.000850
     3  O   -0.250518
     4  O    0.000941
     5  O   -0.241179
     6  O   -0.178574
     7  N    0.125638
     8  N   -0.016452
     9  N    0.116007
    10  N   -0.198444
    11  C    0.105394
    12  C    0.186602
    13  C   -0.149488
    14  C   -0.143309
    15  C   -0.103199
    16  C    0.005908
    17  C   -0.204086
    18  C    0.122367
    19  C   -0.000989
    20  C   -0.158130
    21  C    0.099198
    22  C    0.089129
    23  C   -0.085927
    24  C    0.164663
    25  C    0.175614
    26  C   -0.159621
    27  C    0.075388
    28  C    0.174249
    29  C    0.167896
    30  C    0.013006
    31  C    0.072129
    32  C    0.198534
    33  C   -0.201299
    34  C    0.141531
    35  C    0.024689
    36  C    0.008905
    37  C    0.136218
    38  C    0.045805
    39  C   -0.205895
    40  C    0.111915
    41  C   -0.026757
    42  C    0.179899
    43  C    0.021859
 Electronic spatial extent (au):  <R**2>=          32748.4378
 Charge=              0.0000 electrons
 Dipole moment (field-independent basis, Debye):
    X=              0.0301    Y=              4.4105    Z=              3.9650  Tot=              5.9308
 Quadrupole moment (field-independent basis, Debye-Ang):
   XX=           -214.0963   YY=           -243.5122   ZZ=           -268.9304
   XY=             10.5633   XZ=             32.3697   YZ=             -0.9528
 Traceless Quadrupole moment (field-independent basis, Debye-Ang):
   XX=             28.0833   YY=             -1.3326   ZZ=            -26.7507
   XY=             10.5633   XZ=             32.3697   YZ=             -0.9528
 Octapole moment (field-independent basis, Debye-Ang**2):
  XXX=            -24.3041  YYY=            144.1037  ZZZ=             66.6550  XYY=            -79.6321
  XXY=            -20.5994  XXZ=             87.8563  XZZ=            -52.1774  YZZ=            -10.7556
  YYZ=            139.3672  XYZ=            -27.1913
 Hexadecapole moment (field-independent basis, Debye-Ang**3):
 XXXX=         -24346.4098 YYYY=         -11769.0317 ZZZZ=          -4199.6324 XXXY=            304.1967
 XXXZ=            700.8505 YYYX=            217.3851 YYYZ=            918.2762 ZZZX=            158.2242
 ZZZY=           -202.0793 XXYY=          -6241.8443 XXZZ=          -5416.4849 YYZZ=          -2801.1364
 XXYZ=           -210.8515 YYXZ=           -198.6725 ZZXY=            128.2640
 N-N= 4.928807889946D+03 E-N=-1.438781891329D+04  KE= 1.928551066135D+03
 Calling FoFJK, ICntrl=      2127 FMM=T ISym2X=0 I1Cent= 0 IOpClX= 0 NMat=1 NMatS=1 NMatT=0.
 ***** Axes restored to original set *****
 -------------------------------------------------------------------
 Center     Atomic                   Forces (Hartrees/Bohr)
 Number     Number              X              Y              Z
 -------------------------------------------------------------------
      1        8           0.006248236    0.002204128    0.008096811
      2        8           0.040924557   -0.003728162    0.015577208
      3        8           0.014358340    0.002320527    0.003354840
      4        8           0.010543286    0.014838826   -0.041795922
      5        8           0.001756773    0.002056549   -0.016870224
      6        8          -0.003764363    0.002394815    0.001488922
      7        7           0.005971669   -0.017156663    0.033248605
      8        7          -0.020277071   -0.003107417   -0.023964140
      9        7           0.018471157    0.009592684   -0.019355072
     10        7           0.027231238   -0.031676790   -0.009381294
     11        6          -0.001722428   -0.002953507   -0.003877150
     12        6          -0.010769835   -0.001164296   -0.001121010
     13        6           0.035752620   -0.022137172   -0.011905499
     14        6           0.014892979   -0.007232911   -0.004499520
     15        6          -0.015407236    0.012181767    0.000081555
     16        6          -0.062050391    0.032184067    0.012040517
     17        6           0.012236934   -0.008023213   -0.004216348
     18        6          -0.003589532   -0.004366115    0.001566128
     19        6           0.015128620   -0.020759267   -0.006715107
     20        6           0.038509359   -0.025501344   -0.017935196
     21        6           0.031238655   -0.034698507   -0.007857400
     22        6           0.011802713    0.036152059    0.052155634
     23        6          -0.047405100    0.020734153    0.028420024
     24        6           0.000627646   -0.003626026    0.001829168
     25        6          -0.007390577    0.008197496   -0.003975899
     26        6          -0.033194868   -0.040826233    0.035903373
     27        6           0.009264337    0.005676246   -0.000562378
     28        6           0.023293651    0.027442629   -0.025029036
     29        6           0.004066680    0.000994785   -0.003672195
     30        6          -0.017183625    0.002597531   -0.011797887
     31        6          -0.003740990   -0.006093562   -0.011764225
     32        6           0.004554656    0.002261352   -0.004472218
     33        6           0.025589478    0.058498742   -0.035391756
     34        6          -0.054359050    0.003460659   -0.019388913
     35        6          -0.047494208   -0.016992549    0.036398994
     36        6           0.001770608    0.005061594    0.006325621
     37        6          -0.014100257   -0.018979147    0.056755373
     38        6          -0.032604104    0.025631081    0.011825998
     39        6          -0.015504582    0.032781766   -0.001714490
     40        6           0.031224068   -0.023758246   -0.005786494
     41        6           0.021265233   -0.011472103   -0.011847784
     42        6           0.005755666   -0.007068153    0.003719694
     43        6          -0.007129819   -0.001011868    0.004947120
     44        1          -0.002758461   -0.005138953   -0.001129464
     45        1           0.002403279    0.000903975   -0.006654919
     46        1           0.002660951    0.002470178    0.003690265
     47        1          -0.000116432    0.011988196   -0.024204973
     48        1           0.013464047   -0.011435317   -0.000854565
     49        1          -0.000922654    0.003662753    0.003664831
     50        1           0.003889008   -0.001413603   -0.006263561
     51        1          -0.003495558   -0.003300797    0.005952311
     52        1          -0.004627240    0.002548513   -0.001193645
     53        1           0.004707394    0.005084598   -0.000189694
     54        1          -0.001299127   -0.004053380   -0.003911660
     55        1          -0.004132530   -0.004126677    0.001178804
     56        1           0.003995885    0.001249730   -0.002809702
     57        1           0.000352884    0.000671245    0.005218564
     58        1           0.002534829    0.002451501   -0.005254487
     59        1           0.001709430    0.003326298    0.002581930
     60        1          -0.016015470    0.007423509    0.011356336
     61        1           0.006647149    0.000091374   -0.000702102
     62        1          -0.006400438   -0.000640869   -0.003136247
     63        1          -0.004232625    0.009029026    0.001540841
     64        1          -0.005707366    0.002797767   -0.002021243
     65        1           0.005394942   -0.005176198   -0.000976350
     66        1           0.004376767    0.000582224   -0.002694763
     67        1           0.001732972    0.001623807    0.005733478
     68        1          -0.004961859   -0.001780836   -0.003390687
     69        1          -0.004950349    0.002930560    0.001832805
     70        1          -0.003796677   -0.009666240   -0.009385535
     71        1           0.004909424   -0.001392646    0.002673978
     72        1          -0.014601379   -0.014788922    0.005347652
     73        1          -0.001061605   -0.007120844    0.007966776
     74        1          -0.004505294   -0.002335457    0.000044501
     75        1          -0.001471946   -0.003316267   -0.006485044
     76        1           0.002317461    0.002995141    0.004590340
     77        1           0.005996696    0.010622507    0.017347597
     78        1          -0.004187777    0.003675236    0.001622926
     79        1           0.007360549    0.004628665   -0.009923720
 -------------------------------------------------------------------
 Cartesian Forces:  Max     0.062050391 RMS     0.016411080

 GradGradGradGradGradGradGradGradGradGradGradGradGradGradGradGradGradGrad
 Berny optimization.
 FormGI is forming the generalized inverse of G from B-inverse, IUseBI=4.
 GSVD:  received Info=                   1 from GESDD.
 Internal  Forces:  Max     0.051411900 RMS     0.009509970
 Search for a local minimum.
 Step number   1 out of a maximum of  430
 All quantities printed in internal units (Hartrees-Bohrs-Radians)
 Mixed Optimization -- RFO/linear search
 Second derivative matrix not updated -- first step.
 ITU=  0
     Eigenvalues ---    0.00230   0.00241   0.00253   0.00562   0.00562
     Eigenvalues ---    0.00667   0.00668   0.00676   0.00676   0.00683
[...]
 Alpha  occ. eigenvalues --   -0.71935  -0.71471  -0.69707  -0.69197  -0.68881
 Alpha  occ. eigenvalues --   -0.67147  -0.66262  -0.63928  -0.61360  -0.60751
 Alpha  occ. eigenvalues --   -0.60460  -0.58944  -0.58470  -0.57987  -0.57026
 Alpha  occ. eigenvalues --   -0.56375  -0.56037  -0.55222  -0.54097  -0.53252
 Alpha  occ. eigenvalues --   -0.52165  -0.51871  -0.51230  -0.50761  -0.50128
 Alpha  occ. eigenvalues --   -0.49037  -0.48889  -0.48475  -0.48122  -0.47227
 Alpha  occ. eigenvalues --   -0.47118  -0.47017  -0.46567  -0.46272  -0.45536
 Alpha  occ. eigenvalues --   -0.45187  -0.45100  -0.44101  -0.43763  -0.43592
 Alpha  occ. eigenvalues --   -0.43435  -0.43149  -0.42793  -0.42723  -0.42579
 Alpha  occ. eigenvalues --   -0.42519  -0.42398  -0.41882  -0.41650  -0.41228
 Alpha  occ. eigenvalues --   -0.40979  -0.40666  -0.40481  -0.40286  -0.40102
 Alpha  occ. eigenvalues --   -0.39836  -0.39727  -0.39362  -0.39157  -0.38934
 Alpha  occ. eigenvalues --   -0.38798  -0.38691  -0.38370  -0.37994  -0.37653
 Alpha  occ. eigenvalues --   -0.36969  -0.36385  -0.35932  -0.35518  -0.35066
 Alpha  occ. eigenvalues --   -0.34655  -0.34217  -0.33423  -0.33299  -0.31904
 Alpha  occ. eigenvalues --   -0.31254  -0.30939  -0.29213  -0.28835  -0.27529
 Alpha  occ. eigenvalues --   -0.26832  -0.26705  -0.26228  -0.25802  -0.24730
 Alpha  occ. eigenvalues --   -0.24471  -0.23989  -0.23809  -0.22361  -0.19180
 Alpha virt. eigenvalues --   -0.10487  -0.06006  -0.05648  -0.00411  -0.00162
 Alpha virt. eigenvalues --    0.01224   0.01639   0.02362   0.03297   0.03671
 Alpha virt. eigenvalues --    0.04421   0.04923   0.05023   0.05834   0.06086
 Alpha virt. eigenvalues --    0.06289   0.06775   0.07194   0.07533   0.07799
 Alpha virt. eigenvalues --    0.08234   0.08438   0.08872   0.09030   0.09687
 Alpha virt. eigenvalues --    0.09897   0.09951   0.10404   0.10897   0.11171
 Alpha virt. eigenvalues --    0.11583   0.12258   0.12724   0.12751   0.13021
 Alpha virt. eigenvalues --    0.13172   0.13628   0.13820   0.14373   0.14576
 Alpha virt. eigenvalues --    0.14849   0.15468   0.15610   0.16007   0.16232
 Alpha virt. eigenvalues --    0.16553   0.17155   0.17248   0.17263   0.18034
 Alpha virt. eigenvalues --    0.18701   0.19132   0.19780   0.19896   0.20614
 Alpha virt. eigenvalues --    0.20886   0.21977   0.22363   0.22672   0.22803
 Alpha virt. eigenvalues --    0.23272   0.23674   0.24263   0.24501   0.24593
 Alpha virt. eigenvalues --    0.24837   0.25605   0.25771   0.26120   0.26467
 Alpha virt. eigenvalues --    0.26835   0.27253   0.28055   0.28942   0.29027
 Alpha virt. eigenvalues --    0.29678   0.29725   0.30453   0.31031   0.31464
 Alpha virt. eigenvalues --    0.31707   0.32345   0.32975   0.33821   0.34262
 Alpha virt. eigenvalues --    0.34507   0.35057   0.35929   0.36669   0.36745
 Alpha virt. eigenvalues --    0.36878   0.37411   0.37509   0.38546   0.39452
 Alpha virt. eigenvalues --    0.39775   0.40491   0.41236   0.41370   0.42115
 Alpha virt. eigenvalues --    0.42409   0.42506   0.43207   0.43561   0.43847
 Alpha virt. eigenvalues --    0.44308   0.44469   0.44954   0.45158   0.45400
 Alpha virt. eigenvalues --    0.45743   0.46023   0.46160   0.46731   0.46983
 Alpha virt. eigenvalues --    0.47328   0.47689   0.47968   0.48252   0.48359
 Alpha virt. eigenvalues --    0.48917   0.49643   0.49866   0.50103   0.50244
 Alpha virt. eigenvalues --    0.50499   0.50636   0.51292   0.51603   0.51704
 Alpha virt. eigenvalues --    0.52386   0.52506   0.53099   0.53363   0.54057
 Alpha virt. eigenvalues --    0.54172   0.54378   0.55271   0.55544   0.56053
 Alpha virt. eigenvalues --    0.56164   0.56540   0.57751   0.58018   0.58287
 Alpha virt. eigenvalues --    0.59076   0.59250   0.59478   0.59746   0.59945
 Alpha virt. eigenvalues --    0.60245   0.60574   0.60955   0.61159   0.61568
 Alpha virt. eigenvalues --    0.61818   0.62180   0.62437   0.62625   0.63034
 Alpha virt. eigenvalues --    0.63256   0.63615   0.63750   0.63892   0.64059
 Alpha virt. eigenvalues --    0.64475   0.64580   0.64853   0.65104   0.65328
 Alpha virt. eigenvalues --    0.65476   0.65709   0.66046   0.66318   0.66461
 Alpha virt. eigenvalues --    0.66595   0.66804   0.67061   0.67128   0.67556
 Alpha virt. eigenvalues --    0.67610   0.67684   0.68129   0.68267   0.68512
 Alpha virt. eigenvalues --    0.68978   0.69039   0.69140   0.69332   0.69609
 Alpha virt. eigenvalues --    0.69644   0.70083   0.70234   0.70695   0.70781
 Alpha virt. eigenvalues --    0.70905   0.71337   0.71670   0.72089   0.72573
 Alpha virt. eigenvalues --    0.72735   0.73049   0.73194   0.73851   0.74281
 Alpha virt. eigenvalues --    0.74721   0.74951   0.75545   0.75617   0.76359
 Alpha virt. eigenvalues --    0.76543   0.77035   0.77489   0.77780   0.78657
 Alpha virt. eigenvalues --    0.78761   0.78995   0.79797   0.79877   0.80259
 Alpha virt. eigenvalues --    0.81897   0.82230   0.82469   0.83310   0.83861
 Alpha virt. eigenvalues --    0.84236   0.84530   0.85020   0.85590   0.86319
 Alpha virt. eigenvalues --    0.87051   0.88567   0.88735   0.89187   0.90137
 Alpha virt. eigenvalues --    0.90561   0.91088   0.92085   0.92523   0.94080
 Alpha virt. eigenvalues --    0.94720   0.95313   0.95636   0.95800   0.96202
 Alpha virt. eigenvalues --    0.96787   0.97064   0.97323   0.97869   0.98646
 Alpha virt. eigenvalues --    0.99493   0.99593   1.00719   1.01150   1.02078
 Alpha virt. eigenvalues --    1.02979   1.03942   1.05078   1.06390   1.07203
 Alpha virt. eigenvalues --    1.07420   1.07588   1.09053   1.09509   1.09906
 Alpha virt. eigenvalues --    1.11201   1.11498   1.11806   1.12805   1.13628
 Alpha virt. eigenvalues --    1.13723   1.13839   1.14545   1.15303   1.15839
 Alpha virt. eigenvalues --    1.16382   1.17956   1.18069   1.18300   1.18761
 Alpha virt. eigenvalues --    1.19315   1.19348   1.20352   1.20825   1.21624
 Alpha virt. eigenvalues --    1.21735   1.22447   1.22717   1.24336   1.24430
 Alpha virt. eigenvalues --    1.24759   1.25272   1.25733   1.26589   1.26790
 Alpha virt. eigenvalues --    1.27424   1.28252   1.28401   1.28822   1.29495
 Alpha virt. eigenvalues --    1.30325   1.30589   1.30836   1.31775   1.32584
 Alpha virt. eigenvalues --    1.33126   1.33236   1.34318   1.34875   1.35859
 Alpha virt. eigenvalues --    1.37113   1.37920   1.38092   1.38774   1.39101
 Alpha virt. eigenvalues --    1.40084   1.41050   1.41664   1.43403   1.43595
 Alpha virt. eigenvalues --    1.44286   1.45554   1.47386   1.48016   1.48958
 Alpha virt. eigenvalues --    1.49705   1.50415   1.50559   1.51329   1.51476
 Alpha virt. eigenvalues --    1.52173   1.52435   1.53062   1.53434   1.53816
 Alpha virt. eigenvalues --    1.54149   1.54357   1.54925   1.55806   1.56142
 Alpha virt. eigenvalues --    1.57301   1.58069   1.58316   1.58672   1.58824
 Alpha virt. eigenvalues --    1.59728   1.59823   1.61047   1.62069   1.62495
 Alpha virt. eigenvalues --    1.63060   1.63839   1.64083   1.64873   1.65973
 Alpha virt. eigenvalues --    1.66915   1.67229   1.67449   1.67563   1.67774
 Alpha virt. eigenvalues --    1.68564   1.68853   1.69580   1.69896   1.70219
 Alpha virt. eigenvalues --    1.70639   1.71283   1.71558   1.72246   1.72763
 Alpha virt. eigenvalues --    1.73444   1.73859   1.74022   1.74418   1.75019
 Alpha virt. eigenvalues --    1.75563   1.75797   1.76454   1.76752   1.77363
 Alpha virt. eigenvalues --    1.77704   1.78043   1.78458   1.78764   1.78936
 Alpha virt. eigenvalues --    1.79115   1.79565   1.80064   1.80158   1.80888
 Alpha virt. eigenvalues --    1.81161   1.81297   1.81609   1.81916   1.82315
 Alpha virt. eigenvalues --    1.82543   1.82688   1.82866   1.83259   1.83924
 Alpha virt. eigenvalues --    1.84477   1.84540   1.84892   1.85371   1.85863
 Alpha virt. eigenvalues --    1.85993   1.86522   1.87024   1.87141   1.87629
 Alpha virt. eigenvalues --    1.88043   1.88637   1.89140   1.89797   1.90325
 Alpha virt. eigenvalues --    1.90589   1.91492   1.91842   1.91964   1.92561
 Alpha virt. eigenvalues --    1.93202   1.94174   1.94384   1.94553   1.96438
 Alpha virt. eigenvalues --    1.96883   1.97123   1.97235   1.97728   1.98378
 Alpha virt. eigenvalues --    1.99229   1.99358   2.00115   2.00322   2.01248
 Alpha virt. eigenvalues --    2.01562   2.02313   2.02761   2.03711   2.04032
 Alpha virt. eigenvalues --    2.04155   2.04841   2.05208   2.05932   2.06737
 Alpha virt. eigenvalues --    2.07590   2.07972   2.08282   2.08630   2.08895
 Alpha virt. eigenvalues --    2.09588   2.09993   2.10538   2.10720   2.11156
 Alpha virt. eigenvalues --    2.12155   2.12287   2.12705   2.12969   2.13917
 Alpha virt. eigenvalues --    2.14772   2.15126   2.15619   2.16071   2.16550
 Alpha virt. eigenvalues --    2.17263   2.18039   2.18919   2.19374   2.19572
 Alpha virt. eigenvalues --    2.19935   2.20755   2.21097   2.22038   2.23604
 Alpha virt. eigenvalues --    2.24254   2.25338   2.26002   2.27529   2.28031
 Alpha virt. eigenvalues --    2.28125   2.29379   2.30380   2.31450   2.31778
 Alpha virt. eigenvalues --    2.32226   2.32855   2.33635   2.34090   2.34812
 Alpha virt. eigenvalues --    2.35130   2.35960   2.37000   2.37376   2.37911
 Alpha virt. eigenvalues --    2.38396   2.38949   2.39235   2.39874   2.40577
 Alpha virt. eigenvalues --    2.41001   2.41318   2.42068   2.42751   2.43363
 Alpha virt. eigenvalues --    2.44583   2.44795   2.44929   2.45307   2.46950
 Alpha virt. eigenvalues --    2.47280   2.48275   2.48686   2.49028   2.50486
 Alpha virt. eigenvalues --    2.51920   2.52329   2.52666   2.53420   2.54899
 Alpha virt. eigenvalues --    2.55647   2.56724   2.57679   2.58572   2.59049
 Alpha virt. eigenvalues --    2.60569   2.61632   2.62177   2.62579   2.62931
 Alpha virt. eigenvalues --    2.63981   2.64227   2.64662   2.65081   2.65513
 Alpha virt. eigenvalues --    2.66162   2.66764   2.67043   2.68077   2.68777
 Alpha virt. eigenvalues --    2.69332   2.70138   2.70723   2.71186   2.71652
 Alpha virt. eigenvalues --    2.72747   2.73562   2.74361   2.74459   2.74883
 Alpha virt. eigenvalues --    2.75142   2.75628   2.76149   2.77546   2.78011
 Alpha virt. eigenvalues --    2.78845   2.79028   2.79778   2.80128   2.81018
 Alpha virt. eigenvalues --    2.82643   2.84647   2.86456   2.86974   2.87979
 Alpha virt. eigenvalues --    2.88166   2.89286   2.89382   2.90260   2.90300
 Alpha virt. eigenvalues --    2.91246   2.91705   2.92026   2.92282   2.92555
 Alpha virt. eigenvalues --    2.92628   2.93049   2.93539   2.94614   2.94935
 Alpha virt. eigenvalues --    2.95362   2.95466   2.96842   2.97105   2.97459
 Alpha virt. eigenvalues --    2.98044   2.99126   2.99508   3.01948   3.04070
 Alpha virt. eigenvalues --    3.05703   3.07511   3.08896   3.09324   3.09579
 Alpha virt. eigenvalues --    3.10328   3.11209   3.12317   3.13508   3.14131
 Alpha virt. eigenvalues --    3.17345   3.18429   3.19367   3.19679   3.20829
 Alpha virt. eigenvalues --    3.21975   3.22795   3.24445   3.25159   3.29196
 Alpha virt. eigenvalues --    3.33659   3.36518   3.37215   3.38681   3.48700
 Alpha virt. eigenvalues --    3.50029   3.51117   3.53024   3.54139   3.56755
 Alpha virt. eigenvalues --    3.59054   3.63145   3.65280   3.66812   3.67953
 Alpha virt. eigenvalues --    3.75789   3.78263
          Condensed to atoms (all electrons):
 Mulliken charges:
               1
     1  O   -0.213817
     2  O   -0.175524
     3  O   -0.235369
     4  O   -0.177741
     5  O   -0.221480
     6  O   -0.203082
     7  N   -0.065840
     8  N   -0.200399
     9  N   -0.064374
    10  N   -0.280945
    11  C    0.092483
    12  C    0.210126
    13  C   -0.100014
    14  C   -0.141120
    15  C   -0.083565
    16  C    0.070688
    17  C   -0.188287
    18  C    0.097952
    19  C   -0.041246
    20  C   -0.107398
    21  C    0.105901
    22  C    0.141091
    23  C   -0.088157
    24  C    0.107293
    25  C    0.091571
    26  C   -0.138255
    27  C   -0.008841
    28  C    0.100853
    29  C    0.105933
    30  C   -0.009999
    31  C    0.002415
    32  C    0.118704
    33  C   -0.123377
    34  C    0.119571
    35  C    0.098854
    36  C   -0.026147
    37  C    0.125982
    38  C    0.063251
    39  C   -0.221127
    40  C    0.146818
    41  C   -0.029595
    42  C    0.096139
    43  C   -0.018596
    44  H    0.020668
    45  H   -0.010920
    46  H   -0.007124
    47  H    0.112843
    48  H    0.128324
    49  H    0.007053
    50  H    0.007947
    51  H   -0.014317
    52  H   -0.008824
    53  H    0.018362
    54  H    0.038005
    55  H    0.016747
    56  H    0.039453
    57  H    0.036346
    58  H    0.067612
    59  H    0.016675
    60  H    0.150509
    61  H    0.013217
    62  H    0.015064
    63  H    0.013135
    64  H    0.042929
    65  H    0.036408
    66  H    0.007143
    67  H    0.029129
    68  H    0.030310
    69  H   -0.036357
    70  H    0.011465
    71  H    0.028932
    72  H    0.173490
    73  H   -0.012042
    74  H    0.032115
    75  H    0.024827
    76  H    0.022850
    77  H    0.181492
    78  H    0.021487
    79  H    0.013719
 Sum of Mulliken charges =   0.00000
 Mulliken charges with hydrogens summed into heavy atoms:
               1
     1  O   -0.213817
     2  O   -0.002034
     3  O   -0.235369
     4  O    0.003751
     5  O   -0.221480
     6  O   -0.203082
     7  N    0.047002
     8  N   -0.072075
     9  N    0.086135
    10  N   -0.280945
    11  C    0.113151
    12  C    0.192081
    13  C   -0.100014
    14  C   -0.141120
    15  C   -0.083565
    16  C    0.070688
    17  C   -0.188287
    18  C    0.112952
    19  C   -0.041246
    20  C   -0.121715
    21  C    0.105901
    22  C    0.141091
    23  C   -0.088157
    24  C    0.154836
    25  C    0.184117
    26  C   -0.138255
    27  C    0.075447
    28  C    0.100853
    29  C    0.134214
    30  C    0.003135
    31  C    0.081752
    32  C    0.185286
    33  C   -0.159734
    34  C    0.119571
    35  C    0.098854
    36  C    0.014250
    37  C    0.125982
    38  C    0.063251
    39  C   -0.221127
    40  C    0.146818
    41  C   -0.041636
    42  C    0.175931
    43  C    0.016609
 Electronic spatial extent (au):  <R**2>=          32403.3525
 Charge=              0.0000 electrons
 Dipole moment (field-independent basis, Debye):
    X=              0.5887    Y=              2.6502    Z=              3.1554  Tot=              4.1626
 Quadrupole moment (field-independent basis, Debye-Ang):
   XX=           -218.4299   YY=           -244.2054   ZZ=           -263.5893
   XY=            -11.7797   XZ=             34.1537   YZ=              3.0298
 Traceless Quadrupole moment (field-independent basis, Debye-Ang):
   XX=             23.6450   YY=             -2.1305   ZZ=            -21.5144
   XY=            -11.7797   XZ=             34.1537   YZ=              3.0298
 Octapole moment (field-independent basis, Debye-Ang**2):
  XXX=             19.4264  YYY=            154.5178  ZZZ=             86.3040  XYY=            -80.5681
  XXY=            -66.6591  XXZ=             67.4242  XZZ=            -69.0482  YZZ=            -21.8304
  YYZ=             75.8037  XYZ=              5.0185
 Hexadecapole moment (field-independent basis, Debye-Ang**3):
 XXXX=         -23818.5412 YYYY=         -11552.7936 ZZZZ=          -4963.0606 XXXY=           -111.9800
 XXXZ=            688.9907 YYYX=           -195.2875 YYYZ=            741.0319 ZZZX=             97.2146
 ZZZY=           -132.5187 XXYY=          -6067.8462 XXZZ=          -5329.1744 YYZZ=          -2806.5626
 XXYZ=           -125.2807 YYXZ=             56.9681 ZZXY=             92.2397
 N-N= 4.917985274346D+03 E-N=-1.436570458453D+04  KE= 1.928085708205D+03
 1\1\GINC-PADAWAN-42\FOpt\RB3LYP\SVP\C33H36N4O6\PADAWAN\29-Mar-2019\0\\
 #n B3LYP/SVP Opt\\dihydrobiliverdin-s0-geom\\0,1\O,5.0191523418,-1.642
 0421798,3.6211390266\O,-0.9946317372,2.037836063,-4.7420409008\O,-2.60
 75215139,0.9353603564,-3.6483133285\O,-5.8956153707,-4.0406365931,2.32
 22810186\O,-4.49144744,-3.6290453204,4.0220815715\O,1.0205716907,3.664
 4022962,-2.3050673494\N,1.1602926894,-2.3347288085,0.4385266644\N,4.08
 30024662,-1.8080804831,1.5066068104\N,-1.709725587,0.9690446428,0.4292
 140427\N,-0.732772236,3.057150992,-0.9067962992\C,4.448020142,-2.37415
 56654,0.2237822031\C,3.3255551319,-3.2613090059,-0.3846823615\C,2.0305
 854736,-2.5430570311,-0.5961090449\C,1.4847769177,-1.9468581352,-1.734
 9601612\C,0.2498950586,-1.3360862567,-1.3529780096\C,0.0737611501,-1.5
 789857353,0.0249704891\C,5.7071312052,-3.1579306856,0.5489077697\C,-0.
 7646485583,-0.7418926422,-2.2926478895\C,6.002926235,-3.0300792729,1.8
 6785695\C,-0.998174664,-1.3346641574,0.9550731712\C,-1.8246286894,-0.2
 476730071,1.0833571375\C,5.011571089,-2.0867803987,2.491684328\C,-2.97
 20092419,-0.1213156278,1.9853428658\C,2.0659621469,-1.9925242017,-3.11
 89132097\C,6.436992526,-3.9173729112,-0.5114663238\C,-3.4816017254,1.1
 480021663,1.845510031\C,-0.2880202564,0.4590235014,-3.1212798191\C,-2.
 6452700646,1.8478603222,0.876736812\C,-3.5003288772,-1.2347066087,2.84
 13588036\C,7.0798988112,-3.5643011106,2.6950179097\C,-4.4721776985,-2.
 1604719889,2.0954157822\C,-4.6514505318,1.7732627434,2.5381397568\C,-2
 .698631389,3.189869766,0.484055981\C,-1.4316807769,1.1380630623,-3.838
 2498448\C,-1.7395610802,3.7541459962,-0.3804386747\C,7.8617775571,-4.6
 282160392,2.4459836138\C,-4.9280378095,-3.3325262644,2.937298928\C,-1.
 6949561848,5.2069167719,-0.7873581761\C,-0.5943042564,5.3291274525,-1.
 5765313536\C,0.0254519902,3.9475101977,-1.6623550875\C,-2.6904134218,6
 .1910529016,-0.3806256487\C,-0.0055750261,6.4880333839,-2.3002065471\C
 ,-2.6054425853,7.5297302619,-0.4926219013\H,4.684519811,-1.5757670746,
 -0.5073226644\H,3.1747864852,-4.1212891231,0.2901219197\H,3.6779779722
 ,-3.6630228218,-1.3463526009\H,1.3489262854,-2.5917129983,1.4000543565
 \H,3.4682983988,-1.0072800673,1.5973971838\H,-1.1047896741,-1.53113625
 17,-2.9887474574\H,-1.6647560733,-0.4423170406,-1.7408770284\H,-1.1546
 123507,-2.1214715427,1.7010448912\H,2.8521559579,-2.7579739376,-3.2043
 407904\H,1.2959003646,-2.2329873438,-3.8700819314\H,2.5147249328,-1.02
 95670092,-3.4161367711\H,6.2951598199,-3.4592629875,-1.5033794177\H,6.
 0824328991,-4.9616531581,-0.5831828326\H,7.5159902792,-3.9567337524,-0
 .2985253296\H,0.1931951884,1.232107683,-2.4980127837\H,0.4650505081,0.
 1812959437,-3.874163882\H,-0.9654531427,1.336103315,-0.1882350634\H,-4
 .0085066652,-0.8204278969,3.7253689106\H,-2.6736236226,-1.8427686393,3
 .2402269219\H,7.2091731239,-3.0180616996,3.6364640717\H,-4.0069873629,
 -2.5698294056,1.181971275\H,-5.3638423368,-1.6158093701,1.7444366565\H
 ,-5.1102129864,1.0875149073,3.2640543925\H,-5.4324251552,2.0717625549,
 1.8183408282\H,-4.3533313325,2.6850722071,3.0825741217\H,-3.4851770898
 ,3.8132278513,0.9056857458\H,7.750475533,-5.2510710696,1.5554787914\H,
 8.6372262035,-4.9255534665,3.1568623434\H,-1.7872141528,2.452347989,-5
 .1236697614\H,-3.6061004719,5.7822408192,0.0601524104\H,0.4843227807,7
 .1952234879,-1.6067397819\H,0.7594560618,6.1293261457,-3.0046473592\H,
 -0.7713432026,7.0593657551,-2.8519666515\H,-6.1223108862,-4.7803873059
 ,2.9121958357\H,-3.4283837819,8.1678957861,-0.1606465271\H,-1.72550021
 8,8.0325467701,-0.897501758\\Version=ES64L-G09RevD.01\State=1-A\HF=-19
 48.1517732\RMSD=3.328e-09\RMSF=1.833e-06\Dipole=-0.7561054,-1.3803109,
 -0.4527918\Quadrupole=8.1978224,13.3107036,-21.508526,-15.0477546,-19.
 2334771,7.7711649\PG=C01 [X(C33H36N4O6)]\\@


 THE REAL VOYAGE OF DISCOVERY CONSISTS NOT IN SEEKING NEW LANDSCAPES 
 BUT IN HAVING NEW EYES.
                                                    -- MARCEL PROUST
 Job cpu time:       7 days 20 hours 16 minutes 47.1 seconds.
 File lengths (MBytes):  RWF=    377 Int=      0 D2E=      0 Chk=     43 Scr=      1
 Normal termination of Gaussian 09 at Fri Mar 29 23:18:28 2019.
