 Entering Gaussian System, Link 0=g16
 Input=OPT_01125_.com
 Output=OPT_01125_.log
 Initial command:
 /usr/local/g16/l1.exe "/home/padawan/israel-mol/w-tuning/lutein/tuning/Gau-30027.inp" -scrdir="/home/padawan/israel-mol/w-tuning/lutein/tuning/"
 Entering Link 1 = /usr/local/g16/l1.exe PID=     30029.
  
 Copyright (c) 1988,1990,1992,1993,1995,1998,2003,2009,2016,
            Gaussian, Inc.  All Rights Reserved.
  
 This is part of the Gaussian(R) 16 program.  It is based on
 the Gaussian(R) 09 system (copyright 2009, Gaussian, Inc.),
 the Gaussian(R) 03 system (copyright 2003, Gaussian, Inc.),
 the Gaussian(R) 98 system (copyright 1998, Gaussian, Inc.),
 the Gaussian(R) 94 system (copyright 1995, Gaussian, Inc.),
 the Gaussian 92(TM) system (copyright 1992, Gaussian, Inc.),
 the Gaussian 90(TM) system (copyright 1990, Gaussian, Inc.),
 the Gaussian 88(TM) system (copyright 1988, Gaussian, Inc.),
 the Gaussian 86(TM) system (copyright 1986, Carnegie Mellon
 University), and the Gaussian 82(TM) system (copyright 1983,
 Carnegie Mellon University). Gaussian is a federally registered
 trademark of Gaussian, Inc.
  
 This software contains proprietary and confidential information,
 including trade secrets, belonging to Gaussian, Inc.
  
 This software is provided under written license and may be
 used, copied, transmitted, or stored only in accord with that
 written license.
  
 The following legend is applicable only to US Government
 contracts under FAR:
  
                    RESTRICTED RIGHTS LEGEND
  
 Use, reproduction and disclosure by the US Government is
 subject to restrictions as set forth in subparagraphs (a)
 and (c) of the Commercial Computer Software - Restricted
 Rights clause in FAR 52.227-19.
  
 Gaussian, Inc.
 340 Quinnipiac St., Bldg. 40, Wallingford CT 06492
  
  
 ---------------------------------------------------------------
 Warning -- This program may not be used in any manner that
 competes with the business of Gaussian, Inc. or will provide
 assistance to any competitor of Gaussian, Inc.  The licensee
 of this program is prohibited from giving any competitor of
 Gaussian, Inc. access to this program.  By using this program,
 the user acknowledges that Gaussian, Inc. is engaged in the
 business of creating and licensing software in the field of
 computational chemistry and represents and warrants to the
 licensee that it is not a competitor of Gaussian, Inc. and that
 it will not use this program in any manner prohibited above.
 ---------------------------------------------------------------
  

 Cite this work as:
 Gaussian 16, Revision A.03,
 M. J. Frisch, G. W. Trucks, H. B. Schlegel, G. E. Scuseria, 
 M. A. Robb, J. R. Cheeseman, G. Scalmani, V. Barone, 
 G. A. Petersson, H. Nakatsuji, X. Li, M. Caricato, A. V. Marenich, 
 J. Bloino, B. G. Janesko, R. Gomperts, B. Mennucci, H. P. Hratchian, 
 J. V. Ortiz, A. F. Izmaylov, J. L. Sonnenberg, D. Williams-Young, 
 F. Ding, F. Lipparini, F. Egidi, J. Goings, B. Peng, A. Petrone, 
 T. Henderson, D. Ranasinghe, V. G. Zakrzewski, J. Gao, N. Rega, 
 G. Zheng, W. Liang, M. Hada, M. Ehara, K. Toyota, R. Fukuda, 
 J. Hasegawa, M. Ishida, T. Nakajima, Y. Honda, O. Kitao, H. Nakai, 
 T. Vreven, K. Throssell, J. A. Montgomery, Jr., J. E. Peralta, 
 F. Ogliaro, M. J. Bearpark, J. J. Heyd, E. N. Brothers, K. N. Kudin, 
 V. N. Staroverov, T. A. Keith, R. Kobayashi, J. Normand, 
 K. Raghavachari, A. P. Rendell, J. C. Burant, S. S. Iyengar, 
 J. Tomasi, M. Cossi, J. M. Millam, M. Klene, C. Adamo, R. Cammi, 
 J. W. Ochterski, R. L. Martin, K. Morokuma, O. Farkas, 
 J. B. Foresman, and D. J. Fox, Gaussian, Inc., Wallingford CT, 2016.
 
 ******************************************
 Gaussian 16:  ES64L-G16RevA.03 25-Dec-2016
                25-Nov-2019 
 ******************************************
 %nproc=7
 Will use up to    7 processors via shared memory.
 %mem=7GB
 ------------------------------------------------------------
 # wB97XD/Def2TZVP iop(3/107=0112500000,3/108=0112500000) opt
 ------------------------------------------------------------
 1/18=20,19=15,26=3,38=1/1,3;
 2/9=110,12=2,17=6,18=5,40=1/2;
 3/5=44,7=101,11=2,25=1,30=1,71=1,74=-58,107=112500000,108=112500000/1,2,3;
 4//1;
 5/5=2,38=5/2;
 6/7=2,8=2,9=2,10=2,28=1/1;
 7//1,2,3,16;
 1/18=20,19=15,26=3/3(2);
 2/9=110/2;
 99//99;
 2/9=110/2;
 3/5=44,7=101,11=2,25=1,30=1,71=1,74=-58,107=112500000,108=112500000/1,2,3;
 4/5=5,16=3,69=1/1;
 5/5=2,38=5/2;
 7//1,2,3,16;
 1/18=20,19=15,26=3/3(-5);
 2/9=110/2;
 6/7=2,8=2,9=2,10=2,19=2,28=1/1;
 99/9=1/99;
 -----
 TITLE
 -----
 Symbolic Z-matrix:
 Charge =  0 Multiplicity = 1
 8                    -13.94896  -2.27834   0.87887 
 8                     14.72961   0.97372   0.67337 
 6                    -11.79346   0.15812   1.29787 
 6                    -10.95653   0.19828  -0.01882 
 6                    -11.93205  -1.30699   1.75382 
 6                    -12.52211  -2.25721   0.71221 
 6                    -11.47439  -0.79473  -1.05195 
 6                     11.14364   0.13484   1.69443 
 6                    -11.09538   0.96262   2.40437 
 6                    -13.16897   0.79716   1.03375 
 6                     12.51473   0.84022   1.71072 
 6                    -12.14422  -1.88992  -0.69615 
 6                     13.45933   0.32894   0.63434 
 6                     10.62405  -0.02295   0.25219 
 6                    -9.48339  -0.05548   0.1791 
 6                     12.85052   0.6003   -0.72659 
 6                     11.39296   0.21804  -0.82781 
 6                     10.1771   0.99373   2.53819 
 6                     11.2507  -1.26002   2.34905 
 6                    -11.15739  -0.47921  -2.48638 
 6                    -8.51185   0.80513  -0.15143 
 6                     9.22286  -0.467     0.1391 
 6                     10.90061   0.18545  -2.25195 
 6                    -7.07756   0.59429  -0.00427 
 6                     8.79597  -1.52266  -0.57097 
 6                    -6.61148  -0.71576   0.5698 
 6                     7.41024  -1.97662  -0.70857 
 6                    -6.23956   1.58936  -0.39337 
 6                     7.24792  -3.46304  -0.90145 
 6                     6.378    -1.09926  -0.67543 
 6                    -4.80394   1.60798  -0.34498 
 6                     4.97222  -1.39313  -0.74083 
 6                    -4.06334   2.66367  -0.75133 
 6                    -2.61164   2.77734  -0.76013 
 6                     4.01483  -0.43621  -0.7196 
 6                     2.58515  -0.64532  -0.77447 
 6                    -2.08911   4.19262  -0.7693 
 6                    -1.8085    1.68055  -0.77603 
 6                     1.77186   0.44791  -0.73901 
 6                     2.07231  -2.05783  -0.86939 
 6                    -0.37761   1.64009  -0.73975 
 6                     0.34187   0.48959  -0.7825 
 1                    -11.06151   1.20279  -0.44053 
 1                    -12.54759  -1.36328   2.65303 
 1                    -10.94421  -1.68061   2.03323 
 1                    -12.14514  -3.26776   0.91999 
 1                    -10.13232   0.53084   2.67782 
 1                    -10.91716   1.99197   2.08694 
 1                    -11.71835   0.99223   3.30033 
 1                    -13.69784   0.30903   0.21813 
 1                    -13.79973   0.72585   1.92062 
 1                    -13.05352   1.85506   0.78717 
 1                     12.37954   1.91384   1.55385 
 1                     12.96456   0.71812   2.70088 
 1                    -12.47085  -2.58239  -1.46848 
 1                     13.5991  -0.75269   0.75101 
 1                    -9.22505  -1.02504   0.59036 
 1                     13.41596   0.07204  -1.4989 
 1                     12.96488   1.66659  -0.9526 
 1                     9.23273   0.48492   2.72973 
 1                     9.96315   1.9445    2.04735 
 1                     10.62946   1.21056   3.50774 
 1                     11.95911  -1.89905   1.82138 
 1                     10.2847  -1.76551   2.34103 
 1                     11.57709  -1.17223   3.38771 
 1                    -10.08393  -0.33248  -2.62471 
 1                    -11.64674   0.451    -2.78843 
 1                    -11.48651  -1.27142  -3.15769 
 1                    -14.33226  -2.74362   0.1339 
 1                     8.49161   0.07566   0.72869 
 1                    -8.80147   1.76471  -0.57121 
 1                     11.29387  -0.68601  -2.7833 
 1                     9.81705   0.1635   -2.32572 
 1                     11.26892   1.06538  -2.78657 
 1                     15.12914   0.80017   1.52665 
 1                     9.54346  -2.13838  -1.06309 
 1                    -5.52977  -0.7821    0.64086 
 1                    -7.01986  -0.86329   1.57225 
 1                    -6.95759  -1.55037  -0.04436 
 1                    -6.70032   2.48826  -0.79347 
 1                     7.56115  -4.00554  -0.00543 
 1                     6.22759  -3.75659  -1.13342 
 1                     7.88652  -3.80817  -1.71843 
 1                     6.62846  -0.04562  -0.602 
 1                    -4.2948    0.73856   0.05202 
 1                     4.67158  -2.43124  -0.80166 
 1                    -4.60043   3.54921  -1.08184 
 1                     4.33643   0.59931  -0.65263 
 1                    -1.01279   4.25171  -0.90456 
 1                    -2.34089   4.70263   0.16417 
 1                    -2.55625   4.76072  -1.57739 
 1                    -2.29298   0.7114   -0.83663 
 1                     2.26086   1.41562  -0.66971 
 1                     2.40136  -2.64651  -0.01004 
 1                     0.9881   -2.10754  -0.90783 
 1                     2.45878  -2.54899  -1.76531 
 1                     0.16671   2.57488  -0.66646 
 1                    -0.20348  -0.44492  -0.85135 
 

 GradGradGradGradGradGradGradGradGradGradGradGradGradGradGradGradGradGrad
 Berny optimization.
 Initialization pass.
                           ----------------------------
                           !    Initial Parameters    !
                           ! (Angstroms and Degrees)  !
 --------------------------                            --------------------------
 ! Name  Definition              Value          Derivative Info.                !
 --------------------------------------------------------------------------------
 ! R1    R(1,6)                  1.4367         estimate D2E/DX2                !
 ! R2    R(1,69)                 0.9583         estimate D2E/DX2                !
 ! R3    R(2,13)                 1.4251         estimate D2E/DX2                !
 ! R4    R(2,75)                 0.958          estimate D2E/DX2                !
 ! R5    R(3,4)                  1.5607         estimate D2E/DX2                !
 ! R6    R(3,5)                  1.5407         estimate D2E/DX2                !
 ! R7    R(3,9)                  1.5359         estimate D2E/DX2                !
 ! R8    R(3,10)                 1.5395         estimate D2E/DX2                !
 ! R9    R(4,7)                  1.5237         estimate D2E/DX2                !
 ! R10   R(4,15)                 1.5079         estimate D2E/DX2                !
 ! R11   R(4,43)                 1.0945         estimate D2E/DX2                !
 ! R12   R(5,6)                  1.5284         estimate D2E/DX2                !
 ! R13   R(5,44)                 1.0912         estimate D2E/DX2                !
 ! R14   R(5,45)                 1.0925         estimate D2E/DX2                !
 ! R15   R(6,12)                 1.5037         estimate D2E/DX2                !
 ! R16   R(6,46)                 1.0984         estimate D2E/DX2                !
 ! R17   R(7,12)                 1.3322         estimate D2E/DX2                !
 ! R18   R(7,20)                 1.5025         estimate D2E/DX2                !
 ! R19   R(8,11)                 1.542          estimate D2E/DX2                !
 ! R20   R(8,14)                 1.5411         estimate D2E/DX2                !
 ! R21   R(8,18)                 1.544          estimate D2E/DX2                !
 ! R22   R(8,19)                 1.5446         estimate D2E/DX2                !
 ! R23   R(9,47)                 1.0903         estimate D2E/DX2                !
 ! R24   R(9,48)                 1.0918         estimate D2E/DX2                !
 ! R25   R(9,49)                 1.0917         estimate D2E/DX2                !
 ! R26   R(10,50)                1.0877         estimate D2E/DX2                !
 ! R27   R(10,51)                1.0906         estimate D2E/DX2                !
 ! R28   R(10,52)                1.0924         estimate D2E/DX2                !
 ! R29   R(11,13)                1.5206         estimate D2E/DX2                !
 ! R30   R(11,53)                1.0934         estimate D2E/DX2                !
 ! R31   R(11,54)                1.0944         estimate D2E/DX2                !
 ! R32   R(12,55)                1.0875         estimate D2E/DX2                !
 ! R33   R(13,16)                1.5154         estimate D2E/DX2                !
 ! R34   R(13,56)                1.0968         estimate D2E/DX2                !
 ! R35   R(14,17)                1.3475         estimate D2E/DX2                !
 ! R36   R(14,22)                1.4742         estimate D2E/DX2                !
 ! R37   R(15,21)                1.3393         estimate D2E/DX2                !
 ! R38   R(15,57)                1.0844         estimate D2E/DX2                !
 ! R39   R(16,17)                1.5103         estimate D2E/DX2                !
 ! R40   R(16,58)                1.0933         estimate D2E/DX2                !
 ! R41   R(16,59)                1.096          estimate D2E/DX2                !
 ! R42   R(17,23)                1.5072         estimate D2E/DX2                !
 ! R43   R(18,60)                1.0897         estimate D2E/DX2                !
 ! R44   R(18,61)                1.0912         estimate D2E/DX2                !
 ! R45   R(18,62)                1.0916         estimate D2E/DX2                !
 ! R46   R(19,63)                1.0902         estimate D2E/DX2                !
 ! R47   R(19,64)                1.0903         estimate D2E/DX2                !
 ! R48   R(19,65)                1.0923         estimate D2E/DX2                !
 ! R49   R(20,66)                1.0922         estimate D2E/DX2                !
 ! R50   R(20,67)                1.0936         estimate D2E/DX2                !
 ! R51   R(20,68)                1.0893         estimate D2E/DX2                !
 ! R52   R(21,24)                1.4572         estimate D2E/DX2                !
 ! R53   R(21,71)                1.0867         estimate D2E/DX2                !
 ! R54   R(22,25)                1.342          estimate D2E/DX2                !
 ! R55   R(22,70)                1.0848         estimate D2E/DX2                !
 ! R56   R(23,72)                1.0938         estimate D2E/DX2                !
 ! R57   R(23,73)                1.0863         estimate D2E/DX2                !
 ! R58   R(23,74)                1.0935         estimate D2E/DX2                !
 ! R59   R(24,26)                1.5043         estimate D2E/DX2                !
 ! R60   R(24,28)                1.3579         estimate D2E/DX2                !
 ! R61   R(25,27)                1.4647         estimate D2E/DX2                !
 ! R62   R(25,76)                1.0863         estimate D2E/DX2                !
 ! R63   R(26,77)                1.0861         estimate D2E/DX2                !
 ! R64   R(26,78)                1.0925         estimate D2E/DX2                !
 ! R65   R(26,79)                1.0925         estimate D2E/DX2                !
 ! R66   R(27,29)                1.5076         estimate D2E/DX2                !
 ! R67   R(27,30)                1.3551         estimate D2E/DX2                !
 ! R68   R(28,31)                1.4366         estimate D2E/DX2                !
 ! R69   R(28,80)                1.0865         estimate D2E/DX2                !
 ! R70   R(29,81)                1.0933         estimate D2E/DX2                !
 ! R71   R(29,82)                1.0868         estimate D2E/DX2                !
 ! R72   R(29,83)                1.0929         estimate D2E/DX2                !
 ! R73   R(30,32)                1.4377         estimate D2E/DX2                !
 ! R74   R(30,84)                1.0855         estimate D2E/DX2                !
 ! R75   R(31,33)                1.3521         estimate D2E/DX2                !
 ! R76   R(31,85)                1.0829         estimate D2E/DX2                !
 ! R77   R(32,35)                1.3538         estimate D2E/DX2                !
 ! R78   R(32,86)                1.0825         estimate D2E/DX2                !
 ! R79   R(33,34)                1.4562         estimate D2E/DX2                !
 ! R80   R(33,87)                1.0871         estimate D2E/DX2                !
 ! R81   R(34,37)                1.5087         estimate D2E/DX2                !
 ! R82   R(34,38)                1.3595         estimate D2E/DX2                !
 ! R83   R(35,36)                1.4459         estimate D2E/DX2                !
 ! R84   R(35,88)                1.0864         estimate D2E/DX2                !
 ! R85   R(36,39)                1.363          estimate D2E/DX2                !
 ! R86   R(36,40)                1.5057         estimate D2E/DX2                !
 ! R87   R(37,89)                1.0864         estimate D2E/DX2                !
 ! R88   R(37,90)                1.0931         estimate D2E/DX2                !
 ! R89   R(37,91)                1.0927         estimate D2E/DX2                !
 ! R90   R(38,41)                1.4319         estimate D2E/DX2                !
 ! R91   R(38,92)                1.0852         estimate D2E/DX2                !
 ! R92   R(39,42)                1.4313         estimate D2E/DX2                !
 ! R93   R(39,93)                1.0865         estimate D2E/DX2                !
 ! R94   R(40,94)                1.0924         estimate D2E/DX2                !
 ! R95   R(40,95)                1.086          estimate D2E/DX2                !
 ! R96   R(40,96)                1.0924         estimate D2E/DX2                !
 ! R97   R(41,42)                1.3576         estimate D2E/DX2                !
 ! R98   R(41,97)                1.0842         estimate D2E/DX2                !
 ! R99   R(42,98)                1.0842         estimate D2E/DX2                !
 ! A1    A(6,1,69)             108.3118         estimate D2E/DX2                !
 ! A2    A(13,2,75)            108.3103         estimate D2E/DX2                !
 ! A3    A(4,3,5)              108.8076         estimate D2E/DX2                !
 ! A4    A(4,3,9)              110.5234         estimate D2E/DX2                !
 ! A5    A(4,3,10)             108.8872         estimate D2E/DX2                !
 ! A6    A(5,3,9)              109.014          estimate D2E/DX2                !
 ! A7    A(5,3,10)             111.4156         estimate D2E/DX2                !
 ! A8    A(9,3,10)             108.1957         estimate D2E/DX2                !
 ! A9    A(3,4,7)              111.9013         estimate D2E/DX2                !
 ! A10   A(3,4,15)             114.132          estimate D2E/DX2                !
 ! A11   A(3,4,43)             107.2925         estimate D2E/DX2                !
 ! A12   A(7,4,15)             108.1413         estimate D2E/DX2                !
 ! A13   A(7,4,43)             107.7151         estimate D2E/DX2                !
 ! A14   A(15,4,43)            107.3818         estimate D2E/DX2                !
 ! A15   A(3,5,6)              115.1038         estimate D2E/DX2                !
 ! A16   A(3,5,44)             110.1015         estimate D2E/DX2                !
 ! A17   A(3,5,45)             108.6371         estimate D2E/DX2                !
 ! A18   A(6,5,44)             108.1653         estimate D2E/DX2                !
 ! A19   A(6,5,45)             108.1059         estimate D2E/DX2                !
 ! A20   A(44,5,45)            106.3599         estimate D2E/DX2                !
 ! A21   A(1,6,5)              108.2702         estimate D2E/DX2                !
 ! A22   A(1,6,12)             111.2122         estimate D2E/DX2                !
 ! A23   A(1,6,46)             107.7799         estimate D2E/DX2                !
 ! A24   A(5,6,12)             112.9178         estimate D2E/DX2                !
 ! A25   A(5,6,46)             108.0934         estimate D2E/DX2                !
 ! A26   A(12,6,46)            108.3994         estimate D2E/DX2                !
 ! A27   A(4,7,12)             121.7073         estimate D2E/DX2                !
 ! A28   A(4,7,20)             116.0245         estimate D2E/DX2                !
 ! A29   A(12,7,20)            122.2544         estimate D2E/DX2                !
 ! A30   A(11,8,14)            110.8863         estimate D2E/DX2                !
 ! A31   A(11,8,18)            107.2411         estimate D2E/DX2                !
 ! A32   A(11,8,19)            110.3046         estimate D2E/DX2                !
 ! A33   A(14,8,18)            110.9362         estimate D2E/DX2                !
 ! A34   A(14,8,19)            109.1198         estimate D2E/DX2                !
 ! A35   A(18,8,19)            108.3095         estimate D2E/DX2                !
 ! A36   A(3,9,47)             112.0077         estimate D2E/DX2                !
 ! A37   A(3,9,48)             111.0126         estimate D2E/DX2                !
 ! A38   A(3,9,49)             110.2505         estimate D2E/DX2                !
 ! A39   A(47,9,48)            107.5835         estimate D2E/DX2                !
 ! A40   A(47,9,49)            107.9977         estimate D2E/DX2                !
 ! A41   A(48,9,49)            107.8299         estimate D2E/DX2                !
 ! A42   A(3,10,50)            112.1337         estimate D2E/DX2                !
 ! A43   A(3,10,51)            110.4919         estimate D2E/DX2                !
 ! A44   A(3,10,52)            110.2603         estimate D2E/DX2                !
 ! A45   A(50,10,51)           107.4099         estimate D2E/DX2                !
 ! A46   A(50,10,52)           108.4647         estimate D2E/DX2                !
 ! A47   A(51,10,52)           107.9384         estimate D2E/DX2                !
 ! A48   A(8,11,13)            113.0207         estimate D2E/DX2                !
 ! A49   A(8,11,53)            109.7379         estimate D2E/DX2                !
 ! A50   A(8,11,54)            108.9051         estimate D2E/DX2                !
 ! A51   A(13,11,53)           107.782          estimate D2E/DX2                !
 ! A52   A(13,11,54)           110.3404         estimate D2E/DX2                !
 ! A53   A(53,11,54)           106.8686         estimate D2E/DX2                !
 ! A54   A(6,12,7)             125.2605         estimate D2E/DX2                !
 ! A55   A(6,12,55)            115.7305         estimate D2E/DX2                !
 ! A56   A(7,12,55)            119.0001         estimate D2E/DX2                !
 ! A57   A(2,13,11)            112.47           estimate D2E/DX2                !
 ! A58   A(2,13,16)            107.5589         estimate D2E/DX2                !
 ! A59   A(2,13,56)            109.2488         estimate D2E/DX2                !
 ! A60   A(11,13,16)           109.0219         estimate D2E/DX2                !
 ! A61   A(11,13,56)           109.5992         estimate D2E/DX2                !
 ! A62   A(16,13,56)           108.8628         estimate D2E/DX2                !
 ! A63   A(8,14,17)            122.6421         estimate D2E/DX2                !
 ! A64   A(8,14,22)            115.0298         estimate D2E/DX2                !
 ! A65   A(17,14,22)           122.3268         estimate D2E/DX2                !
 ! A66   A(4,15,21)            124.6216         estimate D2E/DX2                !
 ! A67   A(4,15,57)            115.6576         estimate D2E/DX2                !
 ! A68   A(21,15,57)           119.6895         estimate D2E/DX2                !
 ! A69   A(13,16,17)           113.7411         estimate D2E/DX2                !
 ! A70   A(13,16,58)           109.8833         estimate D2E/DX2                !
 ! A71   A(13,16,59)           108.5122         estimate D2E/DX2                !
 ! A72   A(17,16,58)           109.239          estimate D2E/DX2                !
 ! A73   A(17,16,59)           109.459          estimate D2E/DX2                !
 ! A74   A(58,16,59)           105.6919         estimate D2E/DX2                !
 ! A75   A(14,17,16)           122.8379         estimate D2E/DX2                !
 ! A76   A(14,17,23)           124.5454         estimate D2E/DX2                !
 ! A77   A(16,17,23)           112.5863         estimate D2E/DX2                !
 ! A78   A(8,18,60)            112.2625         estimate D2E/DX2                !
 ! A79   A(8,18,61)            111.2001         estimate D2E/DX2                !
 ! A80   A(8,18,62)            109.6609         estimate D2E/DX2                !
 ! A81   A(60,18,61)           108.4207         estimate D2E/DX2                !
 ! A82   A(60,18,62)           107.2028         estimate D2E/DX2                !
 ! A83   A(61,18,62)           107.9205         estimate D2E/DX2                !
 ! A84   A(8,19,63)            111.6689         estimate D2E/DX2                !
 ! A85   A(8,19,64)            110.7424         estimate D2E/DX2                !
 ! A86   A(8,19,65)            110.5573         estimate D2E/DX2                !
 ! A87   A(63,19,64)           107.4812         estimate D2E/DX2                !
 ! A88   A(63,19,65)           108.2509         estimate D2E/DX2                !
 ! A89   A(64,19,65)           108.0            estimate D2E/DX2                !
 ! A90   A(7,20,66)            110.8831         estimate D2E/DX2                !
 ! A91   A(7,20,67)            110.3579         estimate D2E/DX2                !
 ! A92   A(7,20,68)            111.8319         estimate D2E/DX2                !
 ! A93   A(66,20,67)           106.8893         estimate D2E/DX2                !
 ! A94   A(66,20,68)           108.457          estimate D2E/DX2                !
 ! A95   A(67,20,68)           108.2517         estimate D2E/DX2                !
 ! A96   A(15,21,24)           126.5922         estimate D2E/DX2                !
 ! A97   A(15,21,71)           117.9958         estimate D2E/DX2                !
 ! A98   A(24,21,71)           115.4118         estimate D2E/DX2                !
 ! A99   A(14,22,25)           125.4433         estimate D2E/DX2                !
 ! A100  A(14,22,70)           116.6361         estimate D2E/DX2                !
 ! A101  A(25,22,70)           117.8174         estimate D2E/DX2                !
 ! A102  A(17,23,72)           111.0254         estimate D2E/DX2                !
 ! A103  A(17,23,73)           112.9822         estimate D2E/DX2                !
 ! A104  A(17,23,74)           109.5442         estimate D2E/DX2                !
 ! A105  A(72,23,73)           108.0316         estimate D2E/DX2                !
 ! A106  A(72,23,74)           106.4103         estimate D2E/DX2                !
 ! A107  A(73,23,74)           108.605          estimate D2E/DX2                !
 ! A108  A(21,24,26)           118.0027         estimate D2E/DX2                !
 ! A109  A(21,24,28)           118.1959         estimate D2E/DX2                !
 ! A110  A(26,24,28)           123.8014         estimate D2E/DX2                !
 ! A111  A(22,25,27)           126.4768         estimate D2E/DX2                !
 ! A112  A(22,25,76)           117.8198         estimate D2E/DX2                !
 ! A113  A(27,25,76)           115.6444         estimate D2E/DX2                !
 ! A114  A(24,26,77)           112.7525         estimate D2E/DX2                !
 ! A115  A(24,26,78)           110.6072         estimate D2E/DX2                !
 ! A116  A(24,26,79)           110.6467         estimate D2E/DX2                !
 ! A117  A(77,26,78)           107.6999         estimate D2E/DX2                !
 ! A118  A(77,26,79)           107.7972         estimate D2E/DX2                !
 ! A119  A(78,26,79)           107.112          estimate D2E/DX2                !
 ! A120  A(25,27,29)           114.8007         estimate D2E/DX2                !
 ! A121  A(25,27,30)           121.1782         estimate D2E/DX2                !
 ! A122  A(29,27,30)           124.017          estimate D2E/DX2                !
 ! A123  A(24,28,31)           128.0674         estimate D2E/DX2                !
 ! A124  A(24,28,80)           116.7503         estimate D2E/DX2                !
 ! A125  A(31,28,80)           115.1823         estimate D2E/DX2                !
 ! A126  A(27,29,81)           110.7029         estimate D2E/DX2                !
 ! A127  A(27,29,82)           113.2478         estimate D2E/DX2                !
 ! A128  A(27,29,83)           110.126          estimate D2E/DX2                !
 ! A129  A(81,29,82)           108.0526         estimate D2E/DX2                !
 ! A130  A(81,29,83)           106.7707         estimate D2E/DX2                !
 ! A131  A(82,29,83)           107.6828         estimate D2E/DX2                !
 ! A132  A(27,30,32)           127.6894         estimate D2E/DX2                !
 ! A133  A(27,30,84)           117.0224         estimate D2E/DX2                !
 ! A134  A(32,30,84)           115.2845         estimate D2E/DX2                !
 ! A135  A(28,31,33)           123.188          estimate D2E/DX2                !
 ! A136  A(28,31,85)           118.1503         estimate D2E/DX2                !
 ! A137  A(33,31,85)           118.6538         estimate D2E/DX2                !
 ! A138  A(30,32,35)           123.1142         estimate D2E/DX2                !
 ! A139  A(30,32,86)           118.0453         estimate D2E/DX2                !
 ! A140  A(35,32,86)           118.8386         estimate D2E/DX2                !
 ! A141  A(31,33,34)           127.5052         estimate D2E/DX2                !
 ! A142  A(31,33,87)           117.1788         estimate D2E/DX2                !
 ! A143  A(34,33,87)           115.2833         estimate D2E/DX2                !
 ! A144  A(33,34,37)           114.743          estimate D2E/DX2                !
 ! A145  A(33,34,38)           121.7388         estimate D2E/DX2                !
 ! A146  A(37,34,38)           123.5131         estimate D2E/DX2                !
 ! A147  A(32,35,36)           126.6139         estimate D2E/DX2                !
 ! A148  A(32,35,88)           117.7339         estimate D2E/DX2                !
 ! A149  A(36,35,88)           115.6521         estimate D2E/DX2                !
 ! A150  A(35,36,39)           118.228          estimate D2E/DX2                !
 ! A151  A(35,36,40)           118.348          estimate D2E/DX2                !
 ! A152  A(39,36,40)           123.424          estimate D2E/DX2                !
 ! A153  A(34,37,89)           113.2608         estimate D2E/DX2                !
 ! A154  A(34,37,90)           110.6536         estimate D2E/DX2                !
 ! A155  A(34,37,91)           110.1295         estimate D2E/DX2                !
 ! A156  A(89,37,90)           108.0079         estimate D2E/DX2                !
 ! A157  A(89,37,91)           107.6496         estimate D2E/DX2                !
 ! A158  A(90,37,91)           106.8878         estimate D2E/DX2                !
 ! A159  A(34,38,41)           127.795          estimate D2E/DX2                !
 ! A160  A(34,38,92)           117.2194         estimate D2E/DX2                !
 ! A161  A(41,38,92)           114.9802         estimate D2E/DX2                !
 ! A162  A(36,39,42)           128.2221         estimate D2E/DX2                !
 ! A163  A(36,39,93)           116.5835         estimate D2E/DX2                !
 ! A164  A(42,39,93)           115.1943         estimate D2E/DX2                !
 ! A165  A(36,40,94)           110.692          estimate D2E/DX2                !
 ! A166  A(36,40,95)           112.6553         estimate D2E/DX2                !
 ! A167  A(36,40,96)           110.671          estimate D2E/DX2                !
 ! A168  A(94,40,95)           107.6918         estimate D2E/DX2                !
 ! A169  A(94,40,96)           107.2376         estimate D2E/DX2                !
 ! A170  A(95,40,96)           107.6733         estimate D2E/DX2                !
 ! A171  A(38,41,42)           123.5539         estimate D2E/DX2                !
 ! A172  A(38,41,97)           118.6225         estimate D2E/DX2                !
 ! A173  A(42,41,97)           117.8218         estimate D2E/DX2                !
 ! A174  A(39,42,41)           123.5874         estimate D2E/DX2                !
 ! A175  A(39,42,98)           118.6453         estimate D2E/DX2                !
 ! A176  A(41,42,98)           117.7672         estimate D2E/DX2                !
 ! D1    D(69,1,6,5)           169.9017         estimate D2E/DX2                !
 ! D2    D(69,1,6,12)           45.2893         estimate D2E/DX2                !
 ! D3    D(69,1,6,46)          -73.3977         estimate D2E/DX2                !
 ! D4    D(75,2,13,11)          60.6072         estimate D2E/DX2                !
 ! D5    D(75,2,13,16)        -179.3385         estimate D2E/DX2                !
 ! D6    D(75,2,13,56)         -61.3252         estimate D2E/DX2                !
 ! D7    D(5,3,4,7)             49.5413         estimate D2E/DX2                !
 ! D8    D(5,3,4,15)           -73.6764         estimate D2E/DX2                !
 ! D9    D(5,3,4,43)           167.4871         estimate D2E/DX2                !
 ! D10   D(9,3,4,7)            169.2107         estimate D2E/DX2                !
 ! D11   D(9,3,4,15)            45.9931         estimate D2E/DX2                !
 ! D12   D(9,3,4,43)           -72.8435         estimate D2E/DX2                !
 ! D13   D(10,3,4,7)           -72.0729         estimate D2E/DX2                !
 ! D14   D(10,3,4,15)          164.7095         estimate D2E/DX2                !
 ! D15   D(10,3,4,43)           45.873          estimate D2E/DX2                !
 ! D16   D(4,3,5,6)            -55.2415         estimate D2E/DX2                !
 ! D17   D(4,3,5,44)          -177.7943         estimate D2E/DX2                !
 ! D18   D(4,3,5,45)            66.1038         estimate D2E/DX2                !
 ! D19   D(9,3,5,6)           -175.8454         estimate D2E/DX2                !
 ! D20   D(9,3,5,44)            61.6018         estimate D2E/DX2                !
 ! D21   D(9,3,5,45)           -54.5001         estimate D2E/DX2                !
 ! D22   D(10,3,5,6)            64.8183         estimate D2E/DX2                !
 ! D23   D(10,3,5,44)          -57.7345         estimate D2E/DX2                !
 ! D24   D(10,3,5,45)         -173.8364         estimate D2E/DX2                !
 ! D25   D(4,3,9,47)           -63.8054         estimate D2E/DX2                !
 ! D26   D(4,3,9,48)            56.4797         estimate D2E/DX2                !
 ! D27   D(4,3,9,49)           175.9075         estimate D2E/DX2                !
 ! D28   D(5,3,9,47)            55.7396         estimate D2E/DX2                !
 ! D29   D(5,3,9,48)           176.0247         estimate D2E/DX2                !
 ! D30   D(5,3,9,49)           -64.5476         estimate D2E/DX2                !
 ! D31   D(10,3,9,47)          177.0585         estimate D2E/DX2                !
 ! D32   D(10,3,9,48)          -62.6564         estimate D2E/DX2                !
 ! D33   D(10,3,9,49)           56.7713         estimate D2E/DX2                !
 ! D34   D(4,3,10,50)           56.6146         estimate D2E/DX2                !
 ! D35   D(4,3,10,51)          176.4056         estimate D2E/DX2                !
 ! D36   D(4,3,10,52)          -64.3566         estimate D2E/DX2                !
 ! D37   D(5,3,10,50)          -63.3982         estimate D2E/DX2                !
 ! D38   D(5,3,10,51)           56.3929         estimate D2E/DX2                !
 ! D39   D(5,3,10,52)          175.6307         estimate D2E/DX2                !
 ! D40   D(9,3,10,50)          176.7801         estimate D2E/DX2                !
 ! D41   D(9,3,10,51)          -63.4288         estimate D2E/DX2                !
 ! D42   D(9,3,10,52)           55.809          estimate D2E/DX2                !
 ! D43   D(3,4,7,12)           -25.5489         estimate D2E/DX2                !
 ! D44   D(3,4,7,20)           155.7692         estimate D2E/DX2                !
 ! D45   D(15,4,7,12)          100.9932         estimate D2E/DX2                !
 ! D46   D(15,4,7,20)          -77.6886         estimate D2E/DX2                !
 ! D47   D(43,4,7,12)         -143.2422         estimate D2E/DX2                !
 ! D48   D(43,4,7,20)           38.0759         estimate D2E/DX2                !
 ! D49   D(3,4,15,21)         -120.526          estimate D2E/DX2                !
 ! D50   D(3,4,15,57)           61.5223         estimate D2E/DX2                !
 ! D51   D(7,4,15,21)          114.2416         estimate D2E/DX2                !
 ! D52   D(7,4,15,57)          -63.71           estimate D2E/DX2                !
 ! D53   D(43,4,15,21)          -1.7402         estimate D2E/DX2                !
 ! D54   D(43,4,15,57)        -179.6919         estimate D2E/DX2                !
 ! D55   D(3,5,6,1)            -90.3101         estimate D2E/DX2                !
 ! D56   D(3,5,6,12)            33.2812         estimate D2E/DX2                !
 ! D57   D(3,5,6,46)           153.1919         estimate D2E/DX2                !
 ! D58   D(44,5,6,1)            33.2745         estimate D2E/DX2                !
 ! D59   D(44,5,6,12)          156.8658         estimate D2E/DX2                !
 ! D60   D(44,5,6,46)          -83.2235         estimate D2E/DX2                !
 ! D61   D(45,5,6,1)           148.0566         estimate D2E/DX2                !
 ! D62   D(45,5,6,12)          -88.3521         estimate D2E/DX2                !
 ! D63   D(45,5,6,46)           31.5586         estimate D2E/DX2                !
 ! D64   D(1,6,12,7)           115.9881         estimate D2E/DX2                !
 ! D65   D(1,6,12,55)          -62.9166         estimate D2E/DX2                !
 ! D66   D(5,6,12,7)            -5.9629         estimate D2E/DX2                !
 ! D67   D(5,6,12,55)          175.1323         estimate D2E/DX2                !
 ! D68   D(46,6,12,7)         -125.6977         estimate D2E/DX2                !
 ! D69   D(46,6,12,55)          55.3976         estimate D2E/DX2                !
 ! D70   D(4,7,12,6)             2.7371         estimate D2E/DX2                !
 ! D71   D(4,7,12,55)         -178.3911         estimate D2E/DX2                !
 ! D72   D(20,7,12,6)         -178.6636         estimate D2E/DX2                !
 ! D73   D(20,7,12,55)           0.2083         estimate D2E/DX2                !
 ! D74   D(4,7,20,66)           54.1163         estimate D2E/DX2                !
 ! D75   D(4,7,20,67)          -64.1282         estimate D2E/DX2                !
 ! D76   D(4,7,20,68)          175.3064         estimate D2E/DX2                !
 ! D77   D(12,7,20,66)        -124.5577         estimate D2E/DX2                !
 ! D78   D(12,7,20,67)         117.1978         estimate D2E/DX2                !
 ! D79   D(12,7,20,68)          -3.3676         estimate D2E/DX2                !
 ! D80   D(14,8,11,13)         -43.1969         estimate D2E/DX2                !
 ! D81   D(14,8,11,53)          77.1337         estimate D2E/DX2                !
 ! D82   D(14,8,11,54)        -166.2028         estimate D2E/DX2                !
 ! D83   D(18,8,11,13)        -164.4537         estimate D2E/DX2                !
 ! D84   D(18,8,11,53)         -44.1231         estimate D2E/DX2                !
 ! D85   D(18,8,11,54)          72.5403         estimate D2E/DX2                !
 ! D86   D(19,8,11,13)          77.8004         estimate D2E/DX2                !
 ! D87   D(19,8,11,53)        -161.869          estimate D2E/DX2                !
 ! D88   D(19,8,11,54)         -45.2055         estimate D2E/DX2                !
 ! D89   D(11,8,14,17)          10.7049         estimate D2E/DX2                !
 ! D90   D(11,8,14,22)        -169.6942         estimate D2E/DX2                !
 ! D91   D(18,8,14,17)         129.7603         estimate D2E/DX2                !
 ! D92   D(18,8,14,22)         -50.6388         estimate D2E/DX2                !
 ! D93   D(19,8,14,17)        -110.9894         estimate D2E/DX2                !
 ! D94   D(19,8,14,22)          68.6115         estimate D2E/DX2                !
 ! D95   D(11,8,18,60)        -169.8541         estimate D2E/DX2                !
 ! D96   D(11,8,18,61)          68.4768         estimate D2E/DX2                !
 ! D97   D(11,8,18,62)         -50.8011         estimate D2E/DX2                !
 ! D98   D(14,8,18,60)          68.9204         estimate D2E/DX2                !
 ! D99   D(14,8,18,61)         -52.7486         estimate D2E/DX2                !
 ! D100  D(14,8,18,62)        -172.0265         estimate D2E/DX2                !
 ! D101  D(19,8,18,60)         -50.8152         estimate D2E/DX2                !
 ! D102  D(19,8,18,61)        -172.4843         estimate D2E/DX2                !
 ! D103  D(19,8,18,62)          68.2379         estimate D2E/DX2                !
 ! D104  D(11,8,19,63)         -60.2381         estimate D2E/DX2                !
 ! D105  D(11,8,19,64)        -179.981          estimate D2E/DX2                !
 ! D106  D(11,8,19,65)          60.3536         estimate D2E/DX2                !
 ! D107  D(14,8,19,63)          61.8078         estimate D2E/DX2                !
 ! D108  D(14,8,19,64)         -57.9351         estimate D2E/DX2                !
 ! D109  D(14,8,19,65)        -177.6006         estimate D2E/DX2                !
 ! D110  D(18,8,19,63)        -177.3236         estimate D2E/DX2                !
 ! D111  D(18,8,19,64)          62.9336         estimate D2E/DX2                !
 ! D112  D(18,8,19,65)         -56.7319         estimate D2E/DX2                !
 ! D113  D(8,11,13,2)         -179.0772         estimate D2E/DX2                !
 ! D114  D(8,11,13,16)          61.7188         estimate D2E/DX2                !
 ! D115  D(8,11,13,56)         -57.3439         estimate D2E/DX2                !
 ! D116  D(53,11,13,2)          59.4815         estimate D2E/DX2                !
 ! D117  D(53,11,13,16)        -59.7225         estimate D2E/DX2                !
 ! D118  D(53,11,13,56)       -178.7851         estimate D2E/DX2                !
 ! D119  D(54,11,13,2)         -56.8713         estimate D2E/DX2                !
 ! D120  D(54,11,13,16)       -176.0753         estimate D2E/DX2                !
 ! D121  D(54,11,13,56)         64.8621         estimate D2E/DX2                !
 ! D122  D(2,13,16,17)        -168.4878         estimate D2E/DX2                !
 ! D123  D(2,13,16,58)          68.7018         estimate D2E/DX2                !
 ! D124  D(2,13,16,59)         -46.4109         estimate D2E/DX2                !
 ! D125  D(11,13,16,17)        -46.2711         estimate D2E/DX2                !
 ! D126  D(11,13,16,58)       -169.0815         estimate D2E/DX2                !
 ! D127  D(11,13,16,59)         75.8059         estimate D2E/DX2                !
 ! D128  D(56,13,16,17)         73.2495         estimate D2E/DX2                !
 ! D129  D(56,13,16,58)        -49.5609         estimate D2E/DX2                !
 ! D130  D(56,13,16,59)       -164.6735         estimate D2E/DX2                !
 ! D131  D(8,14,17,16)           3.0015         estimate D2E/DX2                !
 ! D132  D(8,14,17,23)        -174.8447         estimate D2E/DX2                !
 ! D133  D(22,14,17,16)       -176.5705         estimate D2E/DX2                !
 ! D134  D(22,14,17,23)          5.5833         estimate D2E/DX2                !
 ! D135  D(8,14,22,25)        -126.3609         estimate D2E/DX2                !
 ! D136  D(8,14,22,70)          49.8474         estimate D2E/DX2                !
 ! D137  D(17,14,22,25)         53.2414         estimate D2E/DX2                !
 ! D138  D(17,14,22,70)       -130.5504         estimate D2E/DX2                !
 ! D139  D(4,15,21,24)        -178.6929         estimate D2E/DX2                !
 ! D140  D(4,15,21,71)           1.4764         estimate D2E/DX2                !
 ! D141  D(57,15,21,24)         -0.8184         estimate D2E/DX2                !
 ! D142  D(57,15,21,71)        179.351          estimate D2E/DX2                !
 ! D143  D(13,16,17,14)         15.5653         estimate D2E/DX2                !
 ! D144  D(13,16,17,23)       -166.356          estimate D2E/DX2                !
 ! D145  D(58,16,17,14)        138.7284         estimate D2E/DX2                !
 ! D146  D(58,16,17,23)        -43.1928         estimate D2E/DX2                !
 ! D147  D(59,16,17,14)       -105.9865         estimate D2E/DX2                !
 ! D148  D(59,16,17,23)         72.0922         estimate D2E/DX2                !
 ! D149  D(14,17,23,72)       -108.8625         estimate D2E/DX2                !
 ! D150  D(14,17,23,73)         12.6865         estimate D2E/DX2                !
 ! D151  D(14,17,23,74)        133.904          estimate D2E/DX2                !
 ! D152  D(16,17,23,72)         73.0973         estimate D2E/DX2                !
 ! D153  D(16,17,23,73)       -165.3537         estimate D2E/DX2                !
 ! D154  D(16,17,23,74)        -44.1361         estimate D2E/DX2                !
 ! D155  D(15,21,24,26)          0.2394         estimate D2E/DX2                !
 ! D156  D(15,21,24,28)       -179.8084         estimate D2E/DX2                !
 ! D157  D(71,21,24,26)       -179.9262         estimate D2E/DX2                !
 ! D158  D(71,21,24,28)          0.0261         estimate D2E/DX2                !
 ! D159  D(14,22,25,27)       -179.4207         estimate D2E/DX2                !
 ! D160  D(14,22,25,76)          3.5059         estimate D2E/DX2                !
 ! D161  D(70,22,25,27)          4.4116         estimate D2E/DX2                !
 ! D162  D(70,22,25,76)       -172.6618         estimate D2E/DX2                !
 ! D163  D(21,24,26,77)        179.9661         estimate D2E/DX2                !
 ! D164  D(21,24,26,78)        -59.3753         estimate D2E/DX2                !
 ! D165  D(21,24,26,79)         59.1545         estimate D2E/DX2                !
 ! D166  D(28,24,26,77)          0.0168         estimate D2E/DX2                !
 ! D167  D(28,24,26,78)        120.6753         estimate D2E/DX2                !
 ! D168  D(28,24,26,79)       -120.7948         estimate D2E/DX2                !
 ! D169  D(21,24,28,31)       -179.9376         estimate D2E/DX2                !
 ! D170  D(21,24,28,80)          0.0153         estimate D2E/DX2                !
 ! D171  D(26,24,28,31)          0.0116         estimate D2E/DX2                !
 ! D172  D(26,24,28,80)        179.9645         estimate D2E/DX2                !
 ! D173  D(22,25,27,29)       -149.3796         estimate D2E/DX2                !
 ! D174  D(22,25,27,30)         31.3195         estimate D2E/DX2                !
 ! D175  D(76,25,27,29)         27.7494         estimate D2E/DX2                !
 ! D176  D(76,25,27,30)       -151.5516         estimate D2E/DX2                !
 ! D177  D(25,27,29,81)         66.209          estimate D2E/DX2                !
 ! D178  D(25,27,29,82)       -172.2634         estimate D2E/DX2                !
 ! D179  D(25,27,29,83)        -51.6318         estimate D2E/DX2                !
 ! D180  D(30,27,29,81)       -114.5125         estimate D2E/DX2                !
 ! D181  D(30,27,29,82)          7.0151         estimate D2E/DX2                !
 ! D182  D(30,27,29,83)        127.6466         estimate D2E/DX2                !
 ! D183  D(25,27,30,32)       -177.222          estimate D2E/DX2                !
 ! D184  D(25,27,30,84)          3.5208         estimate D2E/DX2                !
 ! D185  D(29,27,30,32)          3.5436         estimate D2E/DX2                !
 ! D186  D(29,27,30,84)       -175.7136         estimate D2E/DX2                !
 ! D187  D(24,28,31,33)       -179.4281         estimate D2E/DX2                !
 ! D188  D(24,28,31,85)         -0.4618         estimate D2E/DX2                !
 ! D189  D(80,28,31,33)          0.6184         estimate D2E/DX2                !
 ! D190  D(80,28,31,85)        179.5847         estimate D2E/DX2                !
 ! D191  D(27,30,32,35)       -178.9854         estimate D2E/DX2                !
 ! D192  D(27,30,32,86)          1.5289         estimate D2E/DX2                !
 ! D193  D(84,30,32,35)          0.2828         estimate D2E/DX2                !
 ! D194  D(84,30,32,86)       -179.203          estimate D2E/DX2                !
 ! D195  D(28,31,33,34)       -179.1464         estimate D2E/DX2                !
 ! D196  D(28,31,33,87)          3.0438         estimate D2E/DX2                !
 ! D197  D(85,31,33,34)          1.8923         estimate D2E/DX2                !
 ! D198  D(85,31,33,87)       -175.9176         estimate D2E/DX2                !
 ! D199  D(30,32,35,36)       -179.6776         estimate D2E/DX2                !
 ! D200  D(30,32,35,88)          0.1801         estimate D2E/DX2                !
 ! D201  D(86,32,35,36)         -0.1957         estimate D2E/DX2                !
 ! D202  D(86,32,35,88)        179.662          estimate D2E/DX2                !
 ! D203  D(31,33,34,37)       -158.2478         estimate D2E/DX2                !
 ! D204  D(31,33,34,38)         22.5498         estimate D2E/DX2                !
 ! D205  D(87,33,34,37)         19.5974         estimate D2E/DX2                !
 ! D206  D(87,33,34,38)       -159.605          estimate D2E/DX2                !
 ! D207  D(33,34,37,89)       -172.5831         estimate D2E/DX2                !
 ! D208  D(33,34,37,90)         65.9743         estimate D2E/DX2                !
 ! D209  D(33,34,37,91)        -51.9827         estimate D2E/DX2                !
 ! D210  D(38,34,37,89)          6.6034         estimate D2E/DX2                !
 ! D211  D(38,34,37,90)       -114.8393         estimate D2E/DX2                !
 ! D212  D(38,34,37,91)        127.2037         estimate D2E/DX2                !
 ! D213  D(33,34,38,41)       -177.6494         estimate D2E/DX2                !
 ! D214  D(33,34,38,92)          3.2477         estimate D2E/DX2                !
 ! D215  D(37,34,38,41)          3.2194         estimate D2E/DX2                !
 ! D216  D(37,34,38,92)       -175.8835         estimate D2E/DX2                !
 ! D217  D(32,35,36,39)        179.8756         estimate D2E/DX2                !
 ! D218  D(32,35,36,40)         -0.1967         estimate D2E/DX2                !
 ! D219  D(88,35,36,39)          0.0153         estimate D2E/DX2                !
 ! D220  D(88,35,36,40)        179.943          estimate D2E/DX2                !
 ! D221  D(35,36,39,42)        179.8777         estimate D2E/DX2                !
 ! D222  D(35,36,39,93)         -0.073          estimate D2E/DX2                !
 ! D223  D(40,36,39,42)         -0.0461         estimate D2E/DX2                !
 ! D224  D(40,36,39,93)       -179.9967         estimate D2E/DX2                !
 ! D225  D(35,36,40,94)         59.5268         estimate D2E/DX2                !
 ! D226  D(35,36,40,95)       -179.8316         estimate D2E/DX2                !
 ! D227  D(35,36,40,96)        -59.2285         estimate D2E/DX2                !
 ! D228  D(39,36,40,94)       -120.5495         estimate D2E/DX2                !
 ! D229  D(39,36,40,95)          0.0921         estimate D2E/DX2                !
 ! D230  D(39,36,40,96)        120.6952         estimate D2E/DX2                !
 ! D231  D(34,38,41,42)       -178.8444         estimate D2E/DX2                !
 ! D232  D(34,38,41,97)          1.6482         estimate D2E/DX2                !
 ! D233  D(92,38,41,42)          0.2754         estimate D2E/DX2                !
 ! D234  D(92,38,41,97)       -179.2319         estimate D2E/DX2                !
 ! D235  D(36,39,42,41)        179.9461         estimate D2E/DX2                !
 ! D236  D(36,39,42,98)          0.0736         estimate D2E/DX2                !
 ! D237  D(93,39,42,41)         -0.1027         estimate D2E/DX2                !
 ! D238  D(93,39,42,98)       -179.9752         estimate D2E/DX2                !
 ! D239  D(38,41,42,39)       -179.6501         estimate D2E/DX2                !
 ! D240  D(38,41,42,98)          0.2235         estimate D2E/DX2                !
 ! D241  D(97,41,42,39)         -0.139          estimate D2E/DX2                !
 ! D242  D(97,41,42,98)        179.7345         estimate D2E/DX2                !
 --------------------------------------------------------------------------------
 Trust Radius=3.00D-01 FncErr=1.00D-07 GrdErr=1.00D-06 EigMax=2.50D+02 EigMin=1.00D-04
 Number of steps in this run=    527 maximum allowed number of steps=    588.
 GradGradGradGradGradGradGradGradGradGradGradGradGradGradGradGradGradGrad

 Stoichiometry    C40H56O2
 Framework group  C1[X(C40H56O2)]
 Deg. of freedom   288
 Full point group                 C1      NOp   1
 Largest Abelian subgroup         C1      NOp   1
 Largest concise Abelian subgroup C1      NOp   1
                         Standard orientation:                         
 ---------------------------------------------------------------------
 Center     Atomic      Atomic             Coordinates (Angstroms)
 Number     Number       Type             X           Y           Z
 ---------------------------------------------------------------------
      1          8           0      -13.948961   -2.278340    0.878873
      2          8           0       14.729613    0.973715    0.673373
      3          6           0      -11.793458    0.158115    1.297867
      4          6           0      -10.956528    0.198282   -0.018816
      5          6           0      -11.932050   -1.306990    1.753815
      6          6           0      -12.522109   -2.257207    0.712206
      7          6           0      -11.474387   -0.794726   -1.051945
      8          6           0       11.143643    0.134844    1.694433
      9          6           0      -11.095383    0.962617    2.404370
     10          6           0      -13.168972    0.797157    1.033745
     11          6           0       12.514731    0.840222    1.710720
     12          6           0      -12.144216   -1.889924   -0.696151
     13          6           0       13.459331    0.328938    0.634342
     14          6           0       10.624052   -0.022945    0.252187
     15          6           0       -9.483392   -0.055480    0.179098
     16          6           0       12.850521    0.600299   -0.726588
     17          6           0       11.392957    0.218044   -0.827814
     18          6           0       10.177098    0.993725    2.538189
     19          6           0       11.250699   -1.260024    2.349050
     20          6           0      -11.157392   -0.479209   -2.486379
     21          6           0       -8.511847    0.805132   -0.151427
     22          6           0        9.222860   -0.466998    0.139100
     23          6           0       10.900607    0.185454   -2.251954
     24          6           0       -7.077559    0.594290   -0.004269
     25          6           0        8.795965   -1.522655   -0.570970
     26          6           0       -6.611476   -0.715756    0.569797
     27          6           0        7.410238   -1.976624   -0.708568
     28          6           0       -6.239560    1.589357   -0.393367
     29          6           0        7.247918   -3.463036   -0.901454
     30          6           0        6.377997   -1.099260   -0.675425
     31          6           0       -4.803936    1.607976   -0.344978
     32          6           0        4.972218   -1.393134   -0.740828
     33          6           0       -4.063345    2.663666   -0.751327
     34          6           0       -2.611642    2.777335   -0.760128
     35          6           0        4.014825   -0.436206   -0.719601
     36          6           0        2.585146   -0.645323   -0.774470
     37          6           0       -2.089110    4.192619   -0.769295
     38          6           0       -1.808499    1.680551   -0.776030
     39          6           0        1.771862    0.447913   -0.739010
     40          6           0        2.072311   -2.057835   -0.869392
     41          6           0       -0.377608    1.640092   -0.739745
     42          6           0        0.341869    0.489594   -0.782500
     43          1           0      -11.061511    1.202793   -0.440528
     44          1           0      -12.547590   -1.363279    2.653025
     45          1           0      -10.944215   -1.680605    2.033233
     46          1           0      -12.145143   -3.267760    0.919989
     47          1           0      -10.132322    0.530840    2.677815
     48          1           0      -10.917162    1.991965    2.086942
     49          1           0      -11.718350    0.992228    3.300327
     50          1           0      -13.697837    0.309028    0.218134
     51          1           0      -13.799726    0.725853    1.920623
     52          1           0      -13.053523    1.855055    0.787165
     53          1           0       12.379544    1.913837    1.553849
     54          1           0       12.964560    0.718122    2.700877
     55          1           0      -12.470854   -2.582386   -1.468484
     56          1           0       13.599101   -0.752689    0.751007
     57          1           0       -9.225050   -1.025044    0.590359
     58          1           0       13.415964    0.072036   -1.498902
     59          1           0       12.964875    1.666589   -0.952602
     60          1           0        9.232726    0.484920    2.729728
     61          1           0        9.963149    1.944498    2.047350
     62          1           0       10.629457    1.210556    3.507743
     63          1           0       11.959110   -1.899053    1.821384
     64          1           0       10.284703   -1.765509    2.341031
     65          1           0       11.577093   -1.172229    3.387706
     66          1           0      -10.083928   -0.332475   -2.624708
     67          1           0      -11.646744    0.450999   -2.788427
     68          1           0      -11.486508   -1.271418   -3.157693
     69          1           0      -14.332262   -2.743619    0.133903
     70          1           0        8.491614    0.075657    0.728686
     71          1           0       -8.801471    1.764709   -0.571205
     72          1           0       11.293870   -0.686012   -2.783299
     73          1           0        9.817053    0.163501   -2.325718
     74          1           0       11.268924    1.065376   -2.786571
     75          1           0       15.129139    0.800174    1.526654
     76          1           0        9.543461   -2.138377   -1.063093
     77          1           0       -5.529767   -0.782101    0.640858
     78          1           0       -7.019861   -0.863294    1.572254
     79          1           0       -6.957588   -1.550369   -0.044357
     80          1           0       -6.700324    2.488257   -0.793472
     81          1           0        7.561154   -4.005540   -0.005426
     82          1           0        6.227589   -3.756592   -1.133419
     83          1           0        7.886522   -3.808171   -1.718429
     84          1           0        6.628459   -0.045619   -0.602003
     85          1           0       -4.294804    0.738561    0.052018
     86          1           0        4.671575   -2.431239   -0.801657
     87          1           0       -4.600432    3.549211   -1.081838
     88          1           0        4.336435    0.599306   -0.652629
     89          1           0       -1.012788    4.251711   -0.904556
     90          1           0       -2.340894    4.702626    0.164171
     91          1           0       -2.556254    4.760720   -1.577393
     92          1           0       -2.292978    0.711400   -0.836627
     93          1           0        2.260862    1.415617   -0.669712
     94          1           0        2.401361   -2.646509   -0.010040
     95          1           0        0.988097   -2.107541   -0.907830
     96          1           0        2.458778   -2.548993   -1.765310
     97          1           0        0.166707    2.574875   -0.666459
     98          1           0       -0.203481   -0.444920   -0.851350
 ---------------------------------------------------------------------
 Rotational constants (GHZ):           0.2267019           0.0099331           0.0098244
 Standard basis: def2TZVP (5D, 7F)
 There are  1848 symmetry adapted cartesian basis functions of A   symmetry.
 There are  1638 symmetry adapted basis functions of A   symmetry.
  1638 basis functions,  2590 primitive gaussians,  1848 cartesian basis functions
   156 alpha electrons      156 beta electrons
       nuclear repulsion energy      4024.7183807540 Hartrees.
 NAtoms=   98 NActive=   98 NUniq=   98 SFac= 1.00D+00 NAtFMM=   60 NAOKFM=T Big=T
 Integral buffers will be    131072 words long.
 Raffenetti 2 integral format.
 Two-electron integral symmetry is turned on.
 Nuclear repulsion after empirical dispersion term =     4024.6360160829 Hartrees.
 One-electron integrals computed using PRISM.
   1 Symmetry operations used in ECPInt.
 ECPInt:  NShTT=  235641 NPrTT=  693168 LenC2=  111576 LenP2D=  224633.
 LDataN:  DoStor=T MaxTD1= 6 Len=  172
 NBasis=  1638 RedAO= T EigKep=  1.46D-05  NBF=  1638
 NBsUse=  1638 1.00D-06 EigRej= -1.00D+00 NBFU=  1638
 ExpMin= 9.52D-02 ExpMax= 2.70D+04 ExpMxC= 9.22D+02 IAcc=3 IRadAn=         5 AccDes= 0.00D+00
 Harris functional with IExCor= 4639 and IRadAn=       5 diagonalized for initial guess.
 HarFok:  IExCor= 4639 AccDes= 0.00D+00 IRadAn=         5 IDoV= 1 UseB2=F ITyADJ=14
 ICtDFT=  3500011 ScaDFX=  1.000000  1.000000  1.000000  1.000000
 FoFCou: FMM=F IPFlag=           0 FMFlag=      100000 FMFlg1=        2001
         NFxFlg=           0 DoJE=T BraDBF=F KetDBF=T FulRan=T
         wScrn=  0.000000 ICntrl=       500 IOpCl=  0 I1Cent=   200000004 NGrid=           0
         NMat0=    1 NMatS0=      1 NMatT0=    0 NMatD0=    1 NMtDS0=    0 NMtDT0=    0
 Petite list used in FoFCou.
 Requested convergence on RMS density matrix=1.00D-08 within 128 cycles.
 Requested convergence on MAX density matrix=1.00D-06.
 Requested convergence on             energy=1.00D-06.
 No special actions if energy rises.
 Integral accuracy reduced to 1.0D-05 until final iterations.
 Problem detected with inexpensive integrals.
 Switching to full accuracy and repeating last cycle.
 SCF Done:  E(RwB97XD) =  -1708.56102413     A.U. after   15 cycles
            NFock= 15  Conv=0.27D-08     -V/T= 2.0050

 **********************************************************************

            Population analysis using the SCF density.

 **********************************************************************

 Orbital symmetries:
       Occupied  (A) (A) (A) (A) (A) (A) (A) (A) (A) (A) (A) (A)
                 (A) (A) (A) (A) (A) (A) (A) (A) (A) (A) (A) (A)
                 (A) (A) (A) (A) (A) (A) (A) (A) (A) (A) (A) (A)
                 (A) (A) (A) (A) (A) (A) (A) (A) (A) (A) (A) (A)
                 (A) (A) (A) (A) (A) (A) (A) (A) (A) (A) (A) (A)
                 (A) (A) (A) (A) (A) (A) (A) (A) (A) (A) (A) (A)
                 (A) (A) (A) (A) (A) (A) (A) (A) (A) (A) (A) (A)
                 (A) (A) (A) (A) (A) (A) (A) (A) (A) (A) (A) (A)
                 (A) (A) (A) (A) (A) (A) (A) (A) (A) (A) (A) (A)
                 (A) (A) (A) (A) (A) (A) (A) (A) (A) (A) (A) (A)
                 (A) (A) (A) (A) (A) (A) (A) (A) (A) (A) (A) (A)
                 (A) (A) (A) (A) (A) (A) (A) (A) (A) (A) (A) (A)
                 (A) (A) (A) (A) (A) (A) (A) (A) (A) (A) (A) (A)
       Virtual   (A) (A) (A) (A) (A) (A) (A) (A) (A) (A) (A) (A)
                 (A) (A) (A) (A) (A) (A) (A) (A) (A) (A) (A) (A)
                 (A) (A) (A) (A) (A) (A) (A) (A) (A) (A) (A) (A)
                 (A) (A) (A) (A) (A) (A) (A) (A) (A) (A) (A) (A)
                 (A) (A) (A) (A) (A) (A) (A) (A) (A) (A) (A) (A)
                 (A) (A) (A) (A) (A) (A) (A) (A) (A) (A) (A) (A)
                 (A) (A) (A) (A) (A) (A) (A) (A) (A) (A) (A) (A)
                 (A) (A) (A) (A) (A) (A) (A) (A) (A) (A) (A) (A)
                 (A) (A) (A) (A) (A) (A) (A) (A) (A) (A) (A) (A)
                 (A) (A) (A) (A) (A) (A) (A) (A) (A) (A) (A) (A)
                 (A) (A) (A) (A) (A) (A) (A) (A) (A) (A) (A) (A)
                 (A) (A) (A) (A) (A) (A) (A) (A) (A) (A) (A) (A)
                 (A) (A) (A) (A) (A) (A) (A) (A) (A) (A) (A) (A)
                 (A) (A) (A) (A) (A) (A) (A) (A) (A) (A) (A) (A)
                 (A) (A) (A) (A) (A) (A) (A) (A) (A) (A) (A) (A)
                 (A) (A) (A) (A) (A) (A) (A) (A) (A) (A) (A) (A)
                 (A) (A) (A) (A) (A) (A) (A) (A) (A) (A) (A) (A)
                 (A) (A) (A) (A) (A) (A) (A) (A) (A) (A) (A) (A)
                 (A) (A) (A) (A) (A) (A) (A) (A) (A) (A) (A) (A)
                 (A) (A) (A) (A) (A) (A) (A) (A) (A) (A) (A) (A)
                 (A) (A) (A) (A) (A) (A) (A) (A) (A) (A) (A) (A)
                 (A) (A) (A) (A) (A) (A) (A) (A) (A) (A) (A) (A)
                 (A) (A) (A) (A) (A) (A) (A) (A) (A) (A) (A) (A)
                 (A) (A) (A) (A) (A) (A) (A) (A) (A) (A) (A) (A)
                 (A) (A) (A) (A) (A) (A) (A) (A) (A) (A) (A) (A)
                 (A) (A) (A) (A) (A) (A) (A) (A) (A) (A) (A) (A)
                 (A) (A) (A) (A) (A) (A) (A) (A) (A) (A) (A) (A)
                 (A) (A) (A) (A) (A) (A) (A) (A) (A) (A) (A) (A)
                 (A) (A) (A) (A) (A) (A) (A) (A) (A) (A) (A) (A)
                 (A) (A) (A) (A) (A) (A) (A) (A) (A) (A) (A) (A)
                 (A) (A) (A) (A) (A) (A) (A) (A) (A) (A) (A) (A)
                 (A) (A) (A) (A) (A) (A) (A) (A) (A) (A) (A) (A)
                 (A) (A) (A) (A) (A) (A) (A) (A) (A) (A) (A) (A)
                 (A) (A) (A) (A) (A) (A) (A) (A) (A) (A) (A) (A)
                 (A) (A) (A) (A) (A) (A) (A) (A) (A) (A) (A) (A)
                 (A) (A) (A) (A) (A) (A) (A) (A) (A) (A) (A) (A)
                 (A) (A) (A) (A) (A) (A) (A) (A) (A) (A) (A) (A)
                 (A) (A) (A) (A) (A) (A) (A) (A) (A) (A) (A) (A)
                 (A) (A) (A) (A) (A) (A) (A) (A) (A) (A) (A) (A)
                 (A) (A) (A) (A) (A) (A) (A) (A) (A) (A) (A) (A)
                 (A) (A) (A) (A) (A) (A) (A) (A) (A) (A) (A) (A)
                 (A) (A) (A) (A) (A) (A) (A) (A) (A) (A) (A) (A)
                 (A) (A) (A) (A) (A) (A) (A) (A) (A) (A) (A) (A)
                 (A) (A) (A) (A) (A) (A) (A) (A) (A) (A) (A) (A)
                 (A) (A) (A) (A) (A) (A) (A) (A) (A) (A) (A) (A)
                 (A) (A) (A) (A) (A) (A) (A) (A) (A) (A) (A) (A)
                 (A) (A) (A) (A) (A) (A) (A) (A) (A) (A) (A) (A)
                 (A) (A) (A) (A) (A) (A) (A) (A) (A) (A) (A) (A)
                 (A) (A) (A) (A) (A) (A) (A) (A) (A) (A) (A) (A)
                 (A) (A) (A) (A) (A) (A) (A) (A) (A) (A) (A) (A)
                 (A) (A) (A) (A) (A) (A) (A) (A) (A) (A) (A) (A)
                 (A) (A) (A) (A) (A) (A) (A) (A) (A) (A) (A) (A)
                 (A) (A) (A) (A) (A) (A) (A) (A) (A) (A) (A) (A)
                 (A) (A) (A) (A) (A) (A) (A) (A) (A) (A) (A) (A)
                 (A) (A) (A) (A) (A) (A) (A) (A) (A) (A) (A) (A)
                 (A) (A) (A) (A) (A) (A) (A) (A) (A) (A) (A) (A)
                 (A) (A) (A) (A) (A) (A) (A) (A) (A) (A) (A) (A)
                 (A) (A) (A) (A) (A) (A) (A) (A) (A) (A) (A) (A)
                 (A) (A) (A) (A) (A) (A) (A) (A) (A) (A) (A) (A)
                 (A) (A) (A) (A) (A) (A) (A) (A) (A) (A) (A) (A)
                 (A) (A) (A) (A) (A) (A) (A) (A) (A) (A) (A) (A)
                 (A) (A) (A) (A) (A) (A) (A) (A) (A) (A) (A) (A)
                 (A) (A) (A) (A) (A) (A) (A) (A) (A) (A) (A) (A)
                 (A) (A) (A) (A) (A) (A) (A) (A) (A) (A) (A) (A)
                 (A) (A) (A) (A) (A) (A) (A) (A) (A) (A) (A) (A)
                 (A) (A) (A) (A) (A) (A) (A) (A) (A) (A) (A) (A)
                 (A) (A) (A) (A) (A) (A) (A) (A) (A) (A) (A) (A)
                 (A) (A) (A) (A) (A) (A) (A) (A) (A) (A) (A) (A)
                 (A) (A) (A) (A) (A) (A) (A) (A) (A) (A) (A) (A)
                 (A) (A) (A) (A) (A) (A) (A) (A) (A) (A) (A) (A)
                 (A) (A) (A) (A) (A) (A) (A) (A) (A) (A) (A) (A)
                 (A) (A) (A) (A) (A) (A) (A) (A) (A) (A) (A) (A)
                 (A) (A) (A) (A) (A) (A) (A) (A) (A) (A) (A) (A)
                 (A) (A) (A) (A) (A) (A) (A) (A) (A) (A) (A) (A)
                 (A) (A) (A) (A) (A) (A) (A) (A) (A) (A) (A) (A)
                 (A) (A) (A) (A) (A) (A) (A) (A) (A) (A) (A) (A)
                 (A) (A) (A) (A) (A) (A) (A) (A) (A) (A) (A) (A)
                 (A) (A) (A) (A) (A) (A) (A) (A) (A) (A) (A) (A)
                 (A) (A) (A) (A) (A) (A) (A) (A) (A) (A) (A) (A)
                 (A) (A) (A) (A) (A) (A) (A) (A) (A) (A) (A) (A)
                 (A) (A) (A) (A) (A) (A) (A) (A) (A) (A) (A) (A)
                 (A) (A) (A) (A) (A) (A) (A) (A) (A) (A) (A) (A)
                 (A) (A) (A) (A) (A) (A) (A) (A) (A) (A) (A) (A)
                 (A) (A) (A) (A) (A) (A) (A) (A) (A) (A) (A) (A)
                 (A) (A) (A) (A) (A) (A) (A) (A) (A) (A) (A) (A)
                 (A) (A) (A) (A) (A) (A) (A) (A) (A) (A) (A) (A)
                 (A) (A) (A) (A) (A) (A) (A) (A) (A) (A) (A) (A)
                 (A) (A) (A) (A) (A) (A) (A) (A) (A) (A) (A) (A)
                 (A) (A) (A) (A) (A) (A) (A) (A) (A) (A) (A) (A)
                 (A) (A) (A) (A) (A) (A) (A) (A) (A) (A) (A) (A)
                 (A) (A) (A) (A) (A) (A) (A) (A) (A) (A) (A) (A)
                 (A) (A) (A) (A) (A) (A) (A) (A) (A) (A) (A) (A)
                 (A) (A) (A) (A) (A) (A) (A) (A) (A) (A) (A) (A)
                 (A) (A) (A) (A) (A) (A) (A) (A) (A) (A) (A) (A)
                 (A) (A) (A) (A) (A) (A) (A) (A) (A) (A) (A) (A)
                 (A) (A) (A) (A) (A) (A) (A) (A) (A) (A) (A) (A)
                 (A) (A) (A) (A) (A) (A) (A) (A) (A) (A) (A) (A)
                 (A) (A) (A) (A) (A) (A) (A) (A) (A) (A) (A) (A)
                 (A) (A) (A) (A) (A) (A) (A) (A) (A) (A) (A) (A)
                 (A) (A) (A) (A) (A) (A) (A) (A) (A) (A) (A) (A)
                 (A) (A) (A) (A) (A) (A) (A) (A) (A) (A) (A) (A)
                 (A) (A) (A) (A) (A) (A) (A) (A) (A) (A) (A) (A)
                 (A) (A) (A) (A) (A) (A) (A) (A) (A) (A) (A) (A)
                 (A) (A) (A) (A) (A) (A) (A) (A) (A) (A) (A) (A)
                 (A) (A) (A) (A) (A) (A) (A) (A) (A) (A) (A) (A)
                 (A) (A) (A) (A) (A) (A) (A) (A) (A) (A) (A) (A)
                 (A) (A) (A) (A) (A) (A) (A) (A) (A) (A) (A) (A)
                 (A) (A) (A) (A) (A) (A) (A) (A) (A) (A) (A) (A)
                 (A) (A) (A) (A) (A) (A) (A) (A) (A) (A) (A) (A)
                 (A) (A) (A) (A) (A) (A) (A) (A) (A) (A) (A) (A)
                 (A) (A) (A) (A) (A) (A) (A) (A) (A) (A) (A) (A)
                 (A) (A) (A) (A) (A) (A) (A) (A) (A) (A) (A) (A)
                 (A) (A) (A) (A) (A) (A) (A) (A) (A) (A) (A) (A)
                 (A) (A) (A) (A) (A) (A) (A) (A) (A) (A) (A) (A)
                 (A) (A) (A) (A) (A) (A) (A) (A) (A) (A) (A) (A)
                 (A) (A) (A) (A) (A) (A) (A) (A) (A) (A) (A) (A)
                 (A) (A) (A) (A) (A) (A) (A) (A) (A) (A) (A) (A)
                 (A) (A) (A) (A) (A) (A) (A) (A) (A) (A) (A) (A)
                 (A) (A) (A) (A) (A) (A) (A) (A) (A) (A) (A) (A)
                 (A) (A) (A) (A) (A) (A) (A) (A) (A) (A) (A) (A)
                 (A) (A) (A) (A) (A) (A) (A) (A) (A) (A) (A) (A)
                 (A) (A) (A) (A) (A) (A) (A) (A) (A) (A) (A) (A)
                 (A) (A) (A) (A) (A) (A) (A) (A) (A) (A) (A) (A)
                 (A) (A) (A) (A) (A) (A)
 The electronic state is 1-A.
 Alpha  occ. eigenvalues --  -19.20519 -19.20318 -10.29439 -10.28966 -10.26452
 Alpha  occ. eigenvalues --  -10.26159 -10.26150 -10.26025 -10.25801 -10.25667
 Alpha  occ. eigenvalues --  -10.25660 -10.25456 -10.25209 -10.25080 -10.25028
 Alpha  occ. eigenvalues --  -10.24954 -10.24919 -10.24736 -10.24723 -10.24679
 Alpha  occ. eigenvalues --  -10.24671 -10.24579 -10.24541 -10.24527 -10.24517
 Alpha  occ. eigenvalues --  -10.24468 -10.24384 -10.24232 -10.24204 -10.24191
 Alpha  occ. eigenvalues --  -10.24105 -10.24102 -10.23796 -10.23777 -10.23603
 Alpha  occ. eigenvalues --  -10.23591 -10.23457 -10.23200 -10.23173 -10.22991
 Alpha  occ. eigenvalues --  -10.22470 -10.21901  -1.07970  -1.07591  -0.91351
 Alpha  occ. eigenvalues --   -0.91222  -0.89932  -0.89417  -0.88452  -0.87794
 Alpha  occ. eigenvalues --   -0.85203  -0.84759  -0.84630  -0.83490  -0.82720
 Alpha  occ. eigenvalues --   -0.81173  -0.80360  -0.78752  -0.78263  -0.76479
 Alpha  occ. eigenvalues --   -0.75048  -0.74573  -0.74210  -0.74170  -0.73868
 Alpha  occ. eigenvalues --   -0.73560  -0.73378  -0.73175  -0.71976  -0.68539
 Alpha  occ. eigenvalues --   -0.67222  -0.66199  -0.64955  -0.63434  -0.62142
 Alpha  occ. eigenvalues --   -0.61598  -0.61105  -0.60793  -0.59291  -0.58561
 Alpha  occ. eigenvalues --   -0.58208  -0.57280  -0.57066  -0.56348  -0.54975
 Alpha  occ. eigenvalues --   -0.54304  -0.53834  -0.53375  -0.52943  -0.52442
 Alpha  occ. eigenvalues --   -0.51896  -0.51637  -0.51425  -0.50837  -0.50007
 Alpha  occ. eigenvalues --   -0.49145  -0.48989  -0.48389  -0.47931  -0.47589
 Alpha  occ. eigenvalues --   -0.47537  -0.47427  -0.47235  -0.47221  -0.47104
 Alpha  occ. eigenvalues --   -0.46928  -0.46494  -0.45817  -0.45647  -0.45031
 Alpha  occ. eigenvalues --   -0.44955  -0.44691  -0.44407  -0.44296  -0.44086
 Alpha  occ. eigenvalues --   -0.43899  -0.43868  -0.43304  -0.42974  -0.42833
 Alpha  occ. eigenvalues --   -0.42702  -0.42307  -0.42123  -0.41677  -0.41415
 Alpha  occ. eigenvalues --   -0.41240  -0.40990  -0.40938  -0.40289  -0.40090
 Alpha  occ. eigenvalues --   -0.39879  -0.39767  -0.39328  -0.39261  -0.38960
 Alpha  occ. eigenvalues --   -0.38833  -0.38749  -0.38367  -0.38309  -0.38089
 Alpha  occ. eigenvalues --   -0.37530  -0.36432  -0.36294  -0.36045  -0.35635
 Alpha  occ. eigenvalues --   -0.35351  -0.34273  -0.33317  -0.31890  -0.31690
 Alpha  occ. eigenvalues --   -0.31548  -0.29535  -0.28923  -0.27142  -0.24682
 Alpha  occ. eigenvalues --   -0.21277
 Alpha virt. eigenvalues --   -0.04146  -0.00330   0.02935   0.05474   0.06840
 Alpha virt. eigenvalues --    0.08601   0.09711   0.09791   0.10168   0.10584
 Alpha virt. eigenvalues --    0.10983   0.11222   0.11413   0.11475   0.11648
 Alpha virt. eigenvalues --    0.12064   0.12243   0.12536   0.12695   0.12981
 Alpha virt. eigenvalues --    0.13042   0.13317   0.13461   0.13728   0.13830
 Alpha virt. eigenvalues --    0.14305   0.14483   0.15061   0.15106   0.15392
 Alpha virt. eigenvalues --    0.15843   0.15885   0.16105   0.16478   0.16545
 Alpha virt. eigenvalues --    0.17103   0.17301   0.17636   0.17705   0.18055
 Alpha virt. eigenvalues --    0.18223   0.18433   0.18618   0.18685   0.19142
 Alpha virt. eigenvalues --    0.19298   0.19416   0.19423   0.19751   0.20034
 Alpha virt. eigenvalues --    0.20382   0.20426   0.20441   0.20656   0.20770
 Alpha virt. eigenvalues --    0.21036   0.21463   0.21724   0.21734   0.21868
 Alpha virt. eigenvalues --    0.21980   0.22248   0.22307   0.22317   0.22603
 Alpha virt. eigenvalues --    0.22805   0.22952   0.23023   0.23293   0.23498
 Alpha virt. eigenvalues --    0.23846   0.24121   0.24194   0.24488   0.24679
 Alpha virt. eigenvalues --    0.24795   0.25162   0.25290   0.25374   0.25758
 Alpha virt. eigenvalues --    0.25948   0.26013   0.26097   0.26139   0.26380
 Alpha virt. eigenvalues --    0.26762   0.26925   0.27036   0.27349   0.27466
 Alpha virt. eigenvalues --    0.27535   0.27704   0.27757   0.28249   0.28486
 Alpha virt. eigenvalues --    0.28827   0.28903   0.29192   0.29716   0.29776
 Alpha virt. eigenvalues --    0.30174   0.30383   0.30758   0.31096   0.31219
 Alpha virt. eigenvalues --    0.31309   0.31732   0.31957   0.32162   0.32385
 Alpha virt. eigenvalues --    0.32560   0.32681   0.33206   0.33304   0.33519
 Alpha virt. eigenvalues --    0.33574   0.33924   0.34092   0.34343   0.34485
 Alpha virt. eigenvalues --    0.34606   0.34764   0.34880   0.35481   0.35867
 Alpha virt. eigenvalues --    0.36287   0.36489   0.36586   0.36880   0.37071
 Alpha virt. eigenvalues --    0.37393   0.37531   0.38010   0.38072   0.38162
 Alpha virt. eigenvalues --    0.38240   0.38801   0.38979   0.39054   0.39229
 Alpha virt. eigenvalues --    0.39863   0.40022   0.40160   0.40512   0.40853
 Alpha virt. eigenvalues --    0.40941   0.41175   0.41325   0.41459   0.41702
 Alpha virt. eigenvalues --    0.41868   0.42177   0.42222   0.42533   0.42609
 Alpha virt. eigenvalues --    0.42802   0.43041   0.43137   0.43506   0.43636
 Alpha virt. eigenvalues --    0.43911   0.44004   0.44226   0.44442   0.44580
 Alpha virt. eigenvalues --    0.45111   0.45242   0.45379   0.45637   0.45689
 Alpha virt. eigenvalues --    0.45913   0.46046   0.46112   0.46340   0.46436
 Alpha virt. eigenvalues --    0.46580   0.47026   0.47061   0.47166   0.47295
 Alpha virt. eigenvalues --    0.47588   0.47646   0.47892   0.48092   0.48305
 Alpha virt. eigenvalues --    0.48369   0.48597   0.48802   0.48957   0.49113
 Alpha virt. eigenvalues --    0.49302   0.49493   0.49534   0.49739   0.49987
 Alpha virt. eigenvalues --    0.50198   0.50513   0.50598   0.50755   0.50875
 Alpha virt. eigenvalues --    0.51080   0.51106   0.51394   0.51511   0.51640
 Alpha virt. eigenvalues --    0.51756   0.51825   0.51920   0.52177   0.52306
 Alpha virt. eigenvalues --    0.52525   0.52579   0.52730   0.52802   0.52989
 Alpha virt. eigenvalues --    0.53431   0.53459   0.53597   0.53664   0.53806
 Alpha virt. eigenvalues --    0.54137   0.54195   0.54385   0.54579   0.54857
 Alpha virt. eigenvalues --    0.55099   0.55165   0.55205   0.55671   0.55703
 Alpha virt. eigenvalues --    0.55863   0.56103   0.56331   0.56576   0.56764
 Alpha virt. eigenvalues --    0.56993   0.57341   0.57563   0.57874   0.58102
 Alpha virt. eigenvalues --    0.58285   0.58372   0.58550   0.58783   0.58942
 Alpha virt. eigenvalues --    0.59051   0.59468   0.60001   0.60105   0.60218
 Alpha virt. eigenvalues --    0.60515   0.60578   0.60941   0.61189   0.61366
 Alpha virt. eigenvalues --    0.61741   0.61857   0.62291   0.62679   0.63121
 Alpha virt. eigenvalues --    0.63278   0.63425   0.63753   0.63806   0.64037
 Alpha virt. eigenvalues --    0.64390   0.64616   0.64788   0.65119   0.65399
 Alpha virt. eigenvalues --    0.65693   0.66260   0.66530   0.66700   0.66791
 Alpha virt. eigenvalues --    0.67259   0.67746   0.68121   0.68189   0.68400
 Alpha virt. eigenvalues --    0.68716   0.68967   0.69555   0.69988   0.70207
 Alpha virt. eigenvalues --    0.70540   0.70828   0.71078   0.71444   0.71455
 Alpha virt. eigenvalues --    0.71848   0.72062   0.72259   0.72707   0.73028
 Alpha virt. eigenvalues --    0.73320   0.73428   0.73602   0.73654   0.73752
 Alpha virt. eigenvalues --    0.74395   0.74513   0.74875   0.75277   0.75536
 Alpha virt. eigenvalues --    0.76073   0.76160   0.76359   0.76571   0.76866
 Alpha virt. eigenvalues --    0.77295   0.77537   0.78130   0.78628   0.78775
 Alpha virt. eigenvalues --    0.78971   0.79321   0.79636   0.79822   0.80134
 Alpha virt. eigenvalues --    0.80300   0.80548   0.81196   0.81630   0.81945
 Alpha virt. eigenvalues --    0.82299   0.82581   0.82823   0.83358   0.83448
 Alpha virt. eigenvalues --    0.83731   0.84041   0.84543   0.84654   0.84977
 Alpha virt. eigenvalues --    0.85221   0.85956   0.86109   0.86418   0.86620
 Alpha virt. eigenvalues --    0.87024   0.87254   0.88189   0.88662   0.88979
[...]
 Alpha virt. eigenvalues --    2.69400   2.69755   2.70329   2.70679   2.70826
 Alpha virt. eigenvalues --    2.71218   2.71579   2.71876   2.72195   2.72700
 Alpha virt. eigenvalues --    2.72790   2.72919   2.73200   2.74115   2.74199
 Alpha virt. eigenvalues --    2.74594   2.75034   2.75323   2.75589   2.76085
 Alpha virt. eigenvalues --    2.76184   2.76538   2.77187   2.77705   2.78049
 Alpha virt. eigenvalues --    2.78346   2.78474   2.78744   2.79113   2.79264
 Alpha virt. eigenvalues --    2.79676   2.79892   2.80308   2.80421   2.80679
 Alpha virt. eigenvalues --    2.81074   2.81365   2.81664   2.81895   2.82071
 Alpha virt. eigenvalues --    2.82249   2.82437   2.82780   2.82964   2.83733
 Alpha virt. eigenvalues --    2.84144   2.84364   2.84523   2.85084   2.85416
 Alpha virt. eigenvalues --    2.86051   2.86303   2.86473   2.87006   2.87144
 Alpha virt. eigenvalues --    2.87580   2.87835   2.88649   2.89046   2.89508
 Alpha virt. eigenvalues --    2.89817   2.90376   2.90475   2.90701   2.90814
 Alpha virt. eigenvalues --    2.91563   2.91816   2.91908   2.92121   2.92294
 Alpha virt. eigenvalues --    2.92782   2.93051   2.93313   2.93970   2.94109
 Alpha virt. eigenvalues --    2.94545   2.95015   2.95404   2.96209   2.96362
 Alpha virt. eigenvalues --    2.96633   2.96922   2.97283   2.97356   2.97545
 Alpha virt. eigenvalues --    2.98034   2.98612   2.98949   2.99564   3.00473
 Alpha virt. eigenvalues --    3.00749   3.00798   3.01180   3.01670   3.01763
 Alpha virt. eigenvalues --    3.02188   3.02853   3.02995   3.03172   3.03525
 Alpha virt. eigenvalues --    3.04195   3.04397   3.04796   3.05007   3.05450
 Alpha virt. eigenvalues --    3.06309   3.07026   3.07229   3.07343   3.07875
 Alpha virt. eigenvalues --    3.08369   3.08733   3.09023   3.09109   3.09358
 Alpha virt. eigenvalues --    3.09860   3.10360   3.10540   3.10775   3.11120
 Alpha virt. eigenvalues --    3.11276   3.11810   3.12126   3.12246   3.12546
 Alpha virt. eigenvalues --    3.12926   3.13529   3.13772   3.14026   3.14269
 Alpha virt. eigenvalues --    3.14512   3.14971   3.15523   3.15644   3.16567
 Alpha virt. eigenvalues --    3.16669   3.17026   3.17142   3.17297   3.17734
 Alpha virt. eigenvalues --    3.17809   3.17888   3.18107   3.18379   3.18692
 Alpha virt. eigenvalues --    3.18967   3.19207   3.19584   3.19907   3.20145
 Alpha virt. eigenvalues --    3.20341   3.20711   3.20909   3.21084   3.21432
 Alpha virt. eigenvalues --    3.21687   3.21920   3.22366   3.22522   3.22791
 Alpha virt. eigenvalues --    3.23125   3.23318   3.23430   3.23790   3.24186
 Alpha virt. eigenvalues --    3.24237   3.24792   3.24921   3.24992   3.25196
 Alpha virt. eigenvalues --    3.25388   3.25769   3.26371   3.26525   3.26776
 Alpha virt. eigenvalues --    3.26941   3.27516   3.27744   3.27826   3.28201
 Alpha virt. eigenvalues --    3.28526   3.28836   3.29092   3.29253   3.29600
 Alpha virt. eigenvalues --    3.30160   3.30342   3.30511   3.31101   3.31228
 Alpha virt. eigenvalues --    3.31324   3.31584   3.32316   3.32545   3.32744
 Alpha virt. eigenvalues --    3.32987   3.33023   3.33429   3.34231   3.34271
 Alpha virt. eigenvalues --    3.34481   3.34754   3.35071   3.35096   3.35457
 Alpha virt. eigenvalues --    3.35638   3.35978   3.36083   3.36206   3.36462
 Alpha virt. eigenvalues --    3.36917   3.37136   3.37307   3.37387   3.37765
 Alpha virt. eigenvalues --    3.37959   3.38271   3.38761   3.39008   3.39113
 Alpha virt. eigenvalues --    3.39173   3.39555   3.39932   3.40163   3.40463
 Alpha virt. eigenvalues --    3.40746   3.40861   3.41570   3.41950   3.42251
 Alpha virt. eigenvalues --    3.42341   3.42791   3.43004   3.43197   3.43442
 Alpha virt. eigenvalues --    3.43559   3.43925   3.44097   3.44466   3.44559
 Alpha virt. eigenvalues --    3.45022   3.45540   3.45612   3.45754   3.46109
 Alpha virt. eigenvalues --    3.46375   3.46384   3.46731   3.47075   3.47686
 Alpha virt. eigenvalues --    3.48197   3.48477   3.49498   3.49617   3.50304
 Alpha virt. eigenvalues --    3.50400   3.50826   3.50917   3.51124   3.51688
 Alpha virt. eigenvalues --    3.52261   3.52914   3.53089   3.53528   3.53909
 Alpha virt. eigenvalues --    3.54818   3.54989   3.55378   3.55699   3.55845
 Alpha virt. eigenvalues --    3.56243   3.56586   3.56872   3.57122   3.57841
 Alpha virt. eigenvalues --    3.58096   3.58951   3.59425   3.59657   3.59691
 Alpha virt. eigenvalues --    3.60537   3.60692   3.61117   3.61256   3.61529
 Alpha virt. eigenvalues --    3.61853   3.62523   3.63152   3.63356   3.63706
 Alpha virt. eigenvalues --    3.64208   3.64380   3.64755   3.65206   3.65522
 Alpha virt. eigenvalues --    3.65944   3.66400   3.66431   3.66825   3.67362
 Alpha virt. eigenvalues --    3.68057   3.68620   3.69079   3.69279   3.69533
 Alpha virt. eigenvalues --    3.69777   3.70024   3.70401   3.70932   3.71157
 Alpha virt. eigenvalues --    3.71540   3.72347   3.72968   3.73557   3.73799
 Alpha virt. eigenvalues --    3.74547   3.74747   3.75270   3.75753   3.76398
 Alpha virt. eigenvalues --    3.76730   3.76927   3.77411   3.77831   3.78080
 Alpha virt. eigenvalues --    3.78351   3.78688   3.79116   3.79597   3.79880
 Alpha virt. eigenvalues --    3.80174   3.80667   3.81326   3.82138   3.82429
 Alpha virt. eigenvalues --    3.82791   3.83393   3.84055   3.84416   3.84844
 Alpha virt. eigenvalues --    3.85030   3.85392   3.85844   3.86512   3.86555
 Alpha virt. eigenvalues --    3.87504   3.87769   3.87887   3.88423   3.88728
 Alpha virt. eigenvalues --    3.89467   3.90048   3.90269   3.90404   3.91250
 Alpha virt. eigenvalues --    3.91681   3.92573   3.92718   3.92996   3.93634
 Alpha virt. eigenvalues --    3.94957   3.95076   3.95453   3.96019   3.96257
 Alpha virt. eigenvalues --    3.97593   3.97849   3.98523   3.99070   3.99358
 Alpha virt. eigenvalues --    3.99663   4.00376   4.00673   4.01263   4.02176
 Alpha virt. eigenvalues --    4.02686   4.03159   4.03519   4.04475   4.05084
 Alpha virt. eigenvalues --    4.05527   4.05710   4.05937   4.06554   4.07352
 Alpha virt. eigenvalues --    4.08009   4.08240   4.08829   4.09288   4.09459
 Alpha virt. eigenvalues --    4.10588   4.10931   4.11052   4.12274   4.12503
 Alpha virt. eigenvalues --    4.13363   4.14163   4.15553   4.15975   4.16402
 Alpha virt. eigenvalues --    4.16503   4.18789   4.18924   4.19259   4.19774
 Alpha virt. eigenvalues --    4.19943   4.20007   4.21220   4.22434   4.22976
 Alpha virt. eigenvalues --    4.23911   4.24985   4.25118   4.25830   4.26446
 Alpha virt. eigenvalues --    4.26648   4.27396   4.28076   4.28784   4.28870
 Alpha virt. eigenvalues --    4.29595   4.30173   4.30279   4.30479   4.30946
 Alpha virt. eigenvalues --    4.31328   4.32407   4.32683   4.32989   4.33414
 Alpha virt. eigenvalues --    4.34076   4.34451   4.35095   4.35313   4.35648
 Alpha virt. eigenvalues --    4.36863   4.37145   4.37475   4.38263   4.39058
 Alpha virt. eigenvalues --    4.39964   4.40565   4.40748   4.41325   4.42013
 Alpha virt. eigenvalues --    4.42204   4.43066   4.43247   4.44580   4.44903
 Alpha virt. eigenvalues --    4.45652   4.45870   4.45948   4.46791   4.47331
 Alpha virt. eigenvalues --    4.47581   4.48136   4.48201   4.48957   4.49503
 Alpha virt. eigenvalues --    4.49707   4.50159   4.51306   4.52402   4.52957
 Alpha virt. eigenvalues --    4.52978   4.53231   4.53970   4.54812   4.55484
 Alpha virt. eigenvalues --    4.56042   4.56487   4.56961   4.57383   4.58140
 Alpha virt. eigenvalues --    4.58511   4.59485   4.60112   4.60376   4.61458
 Alpha virt. eigenvalues --    4.61615   4.61857   4.62644   4.63791   4.64310
 Alpha virt. eigenvalues --    4.64560   4.65189   4.66471   4.66949   4.67799
 Alpha virt. eigenvalues --    4.68459   4.69434   4.69966   4.71221   4.71587
 Alpha virt. eigenvalues --    4.73100   4.73636   4.74470   4.75251   4.75985
 Alpha virt. eigenvalues --    4.77201   4.77913   4.78244   4.79005   4.79594
 Alpha virt. eigenvalues --    4.80167   4.81121   4.83162   4.83808   4.84495
 Alpha virt. eigenvalues --    4.85279   4.85598   4.86205   4.88093   4.89179
 Alpha virt. eigenvalues --    4.89816   4.90296   4.90918   4.92006   4.93159
 Alpha virt. eigenvalues --    4.93684   4.94405   4.95836   4.96968   4.97707
 Alpha virt. eigenvalues --    4.98931   5.00012   5.01189   5.02210   5.03645
 Alpha virt. eigenvalues --    5.04074   5.05368   5.06856   5.07574   5.08281
 Alpha virt. eigenvalues --    5.08630   5.09723   5.10931   5.11480   5.12772
 Alpha virt. eigenvalues --    5.13684   5.14014   5.17141   5.18019   5.19135
 Alpha virt. eigenvalues --    5.20043   5.21246   5.22159   5.23104   5.25871
 Alpha virt. eigenvalues --    5.26686   5.27034   5.27617   5.29422   5.30778
 Alpha virt. eigenvalues --    5.31483   5.32755   5.35077   5.35741   5.36686
 Alpha virt. eigenvalues --    5.37301   5.39883   5.40919   5.43298   5.43930
 Alpha virt. eigenvalues --    5.46726   5.47281   5.52554   5.54011   5.55371
 Alpha virt. eigenvalues --    5.55964   5.57015   5.61270   5.65646   5.67501
 Alpha virt. eigenvalues --    5.71148   5.73209   5.83177   5.85324   5.86022
 Alpha virt. eigenvalues --    5.87353   5.99300   6.00433   6.38714   6.39569
 Alpha virt. eigenvalues --    6.55737   6.55864   6.80120   6.80941   6.86847
 Alpha virt. eigenvalues --    6.87556   7.07173   7.07381   7.24608   7.26350
 Alpha virt. eigenvalues --   22.37557  22.45365  22.46416  22.47697  22.49489
 Alpha virt. eigenvalues --   22.51132  22.52057  22.54020  22.55531  22.56337
 Alpha virt. eigenvalues --   22.56764  22.58266  22.59117  22.61649  22.62334
 Alpha virt. eigenvalues --   22.64885  22.65712  22.70703  22.71112  22.72973
 Alpha virt. eigenvalues --   22.74161  22.74558  22.75381  22.77154  22.81924
 Alpha virt. eigenvalues --   22.84868  22.86013  22.86811  22.88224  22.90785
 Alpha virt. eigenvalues --   22.93295  22.95774  23.02923  23.04010  23.17782
 Alpha virt. eigenvalues --   23.21530  23.23501  23.26223  23.27588  23.40393
 Alpha virt. eigenvalues --   44.10196  44.16258
          Condensed to atoms (all electrons):
 Mulliken charges:
               1
     1  O   -0.487545
     2  O   -0.474089
     3  C    0.068306
     4  C    0.232622
     5  C   -0.289443
     6  C    0.308280
     7  C   -0.020208
     8  C    0.155864
     9  C   -0.318526
    10  C   -0.358104
    11  C   -0.222833
    12  C   -0.333076
    13  C    0.128658
    14  C    0.019875
    15  C   -0.393247
    16  C   -0.134377
    17  C   -0.019328
    18  C   -0.398547
    19  C   -0.388177
    20  C   -0.365159
    21  C   -0.131919
    22  C   -0.297751
    23  C   -0.371337
    24  C    0.101150
    25  C   -0.217663
    26  C   -0.359643
    27  C    0.120838
    28  C   -0.123598
    29  C   -0.335293
    30  C   -0.178151
    31  C   -0.053702
    32  C   -0.041156
    33  C   -0.211379
    34  C    0.088364
    35  C   -0.208472
    36  C    0.108231
    37  C   -0.333802
    38  C   -0.132599
    39  C   -0.114519
    40  C   -0.370244
    41  C   -0.096466
    42  C   -0.121766
    43  H    0.065538
    44  H    0.104068
    45  H    0.101866
    46  H    0.054653
    47  H    0.120717
    48  H    0.109207
    49  H    0.117846
    50  H    0.133453
    51  H    0.111584
    52  H    0.100327
    53  H    0.099150
    54  H    0.092322
    55  H    0.094833
    56  H    0.055160
    57  H    0.151404
    58  H    0.105804
    59  H    0.104637
    60  H    0.123579
    61  H    0.127038
    62  H    0.118957
    63  H    0.111146
    64  H    0.133751
    65  H    0.110144
    66  H    0.138215
    67  H    0.116465
    68  H    0.106635
    69  H    0.304548
    70  H    0.136820
    71  H    0.096032
    72  H    0.119564
    73  H    0.148728
    74  H    0.118616
    75  H    0.307800
    76  H    0.121385
    77  H    0.110349
    78  H    0.128907
    79  H    0.129491
    80  H    0.092181
    81  H    0.123599
    82  H    0.104606
    83  H    0.117324
    84  H    0.115980
    85  H    0.096514
    86  H    0.114481
    87  H    0.100457
    88  H    0.091909
    89  H    0.105456
    90  H    0.126927
    91  H    0.118147
    92  H    0.100071
    93  H    0.092981
    94  H    0.128614
    95  H    0.112819
    96  H    0.129703
    97  H    0.085957
    98  H    0.081468
 Sum of Mulliken charges =  -0.00000
 Mulliken charges with hydrogens summed into heavy atoms:
               1
     1  O   -0.182997
     2  O   -0.166289
     3  C    0.068306
     4  C    0.298160
     5  C   -0.083510
     6  C    0.362933
     7  C   -0.020208
     8  C    0.155864
     9  C    0.029245
    10  C   -0.012740
    11  C   -0.031361
    12  C   -0.238243
    13  C    0.183817
    14  C    0.019875
    15  C   -0.241843
    16  C    0.076065
    17  C   -0.019328
    18  C   -0.028974
    19  C   -0.033137
    20  C   -0.003844
    21  C   -0.035887
    22  C   -0.160932
    23  C    0.015570
    24  C    0.101150
    25  C   -0.096279
    26  C    0.009104
    27  C    0.120838
    28  C   -0.031417
    29  C    0.010236
    30  C   -0.062171
    31  C    0.042812
    32  C    0.073325
    33  C   -0.110922
    34  C    0.088364
    35  C   -0.116563
    36  C    0.108231
    37  C    0.016727
    38  C   -0.032528
    39  C   -0.021538
    40  C    0.000893
    41  C   -0.010508
    42  C   -0.040298
 Electronic spatial extent (au):  <R**2>=         103296.9726
 Charge=             -0.0000 electrons
 Dipole moment (field-independent basis, Debye):
    X=              0.2375    Y=             -1.4474    Z=             -0.1075  Tot=              1.4707
 Quadrupole moment (field-independent basis, Debye-Ang):
   XX=           -279.2669   YY=           -243.2615   ZZ=           -259.1229
   XY=             -8.7526   XZ=             33.2015   YZ=              2.7750
 Traceless Quadrupole moment (field-independent basis, Debye-Ang):
   XX=            -18.7165   YY=             17.2889   ZZ=              1.4276
   XY=             -8.7526   XZ=             33.2015   YZ=              2.7750
 Octapole moment (field-independent basis, Debye-Ang**2):
  XXX=            152.9695  YYY=             -3.7747  ZZZ=             28.9024  XYY=            -56.0826
  XXY=           -255.3546  XXZ=            -19.0653  XZZ=             66.5225  YZZ=             -7.0022
  YYZ=            -26.7194  XYZ=             -7.8760
 Hexadecapole moment (field-independent basis, Debye-Ang**3):
 XXXX=        -143280.5960 YYYY=          -4056.7518 ZZZZ=          -2753.9813 XXXY=          -1660.6681
 XXXZ=           7574.8873 YYYX=            200.7351 YYYZ=             -6.5547 ZZZX=            142.1276
 ZZZY=             18.5598 XXYY=         -22331.5458 XXZZ=         -21814.5101 YYZZ=          -1170.3724
 XXYZ=            740.0457 YYXZ=            117.9270 ZZXY=            102.0581
 N-N= 4.030493614456D+03 E-N=-1.202830187934D+04  KE= 1.700205942881D+03

 Test job not archived.
 1\1\GINC-PADAWAN\FOpt\RwB97XD\def2TZVP\C40H56O2\PADAWAN\26-Nov-2019\0\
 \# wB97XD/Def2TZVP iop(3/107=0112500000,3/108=0112500000) opt\\TITLE\\
 0,1\O,-13.9032977536,-2.2983812587,0.8847513806\O,14.7031754086,0.9524
 774423,0.6829938529\C,-11.7755865805,0.1411984725,1.29468232\C,-10.935
 2078252,0.1813827122,-0.015083886\C,-11.8972293607,-1.3191301156,1.762
 2267049\C,-12.4776141438,-2.2801963274,0.7286181318\C,-11.4299839523,-
 0.8280775788,-1.0400419682\C,11.1255722402,0.1093500965,1.701357246\C,
 -11.0937615775,0.963048707,2.3946063589\C,-13.1559019142,0.7582777646,
 1.019250431\C,12.4930135972,0.8154933017,1.7193953873\C,-12.0903447093
 ,-1.9264569082,-0.6794138338\C,13.4354921348,0.3083041649,0.6421302697
 \C,10.6039595013,-0.0374511716,0.2620509455\C,-9.4616798142,-0.0476190
 466,0.1952405456\C,12.8273250576,0.5859114615,-0.7156758589\C,11.37076
 43201,0.2067071277,-0.8170485416\C,10.1609098608,0.9573195795,2.552752
 8274\C,11.2365628974,-1.2882071141,2.3427261366\C,-11.0997899936,-0.52
 38268734,-2.4716737223\C,-8.5025628134,0.8171841591,-0.1521788597\C,9.
 2028585881,-0.4783088684,0.148410683\C,10.8779631667,0.1782169649,-2.2
 391182738\C,-7.0664140843,0.6264505862,0.0087433743\C,8.7751474212,-1.
 5215338993,-0.5758477695\C,-6.593432644,-0.660371986,0.6232375755\C,7.
 386755199,-1.9670247863,-0.7157790782\C,-6.2377279852,1.6153820182,-0.
 4038303163\C,7.2154818973,-3.4505887101,-0.9064501071\C,6.3638311292,-
 1.0832750348,-0.6854312793\C,-4.8008076723,1.6453427157,-0.3464805893\
 C,4.9550201099,-1.3701981672,-0.754564052\C,-4.0669187382,2.6897911926
 ,-0.7818422579\C,-2.6135022041,2.8039506779,-0.7828204426\C,4.00629279
 19,-0.4093725761,-0.7339491293\C,2.5741554369,-0.6139451379,-0.7936329
 653\C,-2.0920689767,4.2172039998,-0.7791115409\C,-1.8157689245,1.70806
 19233,-0.8034224047\C,1.7657362767,0.4777699948,-0.7577659915\C,2.0618
 777135,-2.0240795535,-0.8937977669\C,-0.3824916471,1.6672668346,-0.760
 910053\C,0.3333210797,0.5192655457,-0.8065831942\H,-11.0526592237,1.18
 08200474,-0.4481563196\H,-12.5135242635,-1.3740196569,2.6618706031\H,-
 10.9048124028,-1.6803725334,2.044443942\H,-12.1011168446,-3.2883893974
 ,0.9494663312\H,-10.1275569882,0.5434466187,2.6782378249\H,-10.9236387
 668,1.9907663322,2.0655823474\H,-11.7236093799,0.9958771934,3.28618066
 78\H,-13.6718127753,0.2594181418,0.2010810659\H,-13.7919175289,0.67965
 14224,1.9023696802\H,-13.0522199596,1.8174156582,0.7705389901\H,12.356
 2494647,1.8900168541,1.5646088709\H,12.9437734869,0.6904355902,2.70955
 6333\H,-12.4016401559,-2.630979314,-1.4477934458\H,13.5739302788,-0.77
 46493078,0.7547096528\H,-9.1918609611,-1.0036188274,0.6324080996\H,13.
 3915397571,0.060366065,-1.4913797922\H,12.9431117738,1.6538551677,-0.9
 357103271\H,9.2188003233,0.4431663535,2.7441204185\H,9.9422148013,1.91
 09318566,2.0684012896\H,10.6172101123,1.1686966214,3.5222079708\H,11.9
 485742604,-1.9198571152,1.8098988509\H,10.2715368835,-1.7967277664,2.3
 282702668\H,11.5611333421,-1.2070665562,3.3830111298\H,-10.0259583938,
 -0.3643155328,-2.5965265757\H,-11.5969098153,0.397729664,-2.7882945943
 \H,-11.4105807927,-1.3273763346,-3.1388250992\H,-14.2826892798,-2.7648
 336071,0.1380361603\H,8.4719616531,0.0565939819,0.7467964114\H,-8.8023
 842413,1.7625314186,-0.5979052303\H,11.2625083588,-0.6983022649,-2.769
 2029991\H,9.7936418896,0.1665737617,-2.3124434726\H,11.2562806281,1.05
 39013279,-2.7742546299\H,15.1009377634,0.7817227328,1.538089058\H,9.52
 02117729,-2.1308724099,-1.0810955642\H,-5.5113734773,-0.7139070036,0.7
 05722847\H,-7.0109571849,-0.7828812109,1.6257235868\H,-6.9271777337,-1
 .5152523806,0.0298257431\H,-6.7026068184,2.4988130742,-0.8339734463\H,
 7.5251324508,-3.9930031879,-0.0088818488\H,6.1932038181,-3.7383593602,
 -1.1394229434\H,7.8539827898,-3.800059202,-1.7220793939\H,6.6207944551
 ,-0.0305889408,-0.6113545713\H,-4.2868797588,0.7930425722,0.0822551492
 \H,4.648628045,-2.4072589524,-0.8178400997\H,-4.6044585117,3.563214522
 3,-1.1444870563\H,4.3322431493,0.6251883004,-0.6641401719\H,-1.0138968
 705,4.2773887104,-0.9027309013\H,-2.3551778025,4.7219875968,0.15429905
 91\H,-2.5521643158,4.7886807042,-1.5893749722\H,-2.3014676165,0.739413
 7448,-0.874080106\H,2.2545659053,1.4458368495,-0.6837388488\H,2.390361
 8138,-2.6149136313,-0.0352446044\H,0.9773012971,-2.0736980272,-0.93475
 10114\H,2.4518163219,-2.5123132283,-1.7902705646\H,0.1619113316,2.6021
 394245,-0.6803027867\H,-0.2120825786,-0.4153768886,-0.8823432619\\Vers
 ion=ES64L-G16RevA.03\State=1-A\HF=-1708.5612669\RMSD=2.959e-09\RMSF=4.
 600e-06\Dipole=0.0933466,-0.57013,-0.0323964\Quadrupole=-13.9141812,12
 .9239468,0.9902345,-6.0731112,24.7950071,1.8534642\PG=C01 [X(C40H56O2)
 ]\\@


 NECESSARY EVIL: ONE WE LIKE TOO MUCH TO RELINQUISH.
 Job cpu time:       6 days  4 hours  8 minutes 49.7 seconds.
 Elapsed time:       0 days 21 hours 15 minutes 31.7 seconds.
 File lengths (MBytes):  RWF=   1633 Int=      0 D2E=      0 Chk=    193 Scr=      1
 Normal termination of Gaussian 16 at Tue Nov 26 03:48:11 2019.
