 Entering Gaussian System, Link 0=g16
 Input=Geometria-294-.com
 Output=Geometria-294-.log
 Initial command:
 /usr/local/g16/l1.exe "/home/padawan/israel-mol/lutein/spectra/emi/Gau-22134.inp" -scrdir="/home/padawan/israel-mol/lutein/spectra/emi/"
 Entering Link 1 = /usr/local/g16/l1.exe PID=     22136.
  
 Copyright (c) 1988,1990,1992,1993,1995,1998,2003,2009,2016,
            Gaussian, Inc.  All Rights Reserved.
  
 This is part of the Gaussian(R) 16 program.  It is based on
 the Gaussian(R) 09 system (copyright 2009, Gaussian, Inc.),
 the Gaussian(R) 03 system (copyright 2003, Gaussian, Inc.),
 the Gaussian(R) 98 system (copyright 1998, Gaussian, Inc.),
 the Gaussian(R) 94 system (copyright 1995, Gaussian, Inc.),
 the Gaussian 92(TM) system (copyright 1992, Gaussian, Inc.),
 the Gaussian 90(TM) system (copyright 1990, Gaussian, Inc.),
 the Gaussian 88(TM) system (copyright 1988, Gaussian, Inc.),
 the Gaussian 86(TM) system (copyright 1986, Carnegie Mellon
 University), and the Gaussian 82(TM) system (copyright 1983,
 Carnegie Mellon University). Gaussian is a federally registered
 trademark of Gaussian, Inc.
  
 This software contains proprietary and confidential information,
 including trade secrets, belonging to Gaussian, Inc.
  
 This software is provided under written license and may be
 used, copied, transmitted, or stored only in accord with that
 written license.
  
 The following legend is applicable only to US Government
 contracts under FAR:
  
                    RESTRICTED RIGHTS LEGEND
  
 Use, reproduction and disclosure by the US Government is
 subject to restrictions as set forth in subparagraphs (a)
 and (c) of the Commercial Computer Software - Restricted
 Rights clause in FAR 52.227-19.
  
 Gaussian, Inc.
 340 Quinnipiac St., Bldg. 40, Wallingford CT 06492
  
  
 ---------------------------------------------------------------
 Warning -- This program may not be used in any manner that
 competes with the business of Gaussian, Inc. or will provide
 assistance to any competitor of Gaussian, Inc.  The licensee
 of this program is prohibited from giving any competitor of
 Gaussian, Inc. access to this program.  By using this program,
 the user acknowledges that Gaussian, Inc. is engaged in the
 business of creating and licensing software in the field of
 computational chemistry and represents and warrants to the
 licensee that it is not a competitor of Gaussian, Inc. and that
 it will not use this program in any manner prohibited above.
 ---------------------------------------------------------------
  

 Cite this work as:
 Gaussian 16, Revision A.03,
 M. J. Frisch, G. W. Trucks, H. B. Schlegel, G. E. Scuseria, 
 M. A. Robb, J. R. Cheeseman, G. Scalmani, V. Barone, 
 G. A. Petersson, H. Nakatsuji, X. Li, M. Caricato, A. V. Marenich, 
 J. Bloino, B. G. Janesko, R. Gomperts, B. Mennucci, H. P. Hratchian, 
 J. V. Ortiz, A. F. Izmaylov, J. L. Sonnenberg, D. Williams-Young, 
 F. Ding, F. Lipparini, F. Egidi, J. Goings, B. Peng, A. Petrone, 
 T. Henderson, D. Ranasinghe, V. G. Zakrzewski, J. Gao, N. Rega, 
 G. Zheng, W. Liang, M. Hada, M. Ehara, K. Toyota, R. Fukuda, 
 J. Hasegawa, M. Ishida, T. Nakajima, Y. Honda, O. Kitao, H. Nakai, 
 T. Vreven, K. Throssell, J. A. Montgomery, Jr., J. E. Peralta, 
 F. Ogliaro, M. J. Bearpark, J. J. Heyd, E. N. Brothers, K. N. Kudin, 
 V. N. Staroverov, T. A. Keith, R. Kobayashi, J. Normand, 
 K. Raghavachari, A. P. Rendell, J. C. Burant, S. S. Iyengar, 
 J. Tomasi, M. Cossi, J. M. Millam, M. Klene, C. Adamo, R. Cammi, 
 J. W. Ochterski, R. L. Martin, K. Morokuma, O. Farkas, 
 J. B. Foresman, and D. J. Fox, Gaussian, Inc., Wallingford CT, 2016.
 
 ******************************************
 Gaussian 16:  ES64L-G16RevA.03 25-Dec-2016
                14-Jul-2019 
 ******************************************
 %nproc=4
 Will use up to    4 processors via shared memory.
 %Mem=4GB
 -------------------------------------
 # td=(NStates=1) CAM-B3LYP/6-31G(d,p)
 -------------------------------------
 1/38=1,172=1/1;
 2/12=2,17=6,18=5,40=1/2;
 3/5=1,6=6,7=101,11=9,25=1,30=1,74=-40/1,2,3,8;
 4//1;
 5/5=2,38=5/2;
 8/6=1,10=2,108=1/1;
 9/41=1,42=1,70=2/14;
 6/7=2,8=2,9=2,10=2/1;
 99/5=1,9=1/99;
 --
 TD
 --
 Symbolic Z-matrix:
 Charge =  0 Multiplicity = 1
 8                    -14.18142  -1.75926   0.37489 
 8                     14.73307   1.06207   0.1774 
 6                    -11.7902  -0.00176   1.40483 
 6                    -11.01309   0.37191   0.13733 
 6                    -11.98656  -1.51564   1.48389 
 6                    -12.83299  -1.9768    0.1378 
 6                    -11.72539  -0.20175  -1.09328 
 6                     11.10142   1.18695   1.06434 
 6                    -10.95776   0.39669   2.58524 
 6                    -13.12663   0.88395   1.36716 
 6                     12.52193   1.5738    0.8733 
 6                    -12.46057  -1.33125  -1.10518 
 6                     13.4667   0.61881   0.51057 
 6                     10.76125   0.01311   0.08871 
 6                    -9.53381  -0.06339   0.1211 
 6                     13.12215  -0.01131  -0.83063 
 6                     11.62519  -0.43546  -0.84098 
 6                     10.12452   2.26901   1.06144 
 6                     10.90441   0.49301   2.59453 
 6                    -11.42428   0.47732  -2.43183 
 6                    -8.53794   0.86651   0.07813 
 6                     9.28182  -0.47091   0.12479 
 6                     11.31441  -1.48945  -1.88565 
 6                    -7.09594   0.50671  -0.01357 
 6                     8.78989  -1.69617  -0.08043 
 6                    -6.74163  -0.96858   0.12821 
 6                     7.44397  -2.24098  -0.10864 
 6                    -6.19181   1.4477   -0.34314 
 6                     7.3298   -3.60746   0.22728 
 6                     6.41749  -1.235    -0.28142 
 6                    -4.74506   1.3556   -0.42165 
 6                     5.00451  -1.62478  -0.28274 
 6                    -3.96874   2.46336  -0.64749 
 6                    -2.54939   2.48523  -0.79019 
 6                     3.99908  -0.73081  -0.52097 
 6                     2.59346  -0.92369  -0.3897 
 6                    -1.8706    3.74485  -1.16858 
 6                    -1.71674   1.23466  -0.57825 
 6                     1.73187   0.10791  -0.54836 
 6                     2.15965  -2.3909   -0.16748 
 6                    -0.40209   1.24195  -0.68588 
 6                     0.39849   0.15275  -0.42307 
 1                    -10.94183   1.55086   0.21432 
 1                    -12.60635  -1.71999   2.36254 
 1                    -11.01666  -1.94128   1.55778 
 1                    -12.69974  -2.87684   0.10196 
 1                    -9.84222  -0.03347   2.29408 
 1                    -10.61314   1.44692   2.31601 
 1                    -11.31363   0.17565   3.66192 
 1                    -13.91391   0.46914   0.66891 
 1                    -13.63549   0.84328   2.31031 
 1                    -13.14636   1.98077   1.40129 
 1                     12.56577   2.45322   0.33577 
 1                     12.91033   2.02792   1.83047 
 1                    -12.87229  -1.74662  -2.1042 
 1                     13.44101  -0.31195   1.23091 
 1                    -9.31801  -1.10212   0.15363 
 1                     13.89284  -0.77383  -1.18299 
 1                     13.24091   0.70354  -1.6697 
 1                     9.20149   1.98692   1.36874 
 1                     9.90813   2.58722   0.17801 
 1                     10.5379   3.12405   1.36566 
 1                     11.5976  -0.37668   2.49723 
 1                     9.88962  -0.05766   2.43254 
 1                     11.16425   1.26339   3.16631 
 1                    -10.44038   0.47854  -2.407 
 1                    -11.83699   1.45455  -2.29008 
 1                    -11.66679  -0.0469   -3.33468 
 1                    -14.64741  -1.93763  -0.48307 
 1                     8.42311   0.14237   0.54953 
 1                    -8.88778   1.91849   0.06619 
 1                     12.03514  -2.46942  -1.47859 
 1                     10.27447  -1.76773  -2.08616 
 1                     11.75332  -1.19574  -2.84002 
 1                     15.13339   1.51462   0.94259 
 1                     9.55674  -2.54748  -0.10661 
 1                    -5.73647  -0.99273  -0.1284 
 1                    -6.73318  -1.29919   1.31261 
 1                    -7.22951  -1.42171  -0.62078 
 1                    -6.5569    2.32725  -0.53575 
 1                     7.21094  -3.97823   1.28983 
 1                     6.33755  -3.96796  -0.23939 
 1                     8.19835  -4.19344  -0.0643 
 1                     6.74454  -0.15578  -0.52859 
 1                    -4.27081   0.34113   0.04447 
 1                     4.63587  -2.6101    0.14063 
 1                    -4.46249   3.33821  -0.99305 
 1                     4.34514   0.10109  -0.89583 
 1                    -1.71583   3.90287  -2.36188 
 1                    -0.90307   3.91052  -0.42883 
 1                    -2.53083   4.59346  -0.90842 
 1                    -2.202     0.41533  -0.47849 
 1                     2.18513   1.1395   -0.8231 
 1                     2.15423  -2.45162   1.09033 
 1                     1.17516  -2.6461   -0.32858 
 1                     2.58573  -3.25021  -0.75111 
 1                     0.23283   2.15427  -0.88401 
 1                    -0.32646  -0.62911  -0.1051 
 
 Stoichiometry    C40H56O2
 Framework group  C1[X(C40H56O2)]
 Deg. of freedom   288
 Full point group                 C1      NOp   1
 Largest Abelian subgroup         C1      NOp   1
 Largest concise Abelian subgroup C1      NOp   1
                         Standard orientation:                         
 ---------------------------------------------------------------------
 Center     Atomic      Atomic             Coordinates (Angstroms)
 Number     Number       Type             X           Y           Z
 ---------------------------------------------------------------------
      1          8           0      -14.181287   -1.764592    0.380318
      2          8           0       14.731776    1.070753    0.174821
      3          6           0      -11.791414    0.001276    1.399011
      4          6           0      -11.013989    0.366577    0.129265
      5          6           0      -11.987003   -1.512117    1.488477
      6          6           0      -12.832639   -1.983043    0.145278
      7          6           0      -11.725488   -0.215970   -1.097628
      8          6           0       11.099712    1.199830    1.059425
      9          6           0      -10.959656    0.408342    2.576965
     10          6           0      -13.128296    0.885998    1.354677
     11          6           0       12.520089    1.586102    0.866285
     12          6           0      -12.460062   -1.345921   -1.101996
     13          6           0       13.465511    0.629131    0.510549
     14          6           0       10.760551    0.019081    0.091819
     15          6           0       -9.534475   -0.068034    0.116645
     16          6           0       13.121838   -0.010445   -0.826389
     17          6           0       11.625103   -0.435457   -0.834398
     18          6           0       10.122234    2.281318    1.048643
     19          6           0       10.902453    0.516398    2.594310
     20          6           0      -11.424199    0.453971   -2.440720
     21          6           0       -8.539080    0.862079    0.067635
     22          6           0        9.281371   -0.465475    0.130661
     23          6           0       11.315309   -1.496826   -1.871866
     24          6           0       -7.096853    0.502419   -0.021004
     25          6           0        8.790167   -1.692384   -0.066269
     26          6           0       -6.741811   -0.971658    0.131132
     27          6           0        7.444556   -2.238092   -0.091241
     28          6           0       -6.193089    1.441587   -0.356715
     29          6           0        7.330970   -3.602281    0.254095
     30          6           0        6.417607   -1.233888   -0.271392
     31          6           0       -4.746258    1.349719   -0.434016
     32          6           0        5.004837   -1.624419   -0.270571
     33          6           0       -3.970436    2.456303   -0.667206
     34          6           0       -2.551037    2.477939   -0.809494
     35          6           0        3.999031   -0.732661   -0.515394
     36          6           0        2.593454   -0.925371   -0.383354
     37          6           0       -1.872764    3.735273   -1.196323
     38          6           0       -1.717812    1.229312   -0.588567
     39          6           0        1.731385    0.104644   -0.549498
     40          6           0        2.160337   -2.391244   -0.151150
     41          6           0       -0.403126    1.236558   -0.695719
     42          6           0        0.397934    0.149633   -0.425046
     43          1           0      -10.943389    1.546067    0.198118
     44          1           0      -12.607038   -1.710713    2.368282
     45          1           0      -11.016902   -1.936724    1.565703
     46          1           0      -12.698903   -2.883237    0.115723
     47          1           0       -9.843773   -0.023231    2.289239
     48          1           0      -10.615490    1.456863    2.300605
     49          1           0      -11.315843    0.194574    3.655013
     50          1           0      -13.915078    0.465941    0.659008
     51          1           0      -13.637514    0.851582    2.297880
     52          1           0      -13.148627    1.983015    1.381204
     53          1           0       12.563683    2.461805    0.322691
     54          1           0       12.907859    2.047048    1.820437
     55          1           0      -12.871163   -1.768421   -2.098281
     56          1           0       13.440031   -0.296632    1.237313
     57          1           0       -9.318138   -1.106394    0.156456
     58          1           0       13.893079   -0.774978   -1.173157
     59          1           0       13.240556    0.698637   -1.670341
     60          1           0        9.199228    2.000872    1.357525
     61          1           0        9.906034    2.593291    0.162950
     62          1           0       10.535036    3.138666    1.347103
     63          1           0       11.596145   -0.353578    2.503308
     64          1           0        9.888024   -0.035920    2.435729
     65          1           0       11.161649    1.290864    3.160845
     66          1           0      -10.440310    0.455886   -2.415509
     67          1           0      -11.837491    1.431940   -2.305907
     68          1           0      -11.666075   -0.076622   -3.340020
     69          1           0      -14.646831   -1.949148   -0.476566
     70          1           0        8.422163    0.150283    0.550796
     71          1           0       -8.889478    1.913766    0.048266
     72          1           0       12.036394   -2.473565   -1.457743
     73          1           0       10.275597   -1.777044   -2.070865
     74          1           0       11.754450   -1.209499   -2.828074
     75          1           0       15.131555    1.528801    0.937022
     76          1           0        9.557480   -2.543443   -0.086240
     77          1           0       -5.736538   -0.997048   -0.124895
     78          1           0       -6.733669   -1.294058    1.317804
     79          1           0       -7.229152   -1.430230   -0.614892
     80          1           0       -6.558567    2.319590   -0.555559
     81          1           0        7.211888   -3.965743    1.319136
     82          1           0        6.339104   -3.966532   -0.210469
     83          1           0        8.199952   -4.189794   -0.033075
     84          1           0        6.744187   -0.156231   -0.525905
     85          1           0       -4.271657    0.338760    0.039310
     86          1           0        4.636546   -2.606980    0.159459
     87          1           0       -4.464515    3.328477   -1.019017
     88          1           0        4.344801    0.096808   -0.895866
     89          1           0       -1.717604    3.885110   -2.390636
     90          1           0       -0.905628    3.906579   -0.457361
     91          1           0       -2.533557    4.585315   -0.942313
     92          1           0       -2.202677    0.410435   -0.483327
     93          1           0        2.184203    1.134544   -0.831192
     94          1           0        2.154447   -2.443253    1.107050
     95          1           0        1.176051   -2.648081   -0.310871
     96          1           0        2.587110   -3.254348   -0.728640
     97          1           0        0.231390    2.147822   -0.899904
     98          1           0       -0.326729   -0.630393   -0.101963
 ---------------------------------------------------------------------
 Rotational constants (GHZ):           0.2507118           0.0098370           0.0096933
 Standard basis: 6-31G(d,p) (6D, 7F)
 There are   910 symmetry adapted cartesian basis functions of A   symmetry.
 There are   910 symmetry adapted basis functions of A   symmetry.
   910 basis functions,  1568 primitive gaussians,   910 cartesian basis functions
   156 alpha electrons      156 beta electrons
       nuclear repulsion energy      4024.9521919795 Hartrees.
 NAtoms=   98 NActive=   98 NUniq=   98 SFac= 1.00D+00 NAtFMM=   60 NAOKFM=T Big=T
 Integral buffers will be    131072 words long.
 Raffenetti 1 integral format.
 Two-electron integral symmetry is turned on.
 One-electron integrals computed using PRISM.
 NBasis=   910 RedAO= T EigKep=  7.70D-04  NBF=   910
 NBsUse=   910 1.00D-06 EigRej= -1.00D+00 NBFU=   910
 ExpMin= 1.61D-01 ExpMax= 5.48D+03 ExpMxC= 8.25D+02 IAcc=3 IRadAn=         5 AccDes= 0.00D+00
 Harris functional with IExCor=20419 and IRadAn=       5 diagonalized for initial guess.
 HarFok:  IExCor=20419 AccDes= 0.00D+00 IRadAn=         5 IDoV= 1 UseB2=F ITyADJ=14
 ICtDFT=  3500011 ScaDFX=  1.000000  1.000000  1.000000  1.000000
 FoFCou: FMM=F IPFlag=           0 FMFlag=      100000 FMFlg1=        2001
         NFxFlg=           0 DoJE=T BraDBF=F KetDBF=T FulRan=T
         wScrn=  0.000000 ICntrl=       500 IOpCl=  0 I1Cent=   200000004 NGrid=           0
         NMat0=    1 NMatS0=      1 NMatT0=    0 NMatD0=    1 NMtDS0=    0 NMtDT0=    0
 Petite list used in FoFCou.
 Requested convergence on RMS density matrix=1.00D-08 within 128 cycles.
 Requested convergence on MAX density matrix=1.00D-06.
 Requested convergence on             energy=1.00D-06.
 No special actions if energy rises.
 Integral accuracy reduced to 1.0D-05 until final iterations.
 Initial convergence to 1.0D-05 achieved.  Increase integral accuracy.
 SCF Done:  E(RCAM-B3LYP) =  -1706.86203097     A.U. after   15 cycles
            NFock= 15  Conv=0.70D-08     -V/T= 2.0090
 DoSCS=F DFT=T ScalE2(SS,OS)=  1.000000  1.000000
 ExpMin= 1.61D-01 ExpMax= 5.48D+03 ExpMxC= 8.25D+02 IAcc=3 IRadAn=         5 AccDes= 0.00D+00
 HarFok:  IExCor=  205 AccDes= 0.00D+00 IRadAn=         5 IDoV=-2 UseB2=F ITyADJ=14
 ICtDFT= 12500011 ScaDFX=  1.000000  1.000000  1.000000  1.000000
 GSVD:  LWork=       -2100 too small for GESVD, short by        9450 words or        9450 for optimal perf.
 Range of M.O.s used for correlation:    43   910
 NBasis=   910 NAE=   156 NBE=   156 NFC=    42 NFV=     0
 NROrb=    868 NOA=   114 NOB=   114 NVA=   754 NVB=   754
 Orbital symmetries:
       Occupied  (A) (A) (A) (A) (A) (A) (A) (A) (A) (A) (A) (A)
                 (A) (A) (A) (A) (A) (A) (A) (A) (A) (A) (A) (A)
                 (A) (A) (A) (A) (A) (A) (A) (A) (A) (A) (A) (A)
                 (A) (A) (A) (A) (A) (A) (A) (A) (A) (A) (A) (A)
                 (A) (A) (A) (A) (A) (A) (A) (A) (A) (A) (A) (A)
                 (A) (A) (A) (A) (A) (A) (A) (A) (A) (A) (A) (A)
                 (A) (A) (A) (A) (A) (A) (A) (A) (A) (A) (A) (A)
                 (A) (A) (A) (A) (A) (A) (A) (A) (A) (A) (A) (A)
                 (A) (A) (A) (A) (A) (A) (A) (A) (A) (A) (A) (A)
                 (A) (A) (A) (A) (A) (A) (A) (A) (A) (A) (A) (A)
                 (A) (A) (A) (A) (A) (A) (A) (A) (A) (A) (A) (A)
                 (A) (A) (A) (A) (A) (A) (A) (A) (A) (A) (A) (A)
                 (A) (A) (A) (A) (A) (A) (A) (A) (A) (A) (A) (A)
       Virtual   (A) (A) (A) (A) (A) (A) (A) (A) (A) (A) (A) (A)
                 (A) (A) (A) (A) (A) (A) (A) (A) (A) (A) (A) (A)
                 (A) (A) (A) (A) (A) (A) (A) (A) (A) (A) (A) (A)
                 (A) (A) (A) (A) (A) (A) (A) (A) (A) (A) (A) (A)
                 (A) (A) (A) (A) (A) (A) (A) (A) (A) (A) (A) (A)
                 (A) (A) (A) (A) (A) (A) (A) (A) (A) (A) (A) (A)
                 (A) (A) (A) (A) (A) (A) (A) (A) (A) (A) (A) (A)
                 (A) (A) (A) (A) (A) (A) (A) (A) (A) (A) (A) (A)
                 (A) (A) (A) (A) (A) (A) (A) (A) (A) (A) (A) (A)
                 (A) (A) (A) (A) (A) (A) (A) (A) (A) (A) (A) (A)
                 (A) (A) (A) (A) (A) (A) (A) (A) (A) (A) (A) (A)
                 (A) (A) (A) (A) (A) (A) (A) (A) (A) (A) (A) (A)
                 (A) (A) (A) (A) (A) (A) (A) (A) (A) (A) (A) (A)
                 (A) (A) (A) (A) (A) (A) (A) (A) (A) (A) (A) (A)
                 (A) (A) (A) (A) (A) (A) (A) (A) (A) (A) (A) (A)
                 (A) (A) (A) (A) (A) (A) (A) (A) (A) (A) (A) (A)
                 (A) (A) (A) (A) (A) (A) (A) (A) (A) (A) (A) (A)
                 (A) (A) (A) (A) (A) (A) (A) (A) (A) (A) (A) (A)
                 (A) (A) (A) (A) (A) (A) (A) (A) (A) (A) (A) (A)
                 (A) (A) (A) (A) (A) (A) (A) (A) (A) (A) (A) (A)
                 (A) (A) (A) (A) (A) (A) (A) (A) (A) (A) (A) (A)
                 (A) (A) (A) (A) (A) (A) (A) (A) (A) (A) (A) (A)
                 (A) (A) (A) (A) (A) (A) (A) (A) (A) (A) (A) (A)
                 (A) (A) (A) (A) (A) (A) (A) (A) (A) (A) (A) (A)
                 (A) (A) (A) (A) (A) (A) (A) (A) (A) (A) (A) (A)
                 (A) (A) (A) (A) (A) (A) (A) (A) (A) (A) (A) (A)
                 (A) (A) (A) (A) (A) (A) (A) (A) (A) (A) (A) (A)
                 (A) (A) (A) (A) (A) (A) (A) (A) (A) (A) (A) (A)
                 (A) (A) (A) (A) (A) (A) (A) (A) (A) (A) (A) (A)
                 (A) (A) (A) (A) (A) (A) (A) (A) (A) (A) (A) (A)
                 (A) (A) (A) (A) (A) (A) (A) (A) (A) (A) (A) (A)
                 (A) (A) (A) (A) (A) (A) (A) (A) (A) (A) (A) (A)
                 (A) (A) (A) (A) (A) (A) (A) (A) (A) (A) (A) (A)
                 (A) (A) (A) (A) (A) (A) (A) (A) (A) (A) (A) (A)
                 (A) (A) (A) (A) (A) (A) (A) (A) (A) (A) (A) (A)
                 (A) (A) (A) (A) (A) (A) (A) (A) (A) (A) (A) (A)
                 (A) (A) (A) (A) (A) (A) (A) (A) (A) (A) (A) (A)
                 (A) (A) (A) (A) (A) (A) (A) (A) (A) (A) (A) (A)
                 (A) (A) (A) (A) (A) (A) (A) (A) (A) (A) (A) (A)
                 (A) (A) (A) (A) (A) (A) (A) (A) (A) (A) (A) (A)
                 (A) (A) (A) (A) (A) (A) (A) (A) (A) (A) (A) (A)
                 (A) (A) (A) (A) (A) (A) (A) (A) (A) (A) (A) (A)
                 (A) (A) (A) (A) (A) (A) (A) (A) (A) (A) (A) (A)
                 (A) (A) (A) (A) (A) (A) (A) (A) (A) (A) (A) (A)
                 (A) (A) (A) (A) (A) (A) (A) (A) (A) (A) (A) (A)
                 (A) (A) (A) (A) (A) (A) (A) (A) (A) (A) (A) (A)
                 (A) (A) (A) (A) (A) (A) (A) (A) (A) (A) (A) (A)
                 (A) (A) (A) (A) (A) (A) (A) (A) (A) (A) (A) (A)
                 (A) (A) (A) (A) (A) (A) (A) (A) (A) (A) (A) (A)
                 (A) (A) (A) (A) (A) (A) (A) (A) (A) (A) (A) (A)
                 (A) (A) (A) (A) (A) (A) (A) (A) (A) (A) (A) (A)
                 (A) (A) (A) (A) (A) (A) (A) (A) (A) (A) (A) (A)
                 (A) (A) (A) (A) (A) (A) (A) (A) (A) (A) (A) (A)
                 (A) (A) (A) (A) (A) (A) (A) (A) (A) (A) (A) (A)
                 (A) (A) (A) (A) (A) (A) (A) (A) (A) (A) (A) (A)
                 (A) (A) (A) (A) (A) (A) (A) (A) (A) (A) (A) (A)
                 (A) (A) (A) (A) (A) (A) (A) (A) (A) (A) (A) (A)
                 (A) (A) (A) (A) (A) (A) (A) (A) (A) (A) (A) (A)
                 (A) (A) (A) (A) (A) (A) (A) (A) (A) (A) (A) (A)
                 (A) (A) (A) (A) (A) (A) (A) (A) (A) (A) (A) (A)
                 (A) (A) (A) (A) (A) (A) (A) (A) (A) (A) (A) (A)
                 (A) (A) (A) (A) (A) (A) (A) (A) (A) (A) (A) (A)
                 (A) (A) (A) (A) (A) (A) (A) (A) (A) (A)
     4 initial guesses have been made.
 Convergence on wavefunction:    0.001000000000000
 Iteration     1 Dimension     4 NMult     0 NNew      4
 CISAX will form     4 AO SS matrices at one time.
 Iteration     2 Dimension     6 NMult     4 NNew      2
 Iteration     3 Dimension     8 NMult     6 NNew      2
 Iteration     4 Dimension    10 NMult     8 NNew      2
 Iteration     5 Dimension    12 NMult    10 NNew      2
 Iteration     6 Dimension    14 NMult    12 NNew      2
 ***********************************************************************
 Excited states from <AA,BB:AA,BB> singles matrix:
 ***********************************************************************
 
 Ground to excited state transition densities written to RWF  633
 Ground to excited state transition electric dipole moments (Au):
       state          X           Y           Z        Dip. S.      Osc.
         1         7.5765     -1.3657      0.1237     59.2839      2.8362
 Ground to excited state transition velocity dipole moments (Au):
       state          X           Y           Z        Dip. S.      Osc.
         1        -0.5275      0.0931     -0.0091      0.2870      2.6667
 Ground to excited state transition magnetic dipole moments (Au):
       state          X           Y           Z
         1         0.2252      0.7999      1.0592
 Ground to excited state transition velocity quadrupole moments (Au):
       state          XX          YY          ZZ          XY          XZ          YZ
         1        -0.3986     -0.0325      0.0472      0.4402     -0.0227     -0.1022
 <0|del|b> * <b|rxdel|0> + <0|del|b> * <b|delr+rdel|0>
 Rotatory Strengths (R) in cgs (10**-40 erg-esu-cm/Gauss)
       state          XX          YY          ZZ    R(velocity)    E-M Angle
         1       310.2294   -347.3286   -494.6281   -177.2424       94.29
 1/2[<0|r|b>*<b|rxdel|0> + (<0|rxdel|b>*<b|r|0>)*]
 Rotatory Strengths (R) in cgs (10**-40 erg-esu-cm/Gauss)
       state          XX          YY          ZZ     R(length)
         1     -1206.6409    772.4980    -92.6702   -175.6044
  1/2[<0|del|b>*<b|r|0> + (<0|r|b>*<b|del|0>)*] (Au)
       state          X           Y           Z        Dip. S.   Osc.(frdel)
         1        -3.9969     -0.1271     -0.0011      4.1252      2.7501

 Excitation energies and oscillator strengths:
 
 Excited State   1:      Singlet-A      1.9528 eV  634.92 nm  f=2.8362  <S**2>=0.000
     155 ->158         0.13157
     156 ->157         0.70020
     156 <-157        -0.11559
 This state for optimization and/or second-order correction.
 Total Energy, E(TD-HF/TD-DFT) =  -1706.79026862    
 Copying the excited state density for this state as the 1-particle RhoCI density.
 SavETr:  write IOETrn=   770 NScale= 10 NData=  16 NLR=1 NState=    1 LETran=      28.

 **********************************************************************

            Population analysis using the SCF density.

 **********************************************************************

 Orbital symmetries:
       Occupied  (A) (A) (A) (A) (A) (A) (A) (A) (A) (A) (A) (A)
                 (A) (A) (A) (A) (A) (A) (A) (A) (A) (A) (A) (A)
                 (A) (A) (A) (A) (A) (A) (A) (A) (A) (A) (A) (A)
                 (A) (A) (A) (A) (A) (A) (A) (A) (A) (A) (A) (A)
                 (A) (A) (A) (A) (A) (A) (A) (A) (A) (A) (A) (A)
                 (A) (A) (A) (A) (A) (A) (A) (A) (A) (A) (A) (A)
                 (A) (A) (A) (A) (A) (A) (A) (A) (A) (A) (A) (A)
                 (A) (A) (A) (A) (A) (A) (A) (A) (A) (A) (A) (A)
                 (A) (A) (A) (A) (A) (A) (A) (A) (A) (A) (A) (A)
                 (A) (A) (A) (A) (A) (A) (A) (A) (A) (A) (A) (A)
                 (A) (A) (A) (A) (A) (A) (A) (A) (A) (A) (A) (A)
                 (A) (A) (A) (A) (A) (A) (A) (A) (A) (A) (A) (A)
                 (A) (A) (A) (A) (A) (A) (A) (A) (A) (A) (A) (A)
       Virtual   (A) (A) (A) (A) (A) (A) (A) (A) (A) (A) (A) (A)
                 (A) (A) (A) (A) (A) (A) (A) (A) (A) (A) (A) (A)
                 (A) (A) (A) (A) (A) (A) (A) (A) (A) (A) (A) (A)
                 (A) (A) (A) (A) (A) (A) (A) (A) (A) (A) (A) (A)
                 (A) (A) (A) (A) (A) (A) (A) (A) (A) (A) (A) (A)
                 (A) (A) (A) (A) (A) (A) (A) (A) (A) (A) (A) (A)
                 (A) (A) (A) (A) (A) (A) (A) (A) (A) (A) (A) (A)
                 (A) (A) (A) (A) (A) (A) (A) (A) (A) (A) (A) (A)
                 (A) (A) (A) (A) (A) (A) (A) (A) (A) (A) (A) (A)
                 (A) (A) (A) (A) (A) (A) (A) (A) (A) (A) (A) (A)
                 (A) (A) (A) (A) (A) (A) (A) (A) (A) (A) (A) (A)
                 (A) (A) (A) (A) (A) (A) (A) (A) (A) (A) (A) (A)
                 (A) (A) (A) (A) (A) (A) (A) (A) (A) (A) (A) (A)
                 (A) (A) (A) (A) (A) (A) (A) (A) (A) (A) (A) (A)
                 (A) (A) (A) (A) (A) (A) (A) (A) (A) (A) (A) (A)
                 (A) (A) (A) (A) (A) (A) (A) (A) (A) (A) (A) (A)
                 (A) (A) (A) (A) (A) (A) (A) (A) (A) (A) (A) (A)
                 (A) (A) (A) (A) (A) (A) (A) (A) (A) (A) (A) (A)
                 (A) (A) (A) (A) (A) (A) (A) (A) (A) (A) (A) (A)
                 (A) (A) (A) (A) (A) (A) (A) (A) (A) (A) (A) (A)
                 (A) (A) (A) (A) (A) (A) (A) (A) (A) (A) (A) (A)
                 (A) (A) (A) (A) (A) (A) (A) (A) (A) (A) (A) (A)
                 (A) (A) (A) (A) (A) (A) (A) (A) (A) (A) (A) (A)
                 (A) (A) (A) (A) (A) (A) (A) (A) (A) (A) (A) (A)
                 (A) (A) (A) (A) (A) (A) (A) (A) (A) (A) (A) (A)
                 (A) (A) (A) (A) (A) (A) (A) (A) (A) (A) (A) (A)
                 (A) (A) (A) (A) (A) (A) (A) (A) (A) (A) (A) (A)
                 (A) (A) (A) (A) (A) (A) (A) (A) (A) (A) (A) (A)
                 (A) (A) (A) (A) (A) (A) (A) (A) (A) (A) (A) (A)
                 (A) (A) (A) (A) (A) (A) (A) (A) (A) (A) (A) (A)
                 (A) (A) (A) (A) (A) (A) (A) (A) (A) (A) (A) (A)
                 (A) (A) (A) (A) (A) (A) (A) (A) (A) (A) (A) (A)
                 (A) (A) (A) (A) (A) (A) (A) (A) (A) (A) (A) (A)
                 (A) (A) (A) (A) (A) (A) (A) (A) (A) (A) (A) (A)
                 (A) (A) (A) (A) (A) (A) (A) (A) (A) (A) (A) (A)
                 (A) (A) (A) (A) (A) (A) (A) (A) (A) (A) (A) (A)
                 (A) (A) (A) (A) (A) (A) (A) (A) (A) (A) (A) (A)
                 (A) (A) (A) (A) (A) (A) (A) (A) (A) (A) (A) (A)
                 (A) (A) (A) (A) (A) (A) (A) (A) (A) (A) (A) (A)
                 (A) (A) (A) (A) (A) (A) (A) (A) (A) (A) (A) (A)
                 (A) (A) (A) (A) (A) (A) (A) (A) (A) (A) (A) (A)
                 (A) (A) (A) (A) (A) (A) (A) (A) (A) (A) (A) (A)
                 (A) (A) (A) (A) (A) (A) (A) (A) (A) (A) (A) (A)
                 (A) (A) (A) (A) (A) (A) (A) (A) (A) (A) (A) (A)
                 (A) (A) (A) (A) (A) (A) (A) (A) (A) (A) (A) (A)
                 (A) (A) (A) (A) (A) (A) (A) (A) (A) (A) (A) (A)
                 (A) (A) (A) (A) (A) (A) (A) (A) (A) (A) (A) (A)
                 (A) (A) (A) (A) (A) (A) (A) (A) (A) (A) (A) (A)
                 (A) (A) (A) (A) (A) (A) (A) (A) (A) (A) (A) (A)
                 (A) (A) (A) (A) (A) (A) (A) (A) (A) (A) (A) (A)
                 (A) (A) (A) (A) (A) (A) (A) (A) (A) (A) (A) (A)
                 (A) (A) (A) (A) (A) (A) (A) (A) (A) (A) (A) (A)
                 (A) (A) (A) (A) (A) (A) (A) (A) (A) (A) (A) (A)
                 (A) (A) (A) (A) (A) (A) (A) (A) (A) (A) (A) (A)
                 (A) (A) (A) (A) (A) (A) (A) (A) (A) (A) (A) (A)
                 (A) (A) (A) (A) (A) (A) (A) (A) (A) (A) (A) (A)
                 (A) (A) (A) (A) (A) (A) (A) (A) (A) (A) (A) (A)
                 (A) (A) (A) (A) (A) (A) (A) (A) (A) (A) (A) (A)
                 (A) (A) (A) (A) (A) (A) (A) (A) (A) (A) (A) (A)
                 (A) (A) (A) (A) (A) (A) (A) (A) (A) (A) (A) (A)
                 (A) (A) (A) (A) (A) (A) (A) (A) (A) (A) (A) (A)
                 (A) (A) (A) (A) (A) (A) (A) (A) (A) (A) (A) (A)
                 (A) (A) (A) (A) (A) (A) (A) (A) (A) (A)
 The electronic state is 1-A.
 Alpha  occ. eigenvalues --  -19.21833 -19.20696 -10.30088 -10.28335 -10.28003
 Alpha  occ. eigenvalues --  -10.27874 -10.27866 -10.27528 -10.27495 -10.27439
 Alpha  occ. eigenvalues --  -10.27396 -10.27300 -10.26857 -10.26798 -10.26764
 Alpha  occ. eigenvalues --  -10.26763 -10.26481 -10.26435 -10.26358 -10.26338
 Alpha  occ. eigenvalues --  -10.26326 -10.26294 -10.26190 -10.26103 -10.26063
 Alpha  occ. eigenvalues --  -10.25890 -10.25497 -10.25496 -10.25421 -10.25391
 Alpha  occ. eigenvalues --  -10.25162 -10.25039 -10.24963 -10.24908 -10.24877
 Alpha  occ. eigenvalues --  -10.24870 -10.24382 -10.24097 -10.23898 -10.23155
 Alpha  occ. eigenvalues --  -10.22866 -10.20944  -1.11281  -1.10048  -0.93616
 Alpha  occ. eigenvalues --   -0.93303  -0.92526  -0.91514  -0.90811  -0.89942
 Alpha  occ. eigenvalues --   -0.87780  -0.86825  -0.86537  -0.85270  -0.84763
 Alpha  occ. eigenvalues --   -0.83509  -0.81989  -0.81038  -0.80512  -0.79007
 Alpha  occ. eigenvalues --   -0.77681  -0.77250  -0.76123  -0.75965  -0.75824
 Alpha  occ. eigenvalues --   -0.74795  -0.74742  -0.73782  -0.72827  -0.70222
 Alpha  occ. eigenvalues --   -0.68956  -0.68185  -0.66395  -0.64978  -0.64070
 Alpha  occ. eigenvalues --   -0.63532  -0.62308  -0.61602  -0.61530  -0.60339
 Alpha  occ. eigenvalues --   -0.59857  -0.59705  -0.58866  -0.58218  -0.56690
 Alpha  occ. eigenvalues --   -0.56449  -0.55180  -0.54634  -0.54411  -0.53904
 Alpha  occ. eigenvalues --   -0.53721  -0.52900  -0.52558  -0.52296  -0.51516
 Alpha  occ. eigenvalues --   -0.50950  -0.50722  -0.50481  -0.49736  -0.49360
 Alpha  occ. eigenvalues --   -0.48828  -0.48672  -0.48250  -0.47852  -0.47693
 Alpha  occ. eigenvalues --   -0.47520  -0.47380  -0.47121  -0.46743  -0.46536
 Alpha  occ. eigenvalues --   -0.46323  -0.46112  -0.45765  -0.45377  -0.45196
 Alpha  occ. eigenvalues --   -0.44444  -0.44428  -0.44296  -0.43860  -0.43080
 Alpha  occ. eigenvalues --   -0.42993  -0.42319  -0.42179  -0.41754  -0.41578
 Alpha  occ. eigenvalues --   -0.41546  -0.41377  -0.40962  -0.40787  -0.40728
 Alpha  occ. eigenvalues --   -0.40423  -0.40054  -0.39814  -0.39647  -0.39251
 Alpha  occ. eigenvalues --   -0.38950  -0.38688  -0.38357  -0.38220  -0.37674
 Alpha  occ. eigenvalues --   -0.37145  -0.36761  -0.36153  -0.35580  -0.34651
 Alpha  occ. eigenvalues --   -0.34208  -0.33639  -0.33516  -0.32819  -0.31689
 Alpha  occ. eigenvalues --   -0.31319  -0.29272  -0.28379  -0.26850  -0.23717
 Alpha  occ. eigenvalues --   -0.18714
 Alpha virt. eigenvalues --   -0.06529  -0.00787   0.02822   0.06014   0.07351
 Alpha virt. eigenvalues --    0.08802   0.11185   0.12067   0.12335   0.12795
 Alpha virt. eigenvalues --    0.12989   0.13506   0.13526   0.13654   0.13793
 Alpha virt. eigenvalues --    0.14027   0.14281   0.14822   0.14952   0.15618
 Alpha virt. eigenvalues --    0.15908   0.16112   0.16633   0.16761   0.17170
 Alpha virt. eigenvalues --    0.17436   0.17802   0.18103   0.18301   0.18560
 Alpha virt. eigenvalues --    0.19027   0.19142   0.19562   0.19882   0.19990
 Alpha virt. eigenvalues --    0.20389   0.20566   0.20938   0.21006   0.21230
 Alpha virt. eigenvalues --    0.21416   0.21446   0.21707   0.21927   0.22368
 Alpha virt. eigenvalues --    0.22607   0.22663   0.22983   0.23191   0.23441
 Alpha virt. eigenvalues --    0.23619   0.23773   0.24247   0.24541   0.25012
 Alpha virt. eigenvalues --    0.25108   0.25276   0.25676   0.25985   0.26417
 Alpha virt. eigenvalues --    0.26527   0.26800   0.27115   0.27509   0.27974
 Alpha virt. eigenvalues --    0.28333   0.28520   0.28813   0.29064   0.29273
 Alpha virt. eigenvalues --    0.29422   0.29780   0.30023   0.30619   0.30705
 Alpha virt. eigenvalues --    0.31301   0.32256   0.32632   0.32689   0.32967
 Alpha virt. eigenvalues --    0.33436   0.34133   0.34200   0.34330   0.34820
 Alpha virt. eigenvalues --    0.34956   0.35583   0.36522   0.37040   0.38676
 Alpha virt. eigenvalues --    0.39182   0.39360   0.40422   0.41115   0.41589
 Alpha virt. eigenvalues --    0.43378   0.43745   0.44038   0.44317   0.45671
 Alpha virt. eigenvalues --    0.46564   0.46930   0.47088   0.48498   0.48962
 Alpha virt. eigenvalues --    0.49384   0.50820   0.51333   0.53166   0.53912
 Alpha virt. eigenvalues --    0.54582   0.55357   0.55903   0.56268   0.56911
 Alpha virt. eigenvalues --    0.57263   0.57825   0.58282   0.58497   0.58904
 Alpha virt. eigenvalues --    0.59082   0.59282   0.59657   0.60343   0.60426
 Alpha virt. eigenvalues --    0.60897   0.61212   0.61678   0.61922   0.62080
 Alpha virt. eigenvalues --    0.62608   0.62695   0.63251   0.63381   0.63616
 Alpha virt. eigenvalues --    0.64383   0.64749   0.65393   0.65494   0.65869
 Alpha virt. eigenvalues --    0.66071   0.66521   0.66800   0.67052   0.67296
 Alpha virt. eigenvalues --    0.67439   0.67611   0.67913   0.68167   0.68773
 Alpha virt. eigenvalues --    0.69210   0.69507   0.69955   0.70350   0.70641
 Alpha virt. eigenvalues --    0.71010   0.71450   0.71606   0.71682   0.71863
 Alpha virt. eigenvalues --    0.72318   0.73036   0.73226   0.73385   0.73776
 Alpha virt. eigenvalues --    0.74003   0.74524   0.74966   0.75106   0.75808
 Alpha virt. eigenvalues --    0.76507   0.77339   0.77442   0.77637   0.77807
 Alpha virt. eigenvalues --    0.78368   0.78469   0.78975   0.79094   0.79610
 Alpha virt. eigenvalues --    0.79877   0.80160   0.80374   0.81085   0.81246
 Alpha virt. eigenvalues --    0.81365   0.82274   0.82385   0.82784   0.83213
 Alpha virt. eigenvalues --    0.83247   0.83862   0.84515   0.84971   0.84987
 Alpha virt. eigenvalues --    0.85413   0.85690   0.85846   0.86100   0.86499
 Alpha virt. eigenvalues --    0.86520   0.86768   0.87116   0.87593   0.87636
 Alpha virt. eigenvalues --    0.87750   0.88000   0.88124   0.88706   0.89199
 Alpha virt. eigenvalues --    0.89257   0.89716   0.90331   0.90733   0.90867
 Alpha virt. eigenvalues --    0.91049   0.91148   0.91533   0.91859   0.92029
 Alpha virt. eigenvalues --    0.92290   0.93392   0.93852   0.93880   0.94505
 Alpha virt. eigenvalues --    0.94588   0.94736   0.94915   0.95726   0.96048
 Alpha virt. eigenvalues --    0.96203   0.96958   0.97106   0.97176   0.97352
 Alpha virt. eigenvalues --    0.97547   0.98096   0.98185   0.98220   0.98973
 Alpha virt. eigenvalues --    0.99043   0.99322   0.99440   0.99562   1.00182
 Alpha virt. eigenvalues --    1.00694   1.01102   1.01250   1.01837   1.02351
 Alpha virt. eigenvalues --    1.02502   1.03035   1.03128   1.03779   1.04548
 Alpha virt. eigenvalues --    1.04796   1.05056   1.05106   1.05606   1.06400
 Alpha virt. eigenvalues --    1.06615   1.06722   1.06829   1.06932   1.07792
 Alpha virt. eigenvalues --    1.07970   1.08442   1.08954   1.09067   1.10090
 Alpha virt. eigenvalues --    1.10267   1.10925   1.11606   1.11905   1.12521
 Alpha virt. eigenvalues --    1.12743   1.13409   1.13761   1.14798   1.15658
 Alpha virt. eigenvalues --    1.16052   1.16887   1.16987   1.18819   1.19649
 Alpha virt. eigenvalues --    1.20070   1.20243   1.20405   1.21721   1.22386
 Alpha virt. eigenvalues --    1.23273   1.23611   1.24187   1.24649   1.25712
 Alpha virt. eigenvalues --    1.25936   1.26422   1.28318   1.29486   1.30205
 Alpha virt. eigenvalues --    1.31473   1.31755   1.32557   1.33161   1.33928
 Alpha virt. eigenvalues --    1.34136   1.34438   1.34849   1.35982   1.36314
 Alpha virt. eigenvalues --    1.36736   1.36870   1.37490   1.38668   1.38816
 Alpha virt. eigenvalues --    1.39981   1.40299   1.40788   1.41490   1.42195
 Alpha virt. eigenvalues --    1.42327   1.43442   1.44056   1.44428   1.45375
 Alpha virt. eigenvalues --    1.46602   1.47229   1.48282   1.49022   1.49180
 Alpha virt. eigenvalues --    1.49824   1.49915   1.50685   1.51187   1.53159
 Alpha virt. eigenvalues --    1.53409   1.53972   1.54596   1.55475   1.55829
 Alpha virt. eigenvalues --    1.57320   1.57376   1.57974   1.58929   1.59508
 Alpha virt. eigenvalues --    1.59733   1.61629   1.62696   1.63550   1.63936
 Alpha virt. eigenvalues --    1.64342   1.65102   1.65575   1.66503   1.67422
 Alpha virt. eigenvalues --    1.67776   1.68160   1.68891   1.70607   1.70810
 Alpha virt. eigenvalues --    1.71958   1.72477   1.72663   1.74292   1.74433
 Alpha virt. eigenvalues --    1.76076   1.76790   1.77005   1.77916   1.78593
 Alpha virt. eigenvalues --    1.79010   1.79842   1.80266   1.80750   1.81387
 Alpha virt. eigenvalues --    1.81711   1.82004   1.82419   1.83144   1.84544
 Alpha virt. eigenvalues --    1.84767   1.85153   1.85953   1.86255   1.86745
 Alpha virt. eigenvalues --    1.87265   1.87657   1.87877   1.88188   1.88306
 Alpha virt. eigenvalues --    1.88921   1.89360   1.89625   1.90530   1.90897
 Alpha virt. eigenvalues --    1.91033   1.91630   1.91908   1.92597   1.92774
 Alpha virt. eigenvalues --    1.93092   1.93217   1.94086   1.94327   1.95211
 Alpha virt. eigenvalues --    1.95684   1.95936   1.96288   1.96567   1.97012
 Alpha virt. eigenvalues --    1.97885   1.98117   1.98608   1.99107   1.99695
 Alpha virt. eigenvalues --    1.99923   2.00793   2.01039   2.01145   2.01673
 Alpha virt. eigenvalues --    2.01961   2.02474   2.03008   2.03435   2.03762
 Alpha virt. eigenvalues --    2.04290   2.04699   2.04865   2.05618   2.06487
 Alpha virt. eigenvalues --    2.06730   2.07123   2.08332   2.08608   2.08791
 Alpha virt. eigenvalues --    2.09606   2.10191   2.10393   2.11058   2.11444
 Alpha virt. eigenvalues --    2.11652   2.12150   2.12705   2.12857   2.13062
 Alpha virt. eigenvalues --    2.13393   2.14150   2.14338   2.14995   2.15259
 Alpha virt. eigenvalues --    2.15663   2.15919   2.16345   2.16743   2.17524
 Alpha virt. eigenvalues --    2.18267   2.18594   2.19053   2.19218   2.19501
 Alpha virt. eigenvalues --    2.19859   2.20533   2.20668   2.21211   2.21651
 Alpha virt. eigenvalues --    2.21874   2.22288   2.22752   2.23230   2.23980
 Alpha virt. eigenvalues --    2.24880   2.25082   2.25662   2.25988   2.26163
 Alpha virt. eigenvalues --    2.26455   2.27142   2.27696   2.28187   2.28879
 Alpha virt. eigenvalues --    2.29001   2.29796   2.30165   2.30633   2.30911
 Alpha virt. eigenvalues --    2.30950   2.31424   2.32017   2.32339   2.33110
 Alpha virt. eigenvalues --    2.33237   2.33492   2.34548   2.35187   2.35511
 Alpha virt. eigenvalues --    2.36397   2.37176   2.37444   2.38255   2.38682
 Alpha virt. eigenvalues --    2.38848   2.39086   2.39915   2.41359   2.41839
 Alpha virt. eigenvalues --    2.42128   2.42328   2.42875   2.43543   2.43672
 Alpha virt. eigenvalues --    2.44732   2.45118   2.45245   2.45546   2.46189
 Alpha virt. eigenvalues --    2.46291   2.46598   2.47621   2.47789   2.48194
 Alpha virt. eigenvalues --    2.48909   2.49055   2.49355   2.49585   2.50088
 Alpha virt. eigenvalues --    2.50326   2.50855   2.51957   2.52311   2.52368
 Alpha virt. eigenvalues --    2.52750   2.53056   2.53230   2.54229   2.54428
 Alpha virt. eigenvalues --    2.54630   2.55395   2.55628   2.56301   2.56909
 Alpha virt. eigenvalues --    2.57678   2.58281   2.58688   2.59299   2.59505
 Alpha virt. eigenvalues --    2.59803   2.60196   2.60462   2.60763   2.61347
 Alpha virt. eigenvalues --    2.62362   2.62934   2.63183   2.63283   2.63818
 Alpha virt. eigenvalues --    2.64438   2.64674   2.64880   2.65426   2.65772
 Alpha virt. eigenvalues --    2.66492   2.66755   2.67326   2.67733   2.68117
 Alpha virt. eigenvalues --    2.68784   2.69086   2.69548   2.69861   2.70180
 Alpha virt. eigenvalues --    2.71189   2.71689   2.71927   2.72211   2.72602
 Alpha virt. eigenvalues --    2.73073   2.73873   2.74161   2.74571   2.74924
 Alpha virt. eigenvalues --    2.75467   2.75938   2.76165   2.76738   2.77042
 Alpha virt. eigenvalues --    2.77646   2.77677   2.78242   2.79151   2.79857
 Alpha virt. eigenvalues --    2.80392   2.80605   2.81246   2.81510   2.82237
 Alpha virt. eigenvalues --    2.82553   2.83151   2.84234   2.85188   2.85613
 Alpha virt. eigenvalues --    2.85803   2.86084   2.86796   2.87002   2.87582
 Alpha virt. eigenvalues --    2.87880   2.88457   2.88827   2.89872   2.90081
 Alpha virt. eigenvalues --    2.90142   2.91321   2.91648   2.92046   2.93126
 Alpha virt. eigenvalues --    2.94160   2.94520   2.95302   2.95851   2.96607
 Alpha virt. eigenvalues --    2.96745   2.97186   2.97796   2.98226   2.99023
 Alpha virt. eigenvalues --    2.99632   2.99877   3.01037   3.01555   3.02606
 Alpha virt. eigenvalues --    3.03415   3.03581   3.04759   3.04966   3.05927
 Alpha virt. eigenvalues --    3.06037   3.07038   3.07598   3.08109   3.08644
 Alpha virt. eigenvalues --    3.09210   3.09749   3.10805   3.10877   3.11135
 Alpha virt. eigenvalues --    3.11411   3.12694   3.13414   3.14191   3.14965
 Alpha virt. eigenvalues --    3.16811   3.17638   3.19775   3.20381   3.20654
 Alpha virt. eigenvalues --    3.22239   3.22383   3.23011   3.24542   3.27524
 Alpha virt. eigenvalues --    3.27969   3.28129   3.28485   3.29514   3.30609
 Alpha virt. eigenvalues --    3.32161   3.35943   3.36313   3.38160   3.41005
 Alpha virt. eigenvalues --    3.41211   3.42517   3.43281   3.44072   3.44405
 Alpha virt. eigenvalues --    3.45128   3.45458   3.46407   3.48085   3.49487
 Alpha virt. eigenvalues --    3.49811   3.49940   3.52460   3.52760   3.53516
 Alpha virt. eigenvalues --    3.54339   3.55470   3.55809   3.56246   3.57388
 Alpha virt. eigenvalues --    3.57798   3.58882   3.58992   3.61720   3.62747
 Alpha virt. eigenvalues --    3.63850   3.64622   3.65072   3.66557   3.66835
 Alpha virt. eigenvalues --    3.67427   3.71802   3.72372   3.72771   3.76111
 Alpha virt. eigenvalues --    3.76993   3.78620   3.84468   3.87116   3.91122
 Alpha virt. eigenvalues --    3.95703   4.09122   4.10000   4.17460   4.18084
 Alpha virt. eigenvalues --    4.19670   4.20091   4.21775   4.25087   4.26053
 Alpha virt. eigenvalues --    4.28178   4.29874   4.31791   4.32273   4.35222
 Alpha virt. eigenvalues --    4.37463   4.41461   4.42682   4.46201   4.47473
 Alpha virt. eigenvalues --    4.48532   4.49774   4.50147   4.54655   4.55008
 Alpha virt. eigenvalues --    4.55602   4.57507   4.58287   4.63931   4.64231
 Alpha virt. eigenvalues --    4.64651   4.65747   4.69481   4.72120   4.73977
 Alpha virt. eigenvalues --    4.75308   4.76393   4.79932   4.81865   4.82666
 Alpha virt. eigenvalues --    4.84958   4.89070   4.92379   4.93427
          Condensed to atoms (all electrons):
 Mulliken charges:
               1
     1  O   -0.542290
     2  O   -0.548356
     3  C    0.039324
     4  C   -0.137039
     5  C   -0.187910
     6  C    0.183095
     7  C    0.096109
     8  C   -0.027747
     9  C   -0.298352
    10  C   -0.323660
    11  C   -0.184342
    12  C   -0.165503
    13  C    0.183867
    14  C    0.059362
    15  C   -0.099464
    16  C   -0.220703
    17  C    0.042964
    18  C   -0.289700
    19  C   -0.298495
    20  C   -0.341981
    21  C   -0.086417
    22  C   -0.144138
    23  C   -0.339798
    24  C    0.062057
    25  C   -0.123384
    26  C   -0.352839
    27  C    0.130828
    28  C   -0.088238
    29  C   -0.389989
    30  C   -0.141844
    31  C   -0.077149
    32  C   -0.099206
    33  C   -0.119543
    34  C    0.073957
    35  C   -0.090447
    36  C    0.115456
    37  C   -0.370637
    38  C   -0.088328
    39  C   -0.142783
    40  C   -0.370366
    41  C   -0.049645
    42  C   -0.069625
    43  H    0.082424
    44  H    0.111732
    45  H    0.098453
    46  H    0.067250
    47  H    0.076534
    48  H    0.083376
    49  H    0.100477
    50  H    0.125183
    51  H    0.091958
    52  H    0.088857
    53  H    0.105655
    54  H    0.062364
    55  H    0.074615
    56  H    0.067191
    57  H    0.098857
    58  H    0.106730
    59  H    0.112733
    60  H    0.110637
    61  H    0.110389
    62  H    0.099607
    63  H    0.095960
    64  H    0.104903
    65  H    0.107973
    66  H    0.126560
    67  H    0.117873
    68  H    0.102895
    69  H    0.301387
    70  H    0.079678
    71  H    0.084718
    72  H    0.074667
    73  H    0.125188
    74  H    0.108704
    75  H    0.294905
    76  H    0.071060
    77  H    0.109435
    78  H    0.106635
    79  H    0.136199
    80  H    0.063915
    81  H    0.128297
    82  H    0.107503
    83  H    0.121224
    84  H    0.100072
    85  H    0.084394
    86  H    0.087347
    87  H    0.086542
    88  H    0.063226
    89  H    0.114867
    90  H    0.108657
    91  H    0.110906
    92  H    0.061486
    93  H    0.078736
    94  H    0.094122
    95  H    0.120884
    96  H    0.122150
    97  H    0.072792
    98  H    0.072017
 Sum of Mulliken charges =  -0.00000
 Mulliken charges with hydrogens summed into heavy atoms:
               1
     1  O   -0.240902
     2  O   -0.253451
     3  C    0.039324
     4  C   -0.054615
     5  C    0.022275
     6  C    0.250344
     7  C    0.096109
     8  C   -0.027747
     9  C   -0.037966
    10  C   -0.017662
    11  C   -0.016323
    12  C   -0.090888
    13  C    0.251058
    14  C    0.059362
    15  C   -0.000607
    16  C   -0.001240
    17  C    0.042964
    18  C    0.030933
    19  C    0.010341
    20  C    0.005347
    21  C   -0.001699
    22  C   -0.064460
    23  C   -0.031239
    24  C    0.062057
    25  C   -0.052324
    26  C   -0.000570
    27  C    0.130828
    28  C   -0.024322
    29  C   -0.032965
    30  C   -0.041773
    31  C    0.007245
    32  C   -0.011859
    33  C   -0.033001
    34  C    0.073957
    35  C   -0.027221
    36  C    0.115456
    37  C   -0.036206
    38  C   -0.026842
    39  C   -0.064047
    40  C   -0.033211
    41  C    0.023146
    42  C    0.002392
 Electronic spatial extent (au):  <R**2>=         104645.5923
 Charge=             -0.0000 electrons
 Dipole moment (field-independent basis, Debye):
    X=              0.0162    Y=              0.0593    Z=             -0.6377  Tot=              0.6406
 Quadrupole moment (field-independent basis, Debye-Ang):
   XX=           -274.4956   YY=           -241.0541   ZZ=           -263.0332
   XY=             14.8892   XZ=             35.1677   YZ=              1.5961
 Traceless Quadrupole moment (field-independent basis, Debye-Ang):
   XX=            -14.9680   YY=             18.4735   ZZ=             -3.5056
   XY=             14.8892   XZ=             35.1677   YZ=              1.5961
 Octapole moment (field-independent basis, Debye-Ang**2):
  XXX=            244.4174  YYY=              3.1942  ZZZ=             -4.6388  XYY=             23.6432
  XXY=             65.3953  XXZ=            -72.3176  XZZ=            -15.6870  YZZ=             -1.6468
  YYZ=             -6.4694  XYZ=             -0.1879
 Hexadecapole moment (field-independent basis, Debye-Ang**3):
 XXXX=        -140957.5756 YYYY=          -4092.0585 ZZZZ=          -2163.6917 XXXY=           3348.1926
 XXXZ=           7917.0053 YYYX=            197.7485 YYYZ=            -28.0800 ZZZX=            -66.3841
 ZZZY=             -6.8085 XXYY=         -22136.5218 XXZZ=         -22786.7884 YYZZ=          -1067.9846
 XXYZ=           1176.6119 YYXZ=            252.1789 ZZXY=            232.1140
 N-N= 4.024952191980D+03 E-N=-1.200615353211D+04  KE= 1.691652957966D+03
 1\1\GINC-PADAWAN\SP\RCAM-B3LYP TD-FC\6-31G(d,p)\C40H56O2\PADAWAN\15-Ju
 l-2019\0\\# td=(NStates=1) CAM-B3LYP/6-31G(d,p)\\TD\\0,1\O,0,-14.18142
 40176,-1.7592643081,0.3748877441\O,0,14.7330651433,1.062073794,0.17739
 83357\C,0,-11.7902018798,-0.0017641015,1.4048253025\C,0,-11.0130882713
 ,0.371909962,0.1373274455\C,0,-11.986564137,-1.515636048,1.4838862299\
 C,0,-12.8329866922,-1.9767987447,0.1377979307\C,0,-11.7253878277,-0.20
 17476531,-1.0932848184\C,0,11.1014234729,1.1869503375,1.0643367134\C,0
 ,-10.9577572489,0.3966914079,2.5852355743\C,0,-13.1266288253,0.8839540
 423,1.3671577926\C,0,12.5219293734,1.5737968062,0.8733047167\C,0,-12.4
 605670426,-1.3312509929,-1.105183287\C,0,13.4666982907,0.6188095536,0.
 5105683757\C,0,10.7612455989,0.013111901,0.0887124563\C,0,-9.533812145
 1,-0.0633891871,0.1211021178\C,0,13.1221501926,-0.0113083502,-0.830628
 6492\C,0,11.6251856074,-0.4354585912,-0.8409791567\C,0,10.1245193375,2
 .2690062126,1.0614388573\C,0,10.9044112736,0.4930084762,2.5945300143\C
 ,0,-11.4242769252,0.4773193734,-2.4318254407\C,0,-8.5379398943,0.86651
 16336,0.0781341909\C,0,9.2818231116,-0.4709148673,0.1247925631\C,0,11.
 3144113866,-1.489451912,-1.8856481695\C,0,-7.095940917,0.5067079126,-0
 .0135734466\C,0,8.7898854449,-1.6961694144,-0.0804331843\C,0,-6.741625
 5841,-0.9685756145,0.1282057092\C,0,7.4439728848,-2.2409769697,-0.1086
 419265\C,0,-6.1918089569,1.4476983443,-0.3431361702\C,0,7.3297961738,-
 3.6074644686,0.2272829465\C,0,6.4174890179,-1.2350037891,-0.2814204844
 \C,0,-4.7450584795,1.3555990991,-0.4216530787\C,0,5.004511297,-1.62478
 03209,-0.2827360538\C,0,-3.9687382462,2.4633593621,-0.6474859376\C,0,-
 2.5493853766,2.4852264802,-0.790191767\C,0,3.9990838739,-0.7308135875,
 -0.5209716136\C,0,2.5934563942,-0.9236868402,-0.389703923\C,0,-1.87059
 56098,3.7448490675,-1.168576005\C,0,-1.7167387594,1.23465621,-0.578253
 8418\C,0,1.7318717322,0.1079123527,-0.5483633982\C,0,2.159649286,-2.39
 09018775,-0.1674843805\C,0,-0.4020924681,1.2419455159,-0.685881948\C,0
 ,0.3984946803,0.1527469425,-0.4230655674\H,0,-10.9418309246,1.55085687
 1,0.2143195868\H,0,-12.6063541085,-1.7199920129,2.3625441491\H,0,-11.0
 166593355,-1.9412833233,1.5577790605\H,0,-12.699743608,-2.876836791,0.
 1019550576\H,0,-9.8422196233,-0.0334716716,2.2940780317\H,0,-10.613141
 4807,1.4469177688,2.3160063225\H,0,-11.3136289552,0.1756509841,3.66192
 03698\H,0,-13.9139125931,0.4691429166,0.6689133616\H,0,-13.6354893195,
 0.843275935,2.3103050325\H,0,-13.1463633217,1.980771699,1.4012906124\H
 ,0,12.5657739441,2.4532202715,0.3357714203\H,0,12.9103254596,2.0279168
 306,1.8304706483\H,0,-12.8722907077,-1.7466214586,-2.1042046112\H,0,13
 .4410136862,-0.3119509409,1.2309134272\H,0,-9.3180141671,-1.1021150705
 ,0.1536329233\H,0,13.8928444285,-0.7738304223,-1.1829934553\H,0,13.240
 9105086,0.7035389318,-1.6696968935\H,0,9.2014868463,1.9869187437,1.368
 7421216\H,0,9.9081326749,2.5872213245,0.178014717\H,0,10.537897463,3.1
 240473764,1.3656627173\H,0,11.5976026016,-0.3766849171,2.497226144\H,0
 ,9.889623933,-0.0576583068,2.4325363817\H,0,11.1642473238,1.2633941362
 ,3.1663115742\H,0,-10.4403765357,0.4785377645,-2.4069980955\H,0,-11.83
 69927556,1.4545514536,-2.2900760729\H,0,-11.6667945246,-0.0469034416,-
 3.3346812257\H,0,-14.6474080141,-1.9376327159,-0.4830665105\H,0,8.4231
 113791,0.1423744626,0.549527599\H,0,-8.8877839473,1.9184935022,0.06619
 12987\H,0,12.0351392484,-2.4694184378,-1.4785907106\H,0,10.2744703134,
 -1.767732875,-2.0861645505\H,0,11.7533246262,-1.1957426644,-2.84001995
 01\H,0,15.1333925196,1.5146195618,0.9425922281\H,0,9.5567354498,-2.547
 4778295,-0.1066071032\H,0,-5.7364681078,-0.9927264233,-0.1283954427\H,
 0,-6.7331822163,-1.2991918924,1.3126135138\H,0,-7.2295091861,-1.421710
 6193,-0.6207802928\H,0,-6.5568979763,2.3272515203,-0.5357467764\H,0,7.
 2109446435,-3.9782312457,1.2898286786\H,0,6.3375511003,-3.967961984,-0
 .2393935306\H,0,8.1983497324,-4.1934355282,-0.0642994626\H,0,6.7445428
 812,-0.1557828177,-0.5285949814\H,0,-4.2708093125,0.3411337786,0.04446
 83892\H,0,4.6358671902,-2.610100263,0.1406264018\H,0,-4.4624922949,3.3
 38211803,-0.9930489604\H,0,4.3451445907,0.1010874476,-0.8958288003\H,0
 ,-1.7158313413,3.9028717339,-2.3618844603\H,0,-0.9030731457,3.91051820
 91,-0.4288348433\H,0,-2.5308325714,4.5934617617,-0.9084191356\H,0,-2.2
 019990803,0.4153281583,-0.4784925793\H,0,2.1851275549,1.139497939,-0.8
 23099325\H,0,2.1542339511,-2.4516215646,1.0903274112\H,0,1.1751625876,
 -2.6461039015,-0.3285841435\H,0,2.5857313225,-3.2502128085,-0.75110935
 39\H,0,0.2328291678,2.1542652662,-0.884005392\H,0,-0.3264555416,-0.629
 1130811,-0.1051011651\\Version=ES64L-G16RevA.03\State=1-A\HF=-1706.862
 031\RMSD=7.026e-09\PG=C01 [X(C40H56O2)]\\@


 IT WAS A GAME, A VERY INTERESTING GAME ONE COULD
 PLAY.  WHENEVER ONE SOLVED ONE OF THE LITTLE PROBLEMS,
 ONE COULD WRITE A PAPER ABOUT IT.  IT WAS VERY EASY IN
 THOSE DAYS FOR ANY SECOND-RATE PHYSICIST TO DO
 FIRST-RATE WORK.  THERE HAS NOT BEEN SUCH A GLORIOUS
 TIME SINCE.  IT IS VERY DIFFICULT NOW FOR A FIRST-RATE
 PHYSICIST TO DO SECOND-RATE WORK.
     P.A.M. DIRAC, ON THE EARLY DAYS OF QUANTUM MECHANICS
                   DIRECTIONS IN PHYSICS, 1978, P. 7
 Job cpu time:       0 days  2 hours 22 minutes  0.8 seconds.
 Elapsed time:       0 days  1 hours 34 minutes 35.5 seconds.
 File lengths (MBytes):  RWF=   3127 Int=      0 D2E=      0 Chk=     84 Scr=      1
 Normal termination of Gaussian 16 at Mon Jul 15 00:04:54 2019.
