 Entering Gaussian System, Link 0=g16
 Input=Geometria-490-.com
 Output=Geometria-490-.log
 Initial command:
 /usr/local/g16/l1.exe "/home/padawan/israel-mol/lutein/spectra/emi/Gau-3893.inp" -scrdir="/home/padawan/israel-mol/lutein/spectra/emi/"
 Entering Link 1 = /usr/local/g16/l1.exe PID=      3895.
  
 Copyright (c) 1988,1990,1992,1993,1995,1998,2003,2009,2016,
            Gaussian, Inc.  All Rights Reserved.
  
 This is part of the Gaussian(R) 16 program.  It is based on
 the Gaussian(R) 09 system (copyright 2009, Gaussian, Inc.),
 the Gaussian(R) 03 system (copyright 2003, Gaussian, Inc.),
 the Gaussian(R) 98 system (copyright 1998, Gaussian, Inc.),
 the Gaussian(R) 94 system (copyright 1995, Gaussian, Inc.),
 the Gaussian 92(TM) system (copyright 1992, Gaussian, Inc.),
 the Gaussian 90(TM) system (copyright 1990, Gaussian, Inc.),
 the Gaussian 88(TM) system (copyright 1988, Gaussian, Inc.),
 the Gaussian 86(TM) system (copyright 1986, Carnegie Mellon
 University), and the Gaussian 82(TM) system (copyright 1983,
 Carnegie Mellon University). Gaussian is a federally registered
 trademark of Gaussian, Inc.
  
 This software contains proprietary and confidential information,
 including trade secrets, belonging to Gaussian, Inc.
  
 This software is provided under written license and may be
 used, copied, transmitted, or stored only in accord with that
 written license.
  
 The following legend is applicable only to US Government
 contracts under FAR:
  
                    RESTRICTED RIGHTS LEGEND
  
 Use, reproduction and disclosure by the US Government is
 subject to restrictions as set forth in subparagraphs (a)
 and (c) of the Commercial Computer Software - Restricted
 Rights clause in FAR 52.227-19.
  
 Gaussian, Inc.
 340 Quinnipiac St., Bldg. 40, Wallingford CT 06492
  
  
 ---------------------------------------------------------------
 Warning -- This program may not be used in any manner that
 competes with the business of Gaussian, Inc. or will provide
 assistance to any competitor of Gaussian, Inc.  The licensee
 of this program is prohibited from giving any competitor of
 Gaussian, Inc. access to this program.  By using this program,
 the user acknowledges that Gaussian, Inc. is engaged in the
 business of creating and licensing software in the field of
 computational chemistry and represents and warrants to the
 licensee that it is not a competitor of Gaussian, Inc. and that
 it will not use this program in any manner prohibited above.
 ---------------------------------------------------------------
  

 Cite this work as:
 Gaussian 16, Revision A.03,
 M. J. Frisch, G. W. Trucks, H. B. Schlegel, G. E. Scuseria, 
 M. A. Robb, J. R. Cheeseman, G. Scalmani, V. Barone, 
 G. A. Petersson, H. Nakatsuji, X. Li, M. Caricato, A. V. Marenich, 
 J. Bloino, B. G. Janesko, R. Gomperts, B. Mennucci, H. P. Hratchian, 
 J. V. Ortiz, A. F. Izmaylov, J. L. Sonnenberg, D. Williams-Young, 
 F. Ding, F. Lipparini, F. Egidi, J. Goings, B. Peng, A. Petrone, 
 T. Henderson, D. Ranasinghe, V. G. Zakrzewski, J. Gao, N. Rega, 
 G. Zheng, W. Liang, M. Hada, M. Ehara, K. Toyota, R. Fukuda, 
 J. Hasegawa, M. Ishida, T. Nakajima, Y. Honda, O. Kitao, H. Nakai, 
 T. Vreven, K. Throssell, J. A. Montgomery, Jr., J. E. Peralta, 
 F. Ogliaro, M. J. Bearpark, J. J. Heyd, E. N. Brothers, K. N. Kudin, 
 V. N. Staroverov, T. A. Keith, R. Kobayashi, J. Normand, 
 K. Raghavachari, A. P. Rendell, J. C. Burant, S. S. Iyengar, 
 J. Tomasi, M. Cossi, J. M. Millam, M. Klene, C. Adamo, R. Cammi, 
 J. W. Ochterski, R. L. Martin, K. Morokuma, O. Farkas, 
 J. B. Foresman, and D. J. Fox, Gaussian, Inc., Wallingford CT, 2016.
 
 ******************************************
 Gaussian 16:  ES64L-G16RevA.03 25-Dec-2016
                16-Jul-2019 
 ******************************************
 %nproc=4
 Will use up to    4 processors via shared memory.
 %Mem=4GB
 -------------------------------------
 # td=(NStates=1) CAM-B3LYP/6-31G(d,p)
 -------------------------------------
 1/38=1,172=1/1;
 2/12=2,17=6,18=5,40=1/2;
 3/5=1,6=6,7=101,11=9,25=1,30=1,74=-40/1,2,3,8;
 4//1;
 5/5=2,38=5/2;
 8/6=1,10=2,108=1/1;
 9/41=1,42=1,70=2/14;
 6/7=2,8=2,9=2,10=2/1;
 99/5=1,9=1/99;
 --
 TD
 --
 Symbolic Z-matrix:
 Charge =  0 Multiplicity = 1
 8                    -14.2814  -2.01125   0.16804 
 8                     14.83708   1.01496  -0.19751 
 6                    -11.88088   0.12251   1.20391 
 6                    -10.93683   0.3766   -0.07953 
 6                    -12.23197  -1.34653   1.20837 
 6                    -12.79986  -2.07129   0.04464 
 6                    -11.53727  -0.42395  -1.25477 
 6                     11.09348   1.10225   0.85096 
 6                    -11.22099   0.58874   2.37217 
 6                    -13.1774   0.89517   1.05084 
 6                     12.51345   1.62442   0.52704 
 6                    -12.18537  -1.52138  -1.31877 
 6                     13.60453   0.50017   0.20303 
 6                     10.70882  -0.0612   -0.10429 
 6                    -9.50019  -0.00715   0.01008 
 6                     12.92975  -0.21206  -1.06284 
 6                     11.41341  -0.64604  -1.02951 
 6                     10.21245   2.33633   0.71038 
 6                     11.00891   0.65429   2.33497 
 6                    -11.08821   0.03682  -2.61677 
 6                    -8.51624   0.91058  -0.00709 
 6                     9.3281   -0.50815   0.1353 
 6                     11.14805  -1.55899  -2.03079 
 6                    -7.12396   0.53911  -0.00913 
 6                     8.89569  -1.7875   -0.04717 
 6                    -6.72339  -0.93811   0.21571 
 6                     7.42761  -2.09899   0.10391 
 6                    -6.15308   1.55401  -0.32536 
 6                     7.23092  -3.59682   0.2778 
 6                     6.38544  -1.36217  -0.13057 
 6                    -4.75172   1.43393  -0.23781 
 6                     4.99401  -1.55934  -0.13104 
 6                    -3.95839   2.53451  -0.40661 
 6                    -2.47684   2.60414  -0.37427 
 6                     4.08472  -0.59333  -0.23646 
 6                     2.66501  -0.85419  -0.04538 
 6                    -1.81801   3.89941  -0.46025 
 6                    -1.81657   1.43303  -0.18877 
 6                     1.71604   0.13796   0.01434 
 6                     2.08036  -2.27031   0.25846 
 6                    -0.36359   1.3328   -0.11949 
 6                     0.38209   0.18239  -0.01332 
 1                    -10.90475   1.50539  -0.5098 
 1                    -12.68675  -1.77795   2.12938 
 1                    -11.19589  -1.72799   1.19756 
 1                    -12.51222  -3.05318  -0.02071 
 1                    -10.22968   0.04408   2.52775 
 1                    -10.86186   1.65879   2.2506 
 1                    -12.07931   0.70977   3.1706 
 1                    -13.66251   0.65233   0.09903 
 1                    -13.77256   0.5665    1.923 
 1                    -13.01564   1.97563   1.14504 
 1                     12.43816   2.37032  -0.22846 
 1                     12.82989   1.99866   1.43911 
 1                    -12.42929  -1.99477  -2.19279 
 1                     13.7516  -0.17941   1.00177 
 1                    -9.23031  -1.00534   0.21183 
 1                     13.47242  -1.1585   -1.41945 
 1                     13.16675   0.31376  -2.05384 
 1                     9.17646   2.30467   1.38579 
 1                     9.92135   2.50876  -0.44841 
 1                     10.73313   3.27912   1.11957 
 1                     11.49049  -0.27296   2.59429 
 1                     9.80525   0.41184   2.54647 
 1                     10.99498   1.52286   2.97312 
 1                    -10.05867   0.16645  -2.63357 
 1                    -11.57855   1.09998  -2.73162 
 1                    -11.4547  -0.50772  -3.5397 
 1                    -14.64767  -2.29226  -0.69883 
 1                     8.45234   0.11892   0.48735 
 1                    -8.70793   1.94455  -0.37801 
 1                     11.53182  -2.52846  -1.96623 
 1                     9.99876  -1.73505  -2.21528 
 1                     11.42874  -1.30098  -2.90484 
 1                     15.58148   1.09584   0.64888 
 1                     9.66117  -2.56169  -0.18894 
 1                    -5.72884  -1.00321   0.33161 
 1                    -7.30604  -1.50373   1.18685 
 1                    -6.87382  -1.65082  -0.61176 
 1                    -6.5784    2.59414  -0.70361 
 1                     7.32332  -3.89526   1.47059 
 1                     6.21964  -3.97324   0.02015 
 1                     8.10871  -4.03873  -0.20977 
 1                     6.43751  -0.28048  -0.31729 
 1                    -4.37984   0.33195  -0.10973 
 1                     4.52178  -2.56929   0.07837 
 1                    -4.48889   3.46622  -0.48391 
 1                     4.45954   0.4546   -0.3965 
 1                    -1.10785   3.69172  -1.33325 
 1                    -1.10087   4.01675   0.40914 
 1                    -2.60954   4.55868  -0.49042 
 1                    -2.5654    0.62521  -0.17466 
 1                     2.31263   1.24134   0.11159 
 1                     2.79647  -2.84248   0.96219 
 1                     1.08811  -2.10872   0.73961 
 1                     1.99959  -2.85012  -0.80773 
 1                     0.13927   2.26426  -0.27789 
 1                    -0.11908  -0.81387  -0.15802 
 
 Stoichiometry    C40H56O2
 Framework group  C1[X(C40H56O2)]
 Deg. of freedom   288
 Full point group                 C1      NOp   1
 Largest Abelian subgroup         C1      NOp   1
 Largest concise Abelian subgroup C1      NOp   1
                         Standard orientation:                         
 ---------------------------------------------------------------------
 Center     Atomic      Atomic             Coordinates (Angstroms)
 Number     Number       Type             X           Y           Z
 ---------------------------------------------------------------------
      1          8           0       14.281601   -1.985325   -0.329199
      2          8           0      -14.838405    0.989324    0.265924
      3          6           0       11.881621    0.231365   -1.174681
      4          6           0       10.935858    0.370301    0.125027
      5          6           0       12.233243   -1.231392   -1.309067
      6          6           0       12.799927   -2.056445   -0.213529
      7          6           0       11.535098   -0.531257    1.225341
      8          6           0      -11.093521    1.170257   -0.765820
      9          6           0       11.223043    0.799292   -2.297806
     10          6           0       13.177672    0.987704   -0.951960
     11          6           0      -12.514083    1.661265   -0.398668
     12          6           0       12.183512   -1.629877    1.192519
     13          6           0      -13.605171    0.512420   -0.177133
     14          6           0      -10.709648   -0.073292    0.082879
     15          6           0        9.499469   -0.004337   -0.000152
     16          6           0      -12.931734   -0.309189    1.021391
     17          6           0      -11.415201   -0.738125    0.951626
     18          6           0      -10.213109    2.387207   -0.515127
     19          6           0      -11.006913    0.855813   -2.283632
     20          6           0       11.084156   -0.193315    2.622285
     21          6           0        8.515167    0.908003    0.097144
     22          6           0       -9.328463   -0.496875   -0.193656
     23          6           0      -11.150778   -1.736282    1.868266
     24          6           0        7.123025    0.537481    0.064406
     25          6           0       -8.895822   -1.787265   -0.124901
     26          6           0        6.723271   -0.914053   -0.291192
     27          6           0       -7.427445   -2.083758   -0.301137
     28          6           0        6.151372    1.520064    0.468219
     29          6           0       -7.229992   -3.560194   -0.607035
     30          6           0       -6.385832   -1.370396   -0.000841
     31          6           0        4.750171    1.407883    0.368547
     32          6           0       -4.994338   -1.566495   -0.016073
     33          6           0        3.956231    2.488940    0.633343
     34          6           0        2.474699    2.560803    0.605397
     35          6           0       -4.085531   -0.613428    0.175851
     36          6           0       -2.665488   -0.855948   -0.035799
     37          6           0        1.815297    3.843173    0.805152
     38          6           0        1.815086    1.410616    0.315832
     39          6           0       -1.716797    0.137816   -0.005997
     40          6           0       -2.079943   -2.239365   -0.463379
     41          6           0        0.362231    1.316582    0.236044
     42          6           0       -0.382902    0.179948    0.027228
     43          1           0       10.902825    1.456438    0.653748
     44          1           0       12.689345   -1.579245   -2.264150
     45          1           0       11.197286   -1.612563   -1.333501
     46          1           0       12.512559   -3.040336   -0.235967
     47          1           0       10.232122    0.270343   -2.502394
     48          1           0       10.863368    1.854237   -2.082196
     49          1           0       12.082320    0.990929   -3.081230
     50          1           0       13.661659    0.661464   -0.024836
     51          1           0       13.774051    0.737896   -1.849082
     52          1           0       13.015638    2.072228   -0.950102
     53          1           0      -12.440019    2.337181    0.420149
     54          1           0      -12.829503    2.114909   -1.274329
     55          1           0       12.426495   -2.178915    2.021384
     56          1           0      -13.750989   -0.093611   -1.033233
     57          1           0        9.230200   -0.980738   -0.290052
     58          1           0      -13.474515   -1.283680    1.291881
     59          1           0      -13.170178    0.126533    2.054839
     60          1           0       -9.176261    2.415875   -1.189344
     61          1           0       -9.923542    2.456172    0.654771
     62          1           0      -10.733609    3.362467   -0.839685
     63          1           0      -11.487832   -0.044888   -2.624846
     64          1           0       -9.802894    0.633383   -2.514257
     65          1           0      -10.992488    1.777597   -2.842148
     66          1           0       10.054544   -0.065940    2.649193
     67          1           0       11.573961    0.855576    2.831679
     68          1           0       11.449675   -0.817531    3.493709
     69          1           0       14.646870   -2.342079    0.509774
     70          1           0       -8.452491    0.159185   -0.487523
     71          1           0        8.706014    1.905016    0.558623
     72          1           0      -11.534112   -2.696294    1.717410
     73          1           0      -10.001657   -1.927740    2.037878
     74          1           0      -11.432663   -1.556945    2.761397
     75          1           0      -15.581765    1.144827   -0.570908
     76          1           0       -9.661202   -2.571172   -0.053402
     77          1           0        5.728885   -0.968848   -0.413692
     78          1           0        7.307347   -1.391097   -1.307947
     79          1           0        6.872911   -1.697362    0.469948
     80          1           0        6.575845    2.522619    0.937847
     81          1           0       -7.320776   -3.751604   -1.821724
     82          1           0       -6.218906   -3.957747   -0.382513
     83          1           0       -8.108243   -4.043850   -0.161745
     84          1           0       -6.438534   -0.309562    0.281095
     85          1           0        4.378851    0.321536    0.142672
     86          1           0       -4.521476   -2.553747   -0.313692
     87          1           0        4.486305    3.410250    0.793719
     88          1           0       -4.460924    0.416071    0.427787
     89          1           0        1.104109    3.558634    1.655360
     90          1           0        1.099217    4.037036   -0.051311
     91          1           0        2.606551    4.497351    0.894744
     92          1           0        2.564220    0.607424    0.231039
     93          1           0       -2.313661    1.245329   -0.005696
     94          1           0       -2.794954   -2.746989   -1.216049
     95          1           0       -1.087146   -2.035461   -0.927011
     96          1           0       -2.000314   -2.911506    0.547234
     97          1           0       -0.141163    2.230173    0.475856
     98          1           0        0.118451   -0.825101    0.083566
 ---------------------------------------------------------------------
 Rotational constants (GHZ):           0.2538257           0.0098747           0.0096994
 Standard basis: 6-31G(d,p) (6D, 7F)
 There are   910 symmetry adapted cartesian basis functions of A   symmetry.
 There are   910 symmetry adapted basis functions of A   symmetry.
   910 basis functions,  1568 primitive gaussians,   910 cartesian basis functions
   156 alpha electrons      156 beta electrons
       nuclear repulsion energy      4019.7231870235 Hartrees.
 NAtoms=   98 NActive=   98 NUniq=   98 SFac= 1.00D+00 NAtFMM=   60 NAOKFM=T Big=T
 Integral buffers will be    131072 words long.
 Raffenetti 1 integral format.
 Two-electron integral symmetry is turned on.
 One-electron integrals computed using PRISM.
 NBasis=   910 RedAO= T EigKep=  7.36D-04  NBF=   910
 NBsUse=   910 1.00D-06 EigRej= -1.00D+00 NBFU=   910
 ExpMin= 1.61D-01 ExpMax= 5.48D+03 ExpMxC= 8.25D+02 IAcc=3 IRadAn=         5 AccDes= 0.00D+00
 Harris functional with IExCor=20419 and IRadAn=       5 diagonalized for initial guess.
 HarFok:  IExCor=20419 AccDes= 0.00D+00 IRadAn=         5 IDoV= 1 UseB2=F ITyADJ=14
 ICtDFT=  3500011 ScaDFX=  1.000000  1.000000  1.000000  1.000000
 FoFCou: FMM=F IPFlag=           0 FMFlag=      100000 FMFlg1=        2001
         NFxFlg=           0 DoJE=T BraDBF=F KetDBF=T FulRan=T
         wScrn=  0.000000 ICntrl=       500 IOpCl=  0 I1Cent=   200000004 NGrid=           0
         NMat0=    1 NMatS0=      1 NMatT0=    0 NMatD0=    1 NMtDS0=    0 NMtDT0=    0
 Petite list used in FoFCou.
 Requested convergence on RMS density matrix=1.00D-08 within 128 cycles.
 Requested convergence on MAX density matrix=1.00D-06.
 Requested convergence on             energy=1.00D-06.
 No special actions if energy rises.
 Integral accuracy reduced to 1.0D-05 until final iterations.
 Initial convergence to 1.0D-05 achieved.  Increase integral accuracy.
 SCF Done:  E(RCAM-B3LYP) =  -1706.96274822     A.U. after   15 cycles
            NFock= 15  Conv=0.43D-08     -V/T= 2.0098
 DoSCS=F DFT=T ScalE2(SS,OS)=  1.000000  1.000000
 ExpMin= 1.61D-01 ExpMax= 5.48D+03 ExpMxC= 8.25D+02 IAcc=3 IRadAn=         5 AccDes= 0.00D+00
 HarFok:  IExCor=  205 AccDes= 0.00D+00 IRadAn=         5 IDoV=-2 UseB2=F ITyADJ=14
 ICtDFT= 12500011 ScaDFX=  1.000000  1.000000  1.000000  1.000000
 GSVD:  LWork=       -2100 too small for GESVD, short by        9450 words or        9450 for optimal perf.
 Range of M.O.s used for correlation:    43   910
 NBasis=   910 NAE=   156 NBE=   156 NFC=    42 NFV=     0
 NROrb=    868 NOA=   114 NOB=   114 NVA=   754 NVB=   754
 Orbital symmetries:
       Occupied  (A) (A) (A) (A) (A) (A) (A) (A) (A) (A) (A) (A)
                 (A) (A) (A) (A) (A) (A) (A) (A) (A) (A) (A) (A)
                 (A) (A) (A) (A) (A) (A) (A) (A) (A) (A) (A) (A)
                 (A) (A) (A) (A) (A) (A) (A) (A) (A) (A) (A) (A)
                 (A) (A) (A) (A) (A) (A) (A) (A) (A) (A) (A) (A)
                 (A) (A) (A) (A) (A) (A) (A) (A) (A) (A) (A) (A)
                 (A) (A) (A) (A) (A) (A) (A) (A) (A) (A) (A) (A)
                 (A) (A) (A) (A) (A) (A) (A) (A) (A) (A) (A) (A)
                 (A) (A) (A) (A) (A) (A) (A) (A) (A) (A) (A) (A)
                 (A) (A) (A) (A) (A) (A) (A) (A) (A) (A) (A) (A)
                 (A) (A) (A) (A) (A) (A) (A) (A) (A) (A) (A) (A)
                 (A) (A) (A) (A) (A) (A) (A) (A) (A) (A) (A) (A)
                 (A) (A) (A) (A) (A) (A) (A) (A) (A) (A) (A) (A)
       Virtual   (A) (A) (A) (A) (A) (A) (A) (A) (A) (A) (A) (A)
                 (A) (A) (A) (A) (A) (A) (A) (A) (A) (A) (A) (A)
                 (A) (A) (A) (A) (A) (A) (A) (A) (A) (A) (A) (A)
                 (A) (A) (A) (A) (A) (A) (A) (A) (A) (A) (A) (A)
                 (A) (A) (A) (A) (A) (A) (A) (A) (A) (A) (A) (A)
                 (A) (A) (A) (A) (A) (A) (A) (A) (A) (A) (A) (A)
                 (A) (A) (A) (A) (A) (A) (A) (A) (A) (A) (A) (A)
                 (A) (A) (A) (A) (A) (A) (A) (A) (A) (A) (A) (A)
                 (A) (A) (A) (A) (A) (A) (A) (A) (A) (A) (A) (A)
                 (A) (A) (A) (A) (A) (A) (A) (A) (A) (A) (A) (A)
                 (A) (A) (A) (A) (A) (A) (A) (A) (A) (A) (A) (A)
                 (A) (A) (A) (A) (A) (A) (A) (A) (A) (A) (A) (A)
                 (A) (A) (A) (A) (A) (A) (A) (A) (A) (A) (A) (A)
                 (A) (A) (A) (A) (A) (A) (A) (A) (A) (A) (A) (A)
                 (A) (A) (A) (A) (A) (A) (A) (A) (A) (A) (A) (A)
                 (A) (A) (A) (A) (A) (A) (A) (A) (A) (A) (A) (A)
                 (A) (A) (A) (A) (A) (A) (A) (A) (A) (A) (A) (A)
                 (A) (A) (A) (A) (A) (A) (A) (A) (A) (A) (A) (A)
                 (A) (A) (A) (A) (A) (A) (A) (A) (A) (A) (A) (A)
                 (A) (A) (A) (A) (A) (A) (A) (A) (A) (A) (A) (A)
                 (A) (A) (A) (A) (A) (A) (A) (A) (A) (A) (A) (A)
                 (A) (A) (A) (A) (A) (A) (A) (A) (A) (A) (A) (A)
                 (A) (A) (A) (A) (A) (A) (A) (A) (A) (A) (A) (A)
                 (A) (A) (A) (A) (A) (A) (A) (A) (A) (A) (A) (A)
                 (A) (A) (A) (A) (A) (A) (A) (A) (A) (A) (A) (A)
                 (A) (A) (A) (A) (A) (A) (A) (A) (A) (A) (A) (A)
                 (A) (A) (A) (A) (A) (A) (A) (A) (A) (A) (A) (A)
                 (A) (A) (A) (A) (A) (A) (A) (A) (A) (A) (A) (A)
                 (A) (A) (A) (A) (A) (A) (A) (A) (A) (A) (A) (A)
                 (A) (A) (A) (A) (A) (A) (A) (A) (A) (A) (A) (A)
                 (A) (A) (A) (A) (A) (A) (A) (A) (A) (A) (A) (A)
                 (A) (A) (A) (A) (A) (A) (A) (A) (A) (A) (A) (A)
                 (A) (A) (A) (A) (A) (A) (A) (A) (A) (A) (A) (A)
                 (A) (A) (A) (A) (A) (A) (A) (A) (A) (A) (A) (A)
                 (A) (A) (A) (A) (A) (A) (A) (A) (A) (A) (A) (A)
                 (A) (A) (A) (A) (A) (A) (A) (A) (A) (A) (A) (A)
                 (A) (A) (A) (A) (A) (A) (A) (A) (A) (A) (A) (A)
                 (A) (A) (A) (A) (A) (A) (A) (A) (A) (A) (A) (A)
                 (A) (A) (A) (A) (A) (A) (A) (A) (A) (A) (A) (A)
                 (A) (A) (A) (A) (A) (A) (A) (A) (A) (A) (A) (A)
                 (A) (A) (A) (A) (A) (A) (A) (A) (A) (A) (A) (A)
                 (A) (A) (A) (A) (A) (A) (A) (A) (A) (A) (A) (A)
                 (A) (A) (A) (A) (A) (A) (A) (A) (A) (A) (A) (A)
                 (A) (A) (A) (A) (A) (A) (A) (A) (A) (A) (A) (A)
                 (A) (A) (A) (A) (A) (A) (A) (A) (A) (A) (A) (A)
                 (A) (A) (A) (A) (A) (A) (A) (A) (A) (A) (A) (A)
                 (A) (A) (A) (A) (A) (A) (A) (A) (A) (A) (A) (A)
                 (A) (A) (A) (A) (A) (A) (A) (A) (A) (A) (A) (A)
                 (A) (A) (A) (A) (A) (A) (A) (A) (A) (A) (A) (A)
                 (A) (A) (A) (A) (A) (A) (A) (A) (A) (A) (A) (A)
                 (A) (A) (A) (A) (A) (A) (A) (A) (A) (A) (A) (A)
                 (A) (A) (A) (A) (A) (A) (A) (A) (A) (A) (A) (A)
                 (A) (A) (A) (A) (A) (A) (A) (A) (A) (A) (A) (A)
                 (A) (A) (A) (A) (A) (A) (A) (A) (A) (A) (A) (A)
                 (A) (A) (A) (A) (A) (A) (A) (A) (A) (A) (A) (A)
                 (A) (A) (A) (A) (A) (A) (A) (A) (A) (A) (A) (A)
                 (A) (A) (A) (A) (A) (A) (A) (A) (A) (A) (A) (A)
                 (A) (A) (A) (A) (A) (A) (A) (A) (A) (A) (A) (A)
                 (A) (A) (A) (A) (A) (A) (A) (A) (A) (A) (A) (A)
                 (A) (A) (A) (A) (A) (A) (A) (A) (A) (A) (A) (A)
                 (A) (A) (A) (A) (A) (A) (A) (A) (A) (A) (A) (A)
                 (A) (A) (A) (A) (A) (A) (A) (A) (A) (A) (A) (A)
                 (A) (A) (A) (A) (A) (A) (A) (A) (A) (A)
     4 initial guesses have been made.
 Convergence on wavefunction:    0.001000000000000
 Iteration     1 Dimension     4 NMult     0 NNew      4
 CISAX will form     4 AO SS matrices at one time.
 Iteration     2 Dimension     6 NMult     4 NNew      2
 Iteration     3 Dimension     8 NMult     6 NNew      2
 Iteration     4 Dimension    10 NMult     8 NNew      2
 Iteration     5 Dimension    12 NMult    10 NNew      2
 ***********************************************************************
 Excited states from <AA,BB:AA,BB> singles matrix:
 ***********************************************************************
 
 Ground to excited state transition densities written to RWF  633
 Ground to excited state transition electric dipole moments (Au):
       state          X           Y           Z        Dip. S.      Osc.
         1         7.0228      1.0156      0.1187     50.3658      2.9156
 Ground to excited state transition velocity dipole moments (Au):
       state          X           Y           Z        Dip. S.      Osc.
         1        -0.5899     -0.0870     -0.0109      0.3557      2.7306
 Ground to excited state transition magnetic dipole moments (Au):
       state          X           Y           Z
         1         0.0065     -0.4391      1.5674
 Ground to excited state transition velocity quadrupole moments (Au):
       state          XX          YY          ZZ          XY          XZ          YZ
         1        -0.9869      0.0428     -0.0363      0.6293      0.0481     -0.0133
 <0|del|b> * <b|rxdel|0> + <0|del|b> * <b|delr+rdel|0>
 Rotatory Strengths (R) in cgs (10**-40 erg-esu-cm/Gauss)
       state          XX          YY          ZZ    R(velocity)    E-M Angle
         1        74.6394    -25.4795     90.7788     46.6462       88.99
 1/2[<0|r|b>*<b|rxdel|0> + (<0|rxdel|b>*<b|r|0>)*]
 Rotatory Strengths (R) in cgs (10**-40 erg-esu-cm/Gauss)
       state          XX          YY          ZZ     R(length)
         1       -32.4049    315.3606   -131.5689     50.4623
  1/2[<0|del|b>*<b|r|0> + (<0|r|b>*<b|del|0>)*] (Au)
       state          X           Y           Z        Dip. S.   Osc.(frdel)
         1        -4.1428     -0.0883     -0.0013      4.2324      2.8216

 Excitation energies and oscillator strengths:
 
 Excited State   1:      Singlet-A      2.3629 eV  524.72 nm  f=2.9156  <S**2>=0.000
     155 ->158         0.14545
     156 ->157         0.68937
 This state for optimization and/or second-order correction.
 Total Energy, E(TD-HF/TD-DFT) =  -1706.87591507    
 Copying the excited state density for this state as the 1-particle RhoCI density.
 SavETr:  write IOETrn=   770 NScale= 10 NData=  16 NLR=1 NState=    1 LETran=      28.

 **********************************************************************

            Population analysis using the SCF density.

 **********************************************************************

 Orbital symmetries:
       Occupied  (A) (A) (A) (A) (A) (A) (A) (A) (A) (A) (A) (A)
                 (A) (A) (A) (A) (A) (A) (A) (A) (A) (A) (A) (A)
                 (A) (A) (A) (A) (A) (A) (A) (A) (A) (A) (A) (A)
                 (A) (A) (A) (A) (A) (A) (A) (A) (A) (A) (A) (A)
                 (A) (A) (A) (A) (A) (A) (A) (A) (A) (A) (A) (A)
                 (A) (A) (A) (A) (A) (A) (A) (A) (A) (A) (A) (A)
                 (A) (A) (A) (A) (A) (A) (A) (A) (A) (A) (A) (A)
                 (A) (A) (A) (A) (A) (A) (A) (A) (A) (A) (A) (A)
                 (A) (A) (A) (A) (A) (A) (A) (A) (A) (A) (A) (A)
                 (A) (A) (A) (A) (A) (A) (A) (A) (A) (A) (A) (A)
                 (A) (A) (A) (A) (A) (A) (A) (A) (A) (A) (A) (A)
                 (A) (A) (A) (A) (A) (A) (A) (A) (A) (A) (A) (A)
                 (A) (A) (A) (A) (A) (A) (A) (A) (A) (A) (A) (A)
       Virtual   (A) (A) (A) (A) (A) (A) (A) (A) (A) (A) (A) (A)
                 (A) (A) (A) (A) (A) (A) (A) (A) (A) (A) (A) (A)
                 (A) (A) (A) (A) (A) (A) (A) (A) (A) (A) (A) (A)
                 (A) (A) (A) (A) (A) (A) (A) (A) (A) (A) (A) (A)
                 (A) (A) (A) (A) (A) (A) (A) (A) (A) (A) (A) (A)
                 (A) (A) (A) (A) (A) (A) (A) (A) (A) (A) (A) (A)
                 (A) (A) (A) (A) (A) (A) (A) (A) (A) (A) (A) (A)
                 (A) (A) (A) (A) (A) (A) (A) (A) (A) (A) (A) (A)
                 (A) (A) (A) (A) (A) (A) (A) (A) (A) (A) (A) (A)
                 (A) (A) (A) (A) (A) (A) (A) (A) (A) (A) (A) (A)
                 (A) (A) (A) (A) (A) (A) (A) (A) (A) (A) (A) (A)
                 (A) (A) (A) (A) (A) (A) (A) (A) (A) (A) (A) (A)
                 (A) (A) (A) (A) (A) (A) (A) (A) (A) (A) (A) (A)
                 (A) (A) (A) (A) (A) (A) (A) (A) (A) (A) (A) (A)
                 (A) (A) (A) (A) (A) (A) (A) (A) (A) (A) (A) (A)
                 (A) (A) (A) (A) (A) (A) (A) (A) (A) (A) (A) (A)
                 (A) (A) (A) (A) (A) (A) (A) (A) (A) (A) (A) (A)
                 (A) (A) (A) (A) (A) (A) (A) (A) (A) (A) (A) (A)
                 (A) (A) (A) (A) (A) (A) (A) (A) (A) (A) (A) (A)
                 (A) (A) (A) (A) (A) (A) (A) (A) (A) (A) (A) (A)
                 (A) (A) (A) (A) (A) (A) (A) (A) (A) (A) (A) (A)
                 (A) (A) (A) (A) (A) (A) (A) (A) (A) (A) (A) (A)
                 (A) (A) (A) (A) (A) (A) (A) (A) (A) (A) (A) (A)
                 (A) (A) (A) (A) (A) (A) (A) (A) (A) (A) (A) (A)
                 (A) (A) (A) (A) (A) (A) (A) (A) (A) (A) (A) (A)
                 (A) (A) (A) (A) (A) (A) (A) (A) (A) (A) (A) (A)
                 (A) (A) (A) (A) (A) (A) (A) (A) (A) (A) (A) (A)
                 (A) (A) (A) (A) (A) (A) (A) (A) (A) (A) (A) (A)
                 (A) (A) (A) (A) (A) (A) (A) (A) (A) (A) (A) (A)
                 (A) (A) (A) (A) (A) (A) (A) (A) (A) (A) (A) (A)
                 (A) (A) (A) (A) (A) (A) (A) (A) (A) (A) (A) (A)
                 (A) (A) (A) (A) (A) (A) (A) (A) (A) (A) (A) (A)
                 (A) (A) (A) (A) (A) (A) (A) (A) (A) (A) (A) (A)
                 (A) (A) (A) (A) (A) (A) (A) (A) (A) (A) (A) (A)
                 (A) (A) (A) (A) (A) (A) (A) (A) (A) (A) (A) (A)
                 (A) (A) (A) (A) (A) (A) (A) (A) (A) (A) (A) (A)
                 (A) (A) (A) (A) (A) (A) (A) (A) (A) (A) (A) (A)
                 (A) (A) (A) (A) (A) (A) (A) (A) (A) (A) (A) (A)
                 (A) (A) (A) (A) (A) (A) (A) (A) (A) (A) (A) (A)
                 (A) (A) (A) (A) (A) (A) (A) (A) (A) (A) (A) (A)
                 (A) (A) (A) (A) (A) (A) (A) (A) (A) (A) (A) (A)
                 (A) (A) (A) (A) (A) (A) (A) (A) (A) (A) (A) (A)
                 (A) (A) (A) (A) (A) (A) (A) (A) (A) (A) (A) (A)
                 (A) (A) (A) (A) (A) (A) (A) (A) (A) (A) (A) (A)
                 (A) (A) (A) (A) (A) (A) (A) (A) (A) (A) (A) (A)
                 (A) (A) (A) (A) (A) (A) (A) (A) (A) (A) (A) (A)
                 (A) (A) (A) (A) (A) (A) (A) (A) (A) (A) (A) (A)
                 (A) (A) (A) (A) (A) (A) (A) (A) (A) (A) (A) (A)
                 (A) (A) (A) (A) (A) (A) (A) (A) (A) (A) (A) (A)
                 (A) (A) (A) (A) (A) (A) (A) (A) (A) (A) (A) (A)
                 (A) (A) (A) (A) (A) (A) (A) (A) (A) (A) (A) (A)
                 (A) (A) (A) (A) (A) (A) (A) (A) (A) (A) (A) (A)
                 (A) (A) (A) (A) (A) (A) (A) (A) (A) (A) (A) (A)
                 (A) (A) (A) (A) (A) (A) (A) (A) (A) (A) (A) (A)
                 (A) (A) (A) (A) (A) (A) (A) (A) (A) (A) (A) (A)
                 (A) (A) (A) (A) (A) (A) (A) (A) (A) (A) (A) (A)
                 (A) (A) (A) (A) (A) (A) (A) (A) (A) (A) (A) (A)
                 (A) (A) (A) (A) (A) (A) (A) (A) (A) (A) (A) (A)
                 (A) (A) (A) (A) (A) (A) (A) (A) (A) (A) (A) (A)
                 (A) (A) (A) (A) (A) (A) (A) (A) (A) (A) (A) (A)
                 (A) (A) (A) (A) (A) (A) (A) (A) (A) (A) (A) (A)
                 (A) (A) (A) (A) (A) (A) (A) (A) (A) (A) (A) (A)
                 (A) (A) (A) (A) (A) (A) (A) (A) (A) (A)
 The electronic state is 1-A.
 Alpha  occ. eigenvalues --  -19.22661 -19.20332 -10.31222 -10.29529 -10.28439
 Alpha  occ. eigenvalues --  -10.27958 -10.27923 -10.27688 -10.27632 -10.27591
 Alpha  occ. eigenvalues --  -10.27577 -10.27420 -10.26945 -10.26895 -10.26750
 Alpha  occ. eigenvalues --  -10.26749 -10.26669 -10.26361 -10.26305 -10.26268
 Alpha  occ. eigenvalues --  -10.26220 -10.26184 -10.26167 -10.26084 -10.25999
 Alpha  occ. eigenvalues --  -10.25938 -10.25857 -10.25843 -10.25727 -10.25693
 Alpha  occ. eigenvalues --  -10.25643 -10.25602 -10.25502 -10.25286 -10.24806
 Alpha  occ. eigenvalues --  -10.24798 -10.24625 -10.24380 -10.23730 -10.23536
 Alpha  occ. eigenvalues --  -10.23393 -10.22953  -1.08008  -1.06369  -0.94187
 Alpha  occ. eigenvalues --   -0.93694  -0.92429  -0.91817  -0.90526  -0.89935
 Alpha  occ. eigenvalues --   -0.88533  -0.88309  -0.87286  -0.86128  -0.84057
 Alpha  occ. eigenvalues --   -0.83136  -0.82011  -0.81037  -0.80275  -0.78226
 Alpha  occ. eigenvalues --   -0.77076  -0.76714  -0.75695  -0.75341  -0.75156
 Alpha  occ. eigenvalues --   -0.74917  -0.74754  -0.73625  -0.72917  -0.70151
 Alpha  occ. eigenvalues --   -0.68595  -0.67748  -0.66914  -0.65229  -0.64020
 Alpha  occ. eigenvalues --   -0.62675  -0.62025  -0.61590  -0.60292  -0.60077
 Alpha  occ. eigenvalues --   -0.59245  -0.58397  -0.58009  -0.56897  -0.55764
 Alpha  occ. eigenvalues --   -0.55442  -0.55135  -0.55035  -0.54286  -0.54048
 Alpha  occ. eigenvalues --   -0.53224  -0.52667  -0.52051  -0.51886  -0.51345
 Alpha  occ. eigenvalues --   -0.50802  -0.50387  -0.50049  -0.50026  -0.49811
 Alpha  occ. eigenvalues --   -0.49338  -0.48623  -0.48449  -0.48069  -0.47678
 Alpha  occ. eigenvalues --   -0.47527  -0.46814  -0.46586  -0.46387  -0.46304
 Alpha  occ. eigenvalues --   -0.46028  -0.45874  -0.45243  -0.44895  -0.44659
 Alpha  occ. eigenvalues --   -0.44474  -0.44128  -0.43894  -0.43641  -0.43339
 Alpha  occ. eigenvalues --   -0.42879  -0.42756  -0.42603  -0.42109  -0.41938
 Alpha  occ. eigenvalues --   -0.41691  -0.41210  -0.40823  -0.40631  -0.40285
 Alpha  occ. eigenvalues --   -0.40159  -0.39969  -0.39660  -0.39364  -0.39033
 Alpha  occ. eigenvalues --   -0.38931  -0.38628  -0.38184  -0.37850  -0.37741
 Alpha  occ. eigenvalues --   -0.37448  -0.37099  -0.36985  -0.36305  -0.35327
 Alpha  occ. eigenvalues --   -0.35168  -0.34105  -0.33844  -0.32094  -0.31092
 Alpha  occ. eigenvalues --   -0.30841  -0.30186  -0.29687  -0.26641  -0.24037
 Alpha  occ. eigenvalues --   -0.20008
 Alpha virt. eigenvalues --   -0.05218  -0.00633   0.02642   0.06289   0.07807
 Alpha virt. eigenvalues --    0.08025   0.09536   0.10937   0.11584   0.12173
 Alpha virt. eigenvalues --    0.12595   0.12872   0.13406   0.13724   0.13868
 Alpha virt. eigenvalues --    0.14118   0.14755   0.14998   0.15290   0.15649
 Alpha virt. eigenvalues --    0.16101   0.16207   0.16454   0.16964   0.17051
 Alpha virt. eigenvalues --    0.17297   0.17349   0.17514   0.17856   0.18175
 Alpha virt. eigenvalues --    0.18352   0.18444   0.18801   0.19166   0.19543
 Alpha virt. eigenvalues --    0.19695   0.20110   0.20389   0.20422   0.21261
 Alpha virt. eigenvalues --    0.21498   0.21709   0.21931   0.21961   0.22004
 Alpha virt. eigenvalues --    0.22265   0.22406   0.22651   0.22758   0.23215
 Alpha virt. eigenvalues --    0.23494   0.23581   0.23745   0.24135   0.24286
 Alpha virt. eigenvalues --    0.24482   0.25056   0.25181   0.25452   0.25810
 Alpha virt. eigenvalues --    0.25908   0.26553   0.26989   0.27185   0.27240
 Alpha virt. eigenvalues --    0.27811   0.28057   0.28535   0.28925   0.29145
 Alpha virt. eigenvalues --    0.29343   0.29475   0.29601   0.29926   0.30322
 Alpha virt. eigenvalues --    0.30468   0.31509   0.31784   0.32312   0.32500
 Alpha virt. eigenvalues --    0.33056   0.33709   0.34153   0.34435   0.35092
 Alpha virt. eigenvalues --    0.35693   0.35833   0.36530   0.36695   0.37531
 Alpha virt. eigenvalues --    0.39185   0.39303   0.40072   0.40994   0.41906
 Alpha virt. eigenvalues --    0.43064   0.44022   0.44120   0.44927   0.45835
 Alpha virt. eigenvalues --    0.46743   0.47061   0.47792   0.49739   0.50125
 Alpha virt. eigenvalues --    0.50832   0.51272   0.52408   0.52936   0.55611
 Alpha virt. eigenvalues --    0.55761   0.56282   0.56495   0.56905   0.57482
 Alpha virt. eigenvalues --    0.57781   0.57865   0.58502   0.58721   0.59159
 Alpha virt. eigenvalues --    0.59431   0.59677   0.59941   0.60104   0.60516
 Alpha virt. eigenvalues --    0.60628   0.61386   0.61466   0.61578   0.61865
 Alpha virt. eigenvalues --    0.62581   0.63186   0.63705   0.64017   0.64398
 Alpha virt. eigenvalues --    0.64472   0.64637   0.65262   0.65513   0.65771
 Alpha virt. eigenvalues --    0.65919   0.66449   0.66519   0.67131   0.67374
 Alpha virt. eigenvalues --    0.67620   0.67713   0.67862   0.68132   0.68661
 Alpha virt. eigenvalues --    0.68809   0.69118   0.69679   0.69910   0.70132
 Alpha virt. eigenvalues --    0.70332   0.70520   0.71050   0.71411   0.71512
 Alpha virt. eigenvalues --    0.71997   0.72558   0.73214   0.73472   0.73643
 Alpha virt. eigenvalues --    0.73951   0.74456   0.74682   0.75121   0.75504
 Alpha virt. eigenvalues --    0.75893   0.76091   0.76259   0.76522   0.77326
 Alpha virt. eigenvalues --    0.77884   0.78026   0.78394   0.78691   0.78997
 Alpha virt. eigenvalues --    0.79094   0.79668   0.80116   0.80280   0.80945
 Alpha virt. eigenvalues --    0.81331   0.81582   0.82052   0.82374   0.82674
 Alpha virt. eigenvalues --    0.82804   0.83058   0.83362   0.83828   0.84073
 Alpha virt. eigenvalues --    0.84197   0.84475   0.84883   0.85435   0.85750
 Alpha virt. eigenvalues --    0.86354   0.86644   0.87187   0.87328   0.87649
 Alpha virt. eigenvalues --    0.87806   0.87926   0.88187   0.88379   0.88796
 Alpha virt. eigenvalues --    0.89016   0.89132   0.89844   0.90199   0.90534
 Alpha virt. eigenvalues --    0.90952   0.91106   0.91528   0.91805   0.91935
 Alpha virt. eigenvalues --    0.92214   0.92267   0.92491   0.92878   0.92942
 Alpha virt. eigenvalues --    0.92998   0.93401   0.93924   0.94096   0.94484
 Alpha virt. eigenvalues --    0.94587   0.95198   0.96028   0.96178   0.97099
 Alpha virt. eigenvalues --    0.97332   0.97818   0.97831   0.97944   0.98613
 Alpha virt. eigenvalues --    0.98805   0.99347   0.99449   0.99502   0.99906
 Alpha virt. eigenvalues --    1.00181   1.00222   1.00398   1.01347   1.01413
 Alpha virt. eigenvalues --    1.01895   1.02048   1.02794   1.02823   1.03209
 Alpha virt. eigenvalues --    1.03468   1.03733   1.03927   1.04194   1.05147
 Alpha virt. eigenvalues --    1.05355   1.05454   1.06049   1.06558   1.06708
 Alpha virt. eigenvalues --    1.07820   1.08353   1.09038   1.09574   1.09665
 Alpha virt. eigenvalues --    1.10499   1.10628   1.11022   1.11306   1.11859
 Alpha virt. eigenvalues --    1.12468   1.12922   1.13143   1.13961   1.15130
 Alpha virt. eigenvalues --    1.15234   1.15606   1.16425   1.16805   1.17767
 Alpha virt. eigenvalues --    1.19012   1.19784   1.20102   1.20891   1.21326
 Alpha virt. eigenvalues --    1.21731   1.22926   1.23558   1.24309   1.24866
 Alpha virt. eigenvalues --    1.25811   1.26793   1.28218   1.28526   1.30258
 Alpha virt. eigenvalues --    1.30642   1.31413   1.31834   1.33209   1.33456
 Alpha virt. eigenvalues --    1.34208   1.34349   1.35448   1.36107   1.36868
 Alpha virt. eigenvalues --    1.36959   1.37346   1.38313   1.38802   1.38900
 Alpha virt. eigenvalues --    1.39448   1.41058   1.41988   1.42278   1.42867
 Alpha virt. eigenvalues --    1.43250   1.43329   1.43839   1.45407   1.46557
 Alpha virt. eigenvalues --    1.46987   1.47463   1.47826   1.48313   1.48589
 Alpha virt. eigenvalues --    1.49660   1.49995   1.51302   1.51563   1.53425
 Alpha virt. eigenvalues --    1.54454   1.55287   1.55921   1.56517   1.56897
 Alpha virt. eigenvalues --    1.57321   1.58167   1.59736   1.59933   1.60238
 Alpha virt. eigenvalues --    1.60525   1.60721   1.61725   1.62123   1.63030
 Alpha virt. eigenvalues --    1.63628   1.63935   1.64187   1.65031   1.66110
 Alpha virt. eigenvalues --    1.66570   1.66795   1.67836   1.69797   1.70008
 Alpha virt. eigenvalues --    1.71099   1.71766   1.73652   1.75291   1.76293
 Alpha virt. eigenvalues --    1.76855   1.77829   1.78138   1.78890   1.79847
 Alpha virt. eigenvalues --    1.80069   1.80255   1.80319   1.80483   1.81309
 Alpha virt. eigenvalues --    1.82950   1.83000   1.83097   1.83820   1.84278
 Alpha virt. eigenvalues --    1.84462   1.85522   1.85912   1.85971   1.86912
 Alpha virt. eigenvalues --    1.87021   1.87475   1.87733   1.88516   1.88708
 Alpha virt. eigenvalues --    1.89011   1.89509   1.89812   1.89975   1.90728
 Alpha virt. eigenvalues --    1.90872   1.91496   1.91713   1.92253   1.92374
 Alpha virt. eigenvalues --    1.93129   1.93894   1.93939   1.94475   1.94889
 Alpha virt. eigenvalues --    1.95218   1.95410   1.95641   1.95836   1.96693
 Alpha virt. eigenvalues --    1.97016   1.97367   1.97745   1.98641   1.98675
 Alpha virt. eigenvalues --    1.99226   1.99368   2.00190   2.00256   2.01192
 Alpha virt. eigenvalues --    2.01450   2.01591   2.02078   2.02383   2.02605
 Alpha virt. eigenvalues --    2.03060   2.03664   2.04088   2.04777   2.05193
 Alpha virt. eigenvalues --    2.05422   2.05523   2.06076   2.06953   2.07684
 Alpha virt. eigenvalues --    2.07872   2.07909   2.08353   2.09415   2.09597
 Alpha virt. eigenvalues --    2.09866   2.10436   2.10625   2.10938   2.11545
 Alpha virt. eigenvalues --    2.11943   2.12998   2.13056   2.13569   2.14013
 Alpha virt. eigenvalues --    2.14243   2.14421   2.15013   2.15467   2.15712
 Alpha virt. eigenvalues --    2.15961   2.16367   2.16843   2.17310   2.17325
 Alpha virt. eigenvalues --    2.18614   2.18790   2.19366   2.19539   2.19738
 Alpha virt. eigenvalues --    2.20183   2.20389   2.20769   2.21276   2.21600
 Alpha virt. eigenvalues --    2.21998   2.22357   2.22578   2.22818   2.23181
 Alpha virt. eigenvalues --    2.24330   2.24641   2.25239   2.25758   2.26009
 Alpha virt. eigenvalues --    2.26554   2.27267   2.27413   2.27604   2.28454
 Alpha virt. eigenvalues --    2.29016   2.29456   2.30270   2.30957   2.31324
 Alpha virt. eigenvalues --    2.32400   2.32863   2.33475   2.33743   2.33790
 Alpha virt. eigenvalues --    2.33853   2.34919   2.35191   2.36510   2.37062
 Alpha virt. eigenvalues --    2.37467   2.38204   2.38612   2.38694   2.39185
 Alpha virt. eigenvalues --    2.39567   2.40807   2.41091   2.41529   2.42245
 Alpha virt. eigenvalues --    2.42529   2.43312   2.43587   2.44121   2.44200
 Alpha virt. eigenvalues --    2.44666   2.44724   2.44996   2.45585   2.45986
 Alpha virt. eigenvalues --    2.46696   2.47126   2.47615   2.48320   2.48892
 Alpha virt. eigenvalues --    2.49391   2.49623   2.50165   2.50497   2.51232
 Alpha virt. eigenvalues --    2.51491   2.51991   2.52488   2.53286   2.53441
 Alpha virt. eigenvalues --    2.53552   2.53959   2.54651   2.55079   2.55423
 Alpha virt. eigenvalues --    2.56170   2.56711   2.57678   2.57773   2.58557
 Alpha virt. eigenvalues --    2.58874   2.59312   2.59354   2.60187   2.60532
 Alpha virt. eigenvalues --    2.60615   2.60878   2.61374   2.62183   2.62311
 Alpha virt. eigenvalues --    2.63343   2.63738   2.64039   2.64942   2.65396
 Alpha virt. eigenvalues --    2.65509   2.65760   2.66682   2.67493   2.67757
 Alpha virt. eigenvalues --    2.68190   2.68402   2.69130   2.69243   2.69951
 Alpha virt. eigenvalues --    2.70114   2.70557   2.71018   2.71725   2.72097
 Alpha virt. eigenvalues --    2.72466   2.72472   2.73201   2.73448   2.73940
 Alpha virt. eigenvalues --    2.74021   2.74881   2.75111   2.76290   2.76558
 Alpha virt. eigenvalues --    2.76804   2.76898   2.77604   2.77688   2.78001
 Alpha virt. eigenvalues --    2.78402   2.78848   2.79141   2.79617   2.79902
 Alpha virt. eigenvalues --    2.80013   2.80602   2.81076   2.81323   2.81619
 Alpha virt. eigenvalues --    2.82443   2.83423   2.83982   2.84306   2.84492
 Alpha virt. eigenvalues --    2.85147   2.86244   2.87398   2.87645   2.88113
 Alpha virt. eigenvalues --    2.88413   2.88927   2.89842   2.90366   2.90770
 Alpha virt. eigenvalues --    2.91151   2.91662   2.92520   2.92979   2.93738
 Alpha virt. eigenvalues --    2.93980   2.95048   2.95685   2.95762   2.96193
 Alpha virt. eigenvalues --    2.96699   2.97684   2.97977   2.98778   2.98813
 Alpha virt. eigenvalues --    3.00205   3.00594   3.00886   3.01211   3.01924
 Alpha virt. eigenvalues --    3.02497   3.03157   3.04259   3.04618   3.04796
 Alpha virt. eigenvalues --    3.05651   3.05950   3.06381   3.07050   3.09749
 Alpha virt. eigenvalues --    3.09786   3.10729   3.11622   3.12464   3.13559
 Alpha virt. eigenvalues --    3.15443   3.15768   3.16450   3.18106   3.18566
 Alpha virt. eigenvalues --    3.20441   3.21079   3.23044   3.23470   3.23952
 Alpha virt. eigenvalues --    3.24173   3.25701   3.26029   3.28604   3.32028
 Alpha virt. eigenvalues --    3.32077   3.33002   3.33647   3.34756   3.35528
 Alpha virt. eigenvalues --    3.38075   3.39438   3.39466   3.41111   3.41686
 Alpha virt. eigenvalues --    3.43407   3.43623   3.44914   3.46333   3.46744
 Alpha virt. eigenvalues --    3.47263   3.47355   3.47864   3.48371   3.49783
 Alpha virt. eigenvalues --    3.51018   3.51645   3.52975   3.53199   3.53520
 Alpha virt. eigenvalues --    3.54873   3.55613   3.55798   3.55916   3.56978
 Alpha virt. eigenvalues --    3.57372   3.58853   3.59401   3.60837   3.62155
 Alpha virt. eigenvalues --    3.62418   3.65097   3.65495   3.66573   3.66960
 Alpha virt. eigenvalues --    3.67365   3.70779   3.71318   3.73515   3.74010
 Alpha virt. eigenvalues --    3.75104   3.91838   4.01819   4.02840   4.17566
 Alpha virt. eigenvalues --    4.19735   4.20294   4.22214   4.23005   4.27374
 Alpha virt. eigenvalues --    4.28376   4.31004   4.32213   4.34908   4.36413
 Alpha virt. eigenvalues --    4.37575   4.41121   4.43100   4.44910   4.45705
 Alpha virt. eigenvalues --    4.46391   4.47537   4.48946   4.53612   4.54021
 Alpha virt. eigenvalues --    4.56135   4.57487   4.58215   4.59889   4.64189
 Alpha virt. eigenvalues --    4.65175   4.65304   4.67141   4.70108   4.71878
 Alpha virt. eigenvalues --    4.74261   4.76000   4.78888   4.80618   4.84365
 Alpha virt. eigenvalues --    4.87123   4.89486   4.92323   4.94371
          Condensed to atoms (all electrons):
 Mulliken charges:
               1
     1  O   -0.562788
     2  O   -0.559263
     3  C    0.045430
     4  C   -0.154976
     5  C   -0.182005
     6  C    0.146358
     7  C    0.148218
     8  C    0.007924
     9  C   -0.291973
    10  C   -0.286503
    11  C   -0.184018
    12  C   -0.175126
    13  C    0.182550
    14  C    0.060377
    15  C   -0.066916
    16  C   -0.255324
    17  C    0.109917
    18  C   -0.304026
    19  C   -0.305540
    20  C   -0.359113
    21  C   -0.091528
    22  C   -0.107248
    23  C   -0.395049
    24  C    0.089352
    25  C   -0.125749
    26  C   -0.359384
    27  C    0.080213
    28  C   -0.143309
    29  C   -0.361222
    30  C   -0.112296
    31  C   -0.054785
    32  C   -0.058730
    33  C   -0.141919
    34  C    0.087225
    35  C   -0.106515
    36  C    0.085661
    37  C   -0.364377
    38  C   -0.083130
    39  C   -0.112036
    40  C   -0.360508
    41  C   -0.116638
    42  C   -0.070741
    43  H    0.077949
    44  H    0.107796
    45  H    0.081971
    46  H    0.092780
    47  H    0.095552
    48  H    0.098052
    49  H    0.086230
    50  H    0.112919
    51  H    0.101190
    52  H    0.084532
    53  H    0.111136
    54  H    0.083480
    55  H    0.076209
    56  H    0.083432
    57  H    0.096453
    58  H    0.078941
    59  H    0.107254
    60  H    0.075355
    61  H    0.098099
    62  H    0.104837
    63  H    0.114994
    64  H    0.072068
    65  H    0.113332
    66  H    0.123552
    67  H    0.085895
    68  H    0.100085
    69  H    0.299699
    70  H    0.091419
    71  H    0.082178
    72  H    0.126284
    73  H    0.108520
    74  H    0.127335
    75  H    0.309283
    76  H    0.100129
    77  H    0.113745
    78  H    0.086700
    79  H    0.127720
    80  H    0.081252
    81  H    0.086590
    82  H    0.113649
    83  H    0.113588
    84  H    0.064074
    85  H    0.096777
    86  H    0.067390
    87  H    0.081995
    88  H    0.086036
    89  H    0.130487
    90  H    0.129167
    91  H    0.111363
    92  H    0.062226
    93  H    0.042770
    94  H    0.112906
    95  H    0.118822
    96  H    0.102895
    97  H    0.082173
    98  H    0.088242
 Sum of Mulliken charges =  -0.00000
 Mulliken charges with hydrogens summed into heavy atoms:
               1
     1  O   -0.263089
     2  O   -0.249979
     3  C    0.045430
     4  C   -0.077027
     5  C    0.007762
     6  C    0.239139
     7  C    0.148218
     8  C    0.007924
     9  C   -0.012137
    10  C    0.012139
    11  C    0.010598
    12  C   -0.098917
    13  C    0.265982
    14  C    0.060377
    15  C    0.029537
    16  C   -0.069129
    17  C    0.109917
    18  C   -0.025735
    19  C   -0.005146
    20  C   -0.049581
    21  C   -0.009350
    22  C   -0.015828
    23  C   -0.032911
    24  C    0.089352
    25  C   -0.025620
    26  C   -0.031220
    27  C    0.080213
    28  C   -0.062057
    29  C   -0.047395
    30  C   -0.048222
    31  C    0.041992
    32  C    0.008660
    33  C   -0.059924
    34  C    0.087225
    35  C   -0.020479
    36  C    0.085661
    37  C    0.006640
    38  C   -0.020904
    39  C   -0.069266
    40  C   -0.025885
    41  C   -0.034465
    42  C    0.017500
 Electronic spatial extent (au):  <R**2>=         104350.9474
 Charge=             -0.0000 electrons
 Dipole moment (field-independent basis, Debye):
    X=             -3.2772    Y=             -0.7273    Z=              0.3569  Tot=              3.3759
 Quadrupole moment (field-independent basis, Debye-Ang):
   XX=           -262.1870   YY=           -245.8774   ZZ=           -262.7400
   XY=             -1.0219   XZ=             42.4697   YZ=             -3.9098
 Traceless Quadrupole moment (field-independent basis, Debye-Ang):
   XX=             -5.2522   YY=             11.0574   ZZ=             -5.8052
   XY=             -1.0219   XZ=             42.4697   YZ=             -3.9098
 Octapole moment (field-independent basis, Debye-Ang**2):
  XXX=          -1178.6670  YYY=             -3.5693  ZZZ=              9.8738  XYY=             26.7643
  XXY=           -120.9475  XXZ=            -18.2222  XZZ=            -21.5840  YZZ=            -10.6500
  YYZ=             14.2013  XYZ=              5.3902
 Hexadecapole moment (field-independent basis, Debye-Ang**3):
 XXXX=        -138059.3459 YYYY=          -4408.4959 ZZZZ=          -1915.4748 XXXY=           -514.8354
 XXXZ=           9616.9964 YYYX=           -193.5572 YYYZ=            -25.9036 ZZZX=            -45.0401
 ZZZY=            -23.5618 XXYY=         -22495.2798 XXZZ=         -22584.6601 YYZZ=          -1057.2125
 XXYZ=          -1343.7826 YYXZ=            186.7548 ZZXY=           -143.5115
 N-N= 4.019723187023D+03 E-N=-1.199493863100D+04  KE= 1.690421065227D+03
 1\1\GINC-PADAWAN\SP\RCAM-B3LYP TD-FC\6-31G(d,p)\C40H56O2\PADAWAN\16-Ju
 l-2019\0\\# td=(NStates=1) CAM-B3LYP/6-31G(d,p)\\TD\\0,1\O,0,-14.28140
 40156,-2.0112495067,0.168037059\O,0,14.8370755444,1.0149590825,-0.1975
 09155\C,0,-11.8808809477,0.1225083257,1.2039052105\C,0,-10.9368306456,
 0.376600431,-0.0795342406\C,0,-12.2319686775,-1.3465291373,1.208368678
 2\C,0,-12.7998633798,-2.0712881936,0.0446386148\C,0,-11.5372690158,-0.
 4239498733,-1.254770967\C,0,11.0934826789,1.1022518677,0.8509553752\C,
 0,-11.2209935726,0.5887406129,2.3721742681\C,0,-13.1774039028,0.895165
 1634,1.0508361604\C,0,12.5134485254,1.6244218687,0.5270400902\C,0,-12.
 1853695229,-1.5213800058,-1.3187746462\C,0,13.6045320741,0.5001676894,
 0.2030276217\C,0,10.7088203563,-0.0611955298,-0.1042868436\C,0,-9.5001
 887828,-0.0071535636,0.0100810157\C,0,12.9297509527,-0.2120584252,-1.0
 628418705\C,0,11.4134144302,-0.6460396493,-1.0295080096\C,0,10.2124481
 304,2.3363329453,0.7103837518\C,0,11.0089117237,0.6542946049,2.3349740
 587\C,0,-11.0882133188,0.036815323,-2.6167739356\C,0,-8.5162377241,0.9
 1057604,-0.0070943319\C,0,9.3280977391,-0.5081485907,0.1353036142\C,0,
 11.148054751,-1.5589888657,-2.030792684\C,0,-7.1239637193,0.5391111529
 ,-0.0091330026\C,0,8.895686025,-1.7874985474,-0.047169858\C,0,-6.72339
 37609,-0.9381125682,0.21571446\C,0,7.4276112486,-2.0989927713,0.103909
 3286\C,0,-6.1530750835,1.5540089754,-0.325364393\C,0,7.2309162858,-3.5
 968234045,0.277797998\C,0,6.3854358126,-1.3621665054,-0.1305653989\C,0
 ,-4.7517191456,1.4339269319,-0.2378146949\C,0,4.9940102469,-1.55934377
 73,-0.1310408843\C,0,-3.9583872111,2.5345064768,-0.4066118502\C,0,-2.4
 768381219,2.6041383714,-0.3742701748\C,0,4.0847224377,-0.5933298391,-0
 .2364631627\C,0,2.66501355,-0.8541898905,-0.0453794905\C,0,-1.81801035
 12,3.8994145241,-0.4602451719\C,0,-1.8165687424,1.433026047,-0.1887748
 939\C,0,1.716040149,0.137955357,0.0143428724\C,0,2.0803613572,-2.27030
 98183,0.2584582137\C,0,-0.3635886178,1.3328046018,-0.1194853083\C,0,0.
 3820930401,0.1823899068,-0.0133245933\H,0,-10.9047472162,1.5053923245,
 -0.5098028255\H,0,-12.6867521483,-1.7779478085,2.1293808328\H,0,-11.19
 58872583,-1.7279919942,1.1975630389\H,0,-12.5122248561,-3.0531844257,-
 0.0207072086\H,0,-10.2296783691,0.0440760832,2.527751399\H,0,-10.86185
 63522,1.6587889559,2.2505997819\H,0,-12.0793055229,0.7097743964,3.1706
 012379\H,0,-13.6625074525,0.6523312354,0.0990263729\H,0,-13.7725630269
 ,0.5664982572,1.9229963016\H,0,-13.0156402494,1.9756311849,1.145044987
 8\H,0,12.4381611828,2.3703219817,-0.2284550023\H,0,12.8298874158,1.998
 6639053,1.4391115124\H,0,-12.4292864072,-1.9947662731,-2.19279347\H,0,
 13.7516047453,-0.1794076866,1.001770513\H,0,-9.2303053962,-1.005335392
 5,0.2118287429\H,0,13.4724223863,-1.1584988892,-1.4194471007\H,0,13.16
 67530928,0.3137599539,-2.0538353073\H,0,9.176464344,2.3046705189,1.385
 7938268\H,0,9.921353997,2.5087634787,-0.4484079253\H,0,10.733126986,3.
 279122884,1.1195681078\H,0,11.4904918905,-0.2729645451,2.59428585\H,0,
 9.8052454951,0.4118386429,2.5464677749\H,0,10.9949803971,1.5228600828,
 2.9731222552\H,0,-10.0586683648,0.1664465554,-2.6335707528\H,0,-11.578
 546911,1.0999759961,-2.7316202273\H,0,-11.4547033154,-0.5077195233,-3.
 5397017278\H,0,-14.6476680401,-2.2922581784,-0.6988280866\H,0,8.452344
 3024,0.1189221174,0.4873513813\H,0,-8.7079259615,1.9445461074,-0.37801
 31217\H,0,11.5318189164,-2.5284643424,-1.9662294744\H,0,9.9987627427,-
 1.7350496067,-2.2152774617\H,0,11.4287421679,-1.3009831884,-2.90483643
 17\H,0,15.581477328,1.0958376836,0.6488828572\H,0,9.6611658929,-2.5616
 892506,-0.188935336\H,0,-5.7288373447,-1.0032074714,0.3316105579\H,0,-
 7.3060395021,-1.5037323464,1.1868509375\H,0,-6.8738236176,-1.650823530
 6,-0.6117593907\H,0,-6.5784001265,2.5941382089,-0.7036135631\H,0,7.323
 3158806,-3.8952629489,1.4705867544\H,0,6.2196393091,-3.9732425121,0.02
 0152424\H,0,8.1087107685,-4.0387300576,-0.2097740101\H,0,6.4375121781,
 -0.2804752869,-0.3172938513\H,0,-4.3798402156,0.3319528605,-0.10972703
 03\H,0,4.5217757811,-2.5692861816,0.0783701762\H,0,-4.4888949352,3.466
 2246043,-0.4839080463\H,0,4.4595360298,0.4546027992,-0.3964988673\H,0,
 -1.1078505433,3.6917206188,-1.3332515971\H,0,-1.1008729257,4.016748832
 2,0.4091389541\H,0,-2.6095404421,4.5586782833,-0.4904173354\H,0,-2.565
 3954199,0.6252091464,-0.1746621962\H,0,2.3126303051,1.241338123,0.1115
 941443\H,0,2.7964681745,-2.8424806505,0.962194598\H,0,1.0881138827,-2.
 1087201631,0.7396126762\H,0,1.9995927087,-2.8501227995,-0.8077250155\H
 ,0,0.1392698119,2.2642562653,-0.277894781\H,0,-0.1190848045,-0.8138715
 57,-0.1580164566\\Version=ES64L-G16RevA.03\State=1-A\HF=-1706.9627482\
 RMSD=4.343e-09\PG=C01 [X(C40H56O2)]\\@


 THE SCIENTIFIC THEORIST IS NOT TO BE ENVIED. FOR NATURE, OR MORE
 PRECISELY EXPERIMENT, IS AN INEXORABLE AND NOT VERY FRIENDLY JUDGE OF HIS
 WORK.  IT NEVER SAYS "YES" TO A THEORY. IN THE MOST FAVORABLE CASES
 IT SAYS "MAYBE", AND IN THE GREAT MAJORITY OF CASES SIMPLY "NO"...
 PROBABLY EVERY THEORY WILL SOME DAY EXPERIENCE ITS "NO" - MOST
 THEORIES, SOON AFTER CONCEPTION.  -- A.EINSTEIN, NOV 11, 1922.
 Job cpu time:       0 days  2 hours  2 minutes  8.3 seconds.
 Elapsed time:       0 days  1 hours 21 minutes 34.2 seconds.
 File lengths (MBytes):  RWF=   3127 Int=      0 D2E=      0 Chk=     84 Scr=      1
 Normal termination of Gaussian 16 at Tue Jul 16 14:03:43 2019.
