 Entering Gaussian System, Link 0=g16
 Input=Geometria-495-.com
 Output=Geometria-495-.log
 Initial command:
 /usr/local/g16/l1.exe "/home/padawan/israel-mol/lutein/spectra/emi/Gau-4151.inp" -scrdir="/home/padawan/israel-mol/lutein/spectra/emi/"
 Entering Link 1 = /usr/local/g16/l1.exe PID=      4153.
  
 Copyright (c) 1988,1990,1992,1993,1995,1998,2003,2009,2016,
            Gaussian, Inc.  All Rights Reserved.
  
 This is part of the Gaussian(R) 16 program.  It is based on
 the Gaussian(R) 09 system (copyright 2009, Gaussian, Inc.),
 the Gaussian(R) 03 system (copyright 2003, Gaussian, Inc.),
 the Gaussian(R) 98 system (copyright 1998, Gaussian, Inc.),
 the Gaussian(R) 94 system (copyright 1995, Gaussian, Inc.),
 the Gaussian 92(TM) system (copyright 1992, Gaussian, Inc.),
 the Gaussian 90(TM) system (copyright 1990, Gaussian, Inc.),
 the Gaussian 88(TM) system (copyright 1988, Gaussian, Inc.),
 the Gaussian 86(TM) system (copyright 1986, Carnegie Mellon
 University), and the Gaussian 82(TM) system (copyright 1983,
 Carnegie Mellon University). Gaussian is a federally registered
 trademark of Gaussian, Inc.
  
 This software contains proprietary and confidential information,
 including trade secrets, belonging to Gaussian, Inc.
  
 This software is provided under written license and may be
 used, copied, transmitted, or stored only in accord with that
 written license.
  
 The following legend is applicable only to US Government
 contracts under FAR:
  
                    RESTRICTED RIGHTS LEGEND
  
 Use, reproduction and disclosure by the US Government is
 subject to restrictions as set forth in subparagraphs (a)
 and (c) of the Commercial Computer Software - Restricted
 Rights clause in FAR 52.227-19.
  
 Gaussian, Inc.
 340 Quinnipiac St., Bldg. 40, Wallingford CT 06492
  
  
 ---------------------------------------------------------------
 Warning -- This program may not be used in any manner that
 competes with the business of Gaussian, Inc. or will provide
 assistance to any competitor of Gaussian, Inc.  The licensee
 of this program is prohibited from giving any competitor of
 Gaussian, Inc. access to this program.  By using this program,
 the user acknowledges that Gaussian, Inc. is engaged in the
 business of creating and licensing software in the field of
 computational chemistry and represents and warrants to the
 licensee that it is not a competitor of Gaussian, Inc. and that
 it will not use this program in any manner prohibited above.
 ---------------------------------------------------------------
  

 Cite this work as:
 Gaussian 16, Revision A.03,
 M. J. Frisch, G. W. Trucks, H. B. Schlegel, G. E. Scuseria, 
 M. A. Robb, J. R. Cheeseman, G. Scalmani, V. Barone, 
 G. A. Petersson, H. Nakatsuji, X. Li, M. Caricato, A. V. Marenich, 
 J. Bloino, B. G. Janesko, R. Gomperts, B. Mennucci, H. P. Hratchian, 
 J. V. Ortiz, A. F. Izmaylov, J. L. Sonnenberg, D. Williams-Young, 
 F. Ding, F. Lipparini, F. Egidi, J. Goings, B. Peng, A. Petrone, 
 T. Henderson, D. Ranasinghe, V. G. Zakrzewski, J. Gao, N. Rega, 
 G. Zheng, W. Liang, M. Hada, M. Ehara, K. Toyota, R. Fukuda, 
 J. Hasegawa, M. Ishida, T. Nakajima, Y. Honda, O. Kitao, H. Nakai, 
 T. Vreven, K. Throssell, J. A. Montgomery, Jr., J. E. Peralta, 
 F. Ogliaro, M. J. Bearpark, J. J. Heyd, E. N. Brothers, K. N. Kudin, 
 V. N. Staroverov, T. A. Keith, R. Kobayashi, J. Normand, 
 K. Raghavachari, A. P. Rendell, J. C. Burant, S. S. Iyengar, 
 J. Tomasi, M. Cossi, J. M. Millam, M. Klene, C. Adamo, R. Cammi, 
 J. W. Ochterski, R. L. Martin, K. Morokuma, O. Farkas, 
 J. B. Foresman, and D. J. Fox, Gaussian, Inc., Wallingford CT, 2016.
 
 ******************************************
 Gaussian 16:  ES64L-G16RevA.03 25-Dec-2016
                16-Jul-2019 
 ******************************************
 %nproc=4
 Will use up to    4 processors via shared memory.
 %Mem=4GB
 -------------------------------------
 # td=(NStates=1) CAM-B3LYP/6-31G(d,p)
 -------------------------------------
 1/38=1,172=1/1;
 2/12=2,17=6,18=5,40=1/2;
 3/5=1,6=6,7=101,11=9,25=1,30=1,74=-40/1,2,3,8;
 4//1;
 5/5=2,38=5/2;
 8/6=1,10=2,108=1/1;
 9/41=1,42=1,70=2/14;
 6/7=2,8=2,9=2,10=2/1;
 99/5=1,9=1/99;
 --
 TD
 --
 Symbolic Z-matrix:
 Charge =  0 Multiplicity = 1
 8                    -14.16181  -2.10809   0.61124 
 8                     14.70939   1.01837   0.21047 
 6                    -11.68525  -0.03135   1.32152 
 6                    -10.97824   0.35789  -0.07141 
 6                    -11.83017  -1.51623   1.44681 
 6                    -12.69726  -2.07936   0.28852 
 6                    -11.66538  -0.33947  -1.08783 
 6                     11.02701   0.93893   1.04694 
 6                    -10.92474   0.29494   2.6537 
 6                    -13.02806   0.73582   1.46839 
 6                     12.45516   1.5205    0.84329 
 6                    -12.36778  -1.42255  -0.97299 
 6                     13.41416   0.45036   0.44591 
 6                     10.63157  -0.11015  -0.01328 
 6                    -9.5527    0.02291  -0.00041 
 6                     12.95147  -0.10479  -0.78097 
 6                     11.48466  -0.5695   -0.81971 
 6                     10.07021   2.19572   1.16127 
 6                     10.93614   0.35253   2.54557 
 6                    -11.34796   0.21175  -2.51645 
 6                    -8.47585   0.85414  -0.24419 
 6                     9.22096  -0.43223   0.08269 
 6                     11.31187  -1.48022  -2.06385 
 6                    -7.06953   0.597    -0.23538 
 6                     8.82271  -1.78219  -0.08477 
 6                    -6.73239  -0.85602  -0.0315 
 6                     7.43752  -2.18627  -0.03174 
 6                    -6.13518   1.63784  -0.40647 
 6                     7.15444  -3.6582    0.2818 
 6                     6.39753  -1.31736  -0.18759 
 6                    -4.79448   1.52949  -0.30297 
 6                     4.99004  -1.6182   -0.19499 
 6                    -3.89879   2.60162  -0.629 
 6                    -2.53146   2.66569  -0.67939 
 6                     3.99764  -0.67089  -0.41493 
 6                     2.60305  -0.83106  -0.35745 
 6                    -1.95954   3.95113  -1.13776 
 6                    -1.62882   1.5524   -0.52158 
 6                     1.78186   0.31078  -0.63886 
 6                     2.00157  -2.11688  -0.07094 
 6                    -0.31388   1.45508  -0.65929 
 6                     0.41605   0.36384  -0.43386 
 1                    -11.03614   1.45781  -0.14234 
 1                    -12.36837  -1.76189   2.40176 
 1                    -10.82167  -1.92352   1.30792 
 1                    -12.48088  -3.09895   0.16023 
 1                    -9.62958   0.06635   2.52479 
 1                    -10.93123   1.46719   2.74623 
 1                    -11.40573   0.25686   3.55587 
 1                    -13.6307   0.62696   0.76928 
 1                    -13.64781   0.33394   2.22821 
 1                    -12.89471   1.74332   1.79146 
 1                     12.43503   2.23302   0.14934 
 1                     12.74795   2.00871   1.79649 
 1                    -12.67888  -2.1483   -1.74694 
 1                     13.51477  -0.3556    1.07533 
 1                    -9.24498  -1.02724   0.37824 
 1                     13.75061  -1.00773  -0.88603 
 1                     13.08763   0.48932  -1.63459 
 1                     8.99539   1.89856   1.42091 
 1                     10.03625   2.80486   0.12178 
 1                     10.49634   2.94319   1.72847 
 1                     11.70922  -0.51178   2.30347 
 1                     9.98552   0.07061   2.66523 
 1                     11.56967   1.11658   3.15776 
 1                    -10.29328   0.36008  -2.65273 
 1                    -11.64486   1.19848  -2.61242 
 1                    -11.59256  -0.32335  -3.22757 
 1                    -14.66462  -2.37282  -0.08376 
 1                     8.57029   0.33935   0.41268 
 1                    -8.71907   1.80273  -0.55293 
 1                     11.56826  -2.50506  -1.57108 
 1                     10.19563  -1.86747  -2.68495 
 1                     12.01484  -1.19752  -2.95809 
 1                     14.60437   1.81138   1.056 
 1                     9.59895  -2.5624    0.02104 
 1                    -5.6458   -0.98188  -0.19887 
 1                    -6.84619  -1.14935   1.10448 
 1                    -7.49251  -1.50413  -0.7278 
 1                    -6.60161   2.52979  -0.77271 
 1                     6.73292  -3.75218   1.19471 
 1                     6.5253   -4.11789  -0.49133 
 1                     8.07361  -4.21462   0.18684 
 1                     6.73384  -0.24139  -0.26409 
 1                    -4.50689   0.58824  -0.00316 
 1                     4.6095   -2.62189  -0.27094 
 1                    -4.53413   3.45582  -1.18917 
 1                     4.41173   0.31107  -0.49874 
 1                    -1.18898   3.84042  -1.82658 
 1                    -1.30226   4.4096   -0.32424 
 1                    -2.69132   4.78422  -1.45433 
 1                    -2.04958   0.54798  -0.01424 
 1                     2.29179   1.25865  -0.86958 
 1                     2.06706  -2.38443   1.03115 
 1                     0.67458  -2.31797  -0.5041 
 1                     2.53106  -2.98394  -0.65941 
 1                     0.24883   2.538    -0.88593 
 1                    -0.21122  -0.38892  -0.24075 
 
 Stoichiometry    C40H56O2
 Framework group  C1[X(C40H56O2)]
 Deg. of freedom   288
 Full point group                 C1      NOp   1
 Largest Abelian subgroup         C1      NOp   1
 Largest concise Abelian subgroup C1      NOp   1
                         Standard orientation:                         
 ---------------------------------------------------------------------
 Center     Atomic      Atomic             Coordinates (Angstroms)
 Number     Number       Type             X           Y           Z
 ---------------------------------------------------------------------
      1          8           0      -14.163405   -2.123108    0.545289
      2          8           0       14.708282    1.010351    0.247071
      3          6           0      -11.687076   -0.066953    1.313872
      4          6           0      -10.979246    0.360416   -0.067414
      5          6           0      -11.832187   -1.554704    1.398156
      6          6           0      -12.698671   -2.085648    0.224312
      7          6           0      -11.665864   -0.308628   -1.103037
      8          6           0       11.025414    0.908270    1.078958
      9          6           0      -10.927298    0.222459    2.654966
     10          6           0      -13.029903    0.696012    1.481050
     11          6           0       12.453735    1.495092    0.892202
     12          6           0      -12.368415   -1.394388   -1.018453
     13          6           0       13.412872    0.436205    0.466051
     14          6           0       10.630496   -0.111179   -0.009969
     15          6           0       -9.553774    0.023468   -0.004854
     16          6           0       12.950833   -0.084911   -0.775915
     17          6           0       11.484005   -0.548238   -0.828257
     18          6           0       10.068662    2.161534    1.227300
     19          6           0       10.933653    0.280850    2.560814
     20          6           0      -11.347584    0.281689   -2.515759
     21          6           0       -8.476716    0.860990   -0.225045
     22          6           0        9.219799   -0.435640    0.076295
     23          6           0       11.311845   -1.424341   -2.097096
     24          6           0       -7.070417    0.603562   -0.222521
     25          6           0        8.821534   -1.780435   -0.128495
     26          6           0       -6.733520   -0.854555   -0.058537
     27          6           0        7.436284   -2.185689   -0.087395
     28          6           0       -6.135889    1.648627   -0.364368
     29          6           0        7.152900   -3.665664    0.185344
     30          6           0        6.396450   -1.312716   -0.219847
     31          6           0       -4.795257    1.537335   -0.263131
     32          6           0        4.988942   -1.613097   -0.236319
     33          6           0       -3.899291    2.617953   -0.559016
     34          6           0       -2.531929    2.683252   -0.606846
     35          6           0        3.996750   -0.659990   -0.430659
     36          6           0        2.602108   -0.821544   -0.378399
     37          6           0       -1.959643    3.980764   -1.029331
     38          6           0       -1.629468    1.565944   -0.479235
     39          6           0        1.781172    0.327692   -0.628731
     40          6           0        2.000364   -2.114713   -0.127743
     41          6           0       -0.314462    1.472321   -0.618830
     42          6           0        0.415250    0.375218   -0.423114
     43          1           0      -11.037010    1.461876   -0.108059
     44          1           0      -12.370952   -1.826510    2.345672
     45          1           0      -10.823644   -1.958121    1.248677
     46          1           0      -12.482301   -3.101341    0.068119
     47          1           0       -9.632078   -0.002626    2.520542
     48          1           0      -10.933742    1.391716    2.779729
     49          1           0      -11.408797    0.159600    3.555471
     50          1           0      -13.632160    0.606500    0.778873
     51          1           0      -13.650119    0.273422    2.229166
     52          1           0      -12.896652    1.694220    1.831813
     53          1           0       12.434056    2.226447    0.218121
     54          1           0       12.746021    1.956848    1.858643
     55          1           0      -12.679139   -2.098526   -1.812266
     56          1           0       13.513055   -0.386787    1.073096
     57          1           0       -9.246349   -1.036736    0.344909
     58          1           0       13.749954   -0.984701   -0.905343
     59          1           0       13.087519    0.532458   -1.612777
     60          1           0        8.993662    1.857446    1.478051
     61          1           0       10.035334    2.799070    0.204956
     62          1           0       10.494531    2.893063    1.815105
     63          1           0       11.706798   -0.576546    2.295448
     64          1           0        9.982941   -0.004163    2.672134
     65          1           0       11.566892    1.027688    3.194171
     66          1           0      -10.292817    0.433604   -2.647307
     67          1           0      -11.644352    1.270710   -2.584689
     68          1           0      -11.591823   -0.233609   -3.241477
     69          1           0      -14.665840   -2.368550   -0.157018
     70          1           0        8.569005    0.326631    0.427041
     71          1           0       -8.719675    1.817746   -0.507691
     72          1           0       11.567871   -2.462385   -1.632588
     73          1           0       10.195927   -1.794235   -2.729262
     74          1           0       12.015346   -1.117198   -2.982822
     75          1           0       14.602845    1.779791    1.114056
     76          1           0        9.597650   -2.563341   -0.043768
     77          1           0       -5.646840   -0.975857   -0.228696
     78          1           0       -6.847988   -1.179031    1.068875
     79          1           0       -7.493289   -1.483168   -0.772847
     80          1           0       -6.602036    2.550372   -0.706173
     81          1           0        6.730852   -3.784700    1.095083
     82          1           0        6.524162   -4.103829   -0.600502
     83          1           0        8.072076   -4.219347    0.075617
     84          1           0        6.732897   -0.235080   -0.266502
     85          1           0       -4.507915    0.588161    0.010818
     86          1           0        4.608367   -2.614279   -0.340097
     87          1           0       -4.534240    3.487315   -1.095809
     88          1           0        4.410966    0.323860   -0.487166
     89          1           0       -1.188695    3.888980   -1.720500
     90          1           0       -1.302786    4.416596   -0.203126
     91          1           0       -2.691168    4.822327   -1.323258
     92          1           0       -2.050603    0.547981    0.000023
     93          1           0        2.291313    1.281502   -0.832980
     94          1           0        2.065198   -2.412511    0.966606
     95          1           0        0.673603   -2.303666   -0.567022
     96          1           0        2.530109   -2.965286   -0.739558
     97          1           0        0.248471    2.561022   -0.815247
     98          1           0       -0.212193   -0.382509   -0.251165
 ---------------------------------------------------------------------
 Rotational constants (GHZ):           0.2397831           0.0099450           0.0097865
 Standard basis: 6-31G(d,p) (6D, 7F)
 There are   910 symmetry adapted cartesian basis functions of A   symmetry.
 There are   910 symmetry adapted basis functions of A   symmetry.
   910 basis functions,  1568 primitive gaussians,   910 cartesian basis functions
   156 alpha electrons      156 beta electrons
       nuclear repulsion energy      4029.3518683413 Hartrees.
 NAtoms=   98 NActive=   98 NUniq=   98 SFac= 1.00D+00 NAtFMM=   60 NAOKFM=T Big=T
 Integral buffers will be    131072 words long.
 Raffenetti 1 integral format.
 Two-electron integral symmetry is turned on.
 One-electron integrals computed using PRISM.
 NBasis=   910 RedAO= T EigKep=  7.11D-04  NBF=   910
 NBsUse=   910 1.00D-06 EigRej= -1.00D+00 NBFU=   910
 ExpMin= 1.61D-01 ExpMax= 5.48D+03 ExpMxC= 8.25D+02 IAcc=3 IRadAn=         5 AccDes= 0.00D+00
 Harris functional with IExCor=20419 and IRadAn=       5 diagonalized for initial guess.
 HarFok:  IExCor=20419 AccDes= 0.00D+00 IRadAn=         5 IDoV= 1 UseB2=F ITyADJ=14
 ICtDFT=  3500011 ScaDFX=  1.000000  1.000000  1.000000  1.000000
 FoFCou: FMM=F IPFlag=           0 FMFlag=      100000 FMFlg1=        2001
         NFxFlg=           0 DoJE=T BraDBF=F KetDBF=T FulRan=T
         wScrn=  0.000000 ICntrl=       500 IOpCl=  0 I1Cent=   200000004 NGrid=           0
         NMat0=    1 NMatS0=      1 NMatT0=    0 NMatD0=    1 NMtDS0=    0 NMtDT0=    0
 Petite list used in FoFCou.
 Requested convergence on RMS density matrix=1.00D-08 within 128 cycles.
 Requested convergence on MAX density matrix=1.00D-06.
 Requested convergence on             energy=1.00D-06.
 No special actions if energy rises.
 Integral accuracy reduced to 1.0D-05 until final iterations.
 Initial convergence to 1.0D-05 achieved.  Increase integral accuracy.
 SCF Done:  E(RCAM-B3LYP) =  -1706.83211912     A.U. after   16 cycles
            NFock= 16  Conv=0.82D-08     -V/T= 2.0090
 DoSCS=F DFT=T ScalE2(SS,OS)=  1.000000  1.000000
 ExpMin= 1.61D-01 ExpMax= 5.48D+03 ExpMxC= 8.25D+02 IAcc=3 IRadAn=         5 AccDes= 0.00D+00
 HarFok:  IExCor=  205 AccDes= 0.00D+00 IRadAn=         5 IDoV=-2 UseB2=F ITyADJ=14
 ICtDFT= 12500011 ScaDFX=  1.000000  1.000000  1.000000  1.000000
 GSVD:  LWork=       -2100 too small for GESVD, short by        9450 words or        9450 for optimal perf.
 Range of M.O.s used for correlation:    43   910
 NBasis=   910 NAE=   156 NBE=   156 NFC=    42 NFV=     0
 NROrb=    868 NOA=   114 NOB=   114 NVA=   754 NVB=   754
 Orbital symmetries:
       Occupied  (A) (A) (A) (A) (A) (A) (A) (A) (A) (A) (A) (A)
                 (A) (A) (A) (A) (A) (A) (A) (A) (A) (A) (A) (A)
                 (A) (A) (A) (A) (A) (A) (A) (A) (A) (A) (A) (A)
                 (A) (A) (A) (A) (A) (A) (A) (A) (A) (A) (A) (A)
                 (A) (A) (A) (A) (A) (A) (A) (A) (A) (A) (A) (A)
                 (A) (A) (A) (A) (A) (A) (A) (A) (A) (A) (A) (A)
                 (A) (A) (A) (A) (A) (A) (A) (A) (A) (A) (A) (A)
                 (A) (A) (A) (A) (A) (A) (A) (A) (A) (A) (A) (A)
                 (A) (A) (A) (A) (A) (A) (A) (A) (A) (A) (A) (A)
                 (A) (A) (A) (A) (A) (A) (A) (A) (A) (A) (A) (A)
                 (A) (A) (A) (A) (A) (A) (A) (A) (A) (A) (A) (A)
                 (A) (A) (A) (A) (A) (A) (A) (A) (A) (A) (A) (A)
                 (A) (A) (A) (A) (A) (A) (A) (A) (A) (A) (A) (A)
       Virtual   (A) (A) (A) (A) (A) (A) (A) (A) (A) (A) (A) (A)
                 (A) (A) (A) (A) (A) (A) (A) (A) (A) (A) (A) (A)
                 (A) (A) (A) (A) (A) (A) (A) (A) (A) (A) (A) (A)
                 (A) (A) (A) (A) (A) (A) (A) (A) (A) (A) (A) (A)
                 (A) (A) (A) (A) (A) (A) (A) (A) (A) (A) (A) (A)
                 (A) (A) (A) (A) (A) (A) (A) (A) (A) (A) (A) (A)
                 (A) (A) (A) (A) (A) (A) (A) (A) (A) (A) (A) (A)
                 (A) (A) (A) (A) (A) (A) (A) (A) (A) (A) (A) (A)
                 (A) (A) (A) (A) (A) (A) (A) (A) (A) (A) (A) (A)
                 (A) (A) (A) (A) (A) (A) (A) (A) (A) (A) (A) (A)
                 (A) (A) (A) (A) (A) (A) (A) (A) (A) (A) (A) (A)
                 (A) (A) (A) (A) (A) (A) (A) (A) (A) (A) (A) (A)
                 (A) (A) (A) (A) (A) (A) (A) (A) (A) (A) (A) (A)
                 (A) (A) (A) (A) (A) (A) (A) (A) (A) (A) (A) (A)
                 (A) (A) (A) (A) (A) (A) (A) (A) (A) (A) (A) (A)
                 (A) (A) (A) (A) (A) (A) (A) (A) (A) (A) (A) (A)
                 (A) (A) (A) (A) (A) (A) (A) (A) (A) (A) (A) (A)
                 (A) (A) (A) (A) (A) (A) (A) (A) (A) (A) (A) (A)
                 (A) (A) (A) (A) (A) (A) (A) (A) (A) (A) (A) (A)
                 (A) (A) (A) (A) (A) (A) (A) (A) (A) (A) (A) (A)
                 (A) (A) (A) (A) (A) (A) (A) (A) (A) (A) (A) (A)
                 (A) (A) (A) (A) (A) (A) (A) (A) (A) (A) (A) (A)
                 (A) (A) (A) (A) (A) (A) (A) (A) (A) (A) (A) (A)
                 (A) (A) (A) (A) (A) (A) (A) (A) (A) (A) (A) (A)
                 (A) (A) (A) (A) (A) (A) (A) (A) (A) (A) (A) (A)
                 (A) (A) (A) (A) (A) (A) (A) (A) (A) (A) (A) (A)
                 (A) (A) (A) (A) (A) (A) (A) (A) (A) (A) (A) (A)
                 (A) (A) (A) (A) (A) (A) (A) (A) (A) (A) (A) (A)
                 (A) (A) (A) (A) (A) (A) (A) (A) (A) (A) (A) (A)
                 (A) (A) (A) (A) (A) (A) (A) (A) (A) (A) (A) (A)
                 (A) (A) (A) (A) (A) (A) (A) (A) (A) (A) (A) (A)
                 (A) (A) (A) (A) (A) (A) (A) (A) (A) (A) (A) (A)
                 (A) (A) (A) (A) (A) (A) (A) (A) (A) (A) (A) (A)
                 (A) (A) (A) (A) (A) (A) (A) (A) (A) (A) (A) (A)
                 (A) (A) (A) (A) (A) (A) (A) (A) (A) (A) (A) (A)
                 (A) (A) (A) (A) (A) (A) (A) (A) (A) (A) (A) (A)
                 (A) (A) (A) (A) (A) (A) (A) (A) (A) (A) (A) (A)
                 (A) (A) (A) (A) (A) (A) (A) (A) (A) (A) (A) (A)
                 (A) (A) (A) (A) (A) (A) (A) (A) (A) (A) (A) (A)
                 (A) (A) (A) (A) (A) (A) (A) (A) (A) (A) (A) (A)
                 (A) (A) (A) (A) (A) (A) (A) (A) (A) (A) (A) (A)
                 (A) (A) (A) (A) (A) (A) (A) (A) (A) (A) (A) (A)
                 (A) (A) (A) (A) (A) (A) (A) (A) (A) (A) (A) (A)
                 (A) (A) (A) (A) (A) (A) (A) (A) (A) (A) (A) (A)
                 (A) (A) (A) (A) (A) (A) (A) (A) (A) (A) (A) (A)
                 (A) (A) (A) (A) (A) (A) (A) (A) (A) (A) (A) (A)
                 (A) (A) (A) (A) (A) (A) (A) (A) (A) (A) (A) (A)
                 (A) (A) (A) (A) (A) (A) (A) (A) (A) (A) (A) (A)
                 (A) (A) (A) (A) (A) (A) (A) (A) (A) (A) (A) (A)
                 (A) (A) (A) (A) (A) (A) (A) (A) (A) (A) (A) (A)
                 (A) (A) (A) (A) (A) (A) (A) (A) (A) (A) (A) (A)
                 (A) (A) (A) (A) (A) (A) (A) (A) (A) (A) (A) (A)
                 (A) (A) (A) (A) (A) (A) (A) (A) (A) (A) (A) (A)
                 (A) (A) (A) (A) (A) (A) (A) (A) (A) (A) (A) (A)
                 (A) (A) (A) (A) (A) (A) (A) (A) (A) (A) (A) (A)
                 (A) (A) (A) (A) (A) (A) (A) (A) (A) (A) (A) (A)
                 (A) (A) (A) (A) (A) (A) (A) (A) (A) (A) (A) (A)
                 (A) (A) (A) (A) (A) (A) (A) (A) (A) (A) (A) (A)
                 (A) (A) (A) (A) (A) (A) (A) (A) (A) (A) (A) (A)
                 (A) (A) (A) (A) (A) (A) (A) (A) (A) (A) (A) (A)
                 (A) (A) (A) (A) (A) (A) (A) (A) (A) (A) (A) (A)
                 (A) (A) (A) (A) (A) (A) (A) (A) (A) (A) (A) (A)
                 (A) (A) (A) (A) (A) (A) (A) (A) (A) (A)
     4 initial guesses have been made.
 Convergence on wavefunction:    0.001000000000000
 Iteration     1 Dimension     4 NMult     0 NNew      4
 CISAX will form     4 AO SS matrices at one time.
 Iteration     2 Dimension     6 NMult     4 NNew      2
 Iteration     3 Dimension     8 NMult     6 NNew      2
 Iteration     4 Dimension    10 NMult     8 NNew      2
 Iteration     5 Dimension    12 NMult    10 NNew      2
 Iteration     6 Dimension    14 NMult    12 NNew      2
 ***********************************************************************
 Excited states from <AA,BB:AA,BB> singles matrix:
 ***********************************************************************
 
 Ground to excited state transition densities written to RWF  633
 Ground to excited state transition electric dipole moments (Au):
       state          X           Y           Z        Dip. S.      Osc.
         1         8.4127     -0.9912     -0.0245     71.7568      3.0726
 Ground to excited state transition velocity dipole moments (Au):
       state          X           Y           Z        Dip. S.      Osc.
         1        -0.5246      0.0624      0.0017      0.2791      2.8973
 Ground to excited state transition magnetic dipole moments (Au):
       state          X           Y           Z
         1         0.1742      0.7272      1.4522
 Ground to excited state transition velocity quadrupole moments (Au):
       state          XX          YY          ZZ          XY          XZ          YZ
         1         0.5887     -0.0317      0.0256      0.4249     -0.0219     -0.0697
 <0|del|b> * <b|rxdel|0> + <0|del|b> * <b|delr+rdel|0>
 Rotatory Strengths (R) in cgs (10**-40 erg-esu-cm/Gauss)
       state          XX          YY          ZZ    R(velocity)    E-M Angle
         1       274.7583   -292.3743   -462.1102   -159.9088       92.89
 1/2[<0|r|b>*<b|rxdel|0> + (<0|rxdel|b>*<b|r|0>)*]
 Rotatory Strengths (R) in cgs (10**-40 erg-esu-cm/Gauss)
       state          XX          YY          ZZ     R(length)
         1     -1036.5201    509.7356     25.2090   -167.1918
  1/2[<0|del|b>*<b|r|0> + (<0|r|b>*<b|del|0>)*] (Au)
       state          X           Y           Z        Dip. S.   Osc.(frdel)
         1        -4.4136     -0.0619     -0.0000      4.4756      2.9837

 Excitation energies and oscillator strengths:
 
 Excited State   1:      Singlet-A      1.7478 eV  709.38 nm  f=3.0726  <S**2>=0.000
     155 ->158         0.13047
     156 ->157         0.70497
     156 <-157        -0.13492
 This state for optimization and/or second-order correction.
 Total Energy, E(TD-HF/TD-DFT) =  -1706.76788885    
 Copying the excited state density for this state as the 1-particle RhoCI density.
 SavETr:  write IOETrn=   770 NScale= 10 NData=  16 NLR=1 NState=    1 LETran=      28.

 **********************************************************************

            Population analysis using the SCF density.

 **********************************************************************

 Orbital symmetries:
       Occupied  (A) (A) (A) (A) (A) (A) (A) (A) (A) (A) (A) (A)
                 (A) (A) (A) (A) (A) (A) (A) (A) (A) (A) (A) (A)
                 (A) (A) (A) (A) (A) (A) (A) (A) (A) (A) (A) (A)
                 (A) (A) (A) (A) (A) (A) (A) (A) (A) (A) (A) (A)
                 (A) (A) (A) (A) (A) (A) (A) (A) (A) (A) (A) (A)
                 (A) (A) (A) (A) (A) (A) (A) (A) (A) (A) (A) (A)
                 (A) (A) (A) (A) (A) (A) (A) (A) (A) (A) (A) (A)
                 (A) (A) (A) (A) (A) (A) (A) (A) (A) (A) (A) (A)
                 (A) (A) (A) (A) (A) (A) (A) (A) (A) (A) (A) (A)
                 (A) (A) (A) (A) (A) (A) (A) (A) (A) (A) (A) (A)
                 (A) (A) (A) (A) (A) (A) (A) (A) (A) (A) (A) (A)
                 (A) (A) (A) (A) (A) (A) (A) (A) (A) (A) (A) (A)
                 (A) (A) (A) (A) (A) (A) (A) (A) (A) (A) (A) (A)
       Virtual   (A) (A) (A) (A) (A) (A) (A) (A) (A) (A) (A) (A)
                 (A) (A) (A) (A) (A) (A) (A) (A) (A) (A) (A) (A)
                 (A) (A) (A) (A) (A) (A) (A) (A) (A) (A) (A) (A)
                 (A) (A) (A) (A) (A) (A) (A) (A) (A) (A) (A) (A)
                 (A) (A) (A) (A) (A) (A) (A) (A) (A) (A) (A) (A)
                 (A) (A) (A) (A) (A) (A) (A) (A) (A) (A) (A) (A)
                 (A) (A) (A) (A) (A) (A) (A) (A) (A) (A) (A) (A)
                 (A) (A) (A) (A) (A) (A) (A) (A) (A) (A) (A) (A)
                 (A) (A) (A) (A) (A) (A) (A) (A) (A) (A) (A) (A)
                 (A) (A) (A) (A) (A) (A) (A) (A) (A) (A) (A) (A)
                 (A) (A) (A) (A) (A) (A) (A) (A) (A) (A) (A) (A)
                 (A) (A) (A) (A) (A) (A) (A) (A) (A) (A) (A) (A)
                 (A) (A) (A) (A) (A) (A) (A) (A) (A) (A) (A) (A)
                 (A) (A) (A) (A) (A) (A) (A) (A) (A) (A) (A) (A)
                 (A) (A) (A) (A) (A) (A) (A) (A) (A) (A) (A) (A)
                 (A) (A) (A) (A) (A) (A) (A) (A) (A) (A) (A) (A)
                 (A) (A) (A) (A) (A) (A) (A) (A) (A) (A) (A) (A)
                 (A) (A) (A) (A) (A) (A) (A) (A) (A) (A) (A) (A)
                 (A) (A) (A) (A) (A) (A) (A) (A) (A) (A) (A) (A)
                 (A) (A) (A) (A) (A) (A) (A) (A) (A) (A) (A) (A)
                 (A) (A) (A) (A) (A) (A) (A) (A) (A) (A) (A) (A)
                 (A) (A) (A) (A) (A) (A) (A) (A) (A) (A) (A) (A)
                 (A) (A) (A) (A) (A) (A) (A) (A) (A) (A) (A) (A)
                 (A) (A) (A) (A) (A) (A) (A) (A) (A) (A) (A) (A)
                 (A) (A) (A) (A) (A) (A) (A) (A) (A) (A) (A) (A)
                 (A) (A) (A) (A) (A) (A) (A) (A) (A) (A) (A) (A)
                 (A) (A) (A) (A) (A) (A) (A) (A) (A) (A) (A) (A)
                 (A) (A) (A) (A) (A) (A) (A) (A) (A) (A) (A) (A)
                 (A) (A) (A) (A) (A) (A) (A) (A) (A) (A) (A) (A)
                 (A) (A) (A) (A) (A) (A) (A) (A) (A) (A) (A) (A)
                 (A) (A) (A) (A) (A) (A) (A) (A) (A) (A) (A) (A)
                 (A) (A) (A) (A) (A) (A) (A) (A) (A) (A) (A) (A)
                 (A) (A) (A) (A) (A) (A) (A) (A) (A) (A) (A) (A)
                 (A) (A) (A) (A) (A) (A) (A) (A) (A) (A) (A) (A)
                 (A) (A) (A) (A) (A) (A) (A) (A) (A) (A) (A) (A)
                 (A) (A) (A) (A) (A) (A) (A) (A) (A) (A) (A) (A)
                 (A) (A) (A) (A) (A) (A) (A) (A) (A) (A) (A) (A)
                 (A) (A) (A) (A) (A) (A) (A) (A) (A) (A) (A) (A)
                 (A) (A) (A) (A) (A) (A) (A) (A) (A) (A) (A) (A)
                 (A) (A) (A) (A) (A) (A) (A) (A) (A) (A) (A) (A)
                 (A) (A) (A) (A) (A) (A) (A) (A) (A) (A) (A) (A)
                 (A) (A) (A) (A) (A) (A) (A) (A) (A) (A) (A) (A)
                 (A) (A) (A) (A) (A) (A) (A) (A) (A) (A) (A) (A)
                 (A) (A) (A) (A) (A) (A) (A) (A) (A) (A) (A) (A)
                 (A) (A) (A) (A) (A) (A) (A) (A) (A) (A) (A) (A)
                 (A) (A) (A) (A) (A) (A) (A) (A) (A) (A) (A) (A)
                 (A) (A) (A) (A) (A) (A) (A) (A) (A) (A) (A) (A)
                 (A) (A) (A) (A) (A) (A) (A) (A) (A) (A) (A) (A)
                 (A) (A) (A) (A) (A) (A) (A) (A) (A) (A) (A) (A)
                 (A) (A) (A) (A) (A) (A) (A) (A) (A) (A) (A) (A)
                 (A) (A) (A) (A) (A) (A) (A) (A) (A) (A) (A) (A)
                 (A) (A) (A) (A) (A) (A) (A) (A) (A) (A) (A) (A)
                 (A) (A) (A) (A) (A) (A) (A) (A) (A) (A) (A) (A)
                 (A) (A) (A) (A) (A) (A) (A) (A) (A) (A) (A) (A)
                 (A) (A) (A) (A) (A) (A) (A) (A) (A) (A) (A) (A)
                 (A) (A) (A) (A) (A) (A) (A) (A) (A) (A) (A) (A)
                 (A) (A) (A) (A) (A) (A) (A) (A) (A) (A) (A) (A)
                 (A) (A) (A) (A) (A) (A) (A) (A) (A) (A) (A) (A)
                 (A) (A) (A) (A) (A) (A) (A) (A) (A) (A) (A) (A)
                 (A) (A) (A) (A) (A) (A) (A) (A) (A) (A) (A) (A)
                 (A) (A) (A) (A) (A) (A) (A) (A) (A) (A) (A) (A)
                 (A) (A) (A) (A) (A) (A) (A) (A) (A) (A) (A) (A)
                 (A) (A) (A) (A) (A) (A) (A) (A) (A) (A)
 The electronic state is 1-A.
 Alpha  occ. eigenvalues --  -19.22298 -19.19428 -10.29242 -10.29240 -10.28916
 Alpha  occ. eigenvalues --  -10.28653 -10.27998 -10.27956 -10.27843 -10.27667
 Alpha  occ. eigenvalues --  -10.27601 -10.27492 -10.27208 -10.27196 -10.27030
 Alpha  occ. eigenvalues --  -10.26973 -10.26936 -10.26838 -10.26793 -10.26789
 Alpha  occ. eigenvalues --  -10.26605 -10.26602 -10.26523 -10.26521 -10.26232
 Alpha  occ. eigenvalues --  -10.26143 -10.26064 -10.26012 -10.25926 -10.25736
 Alpha  occ. eigenvalues --  -10.25635 -10.25563 -10.25480 -10.25308 -10.25281
 Alpha  occ. eigenvalues --  -10.24975 -10.24783 -10.24676 -10.24624 -10.24485
 Alpha  occ. eigenvalues --  -10.22511 -10.21026  -1.07673  -1.07500  -0.95094
 Alpha  occ. eigenvalues --   -0.94579  -0.93006  -0.91950  -0.91143  -0.90167
 Alpha  occ. eigenvalues --   -0.88336  -0.87231  -0.87073  -0.86248  -0.85819
 Alpha  occ. eigenvalues --   -0.83819  -0.82912  -0.80831  -0.80053  -0.78901
 Alpha  occ. eigenvalues --   -0.77518  -0.76811  -0.76759  -0.76271  -0.76184
 Alpha  occ. eigenvalues --   -0.75632  -0.75290  -0.74619  -0.72932  -0.71601
 Alpha  occ. eigenvalues --   -0.69776  -0.68769  -0.66637  -0.66120  -0.64326
 Alpha  occ. eigenvalues --   -0.63943  -0.63559  -0.62713  -0.61072  -0.59873
 Alpha  occ. eigenvalues --   -0.59449  -0.58670  -0.58313  -0.58143  -0.56597
 Alpha  occ. eigenvalues --   -0.56033  -0.55243  -0.54792  -0.54344  -0.54167
 Alpha  occ. eigenvalues --   -0.53417  -0.53147  -0.52546  -0.51996  -0.51336
 Alpha  occ. eigenvalues --   -0.50995  -0.50812  -0.50634  -0.50022  -0.49578
 Alpha  occ. eigenvalues --   -0.49377  -0.48867  -0.48796  -0.48452  -0.48115
 Alpha  occ. eigenvalues --   -0.47549  -0.47478  -0.47359  -0.47083  -0.46542
 Alpha  occ. eigenvalues --   -0.46358  -0.45944  -0.45593  -0.45491  -0.45212
 Alpha  occ. eigenvalues --   -0.44796  -0.44519  -0.44441  -0.44244  -0.43933
 Alpha  occ. eigenvalues --   -0.43314  -0.43121  -0.42979  -0.42669  -0.42397
 Alpha  occ. eigenvalues --   -0.42091  -0.41888  -0.41434  -0.41337  -0.40891
 Alpha  occ. eigenvalues --   -0.40407  -0.40179  -0.39848  -0.39742  -0.39197
 Alpha  occ. eigenvalues --   -0.39074  -0.39015  -0.38452  -0.38250  -0.37597
 Alpha  occ. eigenvalues --   -0.36927  -0.36512  -0.35989  -0.35964  -0.35845
 Alpha  occ. eigenvalues --   -0.34882  -0.34175  -0.33475  -0.32596  -0.32094
 Alpha  occ. eigenvalues --   -0.31895  -0.30493  -0.30093  -0.27287  -0.23614
 Alpha  occ. eigenvalues --   -0.18352
 Alpha virt. eigenvalues --   -0.07593  -0.01883   0.02180   0.05578   0.07324
 Alpha virt. eigenvalues --    0.08328   0.09424   0.10155   0.11102   0.11465
 Alpha virt. eigenvalues --    0.11633   0.12537   0.12773   0.12901   0.13536
 Alpha virt. eigenvalues --    0.13849   0.14140   0.14609   0.14747   0.15184
 Alpha virt. eigenvalues --    0.15274   0.15464   0.15831   0.16309   0.16462
 Alpha virt. eigenvalues --    0.16672   0.16998   0.17540   0.17787   0.17913
 Alpha virt. eigenvalues --    0.18314   0.18346   0.18767   0.19193   0.19288
 Alpha virt. eigenvalues --    0.19653   0.19905   0.20419   0.20561   0.20665
 Alpha virt. eigenvalues --    0.21505   0.21632   0.21894   0.22001   0.22093
 Alpha virt. eigenvalues --    0.22341   0.22927   0.23280   0.23520   0.23716
 Alpha virt. eigenvalues --    0.23746   0.24197   0.24376   0.24815   0.24834
 Alpha virt. eigenvalues --    0.25134   0.25833   0.26189   0.26259   0.26390
 Alpha virt. eigenvalues --    0.26773   0.26869   0.27341   0.27442   0.27992
 Alpha virt. eigenvalues --    0.28197   0.28403   0.28730   0.29261   0.29458
 Alpha virt. eigenvalues --    0.29786   0.29879   0.30417   0.31132   0.31228
 Alpha virt. eigenvalues --    0.31620   0.31910   0.32018   0.32488   0.32882
 Alpha virt. eigenvalues --    0.33397   0.33768   0.34110   0.34262   0.34803
 Alpha virt. eigenvalues --    0.35124   0.35687   0.36361   0.37133   0.37971
 Alpha virt. eigenvalues --    0.38723   0.40023   0.40463   0.41699   0.42319
 Alpha virt. eigenvalues --    0.43401   0.43952   0.44184   0.45254   0.45976
 Alpha virt. eigenvalues --    0.46445   0.46519   0.47687   0.48494   0.50145
 Alpha virt. eigenvalues --    0.51260   0.51596   0.51927   0.53134   0.53921
 Alpha virt. eigenvalues --    0.54725   0.55592   0.56145   0.56452   0.56688
 Alpha virt. eigenvalues --    0.57212   0.57294   0.57431   0.57877   0.58821
 Alpha virt. eigenvalues --    0.59207   0.59418   0.59731   0.60308   0.60414
 Alpha virt. eigenvalues --    0.60594   0.61146   0.61543   0.61834   0.62087
 Alpha virt. eigenvalues --    0.62941   0.63173   0.63342   0.63641   0.64032
 Alpha virt. eigenvalues --    0.64180   0.64362   0.64386   0.64540   0.64885
 Alpha virt. eigenvalues --    0.65205   0.65778   0.65869   0.66066   0.66642
 Alpha virt. eigenvalues --    0.66751   0.67120   0.67645   0.68026   0.68318
 Alpha virt. eigenvalues --    0.68460   0.68750   0.69117   0.69711   0.69997
 Alpha virt. eigenvalues --    0.70293   0.70519   0.71064   0.71680   0.71972
 Alpha virt. eigenvalues --    0.72163   0.72467   0.73174   0.73266   0.73716
 Alpha virt. eigenvalues --    0.73896   0.74287   0.74770   0.74819   0.75333
 Alpha virt. eigenvalues --    0.75949   0.76389   0.76547   0.77010   0.77234
 Alpha virt. eigenvalues --    0.77913   0.78098   0.78412   0.78983   0.79079
 Alpha virt. eigenvalues --    0.79368   0.79691   0.80383   0.81042   0.81302
 Alpha virt. eigenvalues --    0.81574   0.81781   0.81936   0.82104   0.82498
 Alpha virt. eigenvalues --    0.82752   0.82929   0.83184   0.83517   0.83991
 Alpha virt. eigenvalues --    0.84326   0.85087   0.85334   0.86125   0.86298
 Alpha virt. eigenvalues --    0.86391   0.86666   0.86801   0.87063   0.87314
 Alpha virt. eigenvalues --    0.87737   0.87810   0.88533   0.88691   0.88926
 Alpha virt. eigenvalues --    0.89247   0.89715   0.89801   0.89993   0.90254
 Alpha virt. eigenvalues --    0.90772   0.91039   0.91077   0.91392   0.91690
 Alpha virt. eigenvalues --    0.92106   0.92176   0.92329   0.93252   0.93605
 Alpha virt. eigenvalues --    0.93848   0.94122   0.94415   0.95012   0.95409
 Alpha virt. eigenvalues --    0.95986   0.96255   0.96454   0.96965   0.97181
 Alpha virt. eigenvalues --    0.97384   0.97663   0.98246   0.98367   0.98975
 Alpha virt. eigenvalues --    0.99160   0.99558   1.00086   1.00286   1.00538
 Alpha virt. eigenvalues --    1.00756   1.00814   1.01189   1.01490   1.01715
 Alpha virt. eigenvalues --    1.02422   1.02998   1.03279   1.03354   1.03689
 Alpha virt. eigenvalues --    1.03939   1.04175   1.04663   1.05401   1.06587
 Alpha virt. eigenvalues --    1.06861   1.07221   1.07521   1.07878   1.08089
 Alpha virt. eigenvalues --    1.08567   1.08762   1.09157   1.09365   1.10372
 Alpha virt. eigenvalues --    1.10910   1.11015   1.11523   1.12363   1.12762
 Alpha virt. eigenvalues --    1.13012   1.13527   1.14292   1.14724   1.15110
 Alpha virt. eigenvalues --    1.15875   1.16301   1.16789   1.17462   1.18318
 Alpha virt. eigenvalues --    1.18654   1.19376   1.19831   1.20407   1.20627
 Alpha virt. eigenvalues --    1.21969   1.22336   1.22949   1.24773   1.25256
 Alpha virt. eigenvalues --    1.25950   1.26990   1.28691   1.28990   1.29311
 Alpha virt. eigenvalues --    1.30297   1.30589   1.30942   1.31191   1.32556
 Alpha virt. eigenvalues --    1.33320   1.33632   1.34731   1.35532   1.35782
 Alpha virt. eigenvalues --    1.37072   1.37815   1.38155   1.38562   1.39177
 Alpha virt. eigenvalues --    1.39456   1.39861   1.40388   1.41760   1.43231
 Alpha virt. eigenvalues --    1.43777   1.43946   1.44999   1.45407   1.46138
 Alpha virt. eigenvalues --    1.46492   1.46597   1.47803   1.48225   1.48404
 Alpha virt. eigenvalues --    1.50060   1.50568   1.50948   1.51591   1.52761
 Alpha virt. eigenvalues --    1.53353   1.53509   1.54421   1.55084   1.57346
 Alpha virt. eigenvalues --    1.57456   1.57588   1.58557   1.59045   1.59415
 Alpha virt. eigenvalues --    1.60167   1.60199   1.61575   1.62228   1.62547
 Alpha virt. eigenvalues --    1.64138   1.64285   1.64953   1.65280   1.65642
 Alpha virt. eigenvalues --    1.67540   1.68588   1.69488   1.69992   1.70984
 Alpha virt. eigenvalues --    1.73069   1.73221   1.74284   1.74821   1.76556
 Alpha virt. eigenvalues --    1.76830   1.78674   1.79103   1.79663   1.80209
 Alpha virt. eigenvalues --    1.80398   1.80987   1.81082   1.81416   1.82561
 Alpha virt. eigenvalues --    1.83140   1.83695   1.84200   1.84507   1.85186
 Alpha virt. eigenvalues --    1.85443   1.85766   1.86005   1.86172   1.86458
 Alpha virt. eigenvalues --    1.87130   1.87421   1.87871   1.88058   1.88508
 Alpha virt. eigenvalues --    1.89000   1.89208   1.89599   1.89993   1.90417
 Alpha virt. eigenvalues --    1.90817   1.91579   1.91714   1.92263   1.92640
 Alpha virt. eigenvalues --    1.93088   1.93362   1.93440   1.93968   1.94270
 Alpha virt. eigenvalues --    1.94661   1.95364   1.95564   1.96032   1.96141
 Alpha virt. eigenvalues --    1.97016   1.97276   1.98424   1.98749   1.98945
 Alpha virt. eigenvalues --    1.99565   1.99773   2.00307   2.00778   2.01156
 Alpha virt. eigenvalues --    2.01469   2.01650   2.02325   2.02958   2.03254
 Alpha virt. eigenvalues --    2.03362   2.03850   2.04996   2.05379   2.05403
 Alpha virt. eigenvalues --    2.06344   2.06697   2.07046   2.07119   2.07668
 Alpha virt. eigenvalues --    2.07821   2.08844   2.09179   2.09326   2.10588
 Alpha virt. eigenvalues --    2.11010   2.11071   2.11635   2.11818   2.12057
 Alpha virt. eigenvalues --    2.12436   2.13252   2.13371   2.14056   2.14470
 Alpha virt. eigenvalues --    2.14876   2.15411   2.15578   2.15634   2.16294
 Alpha virt. eigenvalues --    2.17757   2.17850   2.17935   2.18138   2.18345
 Alpha virt. eigenvalues --    2.18536   2.18728   2.19262   2.19687   2.19943
 Alpha virt. eigenvalues --    2.20784   2.21276   2.21688   2.21994   2.22836
 Alpha virt. eigenvalues --    2.23014   2.23234   2.23727   2.23798   2.24436
 Alpha virt. eigenvalues --    2.25061   2.25883   2.26078   2.26128   2.26634
 Alpha virt. eigenvalues --    2.27126   2.28022   2.28417   2.28467   2.29092
 Alpha virt. eigenvalues --    2.29645   2.30489   2.30635   2.31052   2.32174
 Alpha virt. eigenvalues --    2.32368   2.33091   2.33902   2.34161   2.34613
 Alpha virt. eigenvalues --    2.35505   2.36111   2.36776   2.37087   2.37849
 Alpha virt. eigenvalues --    2.38880   2.39427   2.40434   2.40715   2.41048
 Alpha virt. eigenvalues --    2.41516   2.41829   2.42092   2.42163   2.42468
 Alpha virt. eigenvalues --    2.42701   2.43346   2.43699   2.43785   2.44521
 Alpha virt. eigenvalues --    2.44684   2.45316   2.46939   2.47315   2.47591
 Alpha virt. eigenvalues --    2.47848   2.48337   2.49182   2.49265   2.49527
 Alpha virt. eigenvalues --    2.50048   2.50087   2.50642   2.51014   2.51747
 Alpha virt. eigenvalues --    2.51997   2.52175   2.52967   2.53761   2.54119
 Alpha virt. eigenvalues --    2.54482   2.54938   2.55561   2.56246   2.56690
 Alpha virt. eigenvalues --    2.57047   2.57248   2.57796   2.58047   2.58099
 Alpha virt. eigenvalues --    2.58421   2.58451   2.59795   2.60779   2.60983
 Alpha virt. eigenvalues --    2.61374   2.61948   2.62551   2.63013   2.63465
 Alpha virt. eigenvalues --    2.64290   2.64650   2.64983   2.65106   2.65530
 Alpha virt. eigenvalues --    2.65882   2.66176   2.66552   2.67344   2.68537
 Alpha virt. eigenvalues --    2.68669   2.69188   2.69592   2.69805   2.70173
 Alpha virt. eigenvalues --    2.70289   2.70809   2.70925   2.71341   2.71763
 Alpha virt. eigenvalues --    2.72677   2.72692   2.73678   2.73763   2.74574
 Alpha virt. eigenvalues --    2.74942   2.75759   2.75825   2.76131   2.76603
 Alpha virt. eigenvalues --    2.77245   2.77463   2.78031   2.78992   2.79103
 Alpha virt. eigenvalues --    2.79429   2.80130   2.81159   2.81208   2.81374
 Alpha virt. eigenvalues --    2.82159   2.82432   2.82566   2.84078   2.84735
 Alpha virt. eigenvalues --    2.84951   2.85232   2.87133   2.87518   2.87798
 Alpha virt. eigenvalues --    2.87944   2.88555   2.88679   2.89025   2.89402
 Alpha virt. eigenvalues --    2.89813   2.90182   2.90612   2.91000   2.92067
 Alpha virt. eigenvalues --    2.93548   2.93813   2.94621   2.95627   2.96001
 Alpha virt. eigenvalues --    2.96059   2.96354   2.97125   2.97280   2.98461
 Alpha virt. eigenvalues --    2.98963   2.99492   3.00162   3.00868   3.01202
 Alpha virt. eigenvalues --    3.01537   3.01968   3.02673   3.03835   3.04106
 Alpha virt. eigenvalues --    3.04972   3.05483   3.05584   3.07169   3.07659
 Alpha virt. eigenvalues --    3.07904   3.08584   3.09502   3.10733   3.11674
 Alpha virt. eigenvalues --    3.12194   3.12846   3.13482   3.14643   3.15841
 Alpha virt. eigenvalues --    3.16162   3.17614   3.18566   3.18982   3.19639
 Alpha virt. eigenvalues --    3.21337   3.21472   3.22635   3.23259   3.23745
 Alpha virt. eigenvalues --    3.24883   3.26810   3.28444   3.29386   3.32795
 Alpha virt. eigenvalues --    3.34970   3.35897   3.36976   3.37400   3.38928
 Alpha virt. eigenvalues --    3.39930   3.40915   3.41810   3.42322   3.42445
 Alpha virt. eigenvalues --    3.43368   3.45266   3.45436   3.47024   3.47258
 Alpha virt. eigenvalues --    3.48541   3.48946   3.49444   3.49962   3.51143
 Alpha virt. eigenvalues --    3.52291   3.52606   3.54544   3.56490   3.57462
 Alpha virt. eigenvalues --    3.58965   3.60842   3.61809   3.62061   3.62450
 Alpha virt. eigenvalues --    3.63029   3.63155   3.65635   3.66738   3.67032
 Alpha virt. eigenvalues --    3.68542   3.69268   3.69849   3.70937   3.72724
 Alpha virt. eigenvalues --    3.73120   3.74603   3.76247   3.78812   3.85346
 Alpha virt. eigenvalues --    4.02338   4.03294   4.05904   4.08418   4.18690
 Alpha virt. eigenvalues --    4.18931   4.20232   4.20776   4.23530   4.25204
 Alpha virt. eigenvalues --    4.27294   4.29480   4.31706   4.34103   4.35531
 Alpha virt. eigenvalues --    4.37276   4.38991   4.41813   4.42780   4.44480
 Alpha virt. eigenvalues --    4.46548   4.47708   4.48809   4.53198   4.54934
 Alpha virt. eigenvalues --    4.56124   4.57694   4.58564   4.61527   4.62720
 Alpha virt. eigenvalues --    4.64917   4.67658   4.68718   4.70775   4.72966
 Alpha virt. eigenvalues --    4.75254   4.76297   4.79766   4.81114   4.84273
 Alpha virt. eigenvalues --    4.88432   4.89186   4.90984   4.92747
          Condensed to atoms (all electrons):
 Mulliken charges:
               1
     1  O   -0.569301
     2  O   -0.567562
     3  C    0.007511
     4  C   -0.164690
     5  C   -0.170561
     6  C    0.137800
     7  C    0.154802
     8  C   -0.081435
     9  C   -0.295847
    10  C   -0.297330
    11  C   -0.222461
    12  C   -0.145613
    13  C    0.194813
    14  C    0.130141
    15  C   -0.073461
    16  C   -0.220230
    17  C    0.007673
    18  C   -0.298017
    19  C   -0.264450
    20  C   -0.343297
    21  C   -0.091138
    22  C   -0.107360
    23  C   -0.326605
    24  C    0.096913
    25  C   -0.120591
    26  C   -0.370591
    27  C    0.074668
    28  C   -0.099089
    29  C   -0.370872
    30  C   -0.112896
    31  C   -0.044686
    32  C   -0.093380
    33  C   -0.159289
    34  C    0.128003
    35  C   -0.109463
    36  C    0.136076
    37  C   -0.391060
    38  C   -0.139230
    39  C   -0.131313
    40  C   -0.365719
    41  C   -0.031903
    42  C   -0.051080
    43  H    0.103129
    44  H    0.111174
    45  H    0.100521
    46  H    0.082829
    47  H    0.068065
    48  H    0.061695
    49  H    0.121763
    50  H    0.110239
    51  H    0.106569
    52  H    0.093046
    53  H    0.118534
    54  H    0.069481
    55  H    0.080290
    56  H    0.094443
    57  H    0.083275
    58  H    0.086736
    59  H    0.127986
    60  H    0.094967
    61  H    0.072323
    62  H    0.114544
    63  H    0.082952
    64  H    0.117588
    65  H    0.096378
    66  H    0.110258
    67  H    0.114700
    68  H    0.106936
    69  H    0.291312
    70  H    0.093165
    71  H    0.063955
    72  H    0.112568
    73  H    0.080402
    74  H    0.110019
    75  H    0.293817
    76  H    0.096148
    77  H    0.105564
    78  H    0.112731
    79  H    0.113567
    80  H    0.076835
    81  H    0.139148
    82  H    0.118053
    83  H    0.103006
    84  H    0.074976
    85  H    0.074921
    86  H    0.077797
    87  H    0.078706
    88  H    0.076898
    89  H    0.133415
    90  H    0.113293
    91  H    0.109251
    92  H    0.065614
    93  H    0.086299
    94  H    0.131156
    95  H    0.060944
    96  H    0.112943
    97  H    0.053897
    98  H    0.071298
 Sum of Mulliken charges =  -0.00000
 Mulliken charges with hydrogens summed into heavy atoms:
               1
     1  O   -0.277989
     2  O   -0.273745
     3  C    0.007511
     4  C   -0.061561
     5  C    0.041133
     6  C    0.220629
     7  C    0.154802
     8  C   -0.081435
     9  C   -0.044324
    10  C    0.012525
    11  C   -0.034446
    12  C   -0.065323
    13  C    0.289256
    14  C    0.130141
    15  C    0.009813
    16  C   -0.005509
    17  C    0.007673
    18  C   -0.016184
    19  C    0.032468
    20  C   -0.011402
    21  C   -0.027183
    22  C   -0.014195
    23  C   -0.023617
    24  C    0.096913
    25  C   -0.024443
    26  C   -0.038728
    27  C    0.074668
    28  C   -0.022255
    29  C   -0.010667
    30  C   -0.037920
    31  C    0.030235
    32  C   -0.015583
    33  C   -0.080583
    34  C    0.128003
    35  C   -0.032565
    36  C    0.136076
    37  C   -0.035101
    38  C   -0.073616
    39  C   -0.045015
    40  C   -0.060675
    41  C    0.021994
    42  C    0.020219
 Electronic spatial extent (au):  <R**2>=         103723.6336
 Charge=             -0.0000 electrons
 Dipole moment (field-independent basis, Debye):
    X=              0.2137    Y=             -0.0062    Z=             -0.4233  Tot=              0.4743
 Quadrupole moment (field-independent basis, Debye-Ang):
   XX=           -300.3609   YY=           -243.1485   ZZ=           -263.0595
   XY=              4.4424   XZ=             36.4268   YZ=              3.6783
 Traceless Quadrupole moment (field-independent basis, Debye-Ang):
   XX=            -31.5046   YY=             25.7078   ZZ=              5.7968
   XY=              4.4424   XZ=             36.4268   YZ=              3.6783
 Octapole moment (field-independent basis, Debye-Ang**2):
  XXX=           -424.5947  YYY=              1.0194  ZZZ=              3.5187  XYY=             31.9793
  XXY=             51.5901  XXZ=            -88.6245  XZZ=              0.7297  YZZ=              4.5147
  YYZ=            -18.6042  XYZ=              4.9155
 Hexadecapole moment (field-independent basis, Debye-Ang**3):
 XXXX=        -152701.9668 YYYY=          -4315.9927 ZZZZ=          -2211.9213 XXXY=           1166.8189
 XXXZ=           6981.1267 YYYX=            210.2424 YYYZ=            -12.8467 ZZZX=            -65.3872
 ZZZY=             18.5903 XXYY=         -21923.2986 XXZZ=         -22478.7873 YYZZ=          -1113.1920
 XXYZ=           1397.7534 YYXZ=            293.3759 ZZXY=            155.9465
 N-N= 4.029351868341D+03 E-N=-1.201401557915D+04  KE= 1.691556926087D+03
 1\1\GINC-PADAWAN\SP\RCAM-B3LYP TD-FC\6-31G(d,p)\C40H56O2\PADAWAN\16-Ju
 l-2019\0\\# td=(NStates=1) CAM-B3LYP/6-31G(d,p)\\TD\\0,1\O,0,-14.16181
 20564,-2.1080891906,0.6112413794\O,0,14.7093927761,1.0183694235,0.2104
 716431\C,0,-11.6852513847,-0.0313470598,1.3215169717\C,0,-10.978244787
 ,0.3578885599,-0.0714134285\C,0,-11.8301684974,-1.516226107,1.44681252
 26\C,0,-12.6972631198,-2.0793590007,0.2885230032\C,0,-11.6653818271,-0
 .3394714254,-1.0878342733\C,0,11.0270060312,0.9389255351,1.0469449742\
 C,0,-10.9247439476,0.2949412329,2.6537024209\C,0,-13.0280589683,0.7358
 192288,1.4683879156\C,0,12.4551626968,1.5205014766,0.8432917154\C,0,-1
 2.3677777637,-1.4225501228,-0.9729900677\C,0,13.4141630372,0.450362708
 9,0.4459119101\C,0,10.6315726316,-0.1101504252,-0.0132777427\C,0,-9.55
 27040343,0.0229094427,-0.0004100334\C,0,12.9514731249,-0.1047876982,-0
 .7809736837\C,0,11.484661555,-0.5695019955,-0.8197070295\C,0,10.070213
 907,2.1957188839,1.1612688403\C,0,10.9361444469,0.3525344288,2.5455651
 178\C,0,-11.3479592934,0.2117528168,-2.5164539036\C,0,-8.4758536857,0.
 8541403964,-0.2441880413\C,0,9.220957025,-0.4322309989,0.0826883526\C,
 0,11.3118711326,-1.4802209889,-2.0638459893\C,0,-7.0695282757,0.596996
 9415,-0.2353756269\C,0,8.8227087273,-1.7821880163,-0.0847736184\C,0,-6
 .732394661,-0.8560243593,-0.0315002614\C,0,7.4375222397,-2.1862714991,
 -0.0317442367\C,0,-6.1351832943,1.6378373582,-0.4064725039\C,0,7.15443
 86381,-3.6581995422,0.281798398\C,0,6.3975270217,-1.3173620249,-0.1875
 911015\C,0,-4.794483422,1.5294864878,-0.3029712105\C,0,4.9900398499,-1
 .6181996629,-0.1949872789\C,0,-3.8987912515,2.6016231885,-0.6290040894
 \C,0,-2.5314635845,2.6656945271,-0.6793906869\C,0,3.9976437299,-0.6708
 875949,-0.4149310095\C,0,2.6030473533,-0.8310575773,-0.3574506977\C,0,
 -1.9595445047,3.9511296956,-1.1377629237\C,0,-1.6288199675,1.552397984
 2,-0.5215781742\C,0,1.7818567307,0.3107826398,-0.6388624481\C,0,2.0015
 734784,-2.1168844757,-0.0709447266\C,0,-0.3138836473,1.455076829,-0.65
 92892887\C,0,0.4160464354,0.3638380516,-0.4338566465\H,0,-11.036140355
 5,1.4578075661,-0.1423360788\H,0,-12.3683703101,-1.7618862023,2.401758
 0705\H,0,-10.8216698366,-1.9235215472,1.307924075\H,0,-12.4808817218,-
 3.0989490022,0.1602308852\H,0,-9.6295783591,0.0663483104,2.524791103\H
 ,0,-10.9312332899,1.467189796,2.7462293448\H,0,-11.4057281651,0.256859
 1049,3.5558697648\H,0,-13.6307042722,0.6269586982,0.7692833986\H,0,-13
 .6478105517,0.3339350009,2.2282068227\H,0,-12.8947081562,1.7433179536,
 1.7914596293\H,0,12.4350308698,2.2330182513,0.1493427775\H,0,12.747949
 222,2.0087149104,1.7964872499\H,0,-12.6788813667,-2.1483016267,-1.7469
 388846\H,0,13.5147710619,-0.3555953053,1.0753278687\H,0,-9.2449768634,
 -1.0272375828,0.3782353835\H,0,13.7506102051,-1.0077338127,-0.88603375
 94\H,0,13.08762518,0.4893175097,-1.6345933831\H,0,8.9953862362,1.89855
 99078,1.4209073381\H,0,10.0362454861,2.8048630887,0.1217790934\H,0,10.
 4963433076,2.9431892906,1.7284689979\H,0,11.7092237637,-0.5117784264,2
 .3034667681\H,0,9.985523523,0.0706145205,2.6652296511\H,0,11.569667865
 9,1.1165794547,3.1577607191\H,0,-10.2932818262,0.3600759183,-2.6527326
 69\H,0,-11.6448635427,1.1984758461,-2.6124183071\H,0,-11.5925571008,-0
 .3233510864,-3.2275705147\H,0,-14.6646197353,-2.3728162342,-0.08375657
 95\H,0,8.5702860966,0.3393541606,0.4126839146\H,0,-8.7190670756,1.8027
 31926,-0.5529306135\H,0,11.5682625608,-2.5050620022,-1.5710799595\H,0,
 10.1956324296,-1.867472849,-2.6849544294\H,0,12.0148407778,-1.19752284
 24,-2.9580917573\H,0,14.6043696173,1.8113792377,1.0560035693\H,0,9.598
 9496713,-2.5623993216,0.0210356611\H,0,-5.6457990409,-0.9818753382,-0.
 1988724904\H,0,-6.8461935175,-1.1493469079,1.1044827007\H,0,-7.4925054
 857,-1.5041288611,-0.7278009949\H,0,-6.6016124477,2.5297917743,-0.7727
 104727\H,0,6.7329168407,-3.7521786405,1.1947091666\H,0,6.5252998752,-4
 .1178869765,-0.4913287241\H,0,8.0736072581,-4.2146176464,0.1868356509\
 H,0,6.7338418111,-0.2413913785,-0.2640885308\H,0,-4.5068929209,0.58823
 8489,-0.0031563732\H,0,4.609504554,-2.6218914421,-0.2709447553\H,0,-4.
 5341294586,3.4558235642,-1.1891685724\H,0,4.4117312493,0.3110684457,-0
 .4987390913\H,0,-1.1889786561,3.8404154882,-1.82658093\H,0,-1.30226306
 47,4.4095981171,-0.3242443842\H,0,-2.69131862,4.7842208376,-1.45433372
 71\H,0,-2.0495838388,0.5479814236,-0.0142361536\H,0,2.2917882209,1.258
 6498542,-0.8695839735\H,0,2.0670552332,-2.3844348459,1.0311514936\H,0,
 0.6745825296,-2.3179710882,-0.5041016953\H,0,2.531055855,-2.9839361808
 ,-0.659410184\H,0,0.248830768,2.5380036401,-0.8859255841\H,0,-0.211224
 0184,-0.3889190617,-0.2407547305\\Version=ES64L-G16RevA.03\State=1-A\H
 F=-1706.8321191\RMSD=8.222e-09\PG=C01 [X(C40H56O2)]\\@


 THE MOST SERIOUS THREAT TO THE SURVIVAL OF MANKIND IS NOT NOW
 IGNORANCE IN THE TRADITIONAL SENSE,
 BUT A MORALLY NEUTRAL, AN INSENSITIVE OR INHIBITED HUMAN INTELLIGENCE.

                     -- MARGO JEFFERSON IN NEWSWEEK, SEPTEMBER 2, 1974
 Job cpu time:       0 days  2 hours 23 minutes 27.4 seconds.
 Elapsed time:       0 days  1 hours 33 minutes 44.5 seconds.
 File lengths (MBytes):  RWF=   3127 Int=      0 D2E=      0 Chk=     84 Scr=      1
 Normal termination of Gaussian 16 at Tue Jul 16 14:57:19 2019.
