 Entering Gaussian System, Link 0=g16
 Input=Geometria-240-.com
 Output=Geometria-240-.log
 Initial command:
 /usr/local/g16/l1.exe "/home/padawan/israel-mol/lutein/spectra/emi/Gau-18172.inp" -scrdir="/home/padawan/israel-mol/lutein/spectra/emi/"
 Entering Link 1 = /usr/local/g16/l1.exe PID=     18174.
  
 Copyright (c) 1988,1990,1992,1993,1995,1998,2003,2009,2016,
            Gaussian, Inc.  All Rights Reserved.
  
 This is part of the Gaussian(R) 16 program.  It is based on
 the Gaussian(R) 09 system (copyright 2009, Gaussian, Inc.),
 the Gaussian(R) 03 system (copyright 2003, Gaussian, Inc.),
 the Gaussian(R) 98 system (copyright 1998, Gaussian, Inc.),
 the Gaussian(R) 94 system (copyright 1995, Gaussian, Inc.),
 the Gaussian 92(TM) system (copyright 1992, Gaussian, Inc.),
 the Gaussian 90(TM) system (copyright 1990, Gaussian, Inc.),
 the Gaussian 88(TM) system (copyright 1988, Gaussian, Inc.),
 the Gaussian 86(TM) system (copyright 1986, Carnegie Mellon
 University), and the Gaussian 82(TM) system (copyright 1983,
 Carnegie Mellon University). Gaussian is a federally registered
 trademark of Gaussian, Inc.
  
 This software contains proprietary and confidential information,
 including trade secrets, belonging to Gaussian, Inc.
  
 This software is provided under written license and may be
 used, copied, transmitted, or stored only in accord with that
 written license.
  
 The following legend is applicable only to US Government
 contracts under FAR:
  
                    RESTRICTED RIGHTS LEGEND
  
 Use, reproduction and disclosure by the US Government is
 subject to restrictions as set forth in subparagraphs (a)
 and (c) of the Commercial Computer Software - Restricted
 Rights clause in FAR 52.227-19.
  
 Gaussian, Inc.
 340 Quinnipiac St., Bldg. 40, Wallingford CT 06492
  
  
 ---------------------------------------------------------------
 Warning -- This program may not be used in any manner that
 competes with the business of Gaussian, Inc. or will provide
 assistance to any competitor of Gaussian, Inc.  The licensee
 of this program is prohibited from giving any competitor of
 Gaussian, Inc. access to this program.  By using this program,
 the user acknowledges that Gaussian, Inc. is engaged in the
 business of creating and licensing software in the field of
 computational chemistry and represents and warrants to the
 licensee that it is not a competitor of Gaussian, Inc. and that
 it will not use this program in any manner prohibited above.
 ---------------------------------------------------------------
  

 Cite this work as:
 Gaussian 16, Revision A.03,
 M. J. Frisch, G. W. Trucks, H. B. Schlegel, G. E. Scuseria, 
 M. A. Robb, J. R. Cheeseman, G. Scalmani, V. Barone, 
 G. A. Petersson, H. Nakatsuji, X. Li, M. Caricato, A. V. Marenich, 
 J. Bloino, B. G. Janesko, R. Gomperts, B. Mennucci, H. P. Hratchian, 
 J. V. Ortiz, A. F. Izmaylov, J. L. Sonnenberg, D. Williams-Young, 
 F. Ding, F. Lipparini, F. Egidi, J. Goings, B. Peng, A. Petrone, 
 T. Henderson, D. Ranasinghe, V. G. Zakrzewski, J. Gao, N. Rega, 
 G. Zheng, W. Liang, M. Hada, M. Ehara, K. Toyota, R. Fukuda, 
 J. Hasegawa, M. Ishida, T. Nakajima, Y. Honda, O. Kitao, H. Nakai, 
 T. Vreven, K. Throssell, J. A. Montgomery, Jr., J. E. Peralta, 
 F. Ogliaro, M. J. Bearpark, J. J. Heyd, E. N. Brothers, K. N. Kudin, 
 V. N. Staroverov, T. A. Keith, R. Kobayashi, J. Normand, 
 K. Raghavachari, A. P. Rendell, J. C. Burant, S. S. Iyengar, 
 J. Tomasi, M. Cossi, J. M. Millam, M. Klene, C. Adamo, R. Cammi, 
 J. W. Ochterski, R. L. Martin, K. Morokuma, O. Farkas, 
 J. B. Foresman, and D. J. Fox, Gaussian, Inc., Wallingford CT, 2016.
 
 ******************************************
 Gaussian 16:  ES64L-G16RevA.03 25-Dec-2016
                14-Jul-2019 
 ******************************************
 %nproc=4
 Will use up to    4 processors via shared memory.
 %Mem=4GB
 -------------------------------------
 # td=(NStates=1) CAM-B3LYP/6-31G(d,p)
 -------------------------------------
 1/38=1,172=1/1;
 2/12=2,17=6,18=5,40=1/2;
 3/5=1,6=6,7=101,11=9,25=1,30=1,74=-40/1,2,3,8;
 4//1;
 5/5=2,38=5/2;
 8/6=1,10=2,108=1/1;
 9/41=1,42=1,70=2/14;
 6/7=2,8=2,9=2,10=2/1;
 99/5=1,9=1/99;
 --
 TD
 --
 Symbolic Z-matrix:
 Charge =  0 Multiplicity = 1
 8                    -14.2086  -2.03656   0.51853 
 8                     14.95219   0.71546   0.22467 
 6                    -11.72931  -0.0271    1.26761 
 6                    -11.02729   0.27698   0.06925 
 6                    -11.94639  -1.62856   1.33931 
 6                    -12.86014  -2.14828   0.1811 
 6                    -11.7811  -0.33302  -1.14708 
 6                     11.1449   0.97993   0.95373 
 6                    -10.91886   0.34047   2.6172 
 6                    -13.07397   0.78292   1.35389 
 6                     12.53353   1.49455   0.60991 
 6                    -12.53184  -1.37356  -1.02053 
 6                     13.56541   0.32468   0.33709 
 6                     10.77039  -0.10454  -0.05745 
 6                    -9.6      -0.14561   0.09413 
 6                     13.12532  -0.31145  -0.96312 
 6                     11.69102  -0.58375  -0.85719 
 6                     10.32672   2.19424   0.97629 
 6                     11.09425   0.35263   2.33436 
 6                    -11.43998   0.42624  -2.50307 
 6                    -8.58392   0.73175  -0.15972 
 6                     9.34324  -0.38613   0.02304 
 6                     11.20883  -1.50519  -1.93215 
 6                    -7.15198   0.43464  -0.29722 
 6                     8.76785  -1.63442  -0.01093 
 6                    -6.67262  -1.00675  -0.19095 
 6                     7.3797   -2.02656   0.13373 
 6                    -6.25523   1.46123  -0.39959 
 6                     7.14136  -3.56238   0.44942 
 6                     6.35317  -1.12743  -0.08846 
 6                    -4.80347   1.39486  -0.33892 
 6                     5.05382  -1.43234  -0.00177 
 6                    -4.07092   2.52832  -0.69531 
 6                    -2.677     2.67826  -0.80265 
 6                     4.06076  -0.47015  -0.14308 
 6                     2.66402  -0.67214  -0.22766 
 6                    -1.89096   4.07597  -0.96933 
 6                    -1.81205   1.59712  -0.52424 
 6                     1.76997   0.48559  -0.28401 
 6                     2.16783  -2.19271  -0.0857 
 6                    -0.38427   1.50928  -0.49811 
 6                     0.312     0.37114  -0.36829 
 1                    -10.95138   1.25995  -0.18041 
 1                    -12.50911  -1.73758   2.39033 
 1                    -11.03328  -2.31163   1.5279 
 1                    -12.36385  -3.29488  -0.11333 
 1                    -10.16955  -0.38404   2.61242 
 1                    -10.5662   1.36302   2.76979 
 1                    -11.49946   0.09811   3.45935 
 1                    -13.87861   0.37825   0.58444 
 1                    -13.62049   0.58114   2.31208 
 1                    -12.75189   1.89987   1.1915 
 1                     12.37808   2.05361  -0.36568 
 1                     12.878    2.09777   1.42795 
 1                    -13.03622  -1.61833  -1.90634 
 1                     13.29405  -0.49187   0.98039 
 1                    -9.14503  -1.23317   0.3123 
 1                     13.72272  -1.22033  -1.01433 
 1                     13.5034   0.47703  -1.64227 
 1                     9.40277   2.00452   1.62112 
 1                     10.14487   2.7973    0.03376 
 1                     10.56696   2.97346   1.73641 
 1                     11.65973  -0.459     2.42649 
 1                     10.08005   0.17718   2.58579 
 1                     11.27918   1.23079   3.06886 
 1                    -10.38588   0.30253  -2.47904 
 1                    -11.85462   1.31279  -2.42559 
 1                    -11.91613  -0.00694  -3.23843 
 1                    -14.86449  -2.12245  -0.16137 
 1                     8.59577   0.59239   0.09678 
 1                    -8.84182   1.76429  -0.48496 
 1                     11.7032  -2.67777  -1.90767 
 1                     10.06256  -1.52399  -2.04232 
 1                     11.42961  -0.88668  -3.10062 
 1                     15.03252   1.05082   1.17825 
 1                     9.45745  -2.6391   -0.00304 
 1                    -5.4803   -1.3979   -0.55784 
 1                    -6.6932   -1.38914   0.83212 
 1                    -7.11608  -1.53537  -1.11172 
 1                    -6.5547    2.50129  -0.44732 
 1                     6.59401  -3.67981   1.36786 
 1                     6.49954  -4.02043  -0.44077 
 1                     8.15512  -4.00621   0.42321 
 1                     6.82056  -0.01453  -0.11897 
 1                    -4.41066   0.4036    0.01519 
 1                     4.69067  -2.50374   0.17906 
 1                    -4.50678   3.45625  -0.87943 
 1                     4.31135   0.48958  -0.13374 
 1                    -1.26025   4.04041  -1.76236 
 1                    -1.53876   4.49925  -0.12601 
 1                    -2.75721   4.72843  -1.20309 
 1                    -2.22237   0.56533  -0.21277 
 1                     2.22154   1.47974  -0.38139 
 1                     2.292    -2.46997   0.92413 
 1                     1.06483  -2.17014  -0.22374 
 1                     2.53052  -2.81641  -1.01243 
 1                     0.18622   2.30647  -0.39912 
 1                    -0.29191  -0.55427  -0.21708 
 
 Stoichiometry    C40H56O2
 Framework group  C1[X(C40H56O2)]
 Deg. of freedom   288
 Full point group                 C1      NOp   1
 Largest Abelian subgroup         C1      NOp   1
 Largest concise Abelian subgroup C1      NOp   1
                         Standard orientation:                         
 ---------------------------------------------------------------------
 Center     Atomic      Atomic             Coordinates (Angstroms)
 Number     Number       Type             X           Y           Z
 ---------------------------------------------------------------------
      1          8           0      -14.208933   -2.054351    0.410401
      2          8           0       14.953096    0.695704    0.253727
      3          6           0      -11.728259   -0.090432    1.267860
      4          6           0      -11.026673    0.278919    0.087726
      5          6           0      -11.946121   -1.693306    1.251264
      6          6           0      -12.860697   -2.147936    0.066632
      7          6           0      -11.781388   -0.262729   -1.160000
      8          6           0       11.146297    0.921401    0.998211
      9          6           0      -10.916973    0.201771    2.635243
     10          6           0      -13.072474    0.714244    1.399356
     11          6           0       12.535023    1.453528    0.682576
     12          6           0      -12.532595   -1.308298   -1.090631
     13          6           0       13.566174    0.299986    0.345141
     14          6           0       10.770743   -0.105487   -0.071030
     15          6           0       -9.599584   -0.145082    0.088533
     16          6           0       13.125130   -0.263275   -0.987941
     17          6           0       11.690746   -0.540318   -0.896447
     18          6           0       10.328745    2.133011    1.088114
     19          6           0       11.096003    0.218961    2.342188
     20          6           0      -11.440539    0.569981   -2.472242
     21          6           0       -8.583189    0.744448   -0.117078
     22          6           0        9.343493   -0.390399   -0.005449
     23          6           0       11.207564   -1.400856   -2.020330
     24          6           0       -7.151459    0.454687   -0.271489
     25          6           0        8.767457   -1.634648   -0.107896
     26          6           0       -6.672780   -0.990600   -0.245094
     27          6           0        7.379172   -2.033494    0.015636
     28          6           0       -6.254237    1.484928   -0.317563
     29          6           0        7.140208   -3.584273    0.246282
     30          6           0        6.352996   -1.122996   -0.156118
     31          6           0       -4.802491    1.414622   -0.261394
     32          6           0        5.053528   -1.431597   -0.085700
     33          6           0       -4.069534    2.565649   -0.555120
     34          6           0       -2.675590    2.720611   -0.654749
     35          6           0        4.060891   -0.462600   -0.173238
     36          6           0        2.664011   -0.658954   -0.268102
     37          6           0       -1.888922    4.125014   -0.744508
     38          6           0       -1.811053    1.625357   -0.436812
     39          6           0        1.770513    0.500552   -0.260074
     40          6           0        2.167116   -2.184800   -0.209940
     41          6           0       -0.383308    1.535525   -0.416304
     42          6           0        0.312445    0.391621   -0.349789
     43          1           0      -10.950388    1.274120   -0.107397
     44          1           0      -12.508388   -1.859846    2.294959
     45          1           0      -11.033266   -2.386175    1.401430
     46          1           0      -12.365133   -3.276799   -0.290824
     47          1           0      -10.168032   -0.521725    2.590140
     48          1           0      -10.563714    1.214187    2.843802
     49          1           0      -11.497280   -0.086367    3.463049
     50          1           0      -13.877689    0.352999    0.609187
     51          1           0      -13.618623    0.460198    2.345243
     52          1           0      -12.749907    1.838293    1.298635
     53          1           0       12.379376    2.065604   -0.260622
     54          1           0       12.880198    2.010567    1.532456
     55          1           0      -13.037523   -1.503617   -1.988330
     56          1           0       13.294714   -0.550659    0.942578
     57          1           0       -9.145058   -1.243236    0.246173
     58          1           0       13.722041   -1.168232   -1.089487
     59          1           0       13.503276    0.561265   -1.622781
     60          1           0        9.405011    1.908471    1.721975
     61          1           0       10.146739    2.787212    0.180362
     62          1           0       10.569752    2.869024    1.889917
     63          1           0       11.661115   -0.596792    2.389132
     64          1           0       10.081840    0.030392    2.584081
     65          1           0       11.281735    1.055196    3.123891
     66          1           0      -10.386492    0.444625   -2.455604
     67          1           0      -11.854697    1.451102   -2.345783
     68          1           0      -11.917267    0.178230   -3.230121
     69          1           0      -14.865201   -2.102307   -0.272869
     70          1           0        8.596554    0.582921    0.122514
     71          1           0       -8.840719    1.793473   -0.384765
     72          1           0       11.701346   -2.573235   -2.060793
     73          1           0       10.061229   -1.412999   -2.130777
     74          1           0       11.428090   -0.718967   -3.153027
     75          1           0       15.034066    0.977943    1.224299
     76          1           0        9.456544   -2.638559   -0.155767
     77          1           0       -5.480842   -1.361495   -0.633608
     78          1           0       -6.693056   -1.428808    0.755338
     79          1           0       -7.116956   -1.467438   -1.193384
     80          1           0       -6.553205    2.526180   -0.307717
     81          1           0        6.593252   -3.751903    1.157133
     82          1           0        6.497722   -3.992234   -0.667478
     83          1           0        8.153728   -4.026466    0.195124
     84          1           0        6.820934   -0.010327   -0.125464
     85          1           0       -4.410010    0.405154    0.037322
     86          1           0        4.689929   -2.511162    0.035968
     87          1           0       -4.505011    3.502535   -0.687570
     88          1           0        4.311973    0.495029   -0.111125
     89          1           0       -1.258615    4.132924   -1.538626
     90          1           0       -1.536096    4.500979    0.120677
     91          1           0       -2.754953    4.789778   -0.941496
     92          1           0       -2.221747    0.578160   -0.182491
     93          1           0        2.222545    1.498344   -0.302722
     94          1           0        2.291635   -2.517377    0.783000
     95          1           0        1.064062   -2.154119   -0.345965
     96          1           0        2.529034   -2.756627   -1.169834
     97          1           0        0.187640    2.325769   -0.273798
     98          1           0       -0.291859   -0.540423   -0.249524
 ---------------------------------------------------------------------
 Rotational constants (GHZ):           0.2512547           0.0097935           0.0096368
 Standard basis: 6-31G(d,p) (6D, 7F)
 There are   910 symmetry adapted cartesian basis functions of A   symmetry.
 There are   910 symmetry adapted basis functions of A   symmetry.
   910 basis functions,  1568 primitive gaussians,   910 cartesian basis functions
   156 alpha electrons      156 beta electrons
       nuclear repulsion energy      4014.9506388886 Hartrees.
 NAtoms=   98 NActive=   98 NUniq=   98 SFac= 1.00D+00 NAtFMM=   60 NAOKFM=T Big=T
 Integral buffers will be    131072 words long.
 Raffenetti 1 integral format.
 Two-electron integral symmetry is turned on.
 One-electron integrals computed using PRISM.
 NBasis=   910 RedAO= T EigKep=  9.02D-04  NBF=   910
 NBsUse=   910 1.00D-06 EigRej= -1.00D+00 NBFU=   910
 ExpMin= 1.61D-01 ExpMax= 5.48D+03 ExpMxC= 8.25D+02 IAcc=3 IRadAn=         5 AccDes= 0.00D+00
 Harris functional with IExCor=20419 and IRadAn=       5 diagonalized for initial guess.
 HarFok:  IExCor=20419 AccDes= 0.00D+00 IRadAn=         5 IDoV= 1 UseB2=F ITyADJ=14
 ICtDFT=  3500011 ScaDFX=  1.000000  1.000000  1.000000  1.000000
 FoFCou: FMM=F IPFlag=           0 FMFlag=      100000 FMFlg1=        2001
         NFxFlg=           0 DoJE=T BraDBF=F KetDBF=T FulRan=T
         wScrn=  0.000000 ICntrl=       500 IOpCl=  0 I1Cent=   200000004 NGrid=           0
         NMat0=    1 NMatS0=      1 NMatT0=    0 NMatD0=    1 NMtDS0=    0 NMtDT0=    0
 Petite list used in FoFCou.
 Requested convergence on RMS density matrix=1.00D-08 within 128 cycles.
 Requested convergence on MAX density matrix=1.00D-06.
 Requested convergence on             energy=1.00D-06.
 No special actions if energy rises.
 Integral accuracy reduced to 1.0D-05 until final iterations.
 Initial convergence to 1.0D-05 achieved.  Increase integral accuracy.
 SCF Done:  E(RCAM-B3LYP) =  -1706.90919304     A.U. after   15 cycles
            NFock= 15  Conv=0.43D-08     -V/T= 2.0099
 DoSCS=F DFT=T ScalE2(SS,OS)=  1.000000  1.000000
 ExpMin= 1.61D-01 ExpMax= 5.48D+03 ExpMxC= 8.25D+02 IAcc=3 IRadAn=         5 AccDes= 0.00D+00
 HarFok:  IExCor=  205 AccDes= 0.00D+00 IRadAn=         5 IDoV=-2 UseB2=F ITyADJ=14
 ICtDFT= 12500011 ScaDFX=  1.000000  1.000000  1.000000  1.000000
 GSVD:  LWork=       -2100 too small for GESVD, short by        9450 words or        9450 for optimal perf.
 Range of M.O.s used for correlation:    43   910
 NBasis=   910 NAE=   156 NBE=   156 NFC=    42 NFV=     0
 NROrb=    868 NOA=   114 NOB=   114 NVA=   754 NVB=   754
 Orbital symmetries:
       Occupied  (A) (A) (A) (A) (A) (A) (A) (A) (A) (A) (A) (A)
                 (A) (A) (A) (A) (A) (A) (A) (A) (A) (A) (A) (A)
                 (A) (A) (A) (A) (A) (A) (A) (A) (A) (A) (A) (A)
                 (A) (A) (A) (A) (A) (A) (A) (A) (A) (A) (A) (A)
                 (A) (A) (A) (A) (A) (A) (A) (A) (A) (A) (A) (A)
                 (A) (A) (A) (A) (A) (A) (A) (A) (A) (A) (A) (A)
                 (A) (A) (A) (A) (A) (A) (A) (A) (A) (A) (A) (A)
                 (A) (A) (A) (A) (A) (A) (A) (A) (A) (A) (A) (A)
                 (A) (A) (A) (A) (A) (A) (A) (A) (A) (A) (A) (A)
                 (A) (A) (A) (A) (A) (A) (A) (A) (A) (A) (A) (A)
                 (A) (A) (A) (A) (A) (A) (A) (A) (A) (A) (A) (A)
                 (A) (A) (A) (A) (A) (A) (A) (A) (A) (A) (A) (A)
                 (A) (A) (A) (A) (A) (A) (A) (A) (A) (A) (A) (A)
       Virtual   (A) (A) (A) (A) (A) (A) (A) (A) (A) (A) (A) (A)
                 (A) (A) (A) (A) (A) (A) (A) (A) (A) (A) (A) (A)
                 (A) (A) (A) (A) (A) (A) (A) (A) (A) (A) (A) (A)
                 (A) (A) (A) (A) (A) (A) (A) (A) (A) (A) (A) (A)
                 (A) (A) (A) (A) (A) (A) (A) (A) (A) (A) (A) (A)
                 (A) (A) (A) (A) (A) (A) (A) (A) (A) (A) (A) (A)
                 (A) (A) (A) (A) (A) (A) (A) (A) (A) (A) (A) (A)
                 (A) (A) (A) (A) (A) (A) (A) (A) (A) (A) (A) (A)
                 (A) (A) (A) (A) (A) (A) (A) (A) (A) (A) (A) (A)
                 (A) (A) (A) (A) (A) (A) (A) (A) (A) (A) (A) (A)
                 (A) (A) (A) (A) (A) (A) (A) (A) (A) (A) (A) (A)
                 (A) (A) (A) (A) (A) (A) (A) (A) (A) (A) (A) (A)
                 (A) (A) (A) (A) (A) (A) (A) (A) (A) (A) (A) (A)
                 (A) (A) (A) (A) (A) (A) (A) (A) (A) (A) (A) (A)
                 (A) (A) (A) (A) (A) (A) (A) (A) (A) (A) (A) (A)
                 (A) (A) (A) (A) (A) (A) (A) (A) (A) (A) (A) (A)
                 (A) (A) (A) (A) (A) (A) (A) (A) (A) (A) (A) (A)
                 (A) (A) (A) (A) (A) (A) (A) (A) (A) (A) (A) (A)
                 (A) (A) (A) (A) (A) (A) (A) (A) (A) (A) (A) (A)
                 (A) (A) (A) (A) (A) (A) (A) (A) (A) (A) (A) (A)
                 (A) (A) (A) (A) (A) (A) (A) (A) (A) (A) (A) (A)
                 (A) (A) (A) (A) (A) (A) (A) (A) (A) (A) (A) (A)
                 (A) (A) (A) (A) (A) (A) (A) (A) (A) (A) (A) (A)
                 (A) (A) (A) (A) (A) (A) (A) (A) (A) (A) (A) (A)
                 (A) (A) (A) (A) (A) (A) (A) (A) (A) (A) (A) (A)
                 (A) (A) (A) (A) (A) (A) (A) (A) (A) (A) (A) (A)
                 (A) (A) (A) (A) (A) (A) (A) (A) (A) (A) (A) (A)
                 (A) (A) (A) (A) (A) (A) (A) (A) (A) (A) (A) (A)
                 (A) (A) (A) (A) (A) (A) (A) (A) (A) (A) (A) (A)
                 (A) (A) (A) (A) (A) (A) (A) (A) (A) (A) (A) (A)
                 (A) (A) (A) (A) (A) (A) (A) (A) (A) (A) (A) (A)
                 (A) (A) (A) (A) (A) (A) (A) (A) (A) (A) (A) (A)
                 (A) (A) (A) (A) (A) (A) (A) (A) (A) (A) (A) (A)
                 (A) (A) (A) (A) (A) (A) (A) (A) (A) (A) (A) (A)
                 (A) (A) (A) (A) (A) (A) (A) (A) (A) (A) (A) (A)
                 (A) (A) (A) (A) (A) (A) (A) (A) (A) (A) (A) (A)
                 (A) (A) (A) (A) (A) (A) (A) (A) (A) (A) (A) (A)
                 (A) (A) (A) (A) (A) (A) (A) (A) (A) (A) (A) (A)
                 (A) (A) (A) (A) (A) (A) (A) (A) (A) (A) (A) (A)
                 (A) (A) (A) (A) (A) (A) (A) (A) (A) (A) (A) (A)
                 (A) (A) (A) (A) (A) (A) (A) (A) (A) (A) (A) (A)
                 (A) (A) (A) (A) (A) (A) (A) (A) (A) (A) (A) (A)
                 (A) (A) (A) (A) (A) (A) (A) (A) (A) (A) (A) (A)
                 (A) (A) (A) (A) (A) (A) (A) (A) (A) (A) (A) (A)
                 (A) (A) (A) (A) (A) (A) (A) (A) (A) (A) (A) (A)
                 (A) (A) (A) (A) (A) (A) (A) (A) (A) (A) (A) (A)
                 (A) (A) (A) (A) (A) (A) (A) (A) (A) (A) (A) (A)
                 (A) (A) (A) (A) (A) (A) (A) (A) (A) (A) (A) (A)
                 (A) (A) (A) (A) (A) (A) (A) (A) (A) (A) (A) (A)
                 (A) (A) (A) (A) (A) (A) (A) (A) (A) (A) (A) (A)
                 (A) (A) (A) (A) (A) (A) (A) (A) (A) (A) (A) (A)
                 (A) (A) (A) (A) (A) (A) (A) (A) (A) (A) (A) (A)
                 (A) (A) (A) (A) (A) (A) (A) (A) (A) (A) (A) (A)
                 (A) (A) (A) (A) (A) (A) (A) (A) (A) (A) (A) (A)
                 (A) (A) (A) (A) (A) (A) (A) (A) (A) (A) (A) (A)
                 (A) (A) (A) (A) (A) (A) (A) (A) (A) (A) (A) (A)
                 (A) (A) (A) (A) (A) (A) (A) (A) (A) (A) (A) (A)
                 (A) (A) (A) (A) (A) (A) (A) (A) (A) (A) (A) (A)
                 (A) (A) (A) (A) (A) (A) (A) (A) (A) (A) (A) (A)
                 (A) (A) (A) (A) (A) (A) (A) (A) (A) (A) (A) (A)
                 (A) (A) (A) (A) (A) (A) (A) (A) (A) (A) (A) (A)
                 (A) (A) (A) (A) (A) (A) (A) (A) (A) (A) (A) (A)
                 (A) (A) (A) (A) (A) (A) (A) (A) (A) (A)
     4 initial guesses have been made.
 Convergence on wavefunction:    0.001000000000000
 Iteration     1 Dimension     4 NMult     0 NNew      4
 CISAX will form     4 AO SS matrices at one time.
 Iteration     2 Dimension     6 NMult     4 NNew      2
 Iteration     3 Dimension     8 NMult     6 NNew      2
 Iteration     4 Dimension    10 NMult     8 NNew      2
 Iteration     5 Dimension    12 NMult    10 NNew      2
 Iteration     6 Dimension    14 NMult    12 NNew      2
 ***********************************************************************
 Excited states from <AA,BB:AA,BB> singles matrix:
 ***********************************************************************
 
 Ground to excited state transition densities written to RWF  633
 Ground to excited state transition electric dipole moments (Au):
       state          X           Y           Z        Dip. S.      Osc.
         1        -7.6070      1.0736     -0.0394     59.0206      3.0925
 Ground to excited state transition velocity dipole moments (Au):
       state          X           Y           Z        Dip. S.      Osc.
         1         0.5794     -0.0796      0.0030      0.3420      2.9011
 Ground to excited state transition magnetic dipole moments (Au):
       state          X           Y           Z
         1        -0.0865     -0.4453     -1.2448
 Ground to excited state transition velocity quadrupole moments (Au):
       state          XX          YY          ZZ          XY          XZ          YZ
         1         1.9993      0.0286      0.0262     -0.5263     -0.1419      0.0849
 <0|del|b> * <b|rxdel|0> + <0|del|b> * <b|delr+rdel|0>
 Rotatory Strengths (R) in cgs (10**-40 erg-esu-cm/Gauss)
       state          XX          YY          ZZ    R(velocity)    E-M Angle
         1        85.0663    -13.8023   -236.6378    -55.1246       91.36
 1/2[<0|r|b>*<b|rxdel|0> + (<0|rxdel|b>*<b|r|0>)*]
 Rotatory Strengths (R) in cgs (10**-40 erg-esu-cm/Gauss)
       state          XX          YY          ZZ     R(length)
         1      -465.4598    338.0605    -34.6561    -54.0185
  1/2[<0|del|b>*<b|r|0> + (<0|r|b>*<b|del|0>)*] (Au)
       state          X           Y           Z        Dip. S.   Osc.(frdel)
         1        -4.4073     -0.0854     -0.0001      4.4929      2.9952

 Excitation energies and oscillator strengths:
 
 Excited State   1:      Singlet-A      2.1387 eV  579.72 nm  f=3.0925  <S**2>=0.000
     155 ->158         0.16067
     156 ->157         0.68891
 This state for optimization and/or second-order correction.
 Total Energy, E(TD-HF/TD-DFT) =  -1706.83059770    
 Copying the excited state density for this state as the 1-particle RhoCI density.
 SavETr:  write IOETrn=   770 NScale= 10 NData=  16 NLR=1 NState=    1 LETran=      28.

 **********************************************************************

            Population analysis using the SCF density.

 **********************************************************************

 Orbital symmetries:
       Occupied  (A) (A) (A) (A) (A) (A) (A) (A) (A) (A) (A) (A)
                 (A) (A) (A) (A) (A) (A) (A) (A) (A) (A) (A) (A)
                 (A) (A) (A) (A) (A) (A) (A) (A) (A) (A) (A) (A)
                 (A) (A) (A) (A) (A) (A) (A) (A) (A) (A) (A) (A)
                 (A) (A) (A) (A) (A) (A) (A) (A) (A) (A) (A) (A)
                 (A) (A) (A) (A) (A) (A) (A) (A) (A) (A) (A) (A)
                 (A) (A) (A) (A) (A) (A) (A) (A) (A) (A) (A) (A)
                 (A) (A) (A) (A) (A) (A) (A) (A) (A) (A) (A) (A)
                 (A) (A) (A) (A) (A) (A) (A) (A) (A) (A) (A) (A)
                 (A) (A) (A) (A) (A) (A) (A) (A) (A) (A) (A) (A)
                 (A) (A) (A) (A) (A) (A) (A) (A) (A) (A) (A) (A)
                 (A) (A) (A) (A) (A) (A) (A) (A) (A) (A) (A) (A)
                 (A) (A) (A) (A) (A) (A) (A) (A) (A) (A) (A) (A)
       Virtual   (A) (A) (A) (A) (A) (A) (A) (A) (A) (A) (A) (A)
                 (A) (A) (A) (A) (A) (A) (A) (A) (A) (A) (A) (A)
                 (A) (A) (A) (A) (A) (A) (A) (A) (A) (A) (A) (A)
                 (A) (A) (A) (A) (A) (A) (A) (A) (A) (A) (A) (A)
                 (A) (A) (A) (A) (A) (A) (A) (A) (A) (A) (A) (A)
                 (A) (A) (A) (A) (A) (A) (A) (A) (A) (A) (A) (A)
                 (A) (A) (A) (A) (A) (A) (A) (A) (A) (A) (A) (A)
                 (A) (A) (A) (A) (A) (A) (A) (A) (A) (A) (A) (A)
                 (A) (A) (A) (A) (A) (A) (A) (A) (A) (A) (A) (A)
                 (A) (A) (A) (A) (A) (A) (A) (A) (A) (A) (A) (A)
                 (A) (A) (A) (A) (A) (A) (A) (A) (A) (A) (A) (A)
                 (A) (A) (A) (A) (A) (A) (A) (A) (A) (A) (A) (A)
                 (A) (A) (A) (A) (A) (A) (A) (A) (A) (A) (A) (A)
                 (A) (A) (A) (A) (A) (A) (A) (A) (A) (A) (A) (A)
                 (A) (A) (A) (A) (A) (A) (A) (A) (A) (A) (A) (A)
                 (A) (A) (A) (A) (A) (A) (A) (A) (A) (A) (A) (A)
                 (A) (A) (A) (A) (A) (A) (A) (A) (A) (A) (A) (A)
                 (A) (A) (A) (A) (A) (A) (A) (A) (A) (A) (A) (A)
                 (A) (A) (A) (A) (A) (A) (A) (A) (A) (A) (A) (A)
                 (A) (A) (A) (A) (A) (A) (A) (A) (A) (A) (A) (A)
                 (A) (A) (A) (A) (A) (A) (A) (A) (A) (A) (A) (A)
                 (A) (A) (A) (A) (A) (A) (A) (A) (A) (A) (A) (A)
                 (A) (A) (A) (A) (A) (A) (A) (A) (A) (A) (A) (A)
                 (A) (A) (A) (A) (A) (A) (A) (A) (A) (A) (A) (A)
                 (A) (A) (A) (A) (A) (A) (A) (A) (A) (A) (A) (A)
                 (A) (A) (A) (A) (A) (A) (A) (A) (A) (A) (A) (A)
                 (A) (A) (A) (A) (A) (A) (A) (A) (A) (A) (A) (A)
                 (A) (A) (A) (A) (A) (A) (A) (A) (A) (A) (A) (A)
                 (A) (A) (A) (A) (A) (A) (A) (A) (A) (A) (A) (A)
                 (A) (A) (A) (A) (A) (A) (A) (A) (A) (A) (A) (A)
                 (A) (A) (A) (A) (A) (A) (A) (A) (A) (A) (A) (A)
                 (A) (A) (A) (A) (A) (A) (A) (A) (A) (A) (A) (A)
                 (A) (A) (A) (A) (A) (A) (A) (A) (A) (A) (A) (A)
                 (A) (A) (A) (A) (A) (A) (A) (A) (A) (A) (A) (A)
                 (A) (A) (A) (A) (A) (A) (A) (A) (A) (A) (A) (A)
                 (A) (A) (A) (A) (A) (A) (A) (A) (A) (A) (A) (A)
                 (A) (A) (A) (A) (A) (A) (A) (A) (A) (A) (A) (A)
                 (A) (A) (A) (A) (A) (A) (A) (A) (A) (A) (A) (A)
                 (A) (A) (A) (A) (A) (A) (A) (A) (A) (A) (A) (A)
                 (A) (A) (A) (A) (A) (A) (A) (A) (A) (A) (A) (A)
                 (A) (A) (A) (A) (A) (A) (A) (A) (A) (A) (A) (A)
                 (A) (A) (A) (A) (A) (A) (A) (A) (A) (A) (A) (A)
                 (A) (A) (A) (A) (A) (A) (A) (A) (A) (A) (A) (A)
                 (A) (A) (A) (A) (A) (A) (A) (A) (A) (A) (A) (A)
                 (A) (A) (A) (A) (A) (A) (A) (A) (A) (A) (A) (A)
                 (A) (A) (A) (A) (A) (A) (A) (A) (A) (A) (A) (A)
                 (A) (A) (A) (A) (A) (A) (A) (A) (A) (A) (A) (A)
                 (A) (A) (A) (A) (A) (A) (A) (A) (A) (A) (A) (A)
                 (A) (A) (A) (A) (A) (A) (A) (A) (A) (A) (A) (A)
                 (A) (A) (A) (A) (A) (A) (A) (A) (A) (A) (A) (A)
                 (A) (A) (A) (A) (A) (A) (A) (A) (A) (A) (A) (A)
                 (A) (A) (A) (A) (A) (A) (A) (A) (A) (A) (A) (A)
                 (A) (A) (A) (A) (A) (A) (A) (A) (A) (A) (A) (A)
                 (A) (A) (A) (A) (A) (A) (A) (A) (A) (A) (A) (A)
                 (A) (A) (A) (A) (A) (A) (A) (A) (A) (A) (A) (A)
                 (A) (A) (A) (A) (A) (A) (A) (A) (A) (A) (A) (A)
                 (A) (A) (A) (A) (A) (A) (A) (A) (A) (A) (A) (A)
                 (A) (A) (A) (A) (A) (A) (A) (A) (A) (A) (A) (A)
                 (A) (A) (A) (A) (A) (A) (A) (A) (A) (A) (A) (A)
                 (A) (A) (A) (A) (A) (A) (A) (A) (A) (A) (A) (A)
                 (A) (A) (A) (A) (A) (A) (A) (A) (A) (A) (A) (A)
                 (A) (A) (A) (A) (A) (A) (A) (A) (A) (A) (A) (A)
                 (A) (A) (A) (A) (A) (A) (A) (A) (A) (A)
 The electronic state is 1-A.
 Alpha  occ. eigenvalues --  -19.22516 -19.22081 -10.32609 -10.29560 -10.28366
 Alpha  occ. eigenvalues --  -10.28025 -10.27915 -10.27827 -10.27731 -10.27617
 Alpha  occ. eigenvalues --  -10.27573 -10.27393 -10.27332 -10.26957 -10.26923
 Alpha  occ. eigenvalues --  -10.26849 -10.26750 -10.26701 -10.26602 -10.26591
 Alpha  occ. eigenvalues --  -10.26506 -10.26362 -10.26348 -10.26234 -10.26213
 Alpha  occ. eigenvalues --  -10.26133 -10.26066 -10.25919 -10.25757 -10.25725
 Alpha  occ. eigenvalues --  -10.25473 -10.25175 -10.25002 -10.24912 -10.24756
 Alpha  occ. eigenvalues --  -10.24745 -10.24660 -10.24656 -10.23798 -10.23102
 Alpha  occ. eigenvalues --  -10.22905 -10.22786  -1.10836  -1.08797  -0.95208
 Alpha  occ. eigenvalues --   -0.94019  -0.91667  -0.91089  -0.90024  -0.88838
 Alpha  occ. eigenvalues --   -0.88441  -0.87352  -0.86122  -0.85233  -0.84444
 Alpha  occ. eigenvalues --   -0.82709  -0.81983  -0.80135  -0.79088  -0.77664
 Alpha  occ. eigenvalues --   -0.77172  -0.76890  -0.76331  -0.76246  -0.75947
 Alpha  occ. eigenvalues --   -0.75181  -0.74201  -0.74026  -0.72521  -0.70279
 Alpha  occ. eigenvalues --   -0.68796  -0.67953  -0.65780  -0.64960  -0.63552
 Alpha  occ. eigenvalues --   -0.63116  -0.62910  -0.62564  -0.60787  -0.59920
 Alpha  occ. eigenvalues --   -0.59645  -0.59073  -0.58457  -0.56986  -0.56356
 Alpha  occ. eigenvalues --   -0.55330  -0.55005  -0.54417  -0.53943  -0.53141
 Alpha  occ. eigenvalues --   -0.53016  -0.52721  -0.52227  -0.51946  -0.51316
 Alpha  occ. eigenvalues --   -0.50902  -0.50664  -0.50587  -0.49999  -0.49966
 Alpha  occ. eigenvalues --   -0.49663  -0.49314  -0.48680  -0.48401  -0.48057
 Alpha  occ. eigenvalues --   -0.47625  -0.47495  -0.46788  -0.46267  -0.45966
 Alpha  occ. eigenvalues --   -0.45415  -0.45155  -0.44915  -0.44683  -0.44580
 Alpha  occ. eigenvalues --   -0.44472  -0.43990  -0.43892  -0.43714  -0.43528
 Alpha  occ. eigenvalues --   -0.42931  -0.42811  -0.42353  -0.41868  -0.41507
 Alpha  occ. eigenvalues --   -0.41303  -0.41273  -0.40877  -0.40808  -0.40457
 Alpha  occ. eigenvalues --   -0.40247  -0.40002  -0.39715  -0.39518  -0.39341
 Alpha  occ. eigenvalues --   -0.38801  -0.38493  -0.38243  -0.37594  -0.37284
 Alpha  occ. eigenvalues --   -0.36937  -0.36931  -0.36371  -0.35785  -0.35326
 Alpha  occ. eigenvalues --   -0.35076  -0.34065  -0.33376  -0.32292  -0.32248
 Alpha  occ. eigenvalues --   -0.31588  -0.29818  -0.29276  -0.27297  -0.23294
 Alpha  occ. eigenvalues --   -0.19387
 Alpha virt. eigenvalues --   -0.05908  -0.01329   0.03336   0.05951   0.08245
 Alpha virt. eigenvalues --    0.09055   0.10743   0.10976   0.11443   0.12025
 Alpha virt. eigenvalues --    0.12538   0.12891   0.13246   0.13597   0.13853
 Alpha virt. eigenvalues --    0.14361   0.14728   0.14858   0.14969   0.15121
 Alpha virt. eigenvalues --    0.15590   0.15631   0.16204   0.16566   0.16670
 Alpha virt. eigenvalues --    0.16972   0.17062   0.17306   0.17573   0.17724
 Alpha virt. eigenvalues --    0.18261   0.18667   0.18791   0.18861   0.19419
 Alpha virt. eigenvalues --    0.19627   0.19976   0.20241   0.20484   0.20684
 Alpha virt. eigenvalues --    0.21197   0.21404   0.21565   0.22116   0.22397
 Alpha virt. eigenvalues --    0.22602   0.22632   0.22846   0.23006   0.23213
 Alpha virt. eigenvalues --    0.23452   0.23875   0.24383   0.24449   0.24783
 Alpha virt. eigenvalues --    0.24973   0.25195   0.25320   0.25442   0.25877
 Alpha virt. eigenvalues --    0.25937   0.26237   0.26611   0.26973   0.27080
 Alpha virt. eigenvalues --    0.27568   0.27611   0.27946   0.28311   0.28772
 Alpha virt. eigenvalues --    0.29242   0.29482   0.29551   0.29861   0.30103
 Alpha virt. eigenvalues --    0.30439   0.30700   0.31509   0.32390   0.32461
 Alpha virt. eigenvalues --    0.32998   0.33325   0.33663   0.34290   0.34524
 Alpha virt. eigenvalues --    0.35499   0.35793   0.36826   0.38134   0.38426
 Alpha virt. eigenvalues --    0.38477   0.39298   0.39607   0.41085   0.42653
 Alpha virt. eigenvalues --    0.43007   0.43588   0.43900   0.44587   0.44871
 Alpha virt. eigenvalues --    0.45430   0.46329   0.47884   0.48161   0.48900
 Alpha virt. eigenvalues --    0.50934   0.51592   0.52671   0.52674   0.54421
 Alpha virt. eigenvalues --    0.55972   0.56068   0.56646   0.56891   0.56954
 Alpha virt. eigenvalues --    0.57148   0.57464   0.57944   0.58378   0.58620
 Alpha virt. eigenvalues --    0.58764   0.58882   0.59343   0.59883   0.60193
 Alpha virt. eigenvalues --    0.60822   0.60975   0.61203   0.61500   0.61727
 Alpha virt. eigenvalues --    0.62142   0.62476   0.62742   0.63179   0.63700
 Alpha virt. eigenvalues --    0.63711   0.64358   0.64598   0.64810   0.65129
 Alpha virt. eigenvalues --    0.65451   0.65537   0.65782   0.66319   0.66678
 Alpha virt. eigenvalues --    0.66818   0.67013   0.67456   0.67704   0.68246
 Alpha virt. eigenvalues --    0.68683   0.69122   0.69375   0.69705   0.69942
 Alpha virt. eigenvalues --    0.70233   0.70576   0.70931   0.71075   0.71529
 Alpha virt. eigenvalues --    0.72085   0.72296   0.72900   0.73128   0.73460
 Alpha virt. eigenvalues --    0.73788   0.73860   0.74342   0.74550   0.75465
 Alpha virt. eigenvalues --    0.75605   0.75803   0.75995   0.76651   0.76835
 Alpha virt. eigenvalues --    0.77067   0.77682   0.77811   0.77968   0.78486
 Alpha virt. eigenvalues --    0.79628   0.80202   0.80258   0.80606   0.80840
 Alpha virt. eigenvalues --    0.80890   0.81583   0.81915   0.82139   0.82500
 Alpha virt. eigenvalues --    0.82893   0.83111   0.83462   0.83486   0.83812
 Alpha virt. eigenvalues --    0.84474   0.84761   0.84867   0.85441   0.85549
 Alpha virt. eigenvalues --    0.85825   0.86102   0.86733   0.87099   0.87698
 Alpha virt. eigenvalues --    0.88024   0.88394   0.88739   0.88845   0.89324
 Alpha virt. eigenvalues --    0.89661   0.89959   0.90089   0.90481   0.90734
 Alpha virt. eigenvalues --    0.91046   0.91441   0.91551   0.91800   0.92233
 Alpha virt. eigenvalues --    0.92414   0.92880   0.93066   0.93535   0.93992
 Alpha virt. eigenvalues --    0.94105   0.94597   0.94793   0.95130   0.95969
 Alpha virt. eigenvalues --    0.96085   0.96169   0.96281   0.96484   0.97058
 Alpha virt. eigenvalues --    0.97740   0.97842   0.97976   0.98315   0.98649
 Alpha virt. eigenvalues --    0.98816   0.99060   0.99444   0.99722   0.99874
 Alpha virt. eigenvalues --    1.00269   1.00718   1.00798   1.01194   1.01446
 Alpha virt. eigenvalues --    1.01779   1.02127   1.02306   1.02356   1.02789
 Alpha virt. eigenvalues --    1.02984   1.04100   1.04309   1.04836   1.05485
 Alpha virt. eigenvalues --    1.05849   1.06056   1.06530   1.06847   1.06982
 Alpha virt. eigenvalues --    1.07362   1.08385   1.08905   1.09323   1.09392
 Alpha virt. eigenvalues --    1.10095   1.10581   1.11284   1.11911   1.12420
 Alpha virt. eigenvalues --    1.12545   1.12831   1.13230   1.13818   1.14280
 Alpha virt. eigenvalues --    1.15823   1.15895   1.16647   1.17574   1.17953
 Alpha virt. eigenvalues --    1.18188   1.18975   1.19673   1.20239   1.21709
 Alpha virt. eigenvalues --    1.22660   1.23664   1.25037   1.25191   1.25972
 Alpha virt. eigenvalues --    1.26453   1.27536   1.28030   1.28169   1.29097
 Alpha virt. eigenvalues --    1.29874   1.30834   1.31217   1.31733   1.32560
 Alpha virt. eigenvalues --    1.33081   1.33635   1.34037   1.35562   1.35820
 Alpha virt. eigenvalues --    1.36908   1.37766   1.38322   1.38574   1.38902
 Alpha virt. eigenvalues --    1.39686   1.40088   1.41071   1.41983   1.42128
 Alpha virt. eigenvalues --    1.42612   1.42641   1.44747   1.44872   1.45164
 Alpha virt. eigenvalues --    1.46213   1.47151   1.47205   1.48444   1.49907
 Alpha virt. eigenvalues --    1.49939   1.50214   1.50959   1.51548   1.52696
 Alpha virt. eigenvalues --    1.53115   1.53655   1.54931   1.55176   1.55954
 Alpha virt. eigenvalues --    1.56525   1.57310   1.58219   1.58690   1.58995
 Alpha virt. eigenvalues --    1.61188   1.61280   1.61839   1.62780   1.63362
 Alpha virt. eigenvalues --    1.64396   1.64796   1.65281   1.65938   1.66019
 Alpha virt. eigenvalues --    1.68321   1.68474   1.69258   1.70153   1.70441
 Alpha virt. eigenvalues --    1.73058   1.73853   1.74605   1.75520   1.75607
 Alpha virt. eigenvalues --    1.75748   1.76562   1.77940   1.78376   1.79177
 Alpha virt. eigenvalues --    1.79397   1.79757   1.80246   1.80317   1.80582
 Alpha virt. eigenvalues --    1.81859   1.81927   1.82430   1.83104   1.84059
 Alpha virt. eigenvalues --    1.84116   1.84868   1.85345   1.85904   1.86848
 Alpha virt. eigenvalues --    1.87069   1.87488   1.87635   1.87938   1.89000
 Alpha virt. eigenvalues --    1.89226   1.90275   1.90593   1.90911   1.90998
 Alpha virt. eigenvalues --    1.91387   1.91748   1.92227   1.92829   1.93061
 Alpha virt. eigenvalues --    1.93226   1.93905   1.94283   1.94641   1.94781
 Alpha virt. eigenvalues --    1.95116   1.95625   1.95865   1.96242   1.96689
 Alpha virt. eigenvalues --    1.96882   1.97465   1.97869   1.98048   1.98513
 Alpha virt. eigenvalues --    1.99108   1.99263   1.99408   1.99976   2.00352
 Alpha virt. eigenvalues --    2.01155   2.01362   2.02083   2.02641   2.02737
 Alpha virt. eigenvalues --    2.03417   2.03696   2.04566   2.04787   2.05489
 Alpha virt. eigenvalues --    2.06281   2.06512   2.06709   2.06938   2.07279
 Alpha virt. eigenvalues --    2.07717   2.07920   2.08749   2.09039   2.09742
 Alpha virt. eigenvalues --    2.09788   2.10099   2.10580   2.11109   2.11357
 Alpha virt. eigenvalues --    2.11705   2.12736   2.12777   2.13356   2.14085
 Alpha virt. eigenvalues --    2.14896   2.15556   2.15928   2.16130   2.16307
 Alpha virt. eigenvalues --    2.16655   2.17086   2.17315   2.17986   2.18415
 Alpha virt. eigenvalues --    2.19137   2.19222   2.20007   2.20297   2.20622
 Alpha virt. eigenvalues --    2.20870   2.21710   2.21908   2.22752   2.22924
 Alpha virt. eigenvalues --    2.23265   2.23458   2.23623   2.24239   2.24812
 Alpha virt. eigenvalues --    2.24885   2.25244   2.25803   2.26186   2.26653
 Alpha virt. eigenvalues --    2.27768   2.28363   2.28567   2.28871   2.29217
 Alpha virt. eigenvalues --    2.29391   2.29753   2.30163   2.30978   2.31270
 Alpha virt. eigenvalues --    2.31521   2.32067   2.33021   2.33621   2.33782
 Alpha virt. eigenvalues --    2.35013   2.35592   2.36458   2.37038   2.37134
 Alpha virt. eigenvalues --    2.37510   2.37840   2.38238   2.38733   2.39109
 Alpha virt. eigenvalues --    2.39563   2.40043   2.40450   2.40753   2.41195
 Alpha virt. eigenvalues --    2.41620   2.42321   2.43457   2.43770   2.44295
 Alpha virt. eigenvalues --    2.44644   2.45075   2.45578   2.45782   2.46472
 Alpha virt. eigenvalues --    2.46784   2.48145   2.48348   2.48816   2.49028
 Alpha virt. eigenvalues --    2.50169   2.50738   2.50989   2.51332   2.51858
 Alpha virt. eigenvalues --    2.52212   2.53081   2.53305   2.53589   2.53829
 Alpha virt. eigenvalues --    2.54625   2.55142   2.55452   2.55921   2.56281
 Alpha virt. eigenvalues --    2.56606   2.56914   2.57693   2.58145   2.58662
 Alpha virt. eigenvalues --    2.59401   2.60339   2.60539   2.61062   2.61329
 Alpha virt. eigenvalues --    2.61546   2.62343   2.62780   2.63581   2.63956
 Alpha virt. eigenvalues --    2.64255   2.64319   2.64765   2.65240   2.65442
 Alpha virt. eigenvalues --    2.65907   2.66060   2.66846   2.66982   2.67835
 Alpha virt. eigenvalues --    2.68167   2.68377   2.68609   2.68728   2.69043
 Alpha virt. eigenvalues --    2.69630   2.70190   2.70531   2.70742   2.71119
 Alpha virt. eigenvalues --    2.71633   2.71770   2.72045   2.72415   2.72710
 Alpha virt. eigenvalues --    2.73033   2.73655   2.73963   2.74375   2.74839
 Alpha virt. eigenvalues --    2.75078   2.75283   2.76329   2.77141   2.77363
 Alpha virt. eigenvalues --    2.78163   2.78325   2.79056   2.79251   2.79810
 Alpha virt. eigenvalues --    2.80072   2.80265   2.80575   2.80839   2.81507
 Alpha virt. eigenvalues --    2.82243   2.82697   2.82951   2.83648   2.84225
 Alpha virt. eigenvalues --    2.84593   2.85124   2.86003   2.86218   2.86962
 Alpha virt. eigenvalues --    2.87473   2.88231   2.88983   2.89812   2.90289
 Alpha virt. eigenvalues --    2.91591   2.91996   2.92594   2.93047   2.94102
 Alpha virt. eigenvalues --    2.94168   2.94613   2.95763   2.96298   2.96642
 Alpha virt. eigenvalues --    2.96982   2.97043   2.98539   2.99097   2.99963
 Alpha virt. eigenvalues --    3.00316   3.00633   3.01338   3.01623   3.02972
 Alpha virt. eigenvalues --    3.04473   3.05304   3.06270   3.07264   3.07518
 Alpha virt. eigenvalues --    3.07849   3.08888   3.09335   3.09824   3.10309
 Alpha virt. eigenvalues --    3.10421   3.11373   3.12649   3.14435   3.15066
 Alpha virt. eigenvalues --    3.15561   3.16658   3.18749   3.19052   3.19256
 Alpha virt. eigenvalues --    3.20321   3.20660   3.20978   3.22832   3.23562
 Alpha virt. eigenvalues --    3.28818   3.28988   3.29624   3.30268   3.32719
 Alpha virt. eigenvalues --    3.35323   3.36048   3.36302   3.37857   3.38125
 Alpha virt. eigenvalues --    3.38892   3.39323   3.40229   3.40995   3.42220
 Alpha virt. eigenvalues --    3.43596   3.44761   3.44868   3.45862   3.46630
 Alpha virt. eigenvalues --    3.47463   3.47961   3.48980   3.49404   3.50025
 Alpha virt. eigenvalues --    3.50051   3.50367   3.51397   3.53614   3.54259
 Alpha virt. eigenvalues --    3.54394   3.55499   3.56577   3.57017   3.59442
 Alpha virt. eigenvalues --    3.59607   3.59955   3.61666   3.63380   3.64545
 Alpha virt. eigenvalues --    3.65492   3.65856   3.66335   3.68226   3.69965
 Alpha virt. eigenvalues --    3.71475   3.75180   3.75636   3.77652   3.80680
 Alpha virt. eigenvalues --    3.81688   3.83979   4.10317   4.14314   4.16907
 Alpha virt. eigenvalues --    4.18451   4.20377   4.20885   4.23131   4.25099
 Alpha virt. eigenvalues --    4.28199   4.30433   4.31650   4.32601   4.35818
 Alpha virt. eigenvalues --    4.38015   4.40477   4.41045   4.45057   4.46303
 Alpha virt. eigenvalues --    4.47624   4.49240   4.50837   4.52968   4.55370
 Alpha virt. eigenvalues --    4.56178   4.59046   4.60044   4.62120   4.63431
 Alpha virt. eigenvalues --    4.64073   4.65494   4.70472   4.72180   4.73241
 Alpha virt. eigenvalues --    4.75645   4.76131   4.78317   4.81429   4.84220
 Alpha virt. eigenvalues --    4.84981   4.85714   4.93385   4.93748
          Condensed to atoms (all electrons):
 Mulliken charges:
               1
     1  O   -0.536151
     2  O   -0.555610
     3  C    0.003142
     4  C   -0.074895
     5  C   -0.202432
     6  C    0.182956
     7  C    0.061855
     8  C   -0.016646
     9  C   -0.306180
    10  C   -0.285355
    11  C   -0.177580
    12  C   -0.126591
    13  C    0.126211
    14  C    0.093986
    15  C   -0.086897
    16  C   -0.216121
    17  C    0.063508
    18  C   -0.326207
    19  C   -0.292353
    20  C   -0.333947
    21  C   -0.100100
    22  C   -0.137416
    23  C   -0.335883
    24  C    0.088515
    25  C   -0.100803
    26  C   -0.375042
    27  C    0.061832
    28  C   -0.119200
    29  C   -0.359410
    30  C   -0.078786
    31  C   -0.062948
    32  C   -0.097449
    33  C   -0.103721
    34  C    0.029996
    35  C   -0.083033
    36  C    0.065543
    37  C   -0.358937
    38  C   -0.112791
    39  C   -0.154765
    40  C   -0.372802
    41  C   -0.052536
    42  C   -0.071716
    43  H    0.085624
    44  H    0.091859
    45  H    0.098182
    46  H    0.039732
    47  H    0.104540
    48  H    0.098590
    49  H    0.099979
    50  H    0.096877
    51  H    0.099998
    52  H    0.081243
    53  H    0.093480
    54  H    0.076241
    55  H    0.058611
    56  H    0.084073
    57  H    0.081525
    58  H    0.115499
    59  H    0.126112
    60  H    0.084550
    61  H    0.109494
    62  H    0.101637
    63  H    0.111455
    64  H    0.117011
    65  H    0.078434
    66  H    0.131024
    67  H    0.124473
    68  H    0.107158
    69  H    0.310813
    70  H    0.097842
    71  H    0.077730
    72  H    0.076933
    73  H    0.123224
    74  H    0.050663
    75  H    0.311956
    76  H    0.076493
    77  H    0.067959
    78  H    0.137612
    79  H    0.127199
    80  H    0.077634
    81  H    0.133609
    82  H    0.109269
    83  H    0.107941
    84  H    0.071158
    85  H    0.094679
    86  H    0.093151
    87  H    0.076100
    88  H    0.064524
    89  H    0.136244
    90  H    0.139163
    91  H    0.093610
    92  H    0.063667
    93  H    0.095658
    94  H    0.139938
    95  H    0.104164
    96  H    0.120873
    97  H    0.070722
    98  H    0.088831
 Sum of Mulliken charges =  -0.00000
 Mulliken charges with hydrogens summed into heavy atoms:
               1
     1  O   -0.225338
     2  O   -0.243654
     3  C    0.003142
     4  C    0.010729
     5  C   -0.012391
     6  C    0.222688
     7  C    0.061855
     8  C   -0.016646
     9  C   -0.003071
    10  C   -0.007237
    11  C   -0.007858
    12  C   -0.067980
    13  C    0.210284
    14  C    0.093986
    15  C   -0.005372
    16  C    0.025490
    17  C    0.063508
    18  C   -0.030526
    19  C    0.014547
    20  C    0.028707
    21  C   -0.022371
    22  C   -0.039574
    23  C   -0.085062
    24  C    0.088515
    25  C   -0.024309
    26  C   -0.042271
    27  C    0.061832
    28  C   -0.041566
    29  C   -0.008592
    30  C   -0.007628
    31  C    0.031731
    32  C   -0.004298
    33  C   -0.027621
    34  C    0.029996
    35  C   -0.018509
    36  C    0.065543
    37  C    0.010081
    38  C   -0.049124
    39  C   -0.059107
    40  C   -0.007827
    41  C    0.018186
    42  C    0.017114
 Electronic spatial extent (au):  <R**2>=         105103.9120
 Charge=             -0.0000 electrons
 Dipole moment (field-independent basis, Debye):
    X=             -1.3660    Y=              0.0864    Z=              0.8926  Tot=              1.6340
 Quadrupole moment (field-independent basis, Debye-Ang):
   XX=           -287.6733   YY=           -244.6033   ZZ=           -263.4831
   XY=              0.8556   XZ=             45.5726   YZ=              2.4403
 Traceless Quadrupole moment (field-independent basis, Debye-Ang):
   XX=            -22.4201   YY=             20.6500   ZZ=              1.7701
   XY=              0.8556   XZ=             45.5726   YZ=              2.4403
 Octapole moment (field-independent basis, Debye-Ang**2):
  XXX=           -870.4272  YYY=             21.3587  ZZZ=             18.0742  XYY=             25.7831
  XXY=             -1.2821  XXZ=             39.1813  XZZ=              7.0904  YZZ=              1.5507
  YYZ=             -3.4429  XYZ=             -5.4254
 Hexadecapole moment (field-independent basis, Debye-Ang**3):
 XXXX=        -146250.8129 YYYY=          -4269.2752 ZZZZ=          -2073.2603 XXXY=            448.2507
 XXXZ=           9639.5943 YYYX=            -52.5162 YYYZ=              2.2799 ZZZX=            172.5454
 ZZZY=             -4.5984 XXYY=         -23136.3545 XXZZ=         -22924.1742 YYZZ=          -1070.9538
 XXYZ=            776.5799 YYXZ=            158.9177 ZZXY=            210.3704
 N-N= 4.014950638889D+03 E-N=-1.198498083635D+04  KE= 1.690185302839D+03
 1\1\GINC-PADAWAN\SP\RCAM-B3LYP TD-FC\6-31G(d,p)\C40H56O2\PADAWAN\14-Ju
 l-2019\0\\# td=(NStates=1) CAM-B3LYP/6-31G(d,p)\\TD\\0,1\O,0,-14.20859
 67349,-2.0365620379,0.5185321085\O,0,14.9521870555,0.7154591325,0.2246
 730632\C,0,-11.7293057902,-0.0270966348,1.2676115812\C,0,-11.027289691
 5,0.276980469,0.0692506379\C,0,-11.9463901196,-1.6285573401,1.33931177
 25\C,0,-12.8601394074,-2.1482758924,0.1811022611\C,0,-11.7811033992,-0
 .3330207804,-1.1470801979\C,0,11.1448978204,0.9799296355,0.9537256523\
 C,0,-10.9188633595,0.3404657854,2.6171987706\C,0,-13.0739735598,0.7829
 239393,1.3538864654\C,0,12.5335305336,1.4945488814,0.609908377\C,0,-12
 .5318441703,-1.3735552233,-1.0205348222\C,0,13.5654081617,0.3246801406
 ,0.337091028\C,0,10.770386513,-0.1045398642,-0.0574521601\C,0,-9.59999
 87638,-0.1456074089,0.0941294205\C,0,13.1253205097,-0.3114483642,-0.96
 31218985\C,0,11.691022191,-0.5837534206,-0.8571907779\C,0,10.326719557
 6,2.1942387359,0.9762903424\C,0,11.0942502575,0.3526344388,2.334363997
 7\C,0,-11.4399784953,0.4262442659,-2.5030725655\C,0,-8.5839244927,0.73
 17481572,-0.1597195945\C,0,9.3432392532,-0.3861263884,0.023042388\C,0,
 11.2088308286,-1.5051934861,-1.93215282\C,0,-7.1519765206,0.4346407059
 ,-0.2972218115\C,0,8.7678532417,-1.6344232398,-0.0109262336\C,0,-6.672
 6186834,-1.0067494318,-0.190946206\C,0,7.3796964571,-2.0265555276,0.13
 37323109\C,0,-6.2552252985,1.4612296975,-0.3995918158\C,0,7.1413573299
 ,-3.5623799602,0.4494151597\C,0,6.3531725863,-1.127433032,-0.088461188
 5\C,0,-4.8034743211,1.3948630255,-0.3389248059\C,0,5.0538162275,-1.432
 341077,-0.001767957\C,0,-4.0709184642,2.5283158578,-0.6953107201\C,0,-
 2.6769981379,2.6782557832,-0.8026530131\C,0,4.0607600415,-0.4701475209
 ,-0.1430838248\C,0,2.6640234509,-0.6721416857,-0.2276577184\C,0,-1.890
 957646,4.0759721798,-0.96932608\C,0,-1.8120482903,1.5971224566,-0.5242
 384402\C,0,1.7699655416,0.4855901205,-0.2840069626\C,0,2.1678301041,-2
 .1927120585,-0.0856962017\C,0,-0.384270686,1.5092822495,-0.4981131711\
 C,0,0.3119960304,0.3711387817,-0.3682900898\H,0,-10.9513818797,1.25994
 77801,-0.1804098862\H,0,-12.5091143845,-1.7375837721,2.3903269274\H,0,
 -11.0332809977,-2.311630358,1.5278960722\H,0,-12.3638500186,-3.2948785
 952,-0.1133264705\H,0,-10.1695523565,-0.3840367281,2.6124198659\H,0,-1
 0.5661967863,1.3630193789,2.7697917011\H,0,-11.4994575381,0.0981132303
 ,3.4593501128\H,0,-13.8786090627,0.3782538277,0.5844449148\H,0,-13.620
 4878194,0.5811397214,2.3120752095\H,0,-12.7518938748,1.8998736092,1.19
 14996333\H,0,12.3780751742,2.0536103105,-0.3656787247\H,0,12.878002227
 3,2.0977738163,1.4279503962\H,0,-13.0362171003,-1.6183286294,-1.906344
 8252\H,0,13.2940489897,-0.4918689327,0.9803883747\H,0,-9.1450268684,-1
 .2331681758,0.3122987899\H,0,13.7227174158,-1.2203250718,-1.0143265887
 \H,0,13.5033967572,0.4770262805,-1.6422741512\H,0,9.4027669743,2.00452
 05039,1.6211173591\H,0,10.1448663482,2.7973023326,0.0337602915\H,0,10.
 5669603693,2.9734623179,1.736409792\H,0,11.6597288142,-0.4590031489,2.
 4264890703\H,0,10.0800529759,0.1771751765,2.5857917073\H,0,11.27917881
 7,1.2307908759,3.0688618292\H,0,-10.3858810861,0.3025301637,-2.4790352
 992\H,0,-11.8546245188,1.3127872772,-2.4255896243\H,0,-11.916129458,-0
 .0069394452,-3.2384316008\H,0,-14.8644897223,-2.1224511977,-0.16137434
 12\H,0,8.5957686449,0.5923894641,0.0967823244\H,0,-8.8418193508,1.7642
 880816,-0.4849638168\H,0,11.7031960541,-2.6777692729,-1.9076736189\H,0
 ,10.0625591223,-1.5239885006,-2.042320166\H,0,11.4296122549,-0.8866817
 583,-3.1006160097\H,0,15.0325224325,1.0508231821,1.1782457935\H,0,9.45
 74455209,-2.6390969914,-0.0030367462\H,0,-5.4803024912,-1.3978969404,-
 0.557838387\H,0,-6.6931982179,-1.3891408873,0.8321154639\H,0,-7.116077
 843,-1.5353719854,-1.1117193867\H,0,-6.5546977563,2.501288924,-0.44731
 79335\H,0,6.5940129503,-3.6798114037,1.3678564813\H,0,6.4995372989,-4.
 0204272305,-0.4407736686\H,0,8.1551154089,-4.0062068053,0.4232092882\H
 ,0,6.8205604829,-0.0145286923,-0.1189740193\H,0,-4.4106632979,0.403600
 0252,0.0151854609\H,0,4.6906726708,-2.503739627,0.1790602452\H,0,-4.50
 67767234,3.4562536072,-0.8794275983\H,0,4.3113512113,0.4895762965,-0.1
 337425917\H,0,-1.2602457828,4.0404054872,-1.7623645084\H,0,-1.53875671
 41,4.499247082,-0.1260145613\H,0,-2.7572052086,4.728425258,-1.20308860
 26\H,0,-2.2223711175,0.5653331588,-0.2127660066\H,0,2.2215411962,1.479
 7419634,-0.3813851536\H,0,2.2919977275,-2.4699733997,0.9241307916\H,0,
 1.0648315545,-2.1701363047,-0.2237436595\H,0,2.530515801,-2.8164094281
 ,-1.0124254855\H,0,0.1862245074,2.3064704867,-0.3991169032\H,0,-0.2919
 120872,-0.5542655964,-0.2170823632\\Version=ES64L-G16RevA.03\State=1-A
 \HF=-1706.909193\RMSD=4.296e-09\PG=C01 [X(C40H56O2)]\\@


 EDUCATION DOESN'T COST 
           ... IT PAYS!

 -- POSTMARK, UNIV. OF MISSISSIPPI, DEC 78
 Job cpu time:       0 days  2 hours 19 minutes 20.2 seconds.
 Elapsed time:       0 days  1 hours 33 minutes 17.2 seconds.
 File lengths (MBytes):  RWF=   3127 Int=      0 D2E=      0 Chk=     84 Scr=      1
 Normal termination of Gaussian 16 at Sun Jul 14 13:40:05 2019.
