 Entering Gaussian System, Link 0=g16
 Input=Geometria-269-.com
 Output=Geometria-269-.log
 Initial command:
 /usr/local/g16/l1.exe "/home/padawan/israel-mol/lutein/spectra/emi/Gau-20510.inp" -scrdir="/home/padawan/israel-mol/lutein/spectra/emi/"
 Entering Link 1 = /usr/local/g16/l1.exe PID=     20512.
  
 Copyright (c) 1988,1990,1992,1993,1995,1998,2003,2009,2016,
            Gaussian, Inc.  All Rights Reserved.
  
 This is part of the Gaussian(R) 16 program.  It is based on
 the Gaussian(R) 09 system (copyright 2009, Gaussian, Inc.),
 the Gaussian(R) 03 system (copyright 2003, Gaussian, Inc.),
 the Gaussian(R) 98 system (copyright 1998, Gaussian, Inc.),
 the Gaussian(R) 94 system (copyright 1995, Gaussian, Inc.),
 the Gaussian 92(TM) system (copyright 1992, Gaussian, Inc.),
 the Gaussian 90(TM) system (copyright 1990, Gaussian, Inc.),
 the Gaussian 88(TM) system (copyright 1988, Gaussian, Inc.),
 the Gaussian 86(TM) system (copyright 1986, Carnegie Mellon
 University), and the Gaussian 82(TM) system (copyright 1983,
 Carnegie Mellon University). Gaussian is a federally registered
 trademark of Gaussian, Inc.
  
 This software contains proprietary and confidential information,
 including trade secrets, belonging to Gaussian, Inc.
  
 This software is provided under written license and may be
 used, copied, transmitted, or stored only in accord with that
 written license.
  
 The following legend is applicable only to US Government
 contracts under FAR:
  
                    RESTRICTED RIGHTS LEGEND
  
 Use, reproduction and disclosure by the US Government is
 subject to restrictions as set forth in subparagraphs (a)
 and (c) of the Commercial Computer Software - Restricted
 Rights clause in FAR 52.227-19.
  
 Gaussian, Inc.
 340 Quinnipiac St., Bldg. 40, Wallingford CT 06492
  
  
 ---------------------------------------------------------------
 Warning -- This program may not be used in any manner that
 competes with the business of Gaussian, Inc. or will provide
 assistance to any competitor of Gaussian, Inc.  The licensee
 of this program is prohibited from giving any competitor of
 Gaussian, Inc. access to this program.  By using this program,
 the user acknowledges that Gaussian, Inc. is engaged in the
 business of creating and licensing software in the field of
 computational chemistry and represents and warrants to the
 licensee that it is not a competitor of Gaussian, Inc. and that
 it will not use this program in any manner prohibited above.
 ---------------------------------------------------------------
  

 Cite this work as:
 Gaussian 16, Revision A.03,
 M. J. Frisch, G. W. Trucks, H. B. Schlegel, G. E. Scuseria, 
 M. A. Robb, J. R. Cheeseman, G. Scalmani, V. Barone, 
 G. A. Petersson, H. Nakatsuji, X. Li, M. Caricato, A. V. Marenich, 
 J. Bloino, B. G. Janesko, R. Gomperts, B. Mennucci, H. P. Hratchian, 
 J. V. Ortiz, A. F. Izmaylov, J. L. Sonnenberg, D. Williams-Young, 
 F. Ding, F. Lipparini, F. Egidi, J. Goings, B. Peng, A. Petrone, 
 T. Henderson, D. Ranasinghe, V. G. Zakrzewski, J. Gao, N. Rega, 
 G. Zheng, W. Liang, M. Hada, M. Ehara, K. Toyota, R. Fukuda, 
 J. Hasegawa, M. Ishida, T. Nakajima, Y. Honda, O. Kitao, H. Nakai, 
 T. Vreven, K. Throssell, J. A. Montgomery, Jr., J. E. Peralta, 
 F. Ogliaro, M. J. Bearpark, J. J. Heyd, E. N. Brothers, K. N. Kudin, 
 V. N. Staroverov, T. A. Keith, R. Kobayashi, J. Normand, 
 K. Raghavachari, A. P. Rendell, J. C. Burant, S. S. Iyengar, 
 J. Tomasi, M. Cossi, J. M. Millam, M. Klene, C. Adamo, R. Cammi, 
 J. W. Ochterski, R. L. Martin, K. Morokuma, O. Farkas, 
 J. B. Foresman, and D. J. Fox, Gaussian, Inc., Wallingford CT, 2016.
 
 ******************************************
 Gaussian 16:  ES64L-G16RevA.03 25-Dec-2016
                14-Jul-2019 
 ******************************************
 %nproc=4
 Will use up to    4 processors via shared memory.
 %Mem=4GB
 -------------------------------------
 # td=(NStates=1) CAM-B3LYP/6-31G(d,p)
 -------------------------------------
 1/38=1,172=1/1;
 2/12=2,17=6,18=5,40=1/2;
 3/5=1,6=6,7=101,11=9,25=1,30=1,74=-40/1,2,3,8;
 4//1;
 5/5=2,38=5/2;
 8/6=1,10=2,108=1/1;
 9/41=1,42=1,70=2/14;
 6/7=2,8=2,9=2,10=2/1;
 99/5=1,9=1/99;
 --
 TD
 --
 Symbolic Z-matrix:
 Charge =  0 Multiplicity = 1
 8                    -14.23185  -1.8804    0.50543 
 8                     14.80511   0.60278   0.33235 
 6                    -11.65372   0.0073    1.36128 
 6                    -10.96173   0.22073  -0.01923 
 6                    -11.99248  -1.47009   1.45414 
 6                    -12.82653  -2.17909   0.33939 
 6                    -11.59886  -0.49327  -1.2114 
 6                     11.13515   0.99629   1.02146 
 6                    -10.86366   0.4196    2.50235 
 6                    -13.00284   0.82625   1.32236 
 6                     12.51798   1.47413   0.72978 
 6                    -12.38865  -1.50445  -1.02068 
 6                     13.46792   0.37314   0.39006 
 6                     10.68818   0.00412  -0.04512 
 6                    -9.49574  -0.1367   -0.02073 
 6                     12.93857  -0.24502  -0.83264 
 6                     11.5407  -0.54762  -0.87278 
 6                     10.2321   2.30463   1.08141 
 6                     11.12849   0.31006   2.4533 
 6                    -11.42102   0.08221  -2.49256 
 6                    -8.49043   0.79694  -0.14352 
 6                     9.21827  -0.3547    0.0357 
 6                     11.21159  -1.44057  -1.94362 
 6                    -7.06036   0.47424  -0.14866 
 6                     8.75645  -1.60644   0.05399 
 6                    -6.69699  -0.98106   0.0361 
 6                     7.43117  -2.08047  -0.03135 
 6                    -6.13103   1.54053  -0.2721 
 6                     7.14594  -3.55535   0.2197 
 6                     6.35937  -1.22383  -0.19731 
 6                    -4.75646   1.39337  -0.42494 
 6                     5.00448  -1.49803  -0.20034 
 6                    -4.03786   2.55419  -0.58687 
 6                    -2.66402   2.70527  -0.76906 
 6                     4.04012  -0.63147  -0.27307 
 6                     2.67765  -0.77268  -0.31206 
 6                    -1.98656   4.16813  -0.87123 
 6                    -1.79102   1.58861  -0.64932 
 6                     1.82641   0.2943   -0.49827 
 6                     2.05158  -2.15465  -0.0912 
 6                    -0.39511   1.61447  -0.60759 
 6                     0.3916    0.43762  -0.35845 
 1                    -11.08649   1.36314  -0.01079 
 1                    -12.5418  -1.70343   2.48939 
 1                    -11.04658  -2.06032   1.47358 
 1                    -12.78639  -3.3231    0.35859 
 1                    -10.11412  -0.43604   2.71475 
 1                    -10.34404   1.58764   2.60553 
 1                    -11.64792   0.4758    3.30457 
 1                    -13.66646   0.63196   0.56668 
 1                    -13.52401   0.55783   2.28164 
 1                    -12.88338   1.83      1.33069 
 1                     12.66893   2.22585  -0.30677 
 1                     12.86534   2.11312   1.4024 
 1                    -12.74094  -1.93703  -2.07309 
 1                     13.2484  -0.56108   1.17384 
 1                    -9.27327  -1.22921  -0.06207 
 1                     13.60782  -1.05604  -1.0744 
 1                     13.24682   0.38181  -1.80424 
 1                     9.25636   2.1339    1.18278 
 1                     10.18937   2.59828   0.12561 
 1                     10.71641   3.17677   1.60259 
 1                     11.6842  -0.57895   2.78472 
 1                     10.21446  -0.19501   2.62168 
 1                     11.19578   1.13316   3.26379 
 1                    -10.40843   0.39182  -2.95218 
 1                    -11.87298   1.02442  -2.57372 
 1                    -11.80418  -0.5114   -3.34919 
 1                    -14.71668  -2.27971  -0.27235 
 1                     8.46041   0.4365    0.13315 
 1                    -8.8442    1.76266  -0.27659 
 1                     11.35758  -2.64757  -1.96369 
 1                     10.17564  -1.35479  -2.56269 
 1                     11.62685  -1.19013  -2.93704 
 1                     14.91221   1.29738   1.13748 
 1                     9.65143  -2.41556  -0.00733 
 1                    -5.60138  -0.82764   0.10693 
 1                    -7.12858  -1.32771   0.89343 
 1                    -6.97559  -1.76025  -0.78449 
 1                    -6.40185   2.58449  -0.41166 
 1                     6.27351  -3.62077   1.09707 
 1                     6.59464  -3.76169  -0.65377 
 1                     7.97235  -4.15974   0.44772 
 1                     6.59956  -0.16726  -0.41596 
 1                    -4.31256   0.48133  -0.33366 
 1                     4.80696  -2.53845   0.2189 
 1                    -4.66696   3.44415  -0.88165 
 1                     4.35598   0.35119  -0.68929 
 1                    -1.30546   4.10107  -1.83188 
 1                    -1.35821   4.64453   0.06529 
 1                    -2.80458   4.94882  -0.98679 
 1                    -2.11974   0.54854  -0.74574 
 1                     2.36934   1.18725  -0.85698 
 1                     2.23917  -2.49556   0.84008 
 1                     1.06023  -2.27516  -0.21689 
 1                     2.71409  -2.93865  -0.52268 
 1                     0.26807   2.52809  -0.60525 
 1                    -0.17799  -0.49307  -0.26973 
 
 Stoichiometry    C40H56O2
 Framework group  C1[X(C40H56O2)]
 Deg. of freedom   288
 Full point group                 C1      NOp   1
 Largest Abelian subgroup         C1      NOp   1
 Largest concise Abelian subgroup C1      NOp   1
                         Standard orientation:                         
 ---------------------------------------------------------------------
 Center     Atomic      Atomic             Coordinates (Angstroms)
 Number     Number       Type             X           Y           Z
 ---------------------------------------------------------------------
      1          8           0      -14.232948   -1.876174    0.499588
      2          8           0       14.805362    0.591764    0.335075
      3          6           0      -11.653522    0.004340    1.367259
      4          6           0      -10.961789    0.226559   -0.011990
      5          6           0      -11.993097   -1.473442    1.450394
      6          6           0      -12.827838   -2.174546    0.331179
      7          6           0      -11.599635   -0.479146   -1.208703
      8          6           0       11.135805    0.982753    1.027788
      9          6           0      -10.862921    0.408610    2.510824
     10          6           0      -13.002188    0.824290    1.334154
     11          6           0       12.518828    1.461739    0.738909
     12          6           0      -12.389949   -1.491128   -1.024500
     13          6           0       13.468055    0.362505    0.391616
     14          6           0       10.687989   -0.002055   -0.045244
     15          6           0       -9.495996   -0.131679   -0.016271
     16          6           0       12.938030   -0.247224   -0.835016
     17          6           0       11.539974   -0.548763   -0.876787
     18          6           0       10.233513    2.291172    1.096677
     19          6           0       11.129151    0.287025    2.455031
     20          6           0      -11.421817    0.104733   -2.486064
     21          6           0       -8.490189    0.802192   -0.133124
     22          6           0        9.217898   -0.360582    0.033596
     23          6           0       11.210075   -1.434388   -1.953449
     24          6           0       -7.060305    0.478729   -0.140799
     25          6           0        8.755382   -1.612153    0.043690
     26          6           0       -6.697711   -0.977973    0.034180
     27          6           0        7.429811   -2.084860   -0.044440
     28          6           0       -6.130413    1.545286   -0.257406
     29          6           0        7.143813   -3.561214    0.196887
     30          6           0        6.358451   -1.226535   -0.204408
     31          6           0       -4.755964    1.398377   -0.411601
     32          6           0        5.003404   -1.499942   -0.208886
     33          6           0       -4.036748    2.559839   -0.566006
     34          6           0       -2.662874    2.711353   -0.747563
     35          6           0        4.039510   -0.632382   -0.275590
     36          6           0        2.676957   -0.772561   -0.315144
     37          6           0       -1.984617    4.174482   -0.840191
     38          6           0       -1.790472    1.593435   -0.635487
     39          6           0        1.826266    0.296114   -0.494029
     40          6           0        2.050161   -2.155613   -0.103303
     41          6           0       -0.394542    1.618233   -0.593971
     42          6           0        0.391577    0.439303   -0.352868
     43          1           0      -11.085894    1.368951    0.004071
     44          1           0      -12.542262   -1.713347    2.484214
     45          1           0      -11.047522   -2.064314    1.465649
     46          1           0      -12.788345   -3.318684    0.342768
     47          1           0      -10.113805   -0.448850    2.717331
     48          1           0      -10.342621    1.575644    2.621620
     49          1           0      -11.646937    0.459915    3.313622
     50          1           0      -13.666123    0.635401    0.577381
     51          1           0      -13.523252    0.549793    2.291770
     52          1           0      -12.882160    1.827894    1.349122
     53          1           0       12.669928    2.220247   -0.292666
     54          1           0       12.866732    2.096048    1.415664
     55          1           0      -12.742764   -1.916508   -2.079662
     56          1           0       13.248225   -0.576781    1.169231
     57          1           0       -9.274155   -1.224017   -0.064928
     58          1           0       13.606751   -1.056993   -1.082347
     59          1           0       13.246370    0.385874   -1.802514
     60          1           0        9.257707    2.120325    1.197179
     61          1           0       10.190692    2.591194    0.142860
     62          1           0       10.718451    3.159559    1.623504
     63          1           0       11.684447   -0.604476    2.780392
     64          1           0       10.214875   -0.218641    2.620300
     65          1           0       11.197121    1.104683    3.270960
     66          1           0      -10.409184    0.416820   -2.943894
     67          1           0      -11.873267    1.047714   -2.560840
     68          1           0      -11.805545   -0.482955   -3.346516
     69          1           0      -14.718219   -2.270033   -0.280692
     70          1           0        8.460509    0.430386    0.136502
     71          1           0       -8.843455    1.768967   -0.259681
     72          1           0       11.355379   -2.641309   -1.981575
     73          1           0       10.174006   -1.343918   -2.571650
     74          1           0       11.625209   -1.177590   -2.945292
     75          1           0       14.913069    1.280938    1.144772
     76          1           0        9.649891   -2.421355   -0.023248
     77          1           0       -5.601999   -0.825646    0.105730
     78          1           0       -7.129265   -1.330078    0.889310
     79          1           0       -6.976974   -1.751543   -0.791487
     80          1           0       -6.400681    2.590302   -0.389956
     81          1           0        6.271586   -3.631969    1.074039
     82          1           0        6.592160   -3.761436   -0.677792
     83          1           0        7.969942   -4.167574    0.420659
     84          1           0        6.599174   -0.168672   -0.416099
     85          1           0       -4.312558    0.485496   -0.326501
     86          1           0        4.805413   -2.543020    0.203487
     87          1           0       -4.665433    3.452096   -0.854690
     88          1           0        4.355810    0.352851   -0.685358
     89          1           0       -1.303817    4.113425   -1.801457
     90          1           0       -1.355747    4.644294    0.099304
     91          1           0       -2.802230    4.956378   -0.950337
     92          1           0       -2.119809    0.554213   -0.738725
     93          1           0        2.369597    1.191125   -0.846949
     94          1           0        2.237814   -2.502807    0.825639
     95          1           0        1.058712   -2.274726   -0.229526
     96          1           0        2.712118   -2.937104   -0.540165
     97          1           0        0.269159    2.531444   -0.585734
     98          1           0       -0.178519   -0.491630   -0.270178
 ---------------------------------------------------------------------
 Rotational constants (GHZ):           0.2459729           0.0098895           0.0097304
 Standard basis: 6-31G(d,p) (6D, 7F)
 There are   910 symmetry adapted cartesian basis functions of A   symmetry.
 There are   910 symmetry adapted basis functions of A   symmetry.
   910 basis functions,  1568 primitive gaussians,   910 cartesian basis functions
   156 alpha electrons      156 beta electrons
       nuclear repulsion energy      4024.7194261420 Hartrees.
 NAtoms=   98 NActive=   98 NUniq=   98 SFac= 1.00D+00 NAtFMM=   60 NAOKFM=T Big=T
 Integral buffers will be    131072 words long.
 Raffenetti 1 integral format.
 Two-electron integral symmetry is turned on.
 One-electron integrals computed using PRISM.
 NBasis=   910 RedAO= T EigKep=  7.43D-04  NBF=   910
 NBsUse=   910 1.00D-06 EigRej= -1.00D+00 NBFU=   910
 ExpMin= 1.61D-01 ExpMax= 5.48D+03 ExpMxC= 8.25D+02 IAcc=3 IRadAn=         5 AccDes= 0.00D+00
 Harris functional with IExCor=20419 and IRadAn=       5 diagonalized for initial guess.
 HarFok:  IExCor=20419 AccDes= 0.00D+00 IRadAn=         5 IDoV= 1 UseB2=F ITyADJ=14
 ICtDFT=  3500011 ScaDFX=  1.000000  1.000000  1.000000  1.000000
 FoFCou: FMM=F IPFlag=           0 FMFlag=      100000 FMFlg1=        2001
         NFxFlg=           0 DoJE=T BraDBF=F KetDBF=T FulRan=T
         wScrn=  0.000000 ICntrl=       500 IOpCl=  0 I1Cent=   200000004 NGrid=           0
         NMat0=    1 NMatS0=      1 NMatT0=    0 NMatD0=    1 NMtDS0=    0 NMtDT0=    0
 Petite list used in FoFCou.
 Requested convergence on RMS density matrix=1.00D-08 within 128 cycles.
 Requested convergence on MAX density matrix=1.00D-06.
 Requested convergence on             energy=1.00D-06.
 No special actions if energy rises.
 Integral accuracy reduced to 1.0D-05 until final iterations.
 Initial convergence to 1.0D-05 achieved.  Increase integral accuracy.
 SCF Done:  E(RCAM-B3LYP) =  -1706.94778559     A.U. after   15 cycles
            NFock= 15  Conv=0.61D-08     -V/T= 2.0095
 DoSCS=F DFT=T ScalE2(SS,OS)=  1.000000  1.000000
 ExpMin= 1.61D-01 ExpMax= 5.48D+03 ExpMxC= 8.25D+02 IAcc=3 IRadAn=         5 AccDes= 0.00D+00
 HarFok:  IExCor=  205 AccDes= 0.00D+00 IRadAn=         5 IDoV=-2 UseB2=F ITyADJ=14
 ICtDFT= 12500011 ScaDFX=  1.000000  1.000000  1.000000  1.000000
 GSVD:  LWork=       -2100 too small for GESVD, short by        9450 words or        9450 for optimal perf.
 Range of M.O.s used for correlation:    43   910
 NBasis=   910 NAE=   156 NBE=   156 NFC=    42 NFV=     0
 NROrb=    868 NOA=   114 NOB=   114 NVA=   754 NVB=   754
 Orbital symmetries:
       Occupied  (A) (A) (A) (A) (A) (A) (A) (A) (A) (A) (A) (A)
                 (A) (A) (A) (A) (A) (A) (A) (A) (A) (A) (A) (A)
                 (A) (A) (A) (A) (A) (A) (A) (A) (A) (A) (A) (A)
                 (A) (A) (A) (A) (A) (A) (A) (A) (A) (A) (A) (A)
                 (A) (A) (A) (A) (A) (A) (A) (A) (A) (A) (A) (A)
                 (A) (A) (A) (A) (A) (A) (A) (A) (A) (A) (A) (A)
                 (A) (A) (A) (A) (A) (A) (A) (A) (A) (A) (A) (A)
                 (A) (A) (A) (A) (A) (A) (A) (A) (A) (A) (A) (A)
                 (A) (A) (A) (A) (A) (A) (A) (A) (A) (A) (A) (A)
                 (A) (A) (A) (A) (A) (A) (A) (A) (A) (A) (A) (A)
                 (A) (A) (A) (A) (A) (A) (A) (A) (A) (A) (A) (A)
                 (A) (A) (A) (A) (A) (A) (A) (A) (A) (A) (A) (A)
                 (A) (A) (A) (A) (A) (A) (A) (A) (A) (A) (A) (A)
       Virtual   (A) (A) (A) (A) (A) (A) (A) (A) (A) (A) (A) (A)
                 (A) (A) (A) (A) (A) (A) (A) (A) (A) (A) (A) (A)
                 (A) (A) (A) (A) (A) (A) (A) (A) (A) (A) (A) (A)
                 (A) (A) (A) (A) (A) (A) (A) (A) (A) (A) (A) (A)
                 (A) (A) (A) (A) (A) (A) (A) (A) (A) (A) (A) (A)
                 (A) (A) (A) (A) (A) (A) (A) (A) (A) (A) (A) (A)
                 (A) (A) (A) (A) (A) (A) (A) (A) (A) (A) (A) (A)
                 (A) (A) (A) (A) (A) (A) (A) (A) (A) (A) (A) (A)
                 (A) (A) (A) (A) (A) (A) (A) (A) (A) (A) (A) (A)
                 (A) (A) (A) (A) (A) (A) (A) (A) (A) (A) (A) (A)
                 (A) (A) (A) (A) (A) (A) (A) (A) (A) (A) (A) (A)
                 (A) (A) (A) (A) (A) (A) (A) (A) (A) (A) (A) (A)
                 (A) (A) (A) (A) (A) (A) (A) (A) (A) (A) (A) (A)
                 (A) (A) (A) (A) (A) (A) (A) (A) (A) (A) (A) (A)
                 (A) (A) (A) (A) (A) (A) (A) (A) (A) (A) (A) (A)
                 (A) (A) (A) (A) (A) (A) (A) (A) (A) (A) (A) (A)
                 (A) (A) (A) (A) (A) (A) (A) (A) (A) (A) (A) (A)
                 (A) (A) (A) (A) (A) (A) (A) (A) (A) (A) (A) (A)
                 (A) (A) (A) (A) (A) (A) (A) (A) (A) (A) (A) (A)
                 (A) (A) (A) (A) (A) (A) (A) (A) (A) (A) (A) (A)
                 (A) (A) (A) (A) (A) (A) (A) (A) (A) (A) (A) (A)
                 (A) (A) (A) (A) (A) (A) (A) (A) (A) (A) (A) (A)
                 (A) (A) (A) (A) (A) (A) (A) (A) (A) (A) (A) (A)
                 (A) (A) (A) (A) (A) (A) (A) (A) (A) (A) (A) (A)
                 (A) (A) (A) (A) (A) (A) (A) (A) (A) (A) (A) (A)
                 (A) (A) (A) (A) (A) (A) (A) (A) (A) (A) (A) (A)
                 (A) (A) (A) (A) (A) (A) (A) (A) (A) (A) (A) (A)
                 (A) (A) (A) (A) (A) (A) (A) (A) (A) (A) (A) (A)
                 (A) (A) (A) (A) (A) (A) (A) (A) (A) (A) (A) (A)
                 (A) (A) (A) (A) (A) (A) (A) (A) (A) (A) (A) (A)
                 (A) (A) (A) (A) (A) (A) (A) (A) (A) (A) (A) (A)
                 (A) (A) (A) (A) (A) (A) (A) (A) (A) (A) (A) (A)
                 (A) (A) (A) (A) (A) (A) (A) (A) (A) (A) (A) (A)
                 (A) (A) (A) (A) (A) (A) (A) (A) (A) (A) (A) (A)
                 (A) (A) (A) (A) (A) (A) (A) (A) (A) (A) (A) (A)
                 (A) (A) (A) (A) (A) (A) (A) (A) (A) (A) (A) (A)
                 (A) (A) (A) (A) (A) (A) (A) (A) (A) (A) (A) (A)
                 (A) (A) (A) (A) (A) (A) (A) (A) (A) (A) (A) (A)
                 (A) (A) (A) (A) (A) (A) (A) (A) (A) (A) (A) (A)
                 (A) (A) (A) (A) (A) (A) (A) (A) (A) (A) (A) (A)
                 (A) (A) (A) (A) (A) (A) (A) (A) (A) (A) (A) (A)
                 (A) (A) (A) (A) (A) (A) (A) (A) (A) (A) (A) (A)
                 (A) (A) (A) (A) (A) (A) (A) (A) (A) (A) (A) (A)
                 (A) (A) (A) (A) (A) (A) (A) (A) (A) (A) (A) (A)
                 (A) (A) (A) (A) (A) (A) (A) (A) (A) (A) (A) (A)
                 (A) (A) (A) (A) (A) (A) (A) (A) (A) (A) (A) (A)
                 (A) (A) (A) (A) (A) (A) (A) (A) (A) (A) (A) (A)
                 (A) (A) (A) (A) (A) (A) (A) (A) (A) (A) (A) (A)
                 (A) (A) (A) (A) (A) (A) (A) (A) (A) (A) (A) (A)
                 (A) (A) (A) (A) (A) (A) (A) (A) (A) (A) (A) (A)
                 (A) (A) (A) (A) (A) (A) (A) (A) (A) (A) (A) (A)
                 (A) (A) (A) (A) (A) (A) (A) (A) (A) (A) (A) (A)
                 (A) (A) (A) (A) (A) (A) (A) (A) (A) (A) (A) (A)
                 (A) (A) (A) (A) (A) (A) (A) (A) (A) (A) (A) (A)
                 (A) (A) (A) (A) (A) (A) (A) (A) (A) (A) (A) (A)
                 (A) (A) (A) (A) (A) (A) (A) (A) (A) (A) (A) (A)
                 (A) (A) (A) (A) (A) (A) (A) (A) (A) (A) (A) (A)
                 (A) (A) (A) (A) (A) (A) (A) (A) (A) (A) (A) (A)
                 (A) (A) (A) (A) (A) (A) (A) (A) (A) (A) (A) (A)
                 (A) (A) (A) (A) (A) (A) (A) (A) (A) (A) (A) (A)
                 (A) (A) (A) (A) (A) (A) (A) (A) (A) (A) (A) (A)
                 (A) (A) (A) (A) (A) (A) (A) (A) (A) (A) (A) (A)
                 (A) (A) (A) (A) (A) (A) (A) (A) (A) (A)
     4 initial guesses have been made.
 Convergence on wavefunction:    0.001000000000000
 Iteration     1 Dimension     4 NMult     0 NNew      4
 CISAX will form     4 AO SS matrices at one time.
 Iteration     2 Dimension     6 NMult     4 NNew      2
 Iteration     3 Dimension     8 NMult     6 NNew      2
 Iteration     4 Dimension    10 NMult     8 NNew      2
 Iteration     5 Dimension    12 NMult    10 NNew      2
 Iteration     6 Dimension    14 NMult    12 NNew      2
 ***********************************************************************
 Excited states from <AA,BB:AA,BB> singles matrix:
 ***********************************************************************
 
 Ground to excited state transition densities written to RWF  633
 Ground to excited state transition electric dipole moments (Au):
       state          X           Y           Z        Dip. S.      Osc.
         1        -7.7506      0.9974     -0.0403     61.0683      2.9981
 Ground to excited state transition velocity dipole moments (Au):
       state          X           Y           Z        Dip. S.      Osc.
         1         0.5542     -0.0724      0.0027      0.3124      2.8280
 Ground to excited state transition magnetic dipole moments (Au):
       state          X           Y           Z
         1        -0.1691     -0.6547     -1.5715
 Ground to excited state transition velocity quadrupole moments (Au):
       state          XX          YY          ZZ          XY          XZ          YZ
         1        -0.3211     -0.0025     -0.0211     -0.5306     -0.0820      0.0650
 <0|del|b> * <b|rxdel|0> + <0|del|b> * <b|delr+rdel|0>
 Rotatory Strengths (R) in cgs (10**-40 erg-esu-cm/Gauss)
       state          XX          YY          ZZ    R(velocity)    E-M Angle
         1       171.7948   -290.5411   -366.8373   -161.8612       93.03
 1/2[<0|r|b>*<b|rxdel|0> + (<0|rxdel|b>*<b|r|0>)*]
 Rotatory Strengths (R) in cgs (10**-40 erg-esu-cm/Gauss)
       state          XX          YY          ZZ     R(length)
         1      -926.7731    461.8285    -44.8325   -169.9257
  1/2[<0|del|b>*<b|r|0> + (<0|r|b>*<b|del|0>)*] (Au)
       state          X           Y           Z        Dip. S.   Osc.(frdel)
         1        -4.2955     -0.0722     -0.0001      4.3677      2.9118

 Excitation energies and oscillator strengths:
 
 Excited State   1:      Singlet-A      2.0039 eV  618.72 nm  f=2.9981  <S**2>=0.000
     155 ->158        -0.14061
     156 ->157         0.69670
     156 <-157        -0.10063
 This state for optimization and/or second-order correction.
 Total Energy, E(TD-HF/TD-DFT) =  -1706.87414445    
 Copying the excited state density for this state as the 1-particle RhoCI density.
 SavETr:  write IOETrn=   770 NScale= 10 NData=  16 NLR=1 NState=    1 LETran=      28.

 **********************************************************************

            Population analysis using the SCF density.

 **********************************************************************

 Orbital symmetries:
       Occupied  (A) (A) (A) (A) (A) (A) (A) (A) (A) (A) (A) (A)
                 (A) (A) (A) (A) (A) (A) (A) (A) (A) (A) (A) (A)
                 (A) (A) (A) (A) (A) (A) (A) (A) (A) (A) (A) (A)
                 (A) (A) (A) (A) (A) (A) (A) (A) (A) (A) (A) (A)
                 (A) (A) (A) (A) (A) (A) (A) (A) (A) (A) (A) (A)
                 (A) (A) (A) (A) (A) (A) (A) (A) (A) (A) (A) (A)
                 (A) (A) (A) (A) (A) (A) (A) (A) (A) (A) (A) (A)
                 (A) (A) (A) (A) (A) (A) (A) (A) (A) (A) (A) (A)
                 (A) (A) (A) (A) (A) (A) (A) (A) (A) (A) (A) (A)
                 (A) (A) (A) (A) (A) (A) (A) (A) (A) (A) (A) (A)
                 (A) (A) (A) (A) (A) (A) (A) (A) (A) (A) (A) (A)
                 (A) (A) (A) (A) (A) (A) (A) (A) (A) (A) (A) (A)
                 (A) (A) (A) (A) (A) (A) (A) (A) (A) (A) (A) (A)
       Virtual   (A) (A) (A) (A) (A) (A) (A) (A) (A) (A) (A) (A)
                 (A) (A) (A) (A) (A) (A) (A) (A) (A) (A) (A) (A)
                 (A) (A) (A) (A) (A) (A) (A) (A) (A) (A) (A) (A)
                 (A) (A) (A) (A) (A) (A) (A) (A) (A) (A) (A) (A)
                 (A) (A) (A) (A) (A) (A) (A) (A) (A) (A) (A) (A)
                 (A) (A) (A) (A) (A) (A) (A) (A) (A) (A) (A) (A)
                 (A) (A) (A) (A) (A) (A) (A) (A) (A) (A) (A) (A)
                 (A) (A) (A) (A) (A) (A) (A) (A) (A) (A) (A) (A)
                 (A) (A) (A) (A) (A) (A) (A) (A) (A) (A) (A) (A)
                 (A) (A) (A) (A) (A) (A) (A) (A) (A) (A) (A) (A)
                 (A) (A) (A) (A) (A) (A) (A) (A) (A) (A) (A) (A)
                 (A) (A) (A) (A) (A) (A) (A) (A) (A) (A) (A) (A)
                 (A) (A) (A) (A) (A) (A) (A) (A) (A) (A) (A) (A)
                 (A) (A) (A) (A) (A) (A) (A) (A) (A) (A) (A) (A)
                 (A) (A) (A) (A) (A) (A) (A) (A) (A) (A) (A) (A)
                 (A) (A) (A) (A) (A) (A) (A) (A) (A) (A) (A) (A)
                 (A) (A) (A) (A) (A) (A) (A) (A) (A) (A) (A) (A)
                 (A) (A) (A) (A) (A) (A) (A) (A) (A) (A) (A) (A)
                 (A) (A) (A) (A) (A) (A) (A) (A) (A) (A) (A) (A)
                 (A) (A) (A) (A) (A) (A) (A) (A) (A) (A) (A) (A)
                 (A) (A) (A) (A) (A) (A) (A) (A) (A) (A) (A) (A)
                 (A) (A) (A) (A) (A) (A) (A) (A) (A) (A) (A) (A)
                 (A) (A) (A) (A) (A) (A) (A) (A) (A) (A) (A) (A)
                 (A) (A) (A) (A) (A) (A) (A) (A) (A) (A) (A) (A)
                 (A) (A) (A) (A) (A) (A) (A) (A) (A) (A) (A) (A)
                 (A) (A) (A) (A) (A) (A) (A) (A) (A) (A) (A) (A)
                 (A) (A) (A) (A) (A) (A) (A) (A) (A) (A) (A) (A)
                 (A) (A) (A) (A) (A) (A) (A) (A) (A) (A) (A) (A)
                 (A) (A) (A) (A) (A) (A) (A) (A) (A) (A) (A) (A)
                 (A) (A) (A) (A) (A) (A) (A) (A) (A) (A) (A) (A)
                 (A) (A) (A) (A) (A) (A) (A) (A) (A) (A) (A) (A)
                 (A) (A) (A) (A) (A) (A) (A) (A) (A) (A) (A) (A)
                 (A) (A) (A) (A) (A) (A) (A) (A) (A) (A) (A) (A)
                 (A) (A) (A) (A) (A) (A) (A) (A) (A) (A) (A) (A)
                 (A) (A) (A) (A) (A) (A) (A) (A) (A) (A) (A) (A)
                 (A) (A) (A) (A) (A) (A) (A) (A) (A) (A) (A) (A)
                 (A) (A) (A) (A) (A) (A) (A) (A) (A) (A) (A) (A)
                 (A) (A) (A) (A) (A) (A) (A) (A) (A) (A) (A) (A)
                 (A) (A) (A) (A) (A) (A) (A) (A) (A) (A) (A) (A)
                 (A) (A) (A) (A) (A) (A) (A) (A) (A) (A) (A) (A)
                 (A) (A) (A) (A) (A) (A) (A) (A) (A) (A) (A) (A)
                 (A) (A) (A) (A) (A) (A) (A) (A) (A) (A) (A) (A)
                 (A) (A) (A) (A) (A) (A) (A) (A) (A) (A) (A) (A)
                 (A) (A) (A) (A) (A) (A) (A) (A) (A) (A) (A) (A)
                 (A) (A) (A) (A) (A) (A) (A) (A) (A) (A) (A) (A)
                 (A) (A) (A) (A) (A) (A) (A) (A) (A) (A) (A) (A)
                 (A) (A) (A) (A) (A) (A) (A) (A) (A) (A) (A) (A)
                 (A) (A) (A) (A) (A) (A) (A) (A) (A) (A) (A) (A)
                 (A) (A) (A) (A) (A) (A) (A) (A) (A) (A) (A) (A)
                 (A) (A) (A) (A) (A) (A) (A) (A) (A) (A) (A) (A)
                 (A) (A) (A) (A) (A) (A) (A) (A) (A) (A) (A) (A)
                 (A) (A) (A) (A) (A) (A) (A) (A) (A) (A) (A) (A)
                 (A) (A) (A) (A) (A) (A) (A) (A) (A) (A) (A) (A)
                 (A) (A) (A) (A) (A) (A) (A) (A) (A) (A) (A) (A)
                 (A) (A) (A) (A) (A) (A) (A) (A) (A) (A) (A) (A)
                 (A) (A) (A) (A) (A) (A) (A) (A) (A) (A) (A) (A)
                 (A) (A) (A) (A) (A) (A) (A) (A) (A) (A) (A) (A)
                 (A) (A) (A) (A) (A) (A) (A) (A) (A) (A) (A) (A)
                 (A) (A) (A) (A) (A) (A) (A) (A) (A) (A) (A) (A)
                 (A) (A) (A) (A) (A) (A) (A) (A) (A) (A) (A) (A)
                 (A) (A) (A) (A) (A) (A) (A) (A) (A) (A) (A) (A)
                 (A) (A) (A) (A) (A) (A) (A) (A) (A) (A) (A) (A)
                 (A) (A) (A) (A) (A) (A) (A) (A) (A) (A)
 The electronic state is 1-A.
 Alpha  occ. eigenvalues --  -19.22980 -19.21091 -10.32642 -10.30105 -10.28651
 Alpha  occ. eigenvalues --  -10.28427 -10.28304 -10.28027 -10.27355 -10.27285
 Alpha  occ. eigenvalues --  -10.27119 -10.27094 -10.26703 -10.26582 -10.26521
 Alpha  occ. eigenvalues --  -10.26510 -10.26497 -10.26416 -10.26323 -10.26313
 Alpha  occ. eigenvalues --  -10.26299 -10.26285 -10.26173 -10.26058 -10.26032
 Alpha  occ. eigenvalues --  -10.25980 -10.25959 -10.25856 -10.25805 -10.25769
 Alpha  occ. eigenvalues --  -10.25719 -10.25595 -10.25317 -10.25297 -10.25277
 Alpha  occ. eigenvalues --  -10.25272 -10.24806 -10.24618 -10.24384 -10.23622
 Alpha  occ. eigenvalues --  -10.23480 -10.22038  -1.10996  -1.08050  -0.94860
 Alpha  occ. eigenvalues --   -0.93981  -0.92816  -0.91968  -0.90618  -0.89530
 Alpha  occ. eigenvalues --   -0.88437  -0.87895  -0.87203  -0.85819  -0.84276
 Alpha  occ. eigenvalues --   -0.83185  -0.81844  -0.80647  -0.80487  -0.78526
 Alpha  occ. eigenvalues --   -0.77572  -0.76788  -0.76492  -0.76128  -0.76064
 Alpha  occ. eigenvalues --   -0.75966  -0.75141  -0.74416  -0.72977  -0.70365
 Alpha  occ. eigenvalues --   -0.69095  -0.67533  -0.66281  -0.65372  -0.64896
 Alpha  occ. eigenvalues --   -0.63846  -0.62467  -0.61883  -0.61045  -0.60503
 Alpha  occ. eigenvalues --   -0.59597  -0.58283  -0.58070  -0.57612  -0.56929
 Alpha  occ. eigenvalues --   -0.56115  -0.55354  -0.55000  -0.54768  -0.54086
 Alpha  occ. eigenvalues --   -0.53467  -0.52780  -0.52479  -0.52005  -0.51060
 Alpha  occ. eigenvalues --   -0.50827  -0.50484  -0.50309  -0.49440  -0.49156
 Alpha  occ. eigenvalues --   -0.48645  -0.48452  -0.48229  -0.47772  -0.47690
 Alpha  occ. eigenvalues --   -0.47447  -0.47252  -0.47155  -0.47031  -0.46561
 Alpha  occ. eigenvalues --   -0.46223  -0.45844  -0.45470  -0.45200  -0.44862
 Alpha  occ. eigenvalues --   -0.44805  -0.44493  -0.44381  -0.43777  -0.43719
 Alpha  occ. eigenvalues --   -0.43123  -0.42558  -0.42246  -0.41992  -0.41692
 Alpha  occ. eigenvalues --   -0.41581  -0.41411  -0.41268  -0.41183  -0.40441
 Alpha  occ. eigenvalues --   -0.40098  -0.39993  -0.39733  -0.39650  -0.39093
 Alpha  occ. eigenvalues --   -0.38717  -0.38639  -0.38415  -0.37989  -0.37682
 Alpha  occ. eigenvalues --   -0.37335  -0.36845  -0.36542  -0.36221  -0.35926
 Alpha  occ. eigenvalues --   -0.35647  -0.35050  -0.33863  -0.32591  -0.31609
 Alpha  occ. eigenvalues --   -0.30689  -0.30094  -0.29288  -0.27175  -0.23639
 Alpha  occ. eigenvalues --   -0.19176
 Alpha virt. eigenvalues --   -0.06542  -0.01389   0.02854   0.05903   0.07158
 Alpha virt. eigenvalues --    0.08561   0.10199   0.10943   0.12003   0.12614
 Alpha virt. eigenvalues --    0.13007   0.13262   0.13469   0.13753   0.13981
 Alpha virt. eigenvalues --    0.14229   0.14512   0.14767   0.14817   0.14959
 Alpha virt. eigenvalues --    0.15634   0.15970   0.16258   0.16494   0.16934
 Alpha virt. eigenvalues --    0.17325   0.17351   0.17449   0.17939   0.18232
 Alpha virt. eigenvalues --    0.18290   0.18699   0.18922   0.19206   0.19580
 Alpha virt. eigenvalues --    0.20117   0.20220   0.20280   0.20712   0.20807
 Alpha virt. eigenvalues --    0.21116   0.21204   0.21347   0.21559   0.21729
 Alpha virt. eigenvalues --    0.21924   0.22314   0.22552   0.22689   0.23432
 Alpha virt. eigenvalues --    0.23612   0.24221   0.24435   0.24658   0.24773
 Alpha virt. eigenvalues --    0.24929   0.25451   0.25489   0.26061   0.26375
 Alpha virt. eigenvalues --    0.26571   0.27046   0.27153   0.27494   0.27902
 Alpha virt. eigenvalues --    0.28127   0.28309   0.28715   0.28844   0.29645
 Alpha virt. eigenvalues --    0.29869   0.30108   0.30206   0.30317   0.30842
 Alpha virt. eigenvalues --    0.31725   0.31912   0.32063   0.32213   0.33423
 Alpha virt. eigenvalues --    0.33589   0.33882   0.34116   0.35437   0.35587
 Alpha virt. eigenvalues --    0.35810   0.36320   0.37029   0.38155   0.39090
 Alpha virt. eigenvalues --    0.39345   0.40353   0.40583   0.41758   0.42209
 Alpha virt. eigenvalues --    0.42801   0.43864   0.44611   0.45393   0.45876
 Alpha virt. eigenvalues --    0.46569   0.47603   0.47825   0.49206   0.49863
 Alpha virt. eigenvalues --    0.50030   0.51932   0.52099   0.53555   0.54220
 Alpha virt. eigenvalues --    0.54542   0.55007   0.55830   0.55977   0.56190
 Alpha virt. eigenvalues --    0.56640   0.57361   0.57502   0.57847   0.58424
 Alpha virt. eigenvalues --    0.58721   0.59253   0.59912   0.60197   0.60235
 Alpha virt. eigenvalues --    0.60755   0.61028   0.61540   0.61707   0.62196
 Alpha virt. eigenvalues --    0.62328   0.62469   0.62725   0.63116   0.63586
 Alpha virt. eigenvalues --    0.63798   0.64070   0.64226   0.65279   0.65701
 Alpha virt. eigenvalues --    0.65890   0.66073   0.66259   0.66790   0.66936
 Alpha virt. eigenvalues --    0.67268   0.67275   0.67645   0.67783   0.68216
 Alpha virt. eigenvalues --    0.68323   0.68961   0.69047   0.69774   0.70014
 Alpha virt. eigenvalues --    0.70743   0.71208   0.71383   0.72344   0.72398
 Alpha virt. eigenvalues --    0.72533   0.72638   0.73016   0.73468   0.73607
 Alpha virt. eigenvalues --    0.74140   0.74908   0.75202   0.75656   0.76096
 Alpha virt. eigenvalues --    0.76466   0.76606   0.77040   0.77169   0.77574
 Alpha virt. eigenvalues --    0.77868   0.78070   0.78539   0.78703   0.78815
 Alpha virt. eigenvalues --    0.79129   0.79694   0.80107   0.81158   0.81363
 Alpha virt. eigenvalues --    0.81936   0.82039   0.82300   0.82450   0.82923
 Alpha virt. eigenvalues --    0.83047   0.83730   0.84006   0.84608   0.85032
 Alpha virt. eigenvalues --    0.85209   0.85338   0.85771   0.86003   0.86196
 Alpha virt. eigenvalues --    0.86666   0.87097   0.87354   0.87545   0.87727
 Alpha virt. eigenvalues --    0.87970   0.88115   0.88667   0.88725   0.88980
 Alpha virt. eigenvalues --    0.89342   0.89624   0.89702   0.90071   0.90682
 Alpha virt. eigenvalues --    0.90820   0.90958   0.91381   0.91559   0.91677
 Alpha virt. eigenvalues --    0.91909   0.92140   0.92356   0.92878   0.93436
 Alpha virt. eigenvalues --    0.93724   0.94058   0.94228   0.94548   0.94838
 Alpha virt. eigenvalues --    0.95135   0.95323   0.95407   0.95967   0.96233
 Alpha virt. eigenvalues --    0.96304   0.96899   0.97078   0.97314   0.98018
 Alpha virt. eigenvalues --    0.98161   0.98406   0.98572   0.99243   0.99476
 Alpha virt. eigenvalues --    0.99823   1.00451   1.00705   1.00828   1.01078
 Alpha virt. eigenvalues --    1.01647   1.01734   1.01997   1.02420   1.02854
 Alpha virt. eigenvalues --    1.03749   1.03972   1.04419   1.04584   1.05088
 Alpha virt. eigenvalues --    1.05453   1.05614   1.06279   1.06546   1.06952
 Alpha virt. eigenvalues --    1.07771   1.08047   1.08563   1.08822   1.09292
 Alpha virt. eigenvalues --    1.09992   1.10194   1.10604   1.11326   1.11384
 Alpha virt. eigenvalues --    1.11804   1.12448   1.12992   1.14144   1.14883
 Alpha virt. eigenvalues --    1.15822   1.16127   1.16464   1.18038   1.18407
 Alpha virt. eigenvalues --    1.18936   1.19523   1.20676   1.21017   1.21380
 Alpha virt. eigenvalues --    1.22362   1.23231   1.23944   1.24457   1.25123
 Alpha virt. eigenvalues --    1.25280   1.26024   1.26541   1.27903   1.28106
 Alpha virt. eigenvalues --    1.29159   1.29745   1.30221   1.31223   1.31506
 Alpha virt. eigenvalues --    1.32479   1.32576   1.35189   1.35622   1.35737
 Alpha virt. eigenvalues --    1.36294   1.37607   1.38222   1.38886   1.39544
 Alpha virt. eigenvalues --    1.39823   1.40103   1.40911   1.41448   1.42258
 Alpha virt. eigenvalues --    1.42548   1.43597   1.44085   1.44330   1.45763
 Alpha virt. eigenvalues --    1.46283   1.47092   1.48235   1.48625   1.49250
 Alpha virt. eigenvalues --    1.49501   1.50079   1.51671   1.52238   1.53089
 Alpha virt. eigenvalues --    1.53720   1.54114   1.54723   1.55963   1.56329
 Alpha virt. eigenvalues --    1.57188   1.57855   1.58832   1.59427   1.59592
 Alpha virt. eigenvalues --    1.59698   1.59948   1.61492   1.61942   1.62225
 Alpha virt. eigenvalues --    1.65101   1.65439   1.66151   1.66953   1.67424
 Alpha virt. eigenvalues --    1.67639   1.69006   1.69170   1.69347   1.69817
 Alpha virt. eigenvalues --    1.71839   1.72956   1.73414   1.74954   1.75737
 Alpha virt. eigenvalues --    1.76476   1.76955   1.77640   1.78123   1.78579
 Alpha virt. eigenvalues --    1.80007   1.80766   1.80903   1.81357   1.81749
 Alpha virt. eigenvalues --    1.82399   1.82658   1.83156   1.83334   1.84197
 Alpha virt. eigenvalues --    1.84639   1.85025   1.85661   1.86064   1.86481
 Alpha virt. eigenvalues --    1.86702   1.87340   1.87976   1.88207   1.88667
 Alpha virt. eigenvalues --    1.89022   1.89312   1.89577   1.89688   1.90112
 Alpha virt. eigenvalues --    1.90253   1.91283   1.91534   1.92352   1.92835
 Alpha virt. eigenvalues --    1.93242   1.93491   1.93862   1.94227   1.94475
 Alpha virt. eigenvalues --    1.94965   1.95368   1.95985   1.96686   1.96944
 Alpha virt. eigenvalues --    1.97395   1.98368   1.98530   1.99143   1.99171
 Alpha virt. eigenvalues --    1.99818   2.00245   2.00561   2.01016   2.01465
 Alpha virt. eigenvalues --    2.02124   2.02596   2.02732   2.03610   2.03762
 Alpha virt. eigenvalues --    2.04454   2.04516   2.05024   2.05639   2.06262
 Alpha virt. eigenvalues --    2.06647   2.07116   2.07387   2.07794   2.08628
 Alpha virt. eigenvalues --    2.08645   2.09012   2.09190   2.09408   2.09702
 Alpha virt. eigenvalues --    2.10491   2.10993   2.11674   2.12246   2.13114
 Alpha virt. eigenvalues --    2.13649   2.13996   2.14289   2.14667   2.14854
 Alpha virt. eigenvalues --    2.15785   2.15855   2.16204   2.16456   2.17099
 Alpha virt. eigenvalues --    2.17178   2.17944   2.18195   2.18461   2.18888
 Alpha virt. eigenvalues --    2.19131   2.19526   2.19963   2.20098   2.20787
 Alpha virt. eigenvalues --    2.21111   2.21477   2.22385   2.22609   2.23270
 Alpha virt. eigenvalues --    2.23723   2.24116   2.24499   2.25012   2.25261
 Alpha virt. eigenvalues --    2.26001   2.26591   2.26923   2.27541   2.27680
 Alpha virt. eigenvalues --    2.28261   2.28655   2.29402   2.29889   2.30097
 Alpha virt. eigenvalues --    2.30597   2.31034   2.31405   2.32021   2.32660
 Alpha virt. eigenvalues --    2.33522   2.33849   2.34518   2.35223   2.35486
 Alpha virt. eigenvalues --    2.35943   2.36422   2.37450   2.37593   2.38154
 Alpha virt. eigenvalues --    2.38181   2.38524   2.39037   2.40160   2.40454
 Alpha virt. eigenvalues --    2.40681   2.41110   2.41349   2.41680   2.42401
 Alpha virt. eigenvalues --    2.43100   2.43338   2.44037   2.44180   2.44363
 Alpha virt. eigenvalues --    2.45080   2.45241   2.45977   2.46021   2.46954
 Alpha virt. eigenvalues --    2.47353   2.47419   2.47464   2.47686   2.48903
 Alpha virt. eigenvalues --    2.49359   2.49651   2.49733   2.50285   2.50484
 Alpha virt. eigenvalues --    2.51249   2.51369   2.52284   2.52628   2.52870
 Alpha virt. eigenvalues --    2.53699   2.54363   2.54567   2.54804   2.55523
 Alpha virt. eigenvalues --    2.55769   2.56584   2.56807   2.57218   2.57609
 Alpha virt. eigenvalues --    2.58248   2.58669   2.59005   2.59785   2.60338
 Alpha virt. eigenvalues --    2.60910   2.61300   2.62113   2.62326   2.62547
 Alpha virt. eigenvalues --    2.62824   2.63397   2.63865   2.64522   2.65300
 Alpha virt. eigenvalues --    2.65710   2.65968   2.66088   2.66770   2.67440
 Alpha virt. eigenvalues --    2.67671   2.67959   2.68124   2.68560   2.68636
 Alpha virt. eigenvalues --    2.69561   2.69862   2.70618   2.71335   2.71625
 Alpha virt. eigenvalues --    2.72042   2.72147   2.72510   2.73571   2.73612
 Alpha virt. eigenvalues --    2.74080   2.75176   2.75883   2.76340   2.76455
 Alpha virt. eigenvalues --    2.77008   2.77057   2.77734   2.78497   2.79149
 Alpha virt. eigenvalues --    2.80137   2.80543   2.81752   2.82018   2.82140
 Alpha virt. eigenvalues --    2.82573   2.83501   2.83690   2.84422   2.84893
 Alpha virt. eigenvalues --    2.85618   2.85798   2.86339   2.86636   2.87263
 Alpha virt. eigenvalues --    2.87935   2.88346   2.89265   2.89668   2.90012
 Alpha virt. eigenvalues --    2.90418   2.90699   2.90815   2.91923   2.92293
 Alpha virt. eigenvalues --    2.92621   2.93228   2.93500   2.94205   2.94476
 Alpha virt. eigenvalues --    2.95345   2.95760   2.97118   2.97352   2.97620
 Alpha virt. eigenvalues --    2.97916   2.98089   2.98819   2.99167   3.00112
 Alpha virt. eigenvalues --    3.00388   3.01330   3.01614   3.02933   3.03682
 Alpha virt. eigenvalues --    3.04186   3.04495   3.05031   3.05094   3.06197
 Alpha virt. eigenvalues --    3.07648   3.08973   3.09524   3.10183   3.10865
 Alpha virt. eigenvalues --    3.11410   3.12545   3.12757   3.12910   3.13528
 Alpha virt. eigenvalues --    3.14054   3.16216   3.17270   3.17339   3.17993
 Alpha virt. eigenvalues --    3.19992   3.20068   3.21359   3.21723   3.23491
 Alpha virt. eigenvalues --    3.24106   3.24731   3.25850   3.28325   3.28851
 Alpha virt. eigenvalues --    3.31065   3.32838   3.33812   3.35527   3.39081
 Alpha virt. eigenvalues --    3.40676   3.41168   3.41914   3.42053   3.42767
 Alpha virt. eigenvalues --    3.43878   3.44566   3.44955   3.46555   3.46846
 Alpha virt. eigenvalues --    3.47696   3.48968   3.50293   3.50522   3.50929
 Alpha virt. eigenvalues --    3.51752   3.52011   3.52805   3.53589   3.54535
 Alpha virt. eigenvalues --    3.56091   3.57164   3.58494   3.58829   3.59429
 Alpha virt. eigenvalues --    3.61394   3.62481   3.62983   3.64289   3.64562
 Alpha virt. eigenvalues --    3.65384   3.66016   3.66717   3.67651   3.68601
 Alpha virt. eigenvalues --    3.69350   3.70732   3.74868   3.76478   3.79982
 Alpha virt. eigenvalues --    3.80928   3.82561   4.02333   4.17285   4.18564
 Alpha virt. eigenvalues --    4.19350   4.19471   4.21920   4.23998   4.25715
 Alpha virt. eigenvalues --    4.28244   4.30707   4.32027   4.33678   4.35503
 Alpha virt. eigenvalues --    4.36690   4.40030   4.42196   4.43918   4.45166
 Alpha virt. eigenvalues --    4.47490   4.48043   4.48295   4.54401   4.55631
 Alpha virt. eigenvalues --    4.56514   4.56917   4.59467   4.61989   4.62793
 Alpha virt. eigenvalues --    4.64190   4.65424   4.68775   4.69847   4.72990
 Alpha virt. eigenvalues --    4.74278   4.76793   4.79107   4.83594   4.85187
 Alpha virt. eigenvalues --    4.85850   4.87811   4.91333   4.93451
          Condensed to atoms (all electrons):
 Mulliken charges:
               1
     1  O   -0.546876
     2  O   -0.549728
     3  C    0.029208
     4  C   -0.155250
     5  C   -0.183354
     6  C    0.142613
     7  C    0.182592
     8  C   -0.009199
     9  C   -0.276791
    10  C   -0.303738
    11  C   -0.164493
    12  C   -0.156581
    13  C    0.200347
    14  C    0.028929
    15  C   -0.081014
    16  C   -0.232704
    17  C    0.147829
    18  C   -0.315404
    19  C   -0.312630
    20  C   -0.384644
    21  C   -0.075519
    22  C   -0.113193
    23  C   -0.394979
    24  C    0.059661
    25  C   -0.096344
    26  C   -0.356306
    27  C    0.085460
    28  C   -0.114303
    29  C   -0.360679
    30  C   -0.116321
    31  C   -0.024670
    32  C   -0.064383
    33  C   -0.142716
    34  C    0.068861
    35  C   -0.124647
    36  C    0.145362
    37  C   -0.349548
    38  C   -0.115296
    39  C   -0.149029
    40  C   -0.379968
    41  C   -0.072820
    42  C   -0.104067
    43  H    0.080223
    44  H    0.087416
    45  H    0.091620
    46  H    0.086936
    47  H    0.095258
    48  H    0.076491
    49  H    0.100321
    50  H    0.127566
    51  H    0.090409
    52  H    0.097121
    53  H    0.049359
    54  H    0.075671
    55  H    0.052249
    56  H    0.032128
    57  H    0.083254
    58  H    0.117972
    59  H    0.084145
    60  H    0.108930
    61  H    0.119353
    62  H    0.101705
    63  H    0.108605
    64  H    0.114050
    65  H    0.086352
    66  H    0.108324
    67  H    0.128970
    68  H    0.103618
    69  H    0.306951
    70  H    0.083676
    71  H    0.073636
    72  H    0.102524
    73  H    0.093839
    74  H    0.111561
    75  H    0.313753
    76  H    0.073617
    77  H    0.097947
    78  H    0.136833
    79  H    0.113427
    80  H    0.083642
    81  H    0.097533
    82  H    0.141619
    83  H    0.117070
    84  H    0.069994
    85  H    0.090042
    86  H    0.062623
    87  H    0.078108
    88  H    0.073441
    89  H    0.117089
    90  H    0.108511
    91  H    0.105209
    92  H    0.087887
    93  H    0.071273
    94  H    0.130801
    95  H    0.115399
    96  H    0.107417
    97  H    0.089509
    98  H    0.073354
 Sum of Mulliken charges =  -0.00000
 Mulliken charges with hydrogens summed into heavy atoms:
               1
     1  O   -0.239925
     2  O   -0.235976
     3  C    0.029208
     4  C   -0.075027
     5  C   -0.004317
     6  C    0.229549
     7  C    0.182592
     8  C   -0.009199
     9  C   -0.004720
    10  C    0.011357
    11  C   -0.039462
    12  C   -0.104332
    13  C    0.232475
    14  C    0.028929
    15  C    0.002240
    16  C   -0.030586
    17  C    0.147829
    18  C    0.014584
    19  C   -0.003623
    20  C   -0.043732
    21  C   -0.001882
    22  C   -0.029518
    23  C   -0.087055
    24  C    0.059661
    25  C   -0.022727
    26  C   -0.008098
    27  C    0.085460
    28  C   -0.030661
    29  C   -0.004458
    30  C   -0.046328
    31  C    0.065372
    32  C   -0.001760
    33  C   -0.064608
    34  C    0.068861
    35  C   -0.051206
    36  C    0.145362
    37  C   -0.018738
    38  C   -0.027410
    39  C   -0.077756
    40  C   -0.026350
    41  C    0.016688
    42  C   -0.030713
 Electronic spatial extent (au):  <R**2>=         104239.8443
 Charge=             -0.0000 electrons
 Dipole moment (field-independent basis, Debye):
    X=             -1.3261    Y=             -0.1493    Z=             -0.6898  Tot=              1.5023
 Quadrupole moment (field-independent basis, Debye-Ang):
   XX=           -282.4960   YY=           -239.5831   ZZ=           -262.1318
   XY=             17.0785   XZ=             31.0891   YZ=              2.2689
 Traceless Quadrupole moment (field-independent basis, Debye-Ang):
   XX=            -21.0924   YY=             21.8206   ZZ=             -0.7282
   XY=             17.0785   XZ=             31.0891   YZ=              2.2689
 Octapole moment (field-independent basis, Debye-Ang**2):
  XXX=           -379.3083  YYY=             -0.8484  ZZZ=             -1.9769  XYY=            -14.9559
  XXY=             41.2013  XXZ=            -95.7067  XZZ=             28.4819  YZZ=             -3.6379
  YYZ=             -0.4466  XYZ=             14.7486
 Hexadecapole moment (field-independent basis, Debye-Ang**3):
 XXXX=        -147664.5017 YYYY=          -4260.7591 ZZZZ=          -2120.8023 XXXY=           4274.4884
 XXXZ=           7082.9029 YYYX=            213.8184 YYYZ=              4.7745 ZZZX=             64.2246
 ZZZY=             11.4172 XXYY=         -21615.0991 XXZZ=         -22530.4859 YYZZ=          -1104.3423
 XXYZ=           1099.7184 YYXZ=            175.4936 ZZXY=             83.5902
 N-N= 4.024719426142D+03 E-N=-1.200473722712D+04  KE= 1.690847978071D+03
 1\1\GINC-PADAWAN\SP\RCAM-B3LYP TD-FC\6-31G(d,p)\C40H56O2\PADAWAN\14-Ju
 l-2019\0\\# td=(NStates=1) CAM-B3LYP/6-31G(d,p)\\TD\\0,1\O,0,-14.23184
 90601,-1.8803964213,0.5054307984\O,0,14.805112348,0.6027778644,0.33235
 38313\C,0,-11.6537182314,0.0072968046,1.3612809481\C,0,-10.9617331358,
 0.2207348445,-0.01922821\C,0,-11.9924847291,-1.4700914935,1.4541432556
 \C,0,-12.8265260461,-2.1790889737,0.3393880897\C,0,-11.5988551744,-0.4
 93266805,-1.2113966296\C,0,11.1351468453,0.9962912716,1.0214624259\C,0
 ,-10.863657839,0.4196036992,2.5023472854\C,0,-13.002836446,0.826248271
 7,1.3223633131\C,0,12.5179789784,1.4741268392,0.7297803642\C,0,-12.388
 6498509,-1.5044483126,-1.0206848372\C,0,13.4679184127,0.3731449871,0.3
 900563245\C,0,10.6881782921,0.0041210019,-0.045120927\C,0,-9.495738337
 7,-0.1366965179,-0.0207320656\C,0,12.9385718348,-0.2450217216,-0.83263
 88502\C,0,11.5406971585,-0.5476198073,-0.872782337\C,0,10.2321000956,2
 .304629775,1.0814108545\C,0,11.1284936819,0.3100601814,2.4532958909\C,
 0,-11.4210165992,0.0822098625,-2.4925615144\C,0,-8.4904251428,0.796944
 6769,-0.1435179743\C,0,9.218266756,-0.3547032461,0.0357036542\C,0,11.2
 115911046,-1.4405670235,-1.9436239671\C,0,-7.0603573586,0.4742446663,-
 0.148656955\C,0,8.7564521016,-1.6064404415,0.053990258\C,0,-6.69699112
 06,-0.9810568626,0.0360964982\C,0,7.4311716047,-2.0804709191,-0.031354
 1977\C,0,-6.1310328793,1.5405276273,-0.2720990665\C,0,7.145937788,-3.5
 553492571,0.2197021884\C,0,6.3593732063,-1.223832672,-0.1973120736\C,0
 ,-4.7564596197,1.3933728765,-0.4249434077\C,0,5.004481294,-1.498027645
 7,-0.200337814\C,0,-4.0378551579,2.554188445,-0.586869876\C,0,-2.66401
 68398,2.7052684844,-0.7690596538\C,0,4.0401179773,-0.6314736535,-0.273
 0668231\C,0,2.6776548141,-0.7726817397,-0.3120561582\C,0,-1.9865572059
 ,4.1681313957,-0.87122627\C,0,-1.7910161871,1.5886116056,-0.6493209485
 \C,0,1.8264111861,0.2943009916,-0.4982683887\C,0,2.0515784789,-2.15464
 82521,-0.0911967518\C,0,-0.3951117701,1.6144727686,-0.6075941192\C,0,0
 .3916039912,0.4376154293,-0.3584491057\H,0,-11.08648539,1.3631380991,-
 0.0107929245\H,0,-12.5417976529,-1.7034303567,2.4893868334\H,0,-11.046
 5823278,-2.0603152265,1.4735806407\H,0,-12.7863922728,-3.3231014174,0.
 3585907212\H,0,-10.114116813,-0.4360419286,2.7147500989\H,0,-10.344044
 5711,1.5876418412,2.6055252744\H,0,-11.6479223845,0.4758009991,3.30457
 46353\H,0,-13.6664578476,0.6319591982,0.5666831386\H,0,-13.5240081714,
 0.5578273901,2.2816421662\H,0,-12.8833770231,1.8299966215,1.3306935527
 \H,0,12.6689342601,2.2258475343,-0.3067728341\H,0,12.8653409612,2.1131
 153504,1.402397841\H,0,-12.7409375724,-1.9370304995,-2.0730914998\H,0,
 13.2484044252,-0.5610758534,1.1738377197\H,0,-9.2732696927,-1.22920777
 98,-0.0620686469\H,0,13.6078159257,-1.0560386432,-1.0744025963\H,0,13.
 2468210996,0.3818067586,-1.8042403478\H,0,9.2563623338,2.1339034421,1.
 1827835258\H,0,10.1893707987,2.5982824306,0.1256094764\H,0,10.71640531
 38,3.176772649,1.6025864096\H,0,11.6842012614,-0.5789451431,2.78472489
 39\H,0,10.2144564162,-0.1950120422,2.6216752956\H,0,11.1957804771,1.13
 31611129,3.2637913221\H,0,-10.4084333413,0.3918190926,-2.952182614\H,0
 ,-11.8729763539,1.0244184403,-2.5737244377\H,0,-11.8041782629,-0.51139
 98913,-3.3491926769\H,0,-14.7166849418,-2.2797069233,-0.2723454383\H,0
 ,8.4604051085,0.4365038756,0.1331459608\H,0,-8.8441995889,1.7626579186
 ,-0.2765929797\H,0,11.3575814926,-2.6475662526,-1.9636892204\H,0,10.17
 56404304,-1.3547915809,-2.5626922032\H,0,11.6268519789,-1.1901321033,-
 2.9370396521\H,0,14.9122104013,1.2973778376,1.1374817171\H,0,9.6514349
 198,-2.4155646382,-0.0073271752\H,0,-5.6013845995,-0.8276399147,0.1069
 280896\H,0,-7.1285817563,-1.3277147447,0.8934315956\H,0,-6.9755937946,
 -1.7602544736,-0.7844866635\H,0,-6.4018524717,2.5844872438,-0.41166436
 81\H,0,6.2735109001,-3.6207654991,1.0970694026\H,0,6.5946368089,-3.761
 6913569,-0.6537749687\H,0,7.9723471321,-4.1597421588,0.4477217395\H,0,
 6.5995583827,-0.1672639658,-0.4159637183\H,0,-4.3125634879,0.481327798
 ,-0.3336594235\H,0,4.8069642999,-2.5384530983,0.2189042296\H,0,-4.6669
 62742,3.444152397,-0.8816478203\H,0,4.3559756738,0.3511924581,-0.68928
 81462\H,0,-1.3054603042,4.1010715539,-1.83188146\H,0,-1.3582086593,4.6
 445316105,0.0652945697\H,0,-2.8045799461,4.9488172972,-0.9867869724\H,
 0,-2.1197408545,0.5485414796,-0.7457393039\H,0,2.3693359757,1.18725271
 45,-0.8569827134\H,0,2.2391724449,-2.495555958,0.8400823867\H,0,1.0602
 310944,-2.2751568068,-0.2168929744\H,0,2.7140941588,-2.9386516524,-0.5
 226765107\H,0,0.2680726922,2.528092649,-0.6052475163\H,0,-0.1779906951
 ,-0.4930694767,-0.2697276278\\Version=ES64L-G16RevA.03\State=1-A\HF=-1
 706.9477856\RMSD=6.100e-09\PG=C01 [X(C40H56O2)]\\@


 If your ship doesn't come in, swim out to it!
                          -- Jonathan Winters
 Job cpu time:       0 days  2 hours 23 minutes 44.4 seconds.
 Elapsed time:       0 days  1 hours 35 minutes 58.5 seconds.
 File lengths (MBytes):  RWF=   3127 Int=      0 D2E=      0 Chk=     84 Scr=      1
 Normal termination of Gaussian 16 at Sun Jul 14 19:20:33 2019.
