 Entering Gaussian System, Link 0=g16
 Input=Geometria-449-.com
 Output=Geometria-449-.log
 Initial command:
 /usr/local/g16/l1.exe "/home/padawan/israel-mol/lutein/spectra/emi/Gau-620.inp" -scrdir="/home/padawan/israel-mol/lutein/spectra/emi/"
 Entering Link 1 = /usr/local/g16/l1.exe PID=       622.
  
 Copyright (c) 1988,1990,1992,1993,1995,1998,2003,2009,2016,
            Gaussian, Inc.  All Rights Reserved.
  
 This is part of the Gaussian(R) 16 program.  It is based on
 the Gaussian(R) 09 system (copyright 2009, Gaussian, Inc.),
 the Gaussian(R) 03 system (copyright 2003, Gaussian, Inc.),
 the Gaussian(R) 98 system (copyright 1998, Gaussian, Inc.),
 the Gaussian(R) 94 system (copyright 1995, Gaussian, Inc.),
 the Gaussian 92(TM) system (copyright 1992, Gaussian, Inc.),
 the Gaussian 90(TM) system (copyright 1990, Gaussian, Inc.),
 the Gaussian 88(TM) system (copyright 1988, Gaussian, Inc.),
 the Gaussian 86(TM) system (copyright 1986, Carnegie Mellon
 University), and the Gaussian 82(TM) system (copyright 1983,
 Carnegie Mellon University). Gaussian is a federally registered
 trademark of Gaussian, Inc.
  
 This software contains proprietary and confidential information,
 including trade secrets, belonging to Gaussian, Inc.
  
 This software is provided under written license and may be
 used, copied, transmitted, or stored only in accord with that
 written license.
  
 The following legend is applicable only to US Government
 contracts under FAR:
  
                    RESTRICTED RIGHTS LEGEND
  
 Use, reproduction and disclosure by the US Government is
 subject to restrictions as set forth in subparagraphs (a)
 and (c) of the Commercial Computer Software - Restricted
 Rights clause in FAR 52.227-19.
  
 Gaussian, Inc.
 340 Quinnipiac St., Bldg. 40, Wallingford CT 06492
  
  
 ---------------------------------------------------------------
 Warning -- This program may not be used in any manner that
 competes with the business of Gaussian, Inc. or will provide
 assistance to any competitor of Gaussian, Inc.  The licensee
 of this program is prohibited from giving any competitor of
 Gaussian, Inc. access to this program.  By using this program,
 the user acknowledges that Gaussian, Inc. is engaged in the
 business of creating and licensing software in the field of
 computational chemistry and represents and warrants to the
 licensee that it is not a competitor of Gaussian, Inc. and that
 it will not use this program in any manner prohibited above.
 ---------------------------------------------------------------
  

 Cite this work as:
 Gaussian 16, Revision A.03,
 M. J. Frisch, G. W. Trucks, H. B. Schlegel, G. E. Scuseria, 
 M. A. Robb, J. R. Cheeseman, G. Scalmani, V. Barone, 
 G. A. Petersson, H. Nakatsuji, X. Li, M. Caricato, A. V. Marenich, 
 J. Bloino, B. G. Janesko, R. Gomperts, B. Mennucci, H. P. Hratchian, 
 J. V. Ortiz, A. F. Izmaylov, J. L. Sonnenberg, D. Williams-Young, 
 F. Ding, F. Lipparini, F. Egidi, J. Goings, B. Peng, A. Petrone, 
 T. Henderson, D. Ranasinghe, V. G. Zakrzewski, J. Gao, N. Rega, 
 G. Zheng, W. Liang, M. Hada, M. Ehara, K. Toyota, R. Fukuda, 
 J. Hasegawa, M. Ishida, T. Nakajima, Y. Honda, O. Kitao, H. Nakai, 
 T. Vreven, K. Throssell, J. A. Montgomery, Jr., J. E. Peralta, 
 F. Ogliaro, M. J. Bearpark, J. J. Heyd, E. N. Brothers, K. N. Kudin, 
 V. N. Staroverov, T. A. Keith, R. Kobayashi, J. Normand, 
 K. Raghavachari, A. P. Rendell, J. C. Burant, S. S. Iyengar, 
 J. Tomasi, M. Cossi, J. M. Millam, M. Klene, C. Adamo, R. Cammi, 
 J. W. Ochterski, R. L. Martin, K. Morokuma, O. Farkas, 
 J. B. Foresman, and D. J. Fox, Gaussian, Inc., Wallingford CT, 2016.
 
 ******************************************
 Gaussian 16:  ES64L-G16RevA.03 25-Dec-2016
                16-Jul-2019 
 ******************************************
 %nproc=4
 Will use up to    4 processors via shared memory.
 %Mem=4GB
 -------------------------------------
 # td=(NStates=1) CAM-B3LYP/6-31G(d,p)
 -------------------------------------
 1/38=1,172=1/1;
 2/12=2,17=6,18=5,40=1/2;
 3/5=1,6=6,7=101,11=9,25=1,30=1,74=-40/1,2,3,8;
 4//1;
 5/5=2,38=5/2;
 8/6=1,10=2,108=1/1;
 9/41=1,42=1,70=2/14;
 6/7=2,8=2,9=2,10=2/1;
 99/5=1,9=1/99;
 --
 TD
 --
 Symbolic Z-matrix:
 Charge =  0 Multiplicity = 1
 8                    -14.1357  -1.92222   0.67714 
 8                     14.69383   1.11611   0.37063 
 6                    -11.65565   0.00797   1.43215 
 6                    -10.9384   0.33749   0.06339 
 6                    -11.90177  -1.51088   1.41616 
 6                    -12.72791  -2.09257   0.33822 
 6                    -11.61754  -0.31398  -1.10641 
 6                     10.91171   1.02341   1.1114 
 6                    -10.77644   0.43942   2.63276 
 6                    -12.90992   0.77874   1.50537 
 6                     12.39948   1.5903    0.82536 
 6                    -12.43236  -1.37004  -0.93612 
 6                     13.38669   0.52075   0.50113 
 6                     10.60399  -0.13722   0.13694 
 6                    -9.48685  -0.05811  -0.01794 
 6                     13.01074  -0.15216  -0.76596 
 6                     11.5407  -0.53914  -0.74735 
 6                     9.99148   2.17996   1.0292 
 6                     10.96215   0.4282    2.50764 
 6                    -11.38075   0.38241  -2.45932 
 6                    -8.49271   0.7783   -0.17769 
 6                     9.13366  -0.49842   0.08027 
 6                     11.24402  -1.53241  -1.96273 
 6                    -7.02188   0.48091  -0.2876 
 6                     8.75838  -1.76356  -0.1109 
 6                    -6.65644  -0.95273  -0.11198 
 6                     7.43064  -2.22409  -0.14491 
 6                    -6.09439   1.50055  -0.39275 
 6                     7.03119  -3.63627   0.0653 
 6                     6.47823  -1.30533  -0.26683 
 6                    -4.7191    1.39405  -0.47518 
 6                     5.01249  -1.61426  -0.09905 
 6                    -3.97677   2.53903  -0.77482 
 6                    -2.57434   2.57633  -0.86805 
 6                     4.00589  -0.62198  -0.38365 
 6                     2.60462  -0.79092  -0.41493 
 6                    -1.90434   3.93465  -1.07385 
 6                    -1.74184   1.54869  -0.57533 
 6                     1.81238   0.22329  -0.59833 
 6                     2.041    -2.17002  -0.03797 
 6                    -0.24106   1.49516  -0.67211 
 6                     0.38266   0.30346  -0.46737 
 1                    -10.7425   1.51411  -0.17742 
 1                    -12.12329  -2.02448   2.40237 
 1                    -10.8872  -2.12886   1.3816 
 1                    -12.58298  -3.21488   0.10738 
 1                    -9.71092  -0.036     2.3715 
 1                    -10.67224   1.55206   2.77576 
 1                    -11.13739   0.12554   3.6892 
 1                    -13.25845   0.61204   0.38746 
 1                    -13.59436   0.46631   2.33929 
 1                    -12.89819   1.78062   1.601 
 1                     12.3513   2.20494  -0.03273 
 1                     12.80282   2.05148   1.65011 
 1                    -12.82066  -1.70287  -2.027 
 1                     13.53522  -0.35541   1.37874 
 1                    -9.30035  -1.17749  -0.28158 
 1                     13.4794  -1.13658  -0.88721 
 1                     13.23432   0.71086  -1.51939 
 1                     8.98614   1.88601   1.43525 
 1                     9.88859   2.78662   0.08892 
 1                     10.25518   3.04757   1.88042 
 1                     11.79885  -0.21288   2.37527 
 1                     10.02779  -0.2012    2.66199 
 1                     11.06948   1.09641   3.34886 
 1                    -10.31528   0.6955   -2.44265 
 1                    -12.13629   1.10347  -2.74889 
 1                    -11.51771  -0.53626  -3.25525 
 1                    -14.70935  -2.23235   0.06272 
 1                     8.51424   0.33744   0.08202 
 1                    -8.73109   1.76832   0.12836 
 1                     11.47999  -2.47382  -1.78402 
 1                     10.17937  -1.67946  -2.1757 
 1                     11.73411  -1.10981  -2.8309 
 1                     14.68035   1.7793    1.24919 
 1                     9.58304  -2.53059  -0.21321 
 1                    -5.48777  -1.19921   0.0747 
 1                    -7.13857  -1.44468   0.81207 
 1                    -7.04808  -1.65689  -0.99828 
 1                    -6.43916   2.67021  -0.36577 
 1                     6.55174  -3.96971   1.11729 
 1                     6.2269   -3.74521  -0.69314 
 1                     8.0263   -4.16518  -0.28896 
 1                     6.64155  -0.30826  -0.45303 
 1                    -4.23823   0.33358  -0.31313 
 1                     4.88556  -2.63194   0.13871 
 1                    -4.41633   3.65013  -0.55337 
 1                     4.34463   0.4119   -0.61429 
 1                    -1.29683   3.65345  -2.03358 
 1                    -1.22999   4.04809  -0.30378 
 1                    -2.52628   4.85974  -0.99152 
 1                    -2.26448   0.59399  -0.30308 
 1                     2.34597   1.30554  -0.71115 
 1                     2.46628  -2.44458   0.97334 
 1                     0.88095  -2.35483  -0.17269 
 1                     2.31472  -2.76538  -1.02605 
 1                     0.17925   2.23977  -1.08595 
 1                    -0.14009  -0.58841  -0.12603 
 
 Stoichiometry    C40H56O2
 Framework group  C1[X(C40H56O2)]
 Deg. of freedom   288
 Full point group                 C1      NOp   1
 Largest Abelian subgroup         C1      NOp   1
 Largest concise Abelian subgroup C1      NOp   1
                         Standard orientation:                         
 ---------------------------------------------------------------------
 Center     Atomic      Atomic             Coordinates (Angstroms)
 Number     Number       Type             X           Y           Z
 ---------------------------------------------------------------------
      1          8           0      -14.138553   -1.917091    0.666105
      2          8           0       14.692901    1.104732    0.377897
      3          6           0      -11.657248    0.006680    1.433271
      4          6           0      -10.939832    0.344428    0.066609
      5          6           0      -11.904335   -1.511873    1.407647
      6          6           0      -12.730879   -2.086183    0.326062
      7          6           0      -11.619419   -0.299163   -1.107277
      8          6           0       10.910749    1.009747    1.118198
      9          6           0      -10.777727    0.429935    2.636569
     10          6           0      -12.911022    0.777777    1.511431
     11          6           0       12.398864    1.577487    0.835711
     12          6           0      -12.434915   -1.355769   -0.943669
     13          6           0       13.385385    0.509389    0.504659
     14          6           0       10.602254   -0.144482    0.136394
     15          6           0       -9.488534   -0.051569   -0.017284
     16          6           0       13.008965   -0.155223   -0.766665
     17          6           0       11.538677   -0.541372   -0.750460
     18          6           0        9.991246    2.167376    1.043370
     19          6           0       10.960844    0.405648    2.510629
     20          6           0      -11.382232    0.405652   -2.455748
     21          6           0       -8.493863    0.785206   -0.171753
     22          6           0        9.131690   -0.504371    0.077483
     23          6           0       11.241334   -1.526712   -1.972108
     24          6           0       -7.023235    0.487574   -0.283600
     25          6           0        8.755601   -1.768031   -0.121698
     26          6           0       -6.658698   -0.947385   -0.117098
     27          6           0        7.427566   -2.227488   -0.158585
     28          6           0       -6.095093    1.507278   -0.382305
     29          6           0        7.027216   -3.640721    0.042659
     30          6           0        6.475732   -1.307370   -0.274639
     31          6           0       -4.719870    1.400425   -0.465455
     32          6           0        5.009807   -1.616423   -0.108772
     33          6           0       -3.976822    2.546805   -0.757844
     34          6           0       -2.574370    2.583800   -0.850885
     35          6           0        4.003835   -0.621717   -0.387030
     36          6           0        2.602449   -0.789562   -0.419333
     37          6           0       -1.903511    3.942974   -1.048075
     38          6           0       -1.742521    1.553793   -0.564729
     39          6           0        1.810853    0.226305   -0.596263
     40          6           0        2.037960   -2.170664   -0.051123
     41          6           0       -0.241773    1.499925   -0.661896
     42          6           0        0.381192    0.306552   -0.464749
     43          1           0      -10.743189    1.522435   -0.166731
     44          1           0      -12.126152   -2.031590    2.390582
     45          1           0      -10.890161   -2.130274    1.369130
     46          1           0      -12.586678   -3.207097    0.088092
     47          1           0       -9.712516   -0.044493    2.372254
     48          1           0      -10.672810    1.541581    2.786630
     49          1           0      -11.138847    0.109584    3.691010
     50          1           0      -13.259692    0.618395    0.392491
     51          1           0      -13.595634    0.460489    2.343371
     52          1           0      -12.898651    1.779020    1.613420
     53          1           0       12.351056    2.197591   -0.018452
     54          1           0       12.802531    2.033164    1.663362
     55          1           0      -12.823452   -1.681409   -2.036628
     56          1           0       13.533385   -0.372416    1.376683
     57          1           0       -9.302761   -1.169375   -0.288032
     58          1           0       13.476997   -1.139146   -0.894182
     59          1           0       13.233074    0.712423   -1.514607
     60          1           0        8.985730    1.871496    1.447583
     61          1           0        9.888719    2.780064    0.106966
     62          1           0       10.255529    3.029397    1.900082
     63          1           0       11.797137   -0.235112    2.374164
     64          1           0       10.026088   -0.224127    2.661009
     65          1           0       11.068627    1.068430    3.356070
     66          1           0      -10.316563    0.717950   -2.437131
     67          1           0      -12.137321    1.129015   -2.740711
     68          1           0      -11.519800   -0.507860   -3.257496
     69          1           0      -14.712424   -2.222949    0.049748
     70          1           0        8.512806    0.331857    0.084566
     71          1           0       -8.731605    1.773410    0.140584
     72          1           0       11.476708   -2.469391   -1.799394
     73          1           0       10.176580   -1.671735   -2.185979
     74          1           0       11.731665   -1.098928   -2.837597
     75          1           0       14.679867    1.762334    1.260657
     76          1           0        9.579764   -2.534922   -0.228907
     77          1           0       -5.490186   -1.195784    0.067976
     78          1           0       -7.141119   -1.444877    0.803828
     79          1           0       -7.050818   -1.645652   -1.007837
     80          1           0       -6.439113    2.676954   -0.347885
     81          1           0        6.547588   -3.980532    1.092532
     82          1           0        6.222837   -3.744332   -0.716425
     83          1           0        8.021983   -4.168011   -0.314985
     84          1           0        6.639690   -0.309239   -0.454507
     85          1           0       -4.239672    0.338641   -0.310158
     86          1           0        4.882235   -2.635514    0.122519
     87          1           0       -4.415665    3.656763   -0.529334
     88          1           0        4.343227    0.413392   -0.611115
     89          1           0       -1.296210    3.667486   -2.009598
     90          1           0       -1.229062    4.051096   -0.277329
     91          1           0       -2.524861    4.867920   -0.959852
     92          1           0       -2.265756    0.597716   -0.298520
     93          1           0        2.345134    1.308910   -0.702226
     94          1           0        2.463094   -2.451913    0.958405
     95          1           0        0.877794   -2.353880   -0.186971
     96          1           0        2.311277   -2.759917   -1.042969
     97          1           0        0.178999    2.246882   -1.071009
     98          1           0       -0.142117   -0.587135   -0.129064
 ---------------------------------------------------------------------
 Rotational constants (GHZ):           0.2428095           0.0099956           0.0098398
 Standard basis: 6-31G(d,p) (6D, 7F)
 There are   910 symmetry adapted cartesian basis functions of A   symmetry.
 There are   910 symmetry adapted basis functions of A   symmetry.
   910 basis functions,  1568 primitive gaussians,   910 cartesian basis functions
   156 alpha electrons      156 beta electrons
       nuclear repulsion energy      4029.4581261870 Hartrees.
 NAtoms=   98 NActive=   98 NUniq=   98 SFac= 1.00D+00 NAtFMM=   60 NAOKFM=T Big=T
 Integral buffers will be    131072 words long.
 Raffenetti 1 integral format.
 Two-electron integral symmetry is turned on.
 One-electron integrals computed using PRISM.
 NBasis=   910 RedAO= T EigKep=  8.03D-04  NBF=   910
 NBsUse=   910 1.00D-06 EigRej= -1.00D+00 NBFU=   910
 ExpMin= 1.61D-01 ExpMax= 5.48D+03 ExpMxC= 8.25D+02 IAcc=3 IRadAn=         5 AccDes= 0.00D+00
 Harris functional with IExCor=20419 and IRadAn=       5 diagonalized for initial guess.
 HarFok:  IExCor=20419 AccDes= 0.00D+00 IRadAn=         5 IDoV= 1 UseB2=F ITyADJ=14
 ICtDFT=  3500011 ScaDFX=  1.000000  1.000000  1.000000  1.000000
 FoFCou: FMM=F IPFlag=           0 FMFlag=      100000 FMFlg1=        2001
         NFxFlg=           0 DoJE=T BraDBF=F KetDBF=T FulRan=T
         wScrn=  0.000000 ICntrl=       500 IOpCl=  0 I1Cent=   200000004 NGrid=           0
         NMat0=    1 NMatS0=      1 NMatT0=    0 NMatD0=    1 NMtDS0=    0 NMtDT0=    0
 Petite list used in FoFCou.
 Requested convergence on RMS density matrix=1.00D-08 within 128 cycles.
 Requested convergence on MAX density matrix=1.00D-06.
 Requested convergence on             energy=1.00D-06.
 No special actions if energy rises.
 Integral accuracy reduced to 1.0D-05 until final iterations.
 Initial convergence to 1.0D-05 achieved.  Increase integral accuracy.
 SCF Done:  E(RCAM-B3LYP) =  -1706.95530570     A.U. after   14 cycles
            NFock= 14  Conv=0.81D-08     -V/T= 2.0102
 DoSCS=F DFT=T ScalE2(SS,OS)=  1.000000  1.000000
 ExpMin= 1.61D-01 ExpMax= 5.48D+03 ExpMxC= 8.25D+02 IAcc=3 IRadAn=         5 AccDes= 0.00D+00
 HarFok:  IExCor=  205 AccDes= 0.00D+00 IRadAn=         5 IDoV=-2 UseB2=F ITyADJ=14
 ICtDFT= 12500011 ScaDFX=  1.000000  1.000000  1.000000  1.000000
 GSVD:  LWork=       -2100 too small for GESVD, short by        9450 words or        9450 for optimal perf.
 Range of M.O.s used for correlation:    43   910
 NBasis=   910 NAE=   156 NBE=   156 NFC=    42 NFV=     0
 NROrb=    868 NOA=   114 NOB=   114 NVA=   754 NVB=   754
 Orbital symmetries:
       Occupied  (A) (A) (A) (A) (A) (A) (A) (A) (A) (A) (A) (A)
                 (A) (A) (A) (A) (A) (A) (A) (A) (A) (A) (A) (A)
                 (A) (A) (A) (A) (A) (A) (A) (A) (A) (A) (A) (A)
                 (A) (A) (A) (A) (A) (A) (A) (A) (A) (A) (A) (A)
                 (A) (A) (A) (A) (A) (A) (A) (A) (A) (A) (A) (A)
                 (A) (A) (A) (A) (A) (A) (A) (A) (A) (A) (A) (A)
                 (A) (A) (A) (A) (A) (A) (A) (A) (A) (A) (A) (A)
                 (A) (A) (A) (A) (A) (A) (A) (A) (A) (A) (A) (A)
                 (A) (A) (A) (A) (A) (A) (A) (A) (A) (A) (A) (A)
                 (A) (A) (A) (A) (A) (A) (A) (A) (A) (A) (A) (A)
                 (A) (A) (A) (A) (A) (A) (A) (A) (A) (A) (A) (A)
                 (A) (A) (A) (A) (A) (A) (A) (A) (A) (A) (A) (A)
                 (A) (A) (A) (A) (A) (A) (A) (A) (A) (A) (A) (A)
       Virtual   (A) (A) (A) (A) (A) (A) (A) (A) (A) (A) (A) (A)
                 (A) (A) (A) (A) (A) (A) (A) (A) (A) (A) (A) (A)
                 (A) (A) (A) (A) (A) (A) (A) (A) (A) (A) (A) (A)
                 (A) (A) (A) (A) (A) (A) (A) (A) (A) (A) (A) (A)
                 (A) (A) (A) (A) (A) (A) (A) (A) (A) (A) (A) (A)
                 (A) (A) (A) (A) (A) (A) (A) (A) (A) (A) (A) (A)
                 (A) (A) (A) (A) (A) (A) (A) (A) (A) (A) (A) (A)
                 (A) (A) (A) (A) (A) (A) (A) (A) (A) (A) (A) (A)
                 (A) (A) (A) (A) (A) (A) (A) (A) (A) (A) (A) (A)
                 (A) (A) (A) (A) (A) (A) (A) (A) (A) (A) (A) (A)
                 (A) (A) (A) (A) (A) (A) (A) (A) (A) (A) (A) (A)
                 (A) (A) (A) (A) (A) (A) (A) (A) (A) (A) (A) (A)
                 (A) (A) (A) (A) (A) (A) (A) (A) (A) (A) (A) (A)
                 (A) (A) (A) (A) (A) (A) (A) (A) (A) (A) (A) (A)
                 (A) (A) (A) (A) (A) (A) (A) (A) (A) (A) (A) (A)
                 (A) (A) (A) (A) (A) (A) (A) (A) (A) (A) (A) (A)
                 (A) (A) (A) (A) (A) (A) (A) (A) (A) (A) (A) (A)
                 (A) (A) (A) (A) (A) (A) (A) (A) (A) (A) (A) (A)
                 (A) (A) (A) (A) (A) (A) (A) (A) (A) (A) (A) (A)
                 (A) (A) (A) (A) (A) (A) (A) (A) (A) (A) (A) (A)
                 (A) (A) (A) (A) (A) (A) (A) (A) (A) (A) (A) (A)
                 (A) (A) (A) (A) (A) (A) (A) (A) (A) (A) (A) (A)
                 (A) (A) (A) (A) (A) (A) (A) (A) (A) (A) (A) (A)
                 (A) (A) (A) (A) (A) (A) (A) (A) (A) (A) (A) (A)
                 (A) (A) (A) (A) (A) (A) (A) (A) (A) (A) (A) (A)
                 (A) (A) (A) (A) (A) (A) (A) (A) (A) (A) (A) (A)
                 (A) (A) (A) (A) (A) (A) (A) (A) (A) (A) (A) (A)
                 (A) (A) (A) (A) (A) (A) (A) (A) (A) (A) (A) (A)
                 (A) (A) (A) (A) (A) (A) (A) (A) (A) (A) (A) (A)
                 (A) (A) (A) (A) (A) (A) (A) (A) (A) (A) (A) (A)
                 (A) (A) (A) (A) (A) (A) (A) (A) (A) (A) (A) (A)
                 (A) (A) (A) (A) (A) (A) (A) (A) (A) (A) (A) (A)
                 (A) (A) (A) (A) (A) (A) (A) (A) (A) (A) (A) (A)
                 (A) (A) (A) (A) (A) (A) (A) (A) (A) (A) (A) (A)
                 (A) (A) (A) (A) (A) (A) (A) (A) (A) (A) (A) (A)
                 (A) (A) (A) (A) (A) (A) (A) (A) (A) (A) (A) (A)
                 (A) (A) (A) (A) (A) (A) (A) (A) (A) (A) (A) (A)
                 (A) (A) (A) (A) (A) (A) (A) (A) (A) (A) (A) (A)
                 (A) (A) (A) (A) (A) (A) (A) (A) (A) (A) (A) (A)
                 (A) (A) (A) (A) (A) (A) (A) (A) (A) (A) (A) (A)
                 (A) (A) (A) (A) (A) (A) (A) (A) (A) (A) (A) (A)
                 (A) (A) (A) (A) (A) (A) (A) (A) (A) (A) (A) (A)
                 (A) (A) (A) (A) (A) (A) (A) (A) (A) (A) (A) (A)
                 (A) (A) (A) (A) (A) (A) (A) (A) (A) (A) (A) (A)
                 (A) (A) (A) (A) (A) (A) (A) (A) (A) (A) (A) (A)
                 (A) (A) (A) (A) (A) (A) (A) (A) (A) (A) (A) (A)
                 (A) (A) (A) (A) (A) (A) (A) (A) (A) (A) (A) (A)
                 (A) (A) (A) (A) (A) (A) (A) (A) (A) (A) (A) (A)
                 (A) (A) (A) (A) (A) (A) (A) (A) (A) (A) (A) (A)
                 (A) (A) (A) (A) (A) (A) (A) (A) (A) (A) (A) (A)
                 (A) (A) (A) (A) (A) (A) (A) (A) (A) (A) (A) (A)
                 (A) (A) (A) (A) (A) (A) (A) (A) (A) (A) (A) (A)
                 (A) (A) (A) (A) (A) (A) (A) (A) (A) (A) (A) (A)
                 (A) (A) (A) (A) (A) (A) (A) (A) (A) (A) (A) (A)
                 (A) (A) (A) (A) (A) (A) (A) (A) (A) (A) (A) (A)
                 (A) (A) (A) (A) (A) (A) (A) (A) (A) (A) (A) (A)
                 (A) (A) (A) (A) (A) (A) (A) (A) (A) (A) (A) (A)
                 (A) (A) (A) (A) (A) (A) (A) (A) (A) (A) (A) (A)
                 (A) (A) (A) (A) (A) (A) (A) (A) (A) (A) (A) (A)
                 (A) (A) (A) (A) (A) (A) (A) (A) (A) (A) (A) (A)
                 (A) (A) (A) (A) (A) (A) (A) (A) (A) (A) (A) (A)
                 (A) (A) (A) (A) (A) (A) (A) (A) (A) (A) (A) (A)
                 (A) (A) (A) (A) (A) (A) (A) (A) (A) (A)
     4 initial guesses have been made.
 Convergence on wavefunction:    0.001000000000000
 Iteration     1 Dimension     4 NMult     0 NNew      4
 CISAX will form     4 AO SS matrices at one time.
 Iteration     2 Dimension     6 NMult     4 NNew      2
 Iteration     3 Dimension     8 NMult     6 NNew      2
 Iteration     4 Dimension    10 NMult     8 NNew      2
 Iteration     5 Dimension    12 NMult    10 NNew      2
 Iteration     6 Dimension    14 NMult    12 NNew      2
 ***********************************************************************
 Excited states from <AA,BB:AA,BB> singles matrix:
 ***********************************************************************
 
 Ground to excited state transition densities written to RWF  633
 Ground to excited state transition electric dipole moments (Au):
       state          X           Y           Z        Dip. S.      Osc.
         1        -6.7620      0.7418     -0.0567     46.2782      2.8330
 Ground to excited state transition velocity dipole moments (Au):
       state          X           Y           Z        Dip. S.      Osc.
         1         0.6023     -0.0674      0.0064      0.3673      2.6666
 Ground to excited state transition magnetic dipole moments (Au):
       state          X           Y           Z
         1        -0.1689     -0.9697     -1.6032
 Ground to excited state transition velocity quadrupole moments (Au):
       state          XX          YY          ZZ          XY          XZ          YZ
         1        -0.1569      0.1225     -0.0457     -0.6599      0.0455      0.0715
 <0|del|b> * <b|rxdel|0> + <0|del|b> * <b|delr+rdel|0>
 Rotatory Strengths (R) in cgs (10**-40 erg-esu-cm/Gauss)
       state          XX          YY          ZZ    R(velocity)    E-M Angle
         1       207.8932   -248.9372   -317.6054   -119.5498       92.34
 1/2[<0|r|b>*<b|rxdel|0> + (<0|rxdel|b>*<b|r|0>)*]
 Rotatory Strengths (R) in cgs (10**-40 erg-esu-cm/Gauss)
       state          XX          YY          ZZ     R(length)
         1      -807.4263    508.6833    -64.3154   -121.0195
  1/2[<0|del|b>*<b|r|0> + (<0|r|b>*<b|del|0>)*] (Au)
       state          X           Y           Z        Dip. S.   Osc.(frdel)
         1        -4.0725     -0.0500     -0.0004      4.1228      2.7486

 Excitation energies and oscillator strengths:
 
 Excited State   1:      Singlet-A      2.4987 eV  496.19 nm  f=2.8330  <S**2>=0.000
     155 ->158         0.18402
     156 ->157         0.67888
 This state for optimization and/or second-order correction.
 Total Energy, E(TD-HF/TD-DFT) =  -1706.86347971    
 Copying the excited state density for this state as the 1-particle RhoCI density.
 SavETr:  write IOETrn=   770 NScale= 10 NData=  16 NLR=1 NState=    1 LETran=      28.

 **********************************************************************

            Population analysis using the SCF density.

 **********************************************************************

 Orbital symmetries:
       Occupied  (A) (A) (A) (A) (A) (A) (A) (A) (A) (A) (A) (A)
                 (A) (A) (A) (A) (A) (A) (A) (A) (A) (A) (A) (A)
                 (A) (A) (A) (A) (A) (A) (A) (A) (A) (A) (A) (A)
                 (A) (A) (A) (A) (A) (A) (A) (A) (A) (A) (A) (A)
                 (A) (A) (A) (A) (A) (A) (A) (A) (A) (A) (A) (A)
                 (A) (A) (A) (A) (A) (A) (A) (A) (A) (A) (A) (A)
                 (A) (A) (A) (A) (A) (A) (A) (A) (A) (A) (A) (A)
                 (A) (A) (A) (A) (A) (A) (A) (A) (A) (A) (A) (A)
                 (A) (A) (A) (A) (A) (A) (A) (A) (A) (A) (A) (A)
                 (A) (A) (A) (A) (A) (A) (A) (A) (A) (A) (A) (A)
                 (A) (A) (A) (A) (A) (A) (A) (A) (A) (A) (A) (A)
                 (A) (A) (A) (A) (A) (A) (A) (A) (A) (A) (A) (A)
                 (A) (A) (A) (A) (A) (A) (A) (A) (A) (A) (A) (A)
       Virtual   (A) (A) (A) (A) (A) (A) (A) (A) (A) (A) (A) (A)
                 (A) (A) (A) (A) (A) (A) (A) (A) (A) (A) (A) (A)
                 (A) (A) (A) (A) (A) (A) (A) (A) (A) (A) (A) (A)
                 (A) (A) (A) (A) (A) (A) (A) (A) (A) (A) (A) (A)
                 (A) (A) (A) (A) (A) (A) (A) (A) (A) (A) (A) (A)
                 (A) (A) (A) (A) (A) (A) (A) (A) (A) (A) (A) (A)
                 (A) (A) (A) (A) (A) (A) (A) (A) (A) (A) (A) (A)
                 (A) (A) (A) (A) (A) (A) (A) (A) (A) (A) (A) (A)
                 (A) (A) (A) (A) (A) (A) (A) (A) (A) (A) (A) (A)
                 (A) (A) (A) (A) (A) (A) (A) (A) (A) (A) (A) (A)
                 (A) (A) (A) (A) (A) (A) (A) (A) (A) (A) (A) (A)
                 (A) (A) (A) (A) (A) (A) (A) (A) (A) (A) (A) (A)
                 (A) (A) (A) (A) (A) (A) (A) (A) (A) (A) (A) (A)
                 (A) (A) (A) (A) (A) (A) (A) (A) (A) (A) (A) (A)
                 (A) (A) (A) (A) (A) (A) (A) (A) (A) (A) (A) (A)
                 (A) (A) (A) (A) (A) (A) (A) (A) (A) (A) (A) (A)
                 (A) (A) (A) (A) (A) (A) (A) (A) (A) (A) (A) (A)
                 (A) (A) (A) (A) (A) (A) (A) (A) (A) (A) (A) (A)
                 (A) (A) (A) (A) (A) (A) (A) (A) (A) (A) (A) (A)
                 (A) (A) (A) (A) (A) (A) (A) (A) (A) (A) (A) (A)
                 (A) (A) (A) (A) (A) (A) (A) (A) (A) (A) (A) (A)
                 (A) (A) (A) (A) (A) (A) (A) (A) (A) (A) (A) (A)
                 (A) (A) (A) (A) (A) (A) (A) (A) (A) (A) (A) (A)
                 (A) (A) (A) (A) (A) (A) (A) (A) (A) (A) (A) (A)
                 (A) (A) (A) (A) (A) (A) (A) (A) (A) (A) (A) (A)
                 (A) (A) (A) (A) (A) (A) (A) (A) (A) (A) (A) (A)
                 (A) (A) (A) (A) (A) (A) (A) (A) (A) (A) (A) (A)
                 (A) (A) (A) (A) (A) (A) (A) (A) (A) (A) (A) (A)
                 (A) (A) (A) (A) (A) (A) (A) (A) (A) (A) (A) (A)
                 (A) (A) (A) (A) (A) (A) (A) (A) (A) (A) (A) (A)
                 (A) (A) (A) (A) (A) (A) (A) (A) (A) (A) (A) (A)
                 (A) (A) (A) (A) (A) (A) (A) (A) (A) (A) (A) (A)
                 (A) (A) (A) (A) (A) (A) (A) (A) (A) (A) (A) (A)
                 (A) (A) (A) (A) (A) (A) (A) (A) (A) (A) (A) (A)
                 (A) (A) (A) (A) (A) (A) (A) (A) (A) (A) (A) (A)
                 (A) (A) (A) (A) (A) (A) (A) (A) (A) (A) (A) (A)
                 (A) (A) (A) (A) (A) (A) (A) (A) (A) (A) (A) (A)
                 (A) (A) (A) (A) (A) (A) (A) (A) (A) (A) (A) (A)
                 (A) (A) (A) (A) (A) (A) (A) (A) (A) (A) (A) (A)
                 (A) (A) (A) (A) (A) (A) (A) (A) (A) (A) (A) (A)
                 (A) (A) (A) (A) (A) (A) (A) (A) (A) (A) (A) (A)
                 (A) (A) (A) (A) (A) (A) (A) (A) (A) (A) (A) (A)
                 (A) (A) (A) (A) (A) (A) (A) (A) (A) (A) (A) (A)
                 (A) (A) (A) (A) (A) (A) (A) (A) (A) (A) (A) (A)
                 (A) (A) (A) (A) (A) (A) (A) (A) (A) (A) (A) (A)
                 (A) (A) (A) (A) (A) (A) (A) (A) (A) (A) (A) (A)
                 (A) (A) (A) (A) (A) (A) (A) (A) (A) (A) (A) (A)
                 (A) (A) (A) (A) (A) (A) (A) (A) (A) (A) (A) (A)
                 (A) (A) (A) (A) (A) (A) (A) (A) (A) (A) (A) (A)
                 (A) (A) (A) (A) (A) (A) (A) (A) (A) (A) (A) (A)
                 (A) (A) (A) (A) (A) (A) (A) (A) (A) (A) (A) (A)
                 (A) (A) (A) (A) (A) (A) (A) (A) (A) (A) (A) (A)
                 (A) (A) (A) (A) (A) (A) (A) (A) (A) (A) (A) (A)
                 (A) (A) (A) (A) (A) (A) (A) (A) (A) (A) (A) (A)
                 (A) (A) (A) (A) (A) (A) (A) (A) (A) (A) (A) (A)
                 (A) (A) (A) (A) (A) (A) (A) (A) (A) (A) (A) (A)
                 (A) (A) (A) (A) (A) (A) (A) (A) (A) (A) (A) (A)
                 (A) (A) (A) (A) (A) (A) (A) (A) (A) (A) (A) (A)
                 (A) (A) (A) (A) (A) (A) (A) (A) (A) (A) (A) (A)
                 (A) (A) (A) (A) (A) (A) (A) (A) (A) (A) (A) (A)
                 (A) (A) (A) (A) (A) (A) (A) (A) (A) (A) (A) (A)
                 (A) (A) (A) (A) (A) (A) (A) (A) (A) (A) (A) (A)
                 (A) (A) (A) (A) (A) (A) (A) (A) (A) (A)
 The electronic state is 1-A.
 Alpha  occ. eigenvalues --  -19.21888 -19.19474 -10.31894 -10.30754 -10.28164
 Alpha  occ. eigenvalues --  -10.28132 -10.27925 -10.27688 -10.27501 -10.27494
 Alpha  occ. eigenvalues --  -10.27469 -10.27419 -10.27416 -10.27350 -10.27269
 Alpha  occ. eigenvalues --  -10.27099 -10.27067 -10.26831 -10.26808 -10.26662
 Alpha  occ. eigenvalues --  -10.26620 -10.26518 -10.26511 -10.26474 -10.26272
 Alpha  occ. eigenvalues --  -10.26155 -10.26079 -10.25990 -10.25973 -10.25951
 Alpha  occ. eigenvalues --  -10.25873 -10.25823 -10.25791 -10.25628 -10.25607
 Alpha  occ. eigenvalues --  -10.25564 -10.25498 -10.24599 -10.24364 -10.23877
 Alpha  occ. eigenvalues --  -10.23823 -10.22463  -1.08991  -1.07305  -0.94085
 Alpha  occ. eigenvalues --   -0.93672  -0.92537  -0.91977  -0.91470  -0.90081
 Alpha  occ. eigenvalues --   -0.87323  -0.86852  -0.86449  -0.85818  -0.85154
 Alpha  occ. eigenvalues --   -0.83318  -0.81866  -0.80800  -0.80146  -0.77035
 Alpha  occ. eigenvalues --   -0.76803  -0.76229  -0.75952  -0.75924  -0.75300
 Alpha  occ. eigenvalues --   -0.75272  -0.75072  -0.73955  -0.73083  -0.70491
 Alpha  occ. eigenvalues --   -0.69201  -0.67831  -0.66629  -0.64500  -0.63733
 Alpha  occ. eigenvalues --   -0.63264  -0.62803  -0.61701  -0.60308  -0.59207
 Alpha  occ. eigenvalues --   -0.59133  -0.58884  -0.57744  -0.57353  -0.55961
 Alpha  occ. eigenvalues --   -0.55702  -0.55047  -0.54679  -0.53827  -0.53596
 Alpha  occ. eigenvalues --   -0.53355  -0.52794  -0.52081  -0.51851  -0.51118
 Alpha  occ. eigenvalues --   -0.50380  -0.50248  -0.49895  -0.49670  -0.49405
 Alpha  occ. eigenvalues --   -0.49215  -0.48810  -0.48503  -0.48350  -0.47945
 Alpha  occ. eigenvalues --   -0.47525  -0.47201  -0.46858  -0.46667  -0.46389
 Alpha  occ. eigenvalues --   -0.46188  -0.45532  -0.45309  -0.44973  -0.44505
 Alpha  occ. eigenvalues --   -0.44056  -0.43866  -0.43469  -0.43033  -0.42922
 Alpha  occ. eigenvalues --   -0.42783  -0.42493  -0.42297  -0.41958  -0.41810
 Alpha  occ. eigenvalues --   -0.41585  -0.41413  -0.41207  -0.40879  -0.40421
 Alpha  occ. eigenvalues --   -0.40359  -0.40052  -0.39940  -0.39503  -0.39024
 Alpha  occ. eigenvalues --   -0.38863  -0.38783  -0.38392  -0.38064  -0.37706
 Alpha  occ. eigenvalues --   -0.37498  -0.37315  -0.36560  -0.35843  -0.35271
 Alpha  occ. eigenvalues --   -0.34835  -0.34791  -0.33516  -0.32226  -0.31846
 Alpha  occ. eigenvalues --   -0.31416  -0.29957  -0.29051  -0.27647  -0.23820
 Alpha  occ. eigenvalues --   -0.20728
 Alpha virt. eigenvalues --   -0.04995  -0.01357   0.03132   0.05333   0.07223
 Alpha virt. eigenvalues --    0.08656   0.09795   0.10025   0.10696   0.12206
 Alpha virt. eigenvalues --    0.12649   0.12937   0.13265   0.13489   0.13530
 Alpha virt. eigenvalues --    0.13761   0.14003   0.14171   0.14655   0.14687
 Alpha virt. eigenvalues --    0.15405   0.15743   0.15769   0.16170   0.16393
 Alpha virt. eigenvalues --    0.17015   0.17132   0.17492   0.17943   0.18117
 Alpha virt. eigenvalues --    0.18342   0.18596   0.18732   0.19125   0.19344
 Alpha virt. eigenvalues --    0.19756   0.20030   0.20197   0.20263   0.20727
 Alpha virt. eigenvalues --    0.20743   0.20948   0.21091   0.21476   0.21647
 Alpha virt. eigenvalues --    0.21925   0.22160   0.22285   0.22625   0.23054
 Alpha virt. eigenvalues --    0.23192   0.23344   0.23978   0.24037   0.24189
 Alpha virt. eigenvalues --    0.24521   0.24918   0.25234   0.25394   0.25820
 Alpha virt. eigenvalues --    0.26084   0.26211   0.26693   0.27195   0.27334
 Alpha virt. eigenvalues --    0.27453   0.27850   0.28580   0.28749   0.29219
 Alpha virt. eigenvalues --    0.29305   0.29960   0.30423   0.30447   0.30582
 Alpha virt. eigenvalues --    0.30937   0.31424   0.31826   0.32035   0.32480
 Alpha virt. eigenvalues --    0.32869   0.32994   0.33136   0.33585   0.34122
 Alpha virt. eigenvalues --    0.34293   0.35887   0.36181   0.36212   0.36654
 Alpha virt. eigenvalues --    0.38493   0.39110   0.39444   0.40563   0.41736
 Alpha virt. eigenvalues --    0.42141   0.43706   0.43968   0.44020   0.45085
 Alpha virt. eigenvalues --    0.45689   0.47548   0.48515   0.48751   0.49724
 Alpha virt. eigenvalues --    0.50926   0.51405   0.52423   0.53849   0.54500
 Alpha virt. eigenvalues --    0.55623   0.55831   0.56584   0.56626   0.57086
 Alpha virt. eigenvalues --    0.57802   0.58095   0.58302   0.58800   0.58959
 Alpha virt. eigenvalues --    0.59425   0.59429   0.60012   0.60162   0.60345
 Alpha virt. eigenvalues --    0.60982   0.61099   0.61301   0.61558   0.61695
 Alpha virt. eigenvalues --    0.62242   0.62692   0.62817   0.63164   0.63618
 Alpha virt. eigenvalues --    0.64116   0.64465   0.64667   0.65048   0.65138
 Alpha virt. eigenvalues --    0.65577   0.65771   0.65977   0.66203   0.66712
 Alpha virt. eigenvalues --    0.66985   0.67326   0.67719   0.68253   0.68557
 Alpha virt. eigenvalues --    0.68830   0.68998   0.69165   0.69302   0.69945
 Alpha virt. eigenvalues --    0.70328   0.70540   0.71087   0.71243   0.71340
 Alpha virt. eigenvalues --    0.71954   0.72313   0.72672   0.73181   0.73394
 Alpha virt. eigenvalues --    0.73759   0.74251   0.74696   0.74784   0.75156
 Alpha virt. eigenvalues --    0.75512   0.75958   0.76421   0.76495   0.77218
 Alpha virt. eigenvalues --    0.77691   0.77893   0.78118   0.78438   0.78986
 Alpha virt. eigenvalues --    0.79420   0.80021   0.80195   0.80271   0.80828
 Alpha virt. eigenvalues --    0.80878   0.81264   0.81673   0.81888   0.82176
 Alpha virt. eigenvalues --    0.82626   0.83126   0.83529   0.84060   0.84140
 Alpha virt. eigenvalues --    0.84202   0.84645   0.84802   0.84912   0.85369
 Alpha virt. eigenvalues --    0.85764   0.86027   0.86135   0.86505   0.86728
 Alpha virt. eigenvalues --    0.87281   0.87363   0.87703   0.87919   0.88470
 Alpha virt. eigenvalues --    0.88684   0.88876   0.89477   0.89648   0.89950
 Alpha virt. eigenvalues --    0.90408   0.90636   0.90754   0.91368   0.91578
 Alpha virt. eigenvalues --    0.91794   0.91853   0.92124   0.92385   0.92522
 Alpha virt. eigenvalues --    0.93308   0.93532   0.93616   0.93818   0.93984
 Alpha virt. eigenvalues --    0.94577   0.95202   0.95301   0.95812   0.95892
 Alpha virt. eigenvalues --    0.96426   0.96636   0.96805   0.97177   0.97524
 Alpha virt. eigenvalues --    0.97803   0.98180   0.98627   0.98672   0.99024
 Alpha virt. eigenvalues --    0.99206   0.99603   0.99944   1.00600   1.00979
 Alpha virt. eigenvalues --    1.01382   1.01547   1.01609   1.02301   1.02431
 Alpha virt. eigenvalues --    1.03083   1.04047   1.04203   1.04255   1.04594
 Alpha virt. eigenvalues --    1.05271   1.05921   1.06917   1.07247   1.08326
 Alpha virt. eigenvalues --    1.08572   1.09194   1.09273   1.09702   1.10205
 Alpha virt. eigenvalues --    1.10669   1.11379   1.11633   1.11692   1.12378
 Alpha virt. eigenvalues --    1.12888   1.12936   1.13307   1.14136   1.14438
 Alpha virt. eigenvalues --    1.15598   1.15781   1.16993   1.17746   1.17952
 Alpha virt. eigenvalues --    1.18901   1.20282   1.20733   1.21195   1.21473
 Alpha virt. eigenvalues --    1.22525   1.23097   1.23333   1.24602   1.25190
 Alpha virt. eigenvalues --    1.25711   1.25870   1.26516   1.27224   1.27631
 Alpha virt. eigenvalues --    1.29455   1.30124   1.30402   1.30865   1.31481
 Alpha virt. eigenvalues --    1.32170   1.33227   1.34079   1.34935   1.35320
 Alpha virt. eigenvalues --    1.37668   1.37834   1.38155   1.38451   1.39366
 Alpha virt. eigenvalues --    1.39691   1.40364   1.41424   1.41918   1.42600
 Alpha virt. eigenvalues --    1.42875   1.43991   1.44150   1.44889   1.45507
 Alpha virt. eigenvalues --    1.45849   1.46255   1.47571   1.48576   1.49123
 Alpha virt. eigenvalues --    1.49470   1.49879   1.50328   1.51282   1.52109
 Alpha virt. eigenvalues --    1.52751   1.53368   1.54487   1.55355   1.55786
 Alpha virt. eigenvalues --    1.56644   1.56843   1.57786   1.58509   1.59376
 Alpha virt. eigenvalues --    1.60053   1.62170   1.62553   1.63187   1.63893
 Alpha virt. eigenvalues --    1.64197   1.65274   1.65846   1.66214   1.67121
 Alpha virt. eigenvalues --    1.68463   1.69136   1.69403   1.70038   1.70812
 Alpha virt. eigenvalues --    1.72720   1.73980   1.74703   1.75653   1.76536
 Alpha virt. eigenvalues --    1.76745   1.76765   1.77094   1.78437   1.78580
 Alpha virt. eigenvalues --    1.78892   1.80098   1.80263   1.81585   1.82750
 Alpha virt. eigenvalues --    1.82957   1.83506   1.84742   1.84993   1.85331
 Alpha virt. eigenvalues --    1.85418   1.85839   1.86220   1.86267   1.86858
 Alpha virt. eigenvalues --    1.87290   1.87408   1.87784   1.88108   1.88998
 Alpha virt. eigenvalues --    1.89483   1.89798   1.90399   1.90910   1.91542
 Alpha virt. eigenvalues --    1.91800   1.92073   1.92402   1.92619   1.92840
 Alpha virt. eigenvalues --    1.93363   1.93495   1.94869   1.94910   1.95725
 Alpha virt. eigenvalues --    1.95873   1.96403   1.96552   1.96677   1.97519
 Alpha virt. eigenvalues --    1.97823   1.98165   1.98447   1.98495   1.98884
 Alpha virt. eigenvalues --    1.99239   1.99429   1.99897   2.00142   2.00690
 Alpha virt. eigenvalues --    2.01025   2.01406   2.01984   2.02126   2.03018
 Alpha virt. eigenvalues --    2.03275   2.03705   2.04360   2.04807   2.05613
 Alpha virt. eigenvalues --    2.05743   2.05805   2.06163   2.06243   2.06472
 Alpha virt. eigenvalues --    2.06950   2.07398   2.08033   2.08091   2.09215
 Alpha virt. eigenvalues --    2.10075   2.10137   2.10389   2.11096   2.11415
 Alpha virt. eigenvalues --    2.11761   2.11923   2.11967   2.12487   2.13542
 Alpha virt. eigenvalues --    2.14009   2.14410   2.14569   2.14809   2.15005
 Alpha virt. eigenvalues --    2.15305   2.15444   2.15898   2.16462   2.16833
 Alpha virt. eigenvalues --    2.17183   2.17671   2.18276   2.18624   2.18740
 Alpha virt. eigenvalues --    2.18935   2.19389   2.20575   2.20963   2.21243
 Alpha virt. eigenvalues --    2.21835   2.22388   2.22396   2.22779   2.22813
 Alpha virt. eigenvalues --    2.23738   2.24174   2.24570   2.24889   2.25012
 Alpha virt. eigenvalues --    2.25565   2.25888   2.26565   2.26668   2.27151
 Alpha virt. eigenvalues --    2.28192   2.29407   2.29897   2.29992   2.30279
 Alpha virt. eigenvalues --    2.30849   2.31863   2.32420   2.32539   2.32899
 Alpha virt. eigenvalues --    2.34127   2.34473   2.35092   2.35705   2.35984
 Alpha virt. eigenvalues --    2.36860   2.37717   2.37920   2.38227   2.38632
 Alpha virt. eigenvalues --    2.39208   2.39528   2.39917   2.40196   2.40383
 Alpha virt. eigenvalues --    2.41785   2.42429   2.42548   2.43641   2.44268
 Alpha virt. eigenvalues --    2.44575   2.45036   2.45343   2.46417   2.46502
 Alpha virt. eigenvalues --    2.47047   2.47232   2.47845   2.48753   2.48860
 Alpha virt. eigenvalues --    2.49055   2.49545   2.50077   2.50607   2.51037
 Alpha virt. eigenvalues --    2.51466   2.52094   2.52611   2.52886   2.53503
 Alpha virt. eigenvalues --    2.54332   2.55292   2.55359   2.55872   2.56225
 Alpha virt. eigenvalues --    2.56468   2.56927   2.57442   2.57796   2.57900
 Alpha virt. eigenvalues --    2.58529   2.58700   2.59468   2.59751   2.59992
 Alpha virt. eigenvalues --    2.60612   2.60734   2.60967   2.61197   2.62182
 Alpha virt. eigenvalues --    2.62602   2.62953   2.63261   2.63353   2.63681
 Alpha virt. eigenvalues --    2.64987   2.65575   2.65713   2.66269   2.66917
 Alpha virt. eigenvalues --    2.66996   2.67386   2.67672   2.67985   2.68668
 Alpha virt. eigenvalues --    2.69080   2.69142   2.69445   2.69800   2.70081
 Alpha virt. eigenvalues --    2.70978   2.71442   2.71821   2.72162   2.72753
 Alpha virt. eigenvalues --    2.73504   2.73706   2.74147   2.74969   2.75490
 Alpha virt. eigenvalues --    2.75903   2.76213   2.76566   2.76815   2.77383
 Alpha virt. eigenvalues --    2.77897   2.78342   2.78474   2.79078   2.79599
 Alpha virt. eigenvalues --    2.79692   2.79958   2.81149   2.81633   2.81795
 Alpha virt. eigenvalues --    2.82088   2.82634   2.83030   2.83233   2.83756
 Alpha virt. eigenvalues --    2.84062   2.84234   2.85248   2.85369   2.86280
 Alpha virt. eigenvalues --    2.87008   2.87096   2.87618   2.87859   2.88279
 Alpha virt. eigenvalues --    2.89061   2.89251   2.89633   2.91222   2.91763
 Alpha virt. eigenvalues --    2.92142   2.92785   2.93649   2.93992   2.95487
 Alpha virt. eigenvalues --    2.96240   2.96677   2.96775   2.98178   2.99338
 Alpha virt. eigenvalues --    2.99951   3.00462   3.00787   3.01687   3.01848
 Alpha virt. eigenvalues --    3.02582   3.02842   3.04672   3.04948   3.05706
 Alpha virt. eigenvalues --    3.06551   3.07203   3.07806   3.08079   3.09071
 Alpha virt. eigenvalues --    3.09795   3.11107   3.11732   3.12968   3.13432
 Alpha virt. eigenvalues --    3.14493   3.14523   3.15317   3.15735   3.16158
 Alpha virt. eigenvalues --    3.17433   3.17674   3.17831   3.22530   3.23832
 Alpha virt. eigenvalues --    3.23851   3.26294   3.27602   3.29551   3.29693
 Alpha virt. eigenvalues --    3.31056   3.31529   3.33025   3.33519   3.34560
 Alpha virt. eigenvalues --    3.35078   3.36007   3.38504   3.38772   3.38792
 Alpha virt. eigenvalues --    3.40064   3.40737   3.41724   3.41897   3.42258
 Alpha virt. eigenvalues --    3.42886   3.44459   3.45230   3.45742   3.47225
 Alpha virt. eigenvalues --    3.47795   3.48356   3.48857   3.49720   3.49888
 Alpha virt. eigenvalues --    3.50204   3.50578   3.51522   3.52869   3.53744
 Alpha virt. eigenvalues --    3.54680   3.55085   3.56217   3.57462   3.57848
 Alpha virt. eigenvalues --    3.60682   3.63043   3.64100   3.65199   3.65562
 Alpha virt. eigenvalues --    3.67828   3.69066   3.72477   3.75945   3.76637
 Alpha virt. eigenvalues --    3.84661   3.95268   4.07639   4.09962   4.19347
 Alpha virt. eigenvalues --    4.19546   4.20171   4.22719   4.24827   4.25428
 Alpha virt. eigenvalues --    4.27218   4.28828   4.30741   4.34250   4.36233
 Alpha virt. eigenvalues --    4.38294   4.41037   4.42341   4.44385   4.46220
 Alpha virt. eigenvalues --    4.48173   4.48750   4.49552   4.53923   4.54667
 Alpha virt. eigenvalues --    4.56630   4.57832   4.59440   4.61955   4.62992
 Alpha virt. eigenvalues --    4.63745   4.68844   4.69147   4.69345   4.72588
 Alpha virt. eigenvalues --    4.73202   4.77003   4.80238   4.82758   4.84086
 Alpha virt. eigenvalues --    4.85639   4.86003   4.90918   4.91156
          Condensed to atoms (all electrons):
 Mulliken charges:
               1
     1  O   -0.541099
     2  O   -0.567052
     3  C    0.034090
     4  C   -0.153122
     5  C   -0.182128
     6  C    0.143112
     7  C    0.105381
     8  C   -0.018105
     9  C   -0.304207
    10  C   -0.264511
    11  C   -0.185272
    12  C   -0.115810
    13  C    0.169634
    14  C    0.033903
    15  C   -0.073124
    16  C   -0.203218
    17  C    0.019622
    18  C   -0.307226
    19  C   -0.291589
    20  C   -0.347254
    21  C   -0.093913
    22  C   -0.085712
    23  C   -0.367397
    24  C    0.102681
    25  C   -0.111564
    26  C   -0.372012
    27  C    0.097250
    28  C   -0.110557
    29  C   -0.364434
    30  C   -0.090077
    31  C   -0.056005
    32  C   -0.112499
    33  C   -0.137017
    34  C    0.079325
    35  C   -0.134839
    36  C    0.141917
    37  C   -0.372426
    38  C   -0.124242
    39  C   -0.144678
    40  C   -0.363587
    41  C   -0.053970
    42  C   -0.068869
    43  H    0.077602
    44  H    0.108628
    45  H    0.083000
    46  H    0.082791
    47  H    0.086783
    48  H    0.097257
    49  H    0.092371
    50  H    0.087034
    51  H    0.100465
    52  H    0.098998
    53  H    0.108641
    54  H    0.078803
    55  H    0.056292
    56  H    0.051009
    57  H    0.076682
    58  H    0.119951
    59  H    0.115000
    60  H    0.100662
    61  H    0.107304
    62  H    0.069338
    63  H    0.106460
    64  H    0.096400
    65  H    0.098176
    66  H    0.123646
    67  H    0.135137
    68  H    0.082048
    69  H    0.291033
    70  H    0.101936
    71  H    0.084608
    72  H    0.126216
    73  H    0.112728
    74  H    0.111912
    75  H    0.299014
    76  H    0.078872
    77  H    0.089225
    78  H    0.121198
    79  H    0.107563
    80  H    0.076078
    81  H    0.116862
    82  H    0.129144
    83  H    0.093122
    84  H    0.069333
    85  H    0.095437
    86  H    0.083255
    87  H    0.082912
    88  H    0.085811
    89  H    0.118089
    90  H    0.138075
    91  H    0.104488
    92  H    0.063701
    93  H    0.065160
    94  H    0.130106
    95  H    0.100450
    96  H    0.114376
    97  H    0.070582
    98  H    0.088837
 Sum of Mulliken charges =  -0.00000
 Mulliken charges with hydrogens summed into heavy atoms:
               1
     1  O   -0.250066
     2  O   -0.268037
     3  C    0.034090
     4  C   -0.075520
     5  C    0.009500
     6  C    0.225903
     7  C    0.105381
     8  C   -0.018105
     9  C   -0.027795
    10  C    0.021986
    11  C    0.002171
    12  C   -0.059518
    13  C    0.220644
    14  C    0.033903
    15  C    0.003557
    16  C    0.031732
    17  C    0.019622
    18  C   -0.029923
    19  C    0.009447
    20  C   -0.006423
    21  C   -0.009306
    22  C    0.016224
    23  C   -0.016541
    24  C    0.102681
    25  C   -0.032692
    26  C   -0.054026
    27  C    0.097250
    28  C   -0.034479
    29  C   -0.025306
    30  C   -0.020744
    31  C    0.039432
    32  C   -0.029243
    33  C   -0.054105
    34  C    0.079325
    35  C   -0.049028
    36  C    0.141917
    37  C   -0.011774
    38  C   -0.060541
    39  C   -0.079518
    40  C   -0.018655
    41  C    0.016612
    42  C    0.019968
 Electronic spatial extent (au):  <R**2>=         103123.2970
 Charge=             -0.0000 electrons
 Dipole moment (field-independent basis, Debye):
    X=             -0.7181    Y=             -0.2839    Z=             -0.0029  Tot=              0.7722
 Quadrupole moment (field-independent basis, Debye-Ang):
   XX=           -311.1582   YY=           -242.0586   ZZ=           -263.7530
   XY=             10.8635   XZ=             25.3638   YZ=              4.7837
 Traceless Quadrupole moment (field-independent basis, Debye-Ang):
   XX=            -38.8350   YY=             30.2647   ZZ=              8.5703
   XY=             10.8635   XZ=             25.3638   YZ=              4.7837
 Octapole moment (field-independent basis, Debye-Ang**2):
  XXX=           -507.4244  YYY=             10.5378  ZZZ=             19.2494  XYY=            -10.5739
  XXY=            -45.6211  XXZ=            -74.6394  XZZ=             35.3103  YZZ=              1.5553
  YYZ=              3.0286  XYZ=              8.7967
 Hexadecapole moment (field-independent basis, Debye-Ang**3):
 XXXX=        -152869.2293 YYYY=          -4309.1038 ZZZZ=          -2213.0140 XXXY=           2276.8046
 XXXZ=           6333.9198 YYYX=            246.6023 YYYZ=             24.9782 ZZZX=            -46.2303
 ZZZY=             24.0100 XXYY=         -21632.1043 XXZZ=         -22439.8820 YYZZ=          -1111.0157
 XXYZ=           1196.6561 YYXZ=             83.8541 ZZXY=            172.5830
 N-N= 4.029458126187D+03 E-N=-1.201353821439D+04  KE= 1.689705283701D+03
 1\1\GINC-PADAWAN\SP\RCAM-B3LYP TD-FC\6-31G(d,p)\C40H56O2\PADAWAN\16-Ju
 l-2019\0\\# td=(NStates=1) CAM-B3LYP/6-31G(d,p)\\TD\\0,1\O,0,-14.13569
 94451,-1.9222206038,0.6771379691\O,0,14.6938312199,1.1161091975,0.3706
 276587\C,0,-11.6556484244,0.0079668716,1.4321480348\C,0,-10.9384008026
 ,0.3374865197,0.0633900518\C,0,-11.9017656572,-1.510875572,1.416159457
 2\C,0,-12.7279061841,-2.0925703218,0.3382179727\C,0,-11.6175370426,-0.
 3139788762,-1.1064061305\C,0,10.9117145021,1.0234139839,1.1114014198\C
 ,0,-10.7764391171,0.4394156804,2.6327603267\C,0,-12.9099171541,0.77874
 35213,1.505371614\C,0,12.3994771282,1.5902984563,0.8253599222\C,0,-12.
 4323642223,-1.3700448723,-0.9361163803\C,0,13.3866902899,0.5207497476,
 0.5011274316\C,0,10.6039898733,-0.1372231325,0.1369372788\C,0,-9.48684
 74486,-0.0581086591,-0.0179417866\C,0,13.0107390515,-0.1521624356,-0.7
 659621825\C,0,11.5406971585,-0.5391389592,-0.7473497938\C,0,9.99147603
 32,2.1799573077,1.029195633\C,0,10.9621470472,0.4282019956,2.507641325
 4\C,0,-11.3807525728,0.3824098825,-2.45931819\C,0,-8.4927053708,0.7783
 028127,-0.1776913916\C,0,9.1336582951,-0.4984176176,0.0802681106\C,0,1
 1.2440243479,-1.5324062074,-1.9627258773\C,0,-7.0218835113,0.480905332
 3,-0.2876008494\C,0,8.7583822946,-1.7635561531,-0.1108962306\C,0,-6.65
 64370652,-0.9527340303,-0.1119783092\C,0,7.4306415517,-2.2240852805,-0
 .1449055529\C,0,-6.0943892149,1.5005536299,-0.3927511317\C,0,7.0311863
 128,-3.6362673489,0.0652967479\C,0,6.4782250915,-1.3053308218,-0.26682
 90253\C,0,-4.7190958833,1.3940529445,-0.4751784312\C,0,5.0124920951,-1
 .6142592688,-0.099047685\C,0,-3.9767690493,2.5390269289,-0.7748186709\
 C,0,-2.5743378719,2.5763255902,-0.8680495528\C,0,4.005894555,-0.621982
 7044,-0.3836478812\C,0,2.6046175104,-0.7909235639,-0.4149264452\C,0,-1
 .9043389841,3.9346480474,-1.0738465321\C,0,-1.7418412696,1.5486876132,
 -0.5753335498\C,0,1.812379783,0.2232938909,-0.5983283947\C,0,2.0409974
 208,-2.1700197893,-0.0379714292\C,0,-0.2410563645,1.4951608374,-0.6721
 105709\C,0,0.3826630971,0.303462014,-0.4673699978\H,0,-10.7425009916,1
 .5141131966,-0.1774195872\H,0,-12.1232858017,-2.0244824619,2.402368131
 5\H,0,-10.8871963892,-2.1288620812,1.3816014427\H,0,-12.5829819318,-3.
 2148805954,0.1073755997\H,0,-9.7109164929,-0.0360019246,2.3714957735\H
 ,0,-10.6722373903,1.5520582828,2.7757622981\H,0,-11.1373913314,0.12553
 59726,3.6892030981\H,0,-13.2584470465,0.612037206,0.3874552158\H,0,-13
 .5943552061,0.4663082382,2.3392879308\H,0,-12.8981885043,1.780621684,1
 .6010005834\H,0,12.3513024969,2.204935443,-0.0327254293\H,0,12.8028247
 096,2.0514791868,1.6501126125\H,0,-12.8206555442,-1.7028670832,-2.0269
 968904\H,0,13.5352231071,-0.3554052863,1.3787382097\H,0,-9.3003524009,
 -1.1774926083,-0.2815805981\H,0,13.4794030844,-1.136576697,-0.88721387
 74\H,0,13.2343198495,0.7108596639,-1.519391863\H,0,8.9861353111,1.8860
 086527,1.4352487723\H,0,9.8885907207,2.7866212645,0.0889158071\H,0,10.
 2551791912,3.0475697287,1.8804241934\H,0,11.7988527266,-0.2128785365,2
 .3752739488\H,0,10.0277877494,-0.2012026613,2.661989327\H,0,11.0694778
 469,1.0964074375,3.348859829\H,0,-10.3152840264,0.6954994606,-2.442651
 6609\H,0,-12.1362926856,1.1034663451,-2.7488919545\H,0,-11.5177096161,
 -0.5362623775,-3.2552532829\H,0,-14.7093542087,-2.2323521878,0.0627180
 68\H,0,8.514240492,0.3374439696,0.0820208483\H,0,-8.7310882777,1.76831
 84846,0.1283575154\H,0,11.4799937339,-2.4738188779,-1.7840212536\H,0,1
 0.1793708035,-1.6794640481,-2.1757035044\H,0,11.734112705,-1.109814071
 5,-2.830899038\H,0,14.680347215,1.7792960294,1.2491928882\H,0,9.583038
 0801,-2.5305861403,-0.2132077633\H,0,-5.4877732383,-1.1992070714,0.074
 7048673\H,0,-7.1385727554,-1.4446764408,0.8120734597\H,0,-7.0480810433
 ,-1.6568941376,-0.9982780426\H,0,-6.4391562021,2.6702058157,-0.3657697
 787\H,0,6.5517387229,-3.9697103936,1.1172914248\H,0,6.2269000352,-3.74
 52097088,-0.6931389051\H,0,8.0263025277,-4.1651827029,-0.2889619289\H,
 0,6.6415525822,-0.3082580652,-0.4530274246\H,0,-4.2382260542,0.3335830
 235,-0.3131273703\H,0,4.8855621597,-2.6319424472,0.1387062098\H,0,-4.4
 163276785,3.6501329951,-0.553374993\H,0,4.3446345397,0.4118985288,-0.6
 142906465\H,0,-1.2968294411,3.6534467914,-2.0335816301\H,0,-1.22998583
 7,4.0480919665,-0.303782338\H,0,-2.5262821163,4.8597383893,-0.99151744
 54\H,0,-2.2644753279,0.5939860241,-0.3030750375\H,0,2.3459736395,1.305
 5445437,-0.7111481299\H,0,2.4662751552,-2.4445808605,0.9733357121\H,0,
 0.8809531666,-2.3548347746,-0.172688554\H,0,2.3147242218,-2.7653843256
 ,-1.0260468477\H,0,0.1792538103,2.2397738171,-1.0859455861\H,0,-0.1400
 869047,-0.5884090107,-0.1260332583\\Version=ES64L-G16RevA.03\State=1-A
 \HF=-1706.9553057\RMSD=8.069e-09\PG=C01 [X(C40H56O2)]\\@


 There was a great rattling of the words for the fewness of ideas.
                   -- Charles Baxter in Gryphon
 Job cpu time:       0 days  2 hours 16 minutes  4.1 seconds.
 Elapsed time:       0 days  1 hours 30 minutes 46.6 seconds.
 File lengths (MBytes):  RWF=   3127 Int=      0 D2E=      0 Chk=     84 Scr=      1
 Normal termination of Gaussian 16 at Tue Jul 16 06:12:10 2019.
