 Entering Gaussian System, Link 0=g16
 Input=Geometria-376-.com
 Output=Geometria-376-.log
 Initial command:
 /usr/local/g16/l1.exe "/home/padawan/israel-mol/lutein/spectra/emi/Gau-28146.inp" -scrdir="/home/padawan/israel-mol/lutein/spectra/emi/"
 Entering Link 1 = /usr/local/g16/l1.exe PID=     28148.
  
 Copyright (c) 1988,1990,1992,1993,1995,1998,2003,2009,2016,
            Gaussian, Inc.  All Rights Reserved.
  
 This is part of the Gaussian(R) 16 program.  It is based on
 the Gaussian(R) 09 system (copyright 2009, Gaussian, Inc.),
 the Gaussian(R) 03 system (copyright 2003, Gaussian, Inc.),
 the Gaussian(R) 98 system (copyright 1998, Gaussian, Inc.),
 the Gaussian(R) 94 system (copyright 1995, Gaussian, Inc.),
 the Gaussian 92(TM) system (copyright 1992, Gaussian, Inc.),
 the Gaussian 90(TM) system (copyright 1990, Gaussian, Inc.),
 the Gaussian 88(TM) system (copyright 1988, Gaussian, Inc.),
 the Gaussian 86(TM) system (copyright 1986, Carnegie Mellon
 University), and the Gaussian 82(TM) system (copyright 1983,
 Carnegie Mellon University). Gaussian is a federally registered
 trademark of Gaussian, Inc.
  
 This software contains proprietary and confidential information,
 including trade secrets, belonging to Gaussian, Inc.
  
 This software is provided under written license and may be
 used, copied, transmitted, or stored only in accord with that
 written license.
  
 The following legend is applicable only to US Government
 contracts under FAR:
  
                    RESTRICTED RIGHTS LEGEND
  
 Use, reproduction and disclosure by the US Government is
 subject to restrictions as set forth in subparagraphs (a)
 and (c) of the Commercial Computer Software - Restricted
 Rights clause in FAR 52.227-19.
  
 Gaussian, Inc.
 340 Quinnipiac St., Bldg. 40, Wallingford CT 06492
  
  
 ---------------------------------------------------------------
 Warning -- This program may not be used in any manner that
 competes with the business of Gaussian, Inc. or will provide
 assistance to any competitor of Gaussian, Inc.  The licensee
 of this program is prohibited from giving any competitor of
 Gaussian, Inc. access to this program.  By using this program,
 the user acknowledges that Gaussian, Inc. is engaged in the
 business of creating and licensing software in the field of
 computational chemistry and represents and warrants to the
 licensee that it is not a competitor of Gaussian, Inc. and that
 it will not use this program in any manner prohibited above.
 ---------------------------------------------------------------
  

 Cite this work as:
 Gaussian 16, Revision A.03,
 M. J. Frisch, G. W. Trucks, H. B. Schlegel, G. E. Scuseria, 
 M. A. Robb, J. R. Cheeseman, G. Scalmani, V. Barone, 
 G. A. Petersson, H. Nakatsuji, X. Li, M. Caricato, A. V. Marenich, 
 J. Bloino, B. G. Janesko, R. Gomperts, B. Mennucci, H. P. Hratchian, 
 J. V. Ortiz, A. F. Izmaylov, J. L. Sonnenberg, D. Williams-Young, 
 F. Ding, F. Lipparini, F. Egidi, J. Goings, B. Peng, A. Petrone, 
 T. Henderson, D. Ranasinghe, V. G. Zakrzewski, J. Gao, N. Rega, 
 G. Zheng, W. Liang, M. Hada, M. Ehara, K. Toyota, R. Fukuda, 
 J. Hasegawa, M. Ishida, T. Nakajima, Y. Honda, O. Kitao, H. Nakai, 
 T. Vreven, K. Throssell, J. A. Montgomery, Jr., J. E. Peralta, 
 F. Ogliaro, M. J. Bearpark, J. J. Heyd, E. N. Brothers, K. N. Kudin, 
 V. N. Staroverov, T. A. Keith, R. Kobayashi, J. Normand, 
 K. Raghavachari, A. P. Rendell, J. C. Burant, S. S. Iyengar, 
 J. Tomasi, M. Cossi, J. M. Millam, M. Klene, C. Adamo, R. Cammi, 
 J. W. Ochterski, R. L. Martin, K. Morokuma, O. Farkas, 
 J. B. Foresman, and D. J. Fox, Gaussian, Inc., Wallingford CT, 2016.
 
 ******************************************
 Gaussian 16:  ES64L-G16RevA.03 25-Dec-2016
                15-Jul-2019 
 ******************************************
 %nproc=4
 Will use up to    4 processors via shared memory.
 %Mem=4GB
 -------------------------------------
 # td=(NStates=1) CAM-B3LYP/6-31G(d,p)
 -------------------------------------
 1/38=1,172=1/1;
 2/12=2,17=6,18=5,40=1/2;
 3/5=1,6=6,7=101,11=9,25=1,30=1,74=-40/1,2,3,8;
 4//1;
 5/5=2,38=5/2;
 8/6=1,10=2,108=1/1;
 9/41=1,42=1,70=2/14;
 6/7=2,8=2,9=2,10=2/1;
 99/5=1,9=1/99;
 --
 TD
 --
 Symbolic Z-matrix:
 Charge =  0 Multiplicity = 1
 8                    -14.30772  -1.94268   0.39909 
 8                     14.86171   0.81411  -0.10685 
 6                    -11.83423  -0.02062   1.23758 
 6                    -11.03664   0.20586  -0.0685 
 6                    -12.03805  -1.61508   1.38934 
 6                    -12.78871  -2.13728   0.19777 
 6                    -11.60929  -0.52811  -1.2373 
 6                     11.25101   0.90474   1.11752 
 6                    -11.19614   0.45355   2.55385 
 6                    -13.15968   0.72622   1.26407 
 6                     12.63597   1.42495   0.74311 
 6                    -12.35217  -1.62138  -1.10458 
 6                     13.49888   0.24001   0.28198 
 6                     10.72297  -0.02538  -0.01282 
 6                    -9.61632  -0.12821   0.04243 
 6                     13.01304  -0.34749  -0.91151 
 6                     11.60129  -0.62498  -0.88706 
 6                     10.391    2.14184   1.05769 
 6                     11.17668   0.25428   2.49639 
 6                    -11.16743  -0.03323  -2.68172 
 6                    -8.62513   0.76737  -0.23243 
 6                     9.39072  -0.43591   0.1828 
 6                     11.09222  -1.43871  -2.08722 
 6                    -7.15343   0.54012  -0.01761 
 6                     8.84054  -1.69129   0.0088 
 6                    -6.65643  -0.87716   0.35883 
 6                     7.46387  -2.15923  -0.07592 
 6                    -6.26594   1.57387  -0.23482 
 6                     7.02191  -3.57539   0.11217 
 6                     6.39219  -1.15333  -0.19987 
 6                    -4.86049   1.55519  -0.34537 
 6                     5.011    -1.38738  -0.18726 
 6                    -4.04402   2.66662  -0.62255 
 6                    -2.58675   2.66831  -0.73384 
 6                     4.0065   -0.36705  -0.21474 
 6                     2.63676  -0.61963  -0.0718 
 6                    -1.90972   3.98073  -1.09591 
 6                    -1.68845   1.61282  -0.44609 
 6                     1.72156   0.42926  -0.24282 
 6                     2.16053  -1.99018   0.11509 
 6                    -0.359     1.63915  -0.46206 
 6                     0.40607   0.49474  -0.24178 
 1                    -11.30861   1.33161  -0.02957 
 1                    -12.8628  -1.6523    2.21878 
 1                    -11.07419  -2.10119   1.47296 
 1                    -12.55217  -3.14283   0.1614 
 1                    -10.2331  -0.24152   2.91213 
 1                    -10.7788   1.36413   2.31942 
 1                    -12.10314   0.23554   3.26821 
 1                    -13.73215   0.70507   0.17311 
 1                    -14.02422   0.48312   2.08816 
 1                    -12.76184   1.79071   1.51884 
 1                     12.47188   1.99734  -0.04553 
 1                     13.13734   1.92621   1.6415 
 1                    -12.45474  -2.17751  -2.14156 
 1                     13.6341  -0.69066   1.04821 
 1                    -9.37881  -1.13214   0.45687 
 1                     13.75344  -1.30356  -1.08596 
 1                     13.19581   0.30401  -1.75674 
 1                     9.3458    1.94093   1.35619 
 1                     10.1638   2.7187    0.14722 
 1                     10.86611   2.95139   1.53792 
 1                     12.12669  -0.52213   2.36221 
 1                     10.20775  -0.27401   2.66744 
 1                     11.26277   1.1139    3.16735 
 1                    -10.04331   0.09251  -2.92004 
 1                    -11.31317   1.05128  -2.88146 
 1                    -11.76013  -0.37261  -3.62638 
 1                    -14.73819  -1.96597  -0.37453 
 1                     8.84944   0.48439   0.71598 
 1                    -8.95691   1.90674  -0.48997 
 1                     11.55456  -2.32024  -1.99388 
 1                     10.04524  -1.371    -2.27888 
 1                     11.43589  -1.08805  -3.00326 
 1                     15.09828   1.03472   0.95791 
 1                     9.34438  -2.43092  -0.45974 
 1                    -5.51253  -0.9944    0.84872 
 1                    -7.3074   -1.08641   1.07698 
 1                    -6.72994  -1.49781  -0.5982 
 1                    -6.64755   2.63383  -0.43029 
 1                     6.63351  -3.93505   1.08867 
 1                     6.31431  -3.76346  -0.70267 
 1                     7.9449   -4.26019  -0.08309 
 1                     7.13635  -0.1758   -0.43646 
 1                    -4.03233   0.53878  -0.22358 
 1                     4.56492  -2.37104   0.33591 
 1                    -4.84322   3.36532  -0.88018 
 1                     4.24436   0.86651  -0.22041 
 1                    -1.46903   3.99818  -2.02074 
 1                    -1.4609    4.29611  -0.28179 
 1                    -2.77783   4.69033  -1.39985 
 1                    -2.244     0.74972   0.19779 
 1                     2.29705   1.47359  -0.24056 
 1                     2.36692  -2.03468   1.36053 
 1                     0.93039  -2.12889  -0.16907 
 1                     2.92992  -2.79313  -0.3157 
 1                     0.18537   2.66649  -0.73547 
 1                    -0.23176  -0.42857   0.22284 
 
 Stoichiometry    C40H56O2
 Framework group  C1[X(C40H56O2)]
 Deg. of freedom   288
 Full point group                 C1      NOp   1
 Largest Abelian subgroup         C1      NOp   1
 Largest concise Abelian subgroup C1      NOp   1
                         Standard orientation:                         
 ---------------------------------------------------------------------
 Center     Atomic      Atomic             Coordinates (Angstroms)
 Number     Number       Type             X           Y           Z
 ---------------------------------------------------------------------
      1          8           0      -14.308922   -1.943989    0.360577
      2          8           0       14.861919    0.807422   -0.089909
      3          6           0      -11.834747   -0.038023    1.233106
      4          6           0      -11.036720    0.210845   -0.068625
      5          6           0      -12.039356   -1.634792    1.356956
      6          6           0      -12.789958   -2.135766    0.156272
      7          6           0      -11.609409   -0.502343   -1.250198
      8          6           0       11.250948    0.878375    1.134961
      9          6           0      -11.196778    0.412788    2.557615
     10          6           0      -13.159860    0.708862    1.272298
     11          6           0       12.636250    1.404387    0.770033
     12          6           0      -12.352835   -1.597411   -1.136772
     13          6           0       13.498724    0.227269    0.288496
     14          6           0       10.722766   -0.031626   -0.011575
     15          6           0       -9.616585   -0.125781    0.036817
     16          6           0       13.012914   -0.339081   -0.915181
     17          6           0       11.601031   -0.616284   -0.895936
     18          6           0       10.391531    2.116739    1.096519
     19          6           0       11.175960    0.203981    2.502245
     20          6           0      -11.166952    0.017467   -2.685650
     21          6           0       -8.624903    0.773989   -0.222122
     22          6           0        9.390276   -0.444877    0.176514
     23          6           0       11.091885   -1.408697   -2.110240
     24          6           0       -7.153363    0.542327   -0.010943
     25          6           0        8.839550   -1.696766   -0.019514
     26          6           0       -6.657124   -0.881541    0.340825
     27          6           0        7.462687   -2.162505   -0.112727
     28          6           0       -6.265333    1.579292   -0.209845
     29          6           0        7.020006   -3.581526    0.050503
     30          6           0        6.391501   -1.154084   -0.219368
     31          6           0       -4.859867    1.561878   -0.320355
     32          6           0        5.010204   -1.387667   -0.211184
     33          6           0       -4.042801    2.677592   -0.577895
     34          6           0       -2.585506    2.680540   -0.688769
     35          6           0        4.006192   -0.366538   -0.221102
     36          6           0        2.636293   -0.620926   -0.082934
     37          6           0       -1.907768    3.998758   -1.027707
     38          6           0       -1.687771    1.619763   -0.419270
     39          6           0        1.721629    0.431223   -0.235846
     40          6           0        2.159372   -1.994310    0.079889
     41          6           0       -0.358307    1.645730   -0.434446
     42          6           0        0.406164    0.497293   -0.233985
     43          1           0      -11.308170    1.335874   -0.010118
     44          1           0      -12.864337   -1.686095    2.185417
     45          1           0      -11.075741   -2.122747    1.432320
     46          1           0      -12.553876   -3.140638    0.102409
     47          1           0      -10.234154   -0.288885    2.903943
     48          1           0      -10.778949    1.327127    2.339215
     49          1           0      -12.104061    0.182770    3.267833
     50          1           0      -13.732062    0.707029    0.180999
     51          1           0      -14.024721    0.451823    2.091809
     52          1           0      -12.761590    1.768558    1.545716
     53          1           0       12.472635    1.990537   -0.008534
     54          1           0       13.137622    1.889645    1.677161
     55          1           0      -12.455402   -2.135310   -2.183323
     56          1           0       13.633313   -0.716700    1.038396
     57          1           0       -9.379652   -1.136908    0.433726
     58          1           0       13.752912   -1.292311   -1.106117
     59          1           0       13.196202    0.326989   -1.748862
     60          1           0        9.346166    1.911143    1.391208
     61          1           0       10.164837    2.709513    0.196204
     62          1           0       10.866901    2.917554    1.590927
     63          1           0       12.125637   -0.570421    2.354771
     64          1           0       10.206736   -0.326761    2.663806
     65          1           0       11.262279    1.051711    3.188132
     66          1           0      -10.042707    0.146817   -2.921459
     67          1           0      -11.312131    1.105370   -2.866459
     68          1           0      -11.759571   -0.305085   -3.636238
     69          1           0      -14.739205   -1.953560   -0.413435
     70          1           0        8.849291    0.466231    0.725549
     71          1           0       -8.956086    1.917839   -0.459823
     72          1           0       11.553790   -2.291947   -2.032192
     73          1           0       10.044984   -1.337163   -2.300955
     74          1           0       11.435958   -1.042267   -3.019931
     75          1           0       15.098320    1.009302    0.978603
     76          1           0        9.343167   -2.428339   -0.500767
     77          1           0       -5.513404   -1.007856    0.828881
     78          1           0       -7.308379   -1.102992    1.055051
     79          1           0       -6.730681   -1.485356   -0.626909
     80          1           0       -6.646397    2.642684   -0.386877
     81          1           0        6.631188   -3.957989    1.020476
     82          1           0        6.312530   -3.755008   -0.767673
     83          1           0        7.942734   -4.263250   -0.156455
     84          1           0        7.136186   -0.172934   -0.438666
     85          1           0       -4.032210    0.543110   -0.216124
     86          1           0        4.563527   -2.380098    0.294617
     87          1           0       -4.841613    3.381065   -0.823482
     88          1           0        4.244631    0.866821   -0.205178
     89          1           0       -1.466830    4.032141   -1.951984
     90          1           0       -1.459009    4.299660   -0.208096
     91          1           0       -2.775466    4.713965   -1.319429
     92          1           0       -2.243898    0.745814    0.209303
     93          1           0        2.297605    1.475079   -0.215211
     94          1           0        2.365417   -2.060640    1.324414
     95          1           0        0.929239   -2.127457   -0.206957
     96          1           0        2.928493   -2.789977   -0.364661
     97          1           0        0.186617    2.677430   -0.689746
     98          1           0       -0.232209   -0.433689    0.214286
 ---------------------------------------------------------------------
 Rotational constants (GHZ):           0.2471804           0.0097851           0.0096371
 Standard basis: 6-31G(d,p) (6D, 7F)
 There are   910 symmetry adapted cartesian basis functions of A   symmetry.
 There are   910 symmetry adapted basis functions of A   symmetry.
   910 basis functions,  1568 primitive gaussians,   910 cartesian basis functions
   156 alpha electrons      156 beta electrons
       nuclear repulsion energy      4008.5442567208 Hartrees.
 NAtoms=   98 NActive=   98 NUniq=   98 SFac= 1.00D+00 NAtFMM=   60 NAOKFM=T Big=T
 Integral buffers will be    131072 words long.
 Raffenetti 1 integral format.
 Two-electron integral symmetry is turned on.
 One-electron integrals computed using PRISM.
 NBasis=   910 RedAO= T EigKep=  8.26D-04  NBF=   910
 NBsUse=   910 1.00D-06 EigRej= -1.00D+00 NBFU=   910
 ExpMin= 1.61D-01 ExpMax= 5.48D+03 ExpMxC= 8.25D+02 IAcc=3 IRadAn=         5 AccDes= 0.00D+00
 Harris functional with IExCor=20419 and IRadAn=       5 diagonalized for initial guess.
 HarFok:  IExCor=20419 AccDes= 0.00D+00 IRadAn=         5 IDoV= 1 UseB2=F ITyADJ=14
 ICtDFT=  3500011 ScaDFX=  1.000000  1.000000  1.000000  1.000000
 FoFCou: FMM=F IPFlag=           0 FMFlag=      100000 FMFlg1=        2001
         NFxFlg=           0 DoJE=T BraDBF=F KetDBF=T FulRan=T
         wScrn=  0.000000 ICntrl=       500 IOpCl=  0 I1Cent=   200000004 NGrid=           0
         NMat0=    1 NMatS0=      1 NMatT0=    0 NMatD0=    1 NMtDS0=    0 NMtDT0=    0
 Petite list used in FoFCou.
 Requested convergence on RMS density matrix=1.00D-08 within 128 cycles.
 Requested convergence on MAX density matrix=1.00D-06.
 Requested convergence on             energy=1.00D-06.
 No special actions if energy rises.
 Integral accuracy reduced to 1.0D-05 until final iterations.
 Initial convergence to 1.0D-05 achieved.  Increase integral accuracy.
 SCF Done:  E(RCAM-B3LYP) =  -1706.75236365     A.U. after   16 cycles
            NFock= 16  Conv=0.90D-08     -V/T= 2.0107
 DoSCS=F DFT=T ScalE2(SS,OS)=  1.000000  1.000000
 ExpMin= 1.61D-01 ExpMax= 5.48D+03 ExpMxC= 8.25D+02 IAcc=3 IRadAn=         5 AccDes= 0.00D+00
 HarFok:  IExCor=  205 AccDes= 0.00D+00 IRadAn=         5 IDoV=-2 UseB2=F ITyADJ=14
 ICtDFT= 12500011 ScaDFX=  1.000000  1.000000  1.000000  1.000000
 GSVD:  LWork=       -2100 too small for GESVD, short by        9450 words or        9450 for optimal perf.
 Range of M.O.s used for correlation:    43   910
 NBasis=   910 NAE=   156 NBE=   156 NFC=    42 NFV=     0
 NROrb=    868 NOA=   114 NOB=   114 NVA=   754 NVB=   754
 Orbital symmetries:
       Occupied  (A) (A) (A) (A) (A) (A) (A) (A) (A) (A) (A) (A)
                 (A) (A) (A) (A) (A) (A) (A) (A) (A) (A) (A) (A)
                 (A) (A) (A) (A) (A) (A) (A) (A) (A) (A) (A) (A)
                 (A) (A) (A) (A) (A) (A) (A) (A) (A) (A) (A) (A)
                 (A) (A) (A) (A) (A) (A) (A) (A) (A) (A) (A) (A)
                 (A) (A) (A) (A) (A) (A) (A) (A) (A) (A) (A) (A)
                 (A) (A) (A) (A) (A) (A) (A) (A) (A) (A) (A) (A)
                 (A) (A) (A) (A) (A) (A) (A) (A) (A) (A) (A) (A)
                 (A) (A) (A) (A) (A) (A) (A) (A) (A) (A) (A) (A)
                 (A) (A) (A) (A) (A) (A) (A) (A) (A) (A) (A) (A)
                 (A) (A) (A) (A) (A) (A) (A) (A) (A) (A) (A) (A)
                 (A) (A) (A) (A) (A) (A) (A) (A) (A) (A) (A) (A)
                 (A) (A) (A) (A) (A) (A) (A) (A) (A) (A) (A) (A)
       Virtual   (A) (A) (A) (A) (A) (A) (A) (A) (A) (A) (A) (A)
                 (A) (A) (A) (A) (A) (A) (A) (A) (A) (A) (A) (A)
                 (A) (A) (A) (A) (A) (A) (A) (A) (A) (A) (A) (A)
                 (A) (A) (A) (A) (A) (A) (A) (A) (A) (A) (A) (A)
                 (A) (A) (A) (A) (A) (A) (A) (A) (A) (A) (A) (A)
                 (A) (A) (A) (A) (A) (A) (A) (A) (A) (A) (A) (A)
                 (A) (A) (A) (A) (A) (A) (A) (A) (A) (A) (A) (A)
                 (A) (A) (A) (A) (A) (A) (A) (A) (A) (A) (A) (A)
                 (A) (A) (A) (A) (A) (A) (A) (A) (A) (A) (A) (A)
                 (A) (A) (A) (A) (A) (A) (A) (A) (A) (A) (A) (A)
                 (A) (A) (A) (A) (A) (A) (A) (A) (A) (A) (A) (A)
                 (A) (A) (A) (A) (A) (A) (A) (A) (A) (A) (A) (A)
                 (A) (A) (A) (A) (A) (A) (A) (A) (A) (A) (A) (A)
                 (A) (A) (A) (A) (A) (A) (A) (A) (A) (A) (A) (A)
                 (A) (A) (A) (A) (A) (A) (A) (A) (A) (A) (A) (A)
                 (A) (A) (A) (A) (A) (A) (A) (A) (A) (A) (A) (A)
                 (A) (A) (A) (A) (A) (A) (A) (A) (A) (A) (A) (A)
                 (A) (A) (A) (A) (A) (A) (A) (A) (A) (A) (A) (A)
                 (A) (A) (A) (A) (A) (A) (A) (A) (A) (A) (A) (A)
                 (A) (A) (A) (A) (A) (A) (A) (A) (A) (A) (A) (A)
                 (A) (A) (A) (A) (A) (A) (A) (A) (A) (A) (A) (A)
                 (A) (A) (A) (A) (A) (A) (A) (A) (A) (A) (A) (A)
                 (A) (A) (A) (A) (A) (A) (A) (A) (A) (A) (A) (A)
                 (A) (A) (A) (A) (A) (A) (A) (A) (A) (A) (A) (A)
                 (A) (A) (A) (A) (A) (A) (A) (A) (A) (A) (A) (A)
                 (A) (A) (A) (A) (A) (A) (A) (A) (A) (A) (A) (A)
                 (A) (A) (A) (A) (A) (A) (A) (A) (A) (A) (A) (A)
                 (A) (A) (A) (A) (A) (A) (A) (A) (A) (A) (A) (A)
                 (A) (A) (A) (A) (A) (A) (A) (A) (A) (A) (A) (A)
                 (A) (A) (A) (A) (A) (A) (A) (A) (A) (A) (A) (A)
                 (A) (A) (A) (A) (A) (A) (A) (A) (A) (A) (A) (A)
                 (A) (A) (A) (A) (A) (A) (A) (A) (A) (A) (A) (A)
                 (A) (A) (A) (A) (A) (A) (A) (A) (A) (A) (A) (A)
                 (A) (A) (A) (A) (A) (A) (A) (A) (A) (A) (A) (A)
                 (A) (A) (A) (A) (A) (A) (A) (A) (A) (A) (A) (A)
                 (A) (A) (A) (A) (A) (A) (A) (A) (A) (A) (A) (A)
                 (A) (A) (A) (A) (A) (A) (A) (A) (A) (A) (A) (A)
                 (A) (A) (A) (A) (A) (A) (A) (A) (A) (A) (A) (A)
                 (A) (A) (A) (A) (A) (A) (A) (A) (A) (A) (A) (A)
                 (A) (A) (A) (A) (A) (A) (A) (A) (A) (A) (A) (A)
                 (A) (A) (A) (A) (A) (A) (A) (A) (A) (A) (A) (A)
                 (A) (A) (A) (A) (A) (A) (A) (A) (A) (A) (A) (A)
                 (A) (A) (A) (A) (A) (A) (A) (A) (A) (A) (A) (A)
                 (A) (A) (A) (A) (A) (A) (A) (A) (A) (A) (A) (A)
                 (A) (A) (A) (A) (A) (A) (A) (A) (A) (A) (A) (A)
                 (A) (A) (A) (A) (A) (A) (A) (A) (A) (A) (A) (A)
                 (A) (A) (A) (A) (A) (A) (A) (A) (A) (A) (A) (A)
                 (A) (A) (A) (A) (A) (A) (A) (A) (A) (A) (A) (A)
                 (A) (A) (A) (A) (A) (A) (A) (A) (A) (A) (A) (A)
                 (A) (A) (A) (A) (A) (A) (A) (A) (A) (A) (A) (A)
                 (A) (A) (A) (A) (A) (A) (A) (A) (A) (A) (A) (A)
                 (A) (A) (A) (A) (A) (A) (A) (A) (A) (A) (A) (A)
                 (A) (A) (A) (A) (A) (A) (A) (A) (A) (A) (A) (A)
                 (A) (A) (A) (A) (A) (A) (A) (A) (A) (A) (A) (A)
                 (A) (A) (A) (A) (A) (A) (A) (A) (A) (A) (A) (A)
                 (A) (A) (A) (A) (A) (A) (A) (A) (A) (A) (A) (A)
                 (A) (A) (A) (A) (A) (A) (A) (A) (A) (A) (A) (A)
                 (A) (A) (A) (A) (A) (A) (A) (A) (A) (A) (A) (A)
                 (A) (A) (A) (A) (A) (A) (A) (A) (A) (A) (A) (A)
                 (A) (A) (A) (A) (A) (A) (A) (A) (A) (A) (A) (A)
                 (A) (A) (A) (A) (A) (A) (A) (A) (A) (A) (A) (A)
                 (A) (A) (A) (A) (A) (A) (A) (A) (A) (A) (A) (A)
                 (A) (A) (A) (A) (A) (A) (A) (A) (A) (A)
     4 initial guesses have been made.
 Convergence on wavefunction:    0.001000000000000
 Iteration     1 Dimension     4 NMult     0 NNew      4
 CISAX will form     4 AO SS matrices at one time.
 Iteration     2 Dimension     6 NMult     4 NNew      2
 Iteration     3 Dimension     8 NMult     6 NNew      2
 Iteration     4 Dimension    10 NMult     8 NNew      2
 Iteration     5 Dimension    12 NMult    10 NNew      2
 Iteration     6 Dimension    14 NMult    12 NNew      2
 ***********************************************************************
 Excited states from <AA,BB:AA,BB> singles matrix:
 ***********************************************************************
 
 Ground to excited state transition densities written to RWF  633
 Ground to excited state transition electric dipole moments (Au):
       state          X           Y           Z        Dip. S.      Osc.
         1         8.3645     -1.3091      0.0787     71.6853      3.0951
 Ground to excited state transition velocity dipole moments (Au):
       state          X           Y           Z        Dip. S.      Osc.
         1        -0.5234      0.0818     -0.0074      0.2807      2.8897
 Ground to excited state transition magnetic dipole moments (Au):
       state          X           Y           Z
         1         0.1161      0.4162      1.1553
 Ground to excited state transition velocity quadrupole moments (Au):
       state          XX          YY          ZZ          XY          XZ          YZ
         1        -1.9573      0.0133     -0.0117      0.4180      0.1037     -0.1037
 <0|del|b> * <b|rxdel|0> + <0|del|b> * <b|delr+rdel|0>
 Rotatory Strengths (R) in cgs (10**-40 erg-esu-cm/Gauss)
       state          XX          YY          ZZ    R(velocity)    E-M Angle
         1        75.7750    -65.2837   -395.8598   -128.4562       93.10
 1/2[<0|r|b>*<b|rxdel|0> + (<0|rxdel|b>*<b|r|0>)*]
 Rotatory Strengths (R) in cgs (10**-40 erg-esu-cm/Gauss)
       state          XX          YY          ZZ     R(length)
         1      -686.6248    385.2762    -64.2925   -121.8804
  1/2[<0|del|b>*<b|r|0> + (<0|r|b>*<b|del|0>)*] (Au)
       state          X           Y           Z        Dip. S.   Osc.(frdel)
         1        -4.3783     -0.1071     -0.0006      4.4859      2.9906

 Excitation energies and oscillator strengths:
 
 Excited State   1:      Singlet-A      1.7623 eV  703.52 nm  f=3.0951  <S**2>=0.000
     155 ->158        -0.13586
     156 ->157         0.70043
     156 <-157        -0.12296
 This state for optimization and/or second-order correction.
 Total Energy, E(TD-HF/TD-DFT) =  -1706.68759898    
 Copying the excited state density for this state as the 1-particle RhoCI density.
 SavETr:  write IOETrn=   770 NScale= 10 NData=  16 NLR=1 NState=    1 LETran=      28.

 **********************************************************************

            Population analysis using the SCF density.

 **********************************************************************

 Orbital symmetries:
       Occupied  (A) (A) (A) (A) (A) (A) (A) (A) (A) (A) (A) (A)
                 (A) (A) (A) (A) (A) (A) (A) (A) (A) (A) (A) (A)
                 (A) (A) (A) (A) (A) (A) (A) (A) (A) (A) (A) (A)
                 (A) (A) (A) (A) (A) (A) (A) (A) (A) (A) (A) (A)
                 (A) (A) (A) (A) (A) (A) (A) (A) (A) (A) (A) (A)
                 (A) (A) (A) (A) (A) (A) (A) (A) (A) (A) (A) (A)
                 (A) (A) (A) (A) (A) (A) (A) (A) (A) (A) (A) (A)
                 (A) (A) (A) (A) (A) (A) (A) (A) (A) (A) (A) (A)
                 (A) (A) (A) (A) (A) (A) (A) (A) (A) (A) (A) (A)
                 (A) (A) (A) (A) (A) (A) (A) (A) (A) (A) (A) (A)
                 (A) (A) (A) (A) (A) (A) (A) (A) (A) (A) (A) (A)
                 (A) (A) (A) (A) (A) (A) (A) (A) (A) (A) (A) (A)
                 (A) (A) (A) (A) (A) (A) (A) (A) (A) (A) (A) (A)
       Virtual   (A) (A) (A) (A) (A) (A) (A) (A) (A) (A) (A) (A)
                 (A) (A) (A) (A) (A) (A) (A) (A) (A) (A) (A) (A)
                 (A) (A) (A) (A) (A) (A) (A) (A) (A) (A) (A) (A)
                 (A) (A) (A) (A) (A) (A) (A) (A) (A) (A) (A) (A)
                 (A) (A) (A) (A) (A) (A) (A) (A) (A) (A) (A) (A)
                 (A) (A) (A) (A) (A) (A) (A) (A) (A) (A) (A) (A)
                 (A) (A) (A) (A) (A) (A) (A) (A) (A) (A) (A) (A)
                 (A) (A) (A) (A) (A) (A) (A) (A) (A) (A) (A) (A)
                 (A) (A) (A) (A) (A) (A) (A) (A) (A) (A) (A) (A)
                 (A) (A) (A) (A) (A) (A) (A) (A) (A) (A) (A) (A)
                 (A) (A) (A) (A) (A) (A) (A) (A) (A) (A) (A) (A)
                 (A) (A) (A) (A) (A) (A) (A) (A) (A) (A) (A) (A)
                 (A) (A) (A) (A) (A) (A) (A) (A) (A) (A) (A) (A)
                 (A) (A) (A) (A) (A) (A) (A) (A) (A) (A) (A) (A)
                 (A) (A) (A) (A) (A) (A) (A) (A) (A) (A) (A) (A)
                 (A) (A) (A) (A) (A) (A) (A) (A) (A) (A) (A) (A)
                 (A) (A) (A) (A) (A) (A) (A) (A) (A) (A) (A) (A)
                 (A) (A) (A) (A) (A) (A) (A) (A) (A) (A) (A) (A)
                 (A) (A) (A) (A) (A) (A) (A) (A) (A) (A) (A) (A)
                 (A) (A) (A) (A) (A) (A) (A) (A) (A) (A) (A) (A)
                 (A) (A) (A) (A) (A) (A) (A) (A) (A) (A) (A) (A)
                 (A) (A) (A) (A) (A) (A) (A) (A) (A) (A) (A) (A)
                 (A) (A) (A) (A) (A) (A) (A) (A) (A) (A) (A) (A)
                 (A) (A) (A) (A) (A) (A) (A) (A) (A) (A) (A) (A)
                 (A) (A) (A) (A) (A) (A) (A) (A) (A) (A) (A) (A)
                 (A) (A) (A) (A) (A) (A) (A) (A) (A) (A) (A) (A)
                 (A) (A) (A) (A) (A) (A) (A) (A) (A) (A) (A) (A)
                 (A) (A) (A) (A) (A) (A) (A) (A) (A) (A) (A) (A)
                 (A) (A) (A) (A) (A) (A) (A) (A) (A) (A) (A) (A)
                 (A) (A) (A) (A) (A) (A) (A) (A) (A) (A) (A) (A)
                 (A) (A) (A) (A) (A) (A) (A) (A) (A) (A) (A) (A)
                 (A) (A) (A) (A) (A) (A) (A) (A) (A) (A) (A) (A)
                 (A) (A) (A) (A) (A) (A) (A) (A) (A) (A) (A) (A)
                 (A) (A) (A) (A) (A) (A) (A) (A) (A) (A) (A) (A)
                 (A) (A) (A) (A) (A) (A) (A) (A) (A) (A) (A) (A)
                 (A) (A) (A) (A) (A) (A) (A) (A) (A) (A) (A) (A)
                 (A) (A) (A) (A) (A) (A) (A) (A) (A) (A) (A) (A)
                 (A) (A) (A) (A) (A) (A) (A) (A) (A) (A) (A) (A)
                 (A) (A) (A) (A) (A) (A) (A) (A) (A) (A) (A) (A)
                 (A) (A) (A) (A) (A) (A) (A) (A) (A) (A) (A) (A)
                 (A) (A) (A) (A) (A) (A) (A) (A) (A) (A) (A) (A)
                 (A) (A) (A) (A) (A) (A) (A) (A) (A) (A) (A) (A)
                 (A) (A) (A) (A) (A) (A) (A) (A) (A) (A) (A) (A)
                 (A) (A) (A) (A) (A) (A) (A) (A) (A) (A) (A) (A)
                 (A) (A) (A) (A) (A) (A) (A) (A) (A) (A) (A) (A)
                 (A) (A) (A) (A) (A) (A) (A) (A) (A) (A) (A) (A)
                 (A) (A) (A) (A) (A) (A) (A) (A) (A) (A) (A) (A)
                 (A) (A) (A) (A) (A) (A) (A) (A) (A) (A) (A) (A)
                 (A) (A) (A) (A) (A) (A) (A) (A) (A) (A) (A) (A)
                 (A) (A) (A) (A) (A) (A) (A) (A) (A) (A) (A) (A)
                 (A) (A) (A) (A) (A) (A) (A) (A) (A) (A) (A) (A)
                 (A) (A) (A) (A) (A) (A) (A) (A) (A) (A) (A) (A)
                 (A) (A) (A) (A) (A) (A) (A) (A) (A) (A) (A) (A)
                 (A) (A) (A) (A) (A) (A) (A) (A) (A) (A) (A) (A)
                 (A) (A) (A) (A) (A) (A) (A) (A) (A) (A) (A) (A)
                 (A) (A) (A) (A) (A) (A) (A) (A) (A) (A) (A) (A)
                 (A) (A) (A) (A) (A) (A) (A) (A) (A) (A) (A) (A)
                 (A) (A) (A) (A) (A) (A) (A) (A) (A) (A) (A) (A)
                 (A) (A) (A) (A) (A) (A) (A) (A) (A) (A) (A) (A)
                 (A) (A) (A) (A) (A) (A) (A) (A) (A) (A) (A) (A)
                 (A) (A) (A) (A) (A) (A) (A) (A) (A) (A) (A) (A)
                 (A) (A) (A) (A) (A) (A) (A) (A) (A) (A) (A) (A)
                 (A) (A) (A) (A) (A) (A) (A) (A) (A) (A)
 The electronic state is 1-A.
 Alpha  occ. eigenvalues --  -19.22136 -19.19805 -10.31143 -10.30389 -10.29323
 Alpha  occ. eigenvalues --  -10.29083 -10.28771 -10.28673 -10.28575 -10.28239
 Alpha  occ. eigenvalues --  -10.28239 -10.27894 -10.27559 -10.27508 -10.27459
 Alpha  occ. eigenvalues --  -10.27372 -10.27359 -10.27338 -10.27261 -10.27189
 Alpha  occ. eigenvalues --  -10.27176 -10.27169 -10.27140 -10.27061 -10.26999
 Alpha  occ. eigenvalues --  -10.26952 -10.26832 -10.26787 -10.26678 -10.26487
 Alpha  occ. eigenvalues --  -10.26210 -10.26159 -10.26000 -10.25926 -10.25739
 Alpha  occ. eigenvalues --  -10.25504 -10.25435 -10.25415 -10.25093 -10.24281
 Alpha  occ. eigenvalues --  -10.24140 -10.23090  -1.07499  -1.05206  -0.94804
 Alpha  occ. eigenvalues --   -0.94681  -0.92669  -0.91398  -0.90347  -0.89421
 Alpha  occ. eigenvalues --   -0.88504  -0.87583  -0.87155  -0.86180  -0.85371
 Alpha  occ. eigenvalues --   -0.83905  -0.82197  -0.81118  -0.80437  -0.78941
 Alpha  occ. eigenvalues --   -0.77276  -0.76895  -0.76703  -0.76178  -0.76148
 Alpha  occ. eigenvalues --   -0.75335  -0.74363  -0.73487  -0.72297  -0.70349
 Alpha  occ. eigenvalues --   -0.69297  -0.68280  -0.66403  -0.64576  -0.64028
 Alpha  occ. eigenvalues --   -0.62843  -0.62406  -0.61024  -0.59482  -0.58701
 Alpha  occ. eigenvalues --   -0.58563  -0.57996  -0.57500  -0.56363  -0.55748
 Alpha  occ. eigenvalues --   -0.55438  -0.54959  -0.54759  -0.54175  -0.53714
 Alpha  occ. eigenvalues --   -0.53086  -0.52756  -0.52215  -0.51760  -0.51455
 Alpha  occ. eigenvalues --   -0.51026  -0.50774  -0.50359  -0.49933  -0.49614
 Alpha  occ. eigenvalues --   -0.48889  -0.48545  -0.48155  -0.48028  -0.47863
 Alpha  occ. eigenvalues --   -0.47506  -0.47212  -0.47142  -0.47059  -0.46855
 Alpha  occ. eigenvalues --   -0.46111  -0.45646  -0.45534  -0.45453  -0.44730
 Alpha  occ. eigenvalues --   -0.44222  -0.43561  -0.43368  -0.43036  -0.42862
 Alpha  occ. eigenvalues --   -0.42754  -0.42093  -0.42055  -0.42045  -0.41884
 Alpha  occ. eigenvalues --   -0.41577  -0.41314  -0.41234  -0.40595  -0.40442
 Alpha  occ. eigenvalues --   -0.40070  -0.39922  -0.39768  -0.39437  -0.39212
 Alpha  occ. eigenvalues --   -0.39055  -0.38655  -0.38009  -0.37860  -0.37282
 Alpha  occ. eigenvalues --   -0.36763  -0.36497  -0.36201  -0.35873  -0.35158
 Alpha  occ. eigenvalues --   -0.34901  -0.34385  -0.33993  -0.32366  -0.31889
 Alpha  occ. eigenvalues --   -0.31639  -0.30622  -0.29014  -0.26839  -0.23627
 Alpha  occ. eigenvalues --   -0.18437
 Alpha virt. eigenvalues --   -0.07505  -0.01799   0.01729   0.04531   0.06298
 Alpha virt. eigenvalues --    0.08602   0.09008   0.09343   0.10433   0.11036
 Alpha virt. eigenvalues --    0.11545   0.11658   0.12009   0.12480   0.12772
 Alpha virt. eigenvalues --    0.13240   0.13560   0.13739   0.14635   0.15088
 Alpha virt. eigenvalues --    0.15223   0.15284   0.15393   0.16006   0.16088
 Alpha virt. eigenvalues --    0.16246   0.16529   0.16703   0.16862   0.17441
 Alpha virt. eigenvalues --    0.17861   0.18289   0.18707   0.18850   0.18871
 Alpha virt. eigenvalues --    0.19340   0.19402   0.19552   0.19744   0.19827
 Alpha virt. eigenvalues --    0.19964   0.20258   0.20557   0.20746   0.21000
 Alpha virt. eigenvalues --    0.21328   0.21650   0.22142   0.22205   0.22601
 Alpha virt. eigenvalues --    0.22762   0.23193   0.23366   0.23421   0.23900
 Alpha virt. eigenvalues --    0.23969   0.24143   0.24612   0.24667   0.24836
 Alpha virt. eigenvalues --    0.25420   0.25681   0.25910   0.26187   0.26580
 Alpha virt. eigenvalues --    0.26994   0.27617   0.27995   0.28056   0.28272
 Alpha virt. eigenvalues --    0.28540   0.28752   0.29301   0.30043   0.30261
 Alpha virt. eigenvalues --    0.30624   0.30885   0.31540   0.31917   0.31969
 Alpha virt. eigenvalues --    0.32712   0.33118   0.33454   0.33682   0.34182
 Alpha virt. eigenvalues --    0.35317   0.35739   0.35956   0.36065   0.36569
 Alpha virt. eigenvalues --    0.37591   0.38956   0.39270   0.40834   0.41230
 Alpha virt. eigenvalues --    0.42384   0.42869   0.43146   0.43493   0.44654
 Alpha virt. eigenvalues --    0.44975   0.45444   0.46775   0.47457   0.48509
 Alpha virt. eigenvalues --    0.48871   0.50604   0.51950   0.52126   0.53383
 Alpha virt. eigenvalues --    0.53834   0.55397   0.55992   0.56410   0.57139
 Alpha virt. eigenvalues --    0.57417   0.57780   0.58356   0.58449   0.58718
 Alpha virt. eigenvalues --    0.59264   0.59405   0.59742   0.60026   0.60385
 Alpha virt. eigenvalues --    0.60714   0.60867   0.60994   0.61442   0.61680
 Alpha virt. eigenvalues --    0.61939   0.62311   0.62654   0.63041   0.63424
 Alpha virt. eigenvalues --    0.63607   0.63727   0.64074   0.64626   0.64978
 Alpha virt. eigenvalues --    0.65671   0.65809   0.66554   0.66778   0.67096
 Alpha virt. eigenvalues --    0.67351   0.67451   0.67564   0.67856   0.68430
 Alpha virt. eigenvalues --    0.68736   0.68832   0.69350   0.69591   0.69853
 Alpha virt. eigenvalues --    0.70329   0.70676   0.70904   0.71029   0.71419
 Alpha virt. eigenvalues --    0.72062   0.72419   0.72768   0.73198   0.73323
 Alpha virt. eigenvalues --    0.73858   0.73954   0.74008   0.74436   0.74804
 Alpha virt. eigenvalues --    0.75423   0.75944   0.76059   0.76906   0.76995
 Alpha virt. eigenvalues --    0.77218   0.77489   0.77973   0.78742   0.78858
 Alpha virt. eigenvalues --    0.79204   0.79417   0.79455   0.80254   0.80340
 Alpha virt. eigenvalues --    0.80594   0.81137   0.81473   0.81985   0.82373
 Alpha virt. eigenvalues --    0.82423   0.82669   0.82861   0.83180   0.83304
 Alpha virt. eigenvalues --    0.83397   0.84001   0.84444   0.84632   0.85182
 Alpha virt. eigenvalues --    0.85449   0.85590   0.85708   0.86141   0.86272
 Alpha virt. eigenvalues --    0.86568   0.86615   0.86746   0.87295   0.87574
 Alpha virt. eigenvalues --    0.87671   0.88340   0.88944   0.89031   0.89385
 Alpha virt. eigenvalues --    0.89596   0.90072   0.90379   0.90749   0.90813
 Alpha virt. eigenvalues --    0.90966   0.91371   0.91553   0.91895   0.92277
 Alpha virt. eigenvalues --    0.92506   0.92913   0.93056   0.93444   0.94140
 Alpha virt. eigenvalues --    0.94852   0.94921   0.95149   0.95616   0.95855
 Alpha virt. eigenvalues --    0.95951   0.96591   0.96663   0.97098   0.97122
 Alpha virt. eigenvalues --    0.97462   0.97763   0.98146   0.98279   0.98570
 Alpha virt. eigenvalues --    0.98936   0.99945   1.00146   1.00225   1.00546
 Alpha virt. eigenvalues --    1.00757   1.01628   1.01724   1.02043   1.02253
 Alpha virt. eigenvalues --    1.03518   1.04099   1.04237   1.04382   1.04637
 Alpha virt. eigenvalues --    1.04903   1.05512   1.05599   1.06239   1.06999
 Alpha virt. eigenvalues --    1.07242   1.07942   1.08084   1.08226   1.08502
 Alpha virt. eigenvalues --    1.09167   1.09946   1.10134   1.10798   1.10908
 Alpha virt. eigenvalues --    1.11818   1.12095   1.12379   1.12862   1.13725
 Alpha virt. eigenvalues --    1.14475   1.14603   1.15456   1.16122   1.16295
 Alpha virt. eigenvalues --    1.16496   1.18395   1.18490   1.18722   1.20550
 Alpha virt. eigenvalues --    1.21513   1.21787   1.22288   1.23105   1.23695
 Alpha virt. eigenvalues --    1.24238   1.24546   1.25116   1.26119   1.27301
 Alpha virt. eigenvalues --    1.28814   1.29064   1.29632   1.30897   1.31396
 Alpha virt. eigenvalues --    1.31976   1.32817   1.33024   1.33611   1.34863
 Alpha virt. eigenvalues --    1.35570   1.36917   1.37438   1.37687   1.38085
 Alpha virt. eigenvalues --    1.39420   1.40338   1.40667   1.41727   1.41793
 Alpha virt. eigenvalues --    1.42607   1.42714   1.43854   1.44188   1.45192
 Alpha virt. eigenvalues --    1.46489   1.47299   1.47712   1.47798   1.48880
 Alpha virt. eigenvalues --    1.49308   1.50539   1.50780   1.51889   1.52116
 Alpha virt. eigenvalues --    1.53354   1.53947   1.54881   1.55009   1.55728
 Alpha virt. eigenvalues --    1.56960   1.57143   1.58273   1.60138   1.61346
 Alpha virt. eigenvalues --    1.62636   1.62909   1.63760   1.64210   1.65000
 Alpha virt. eigenvalues --    1.65186   1.66485   1.66629   1.67102   1.67758
 Alpha virt. eigenvalues --    1.67973   1.68142   1.69012   1.70597   1.71588
 Alpha virt. eigenvalues --    1.71810   1.73564   1.73766   1.74502   1.74638
 Alpha virt. eigenvalues --    1.74853   1.76146   1.76557   1.76720   1.77753
 Alpha virt. eigenvalues --    1.78833   1.78861   1.79262   1.79947   1.80737
 Alpha virt. eigenvalues --    1.81083   1.81931   1.82431   1.83727   1.83798
 Alpha virt. eigenvalues --    1.83841   1.84173   1.84767   1.85245   1.86226
 Alpha virt. eigenvalues --    1.86399   1.86778   1.87001   1.87167   1.87293
 Alpha virt. eigenvalues --    1.87794   1.88226   1.88669   1.88999   1.89301
 Alpha virt. eigenvalues --    1.89771   1.90286   1.90452   1.90897   1.91094
 Alpha virt. eigenvalues --    1.91314   1.91562   1.91794   1.92453   1.93773
 Alpha virt. eigenvalues --    1.93817   1.94191   1.94413   1.94866   1.95027
 Alpha virt. eigenvalues --    1.95549   1.95780   1.96123   1.97077   1.97626
 Alpha virt. eigenvalues --    1.97907   1.98601   1.98672   1.99342   1.99541
 Alpha virt. eigenvalues --    1.99732   2.00632   2.01479   2.01746   2.02613
 Alpha virt. eigenvalues --    2.02702   2.02994   2.03332   2.03972   2.04809
 Alpha virt. eigenvalues --    2.05375   2.05678   2.05772   2.06278   2.06350
 Alpha virt. eigenvalues --    2.06785   2.07404   2.07639   2.07888   2.08301
 Alpha virt. eigenvalues --    2.09155   2.09304   2.09588   2.09721   2.09956
 Alpha virt. eigenvalues --    2.10422   2.10884   2.11046   2.12224   2.12558
 Alpha virt. eigenvalues --    2.13138   2.13362   2.13703   2.13904   2.14112
 Alpha virt. eigenvalues --    2.14622   2.14980   2.15482   2.16174   2.16990
 Alpha virt. eigenvalues --    2.17408   2.17678   2.17839   2.18360   2.18665
 Alpha virt. eigenvalues --    2.18930   2.19749   2.19807   2.20293   2.21080
 Alpha virt. eigenvalues --    2.21517   2.22029   2.22287   2.22388   2.22910
 Alpha virt. eigenvalues --    2.23513   2.23933   2.24022   2.24336   2.25093
 Alpha virt. eigenvalues --    2.25367   2.26005   2.26552   2.27201   2.27912
 Alpha virt. eigenvalues --    2.28235   2.28427   2.29468   2.29637   2.30307
 Alpha virt. eigenvalues --    2.30622   2.30898   2.32009   2.32640   2.33108
 Alpha virt. eigenvalues --    2.33819   2.34267   2.34592   2.35148   2.35420
 Alpha virt. eigenvalues --    2.35797   2.36070   2.37200   2.37233   2.37713
 Alpha virt. eigenvalues --    2.38036   2.38198   2.38510   2.39022   2.39532
 Alpha virt. eigenvalues --    2.39904   2.40165   2.40917   2.41431   2.42091
 Alpha virt. eigenvalues --    2.42413   2.42830   2.43155   2.43960   2.44109
 Alpha virt. eigenvalues --    2.44551   2.44619   2.45494   2.46255   2.46292
 Alpha virt. eigenvalues --    2.46662   2.47695   2.47995   2.48746   2.49197
 Alpha virt. eigenvalues --    2.49754   2.50487   2.50785   2.51450   2.51920
 Alpha virt. eigenvalues --    2.52274   2.52688   2.53423   2.53980   2.54063
 Alpha virt. eigenvalues --    2.54556   2.55116   2.55223   2.55709   2.56254
 Alpha virt. eigenvalues --    2.56472   2.56779   2.57474   2.57723   2.58160
 Alpha virt. eigenvalues --    2.58733   2.58896   2.59537   2.59796   2.60093
 Alpha virt. eigenvalues --    2.60680   2.60806   2.61082   2.61614   2.62245
 Alpha virt. eigenvalues --    2.62739   2.63099   2.63884   2.64123   2.64500
 Alpha virt. eigenvalues --    2.64934   2.65638   2.65897   2.66378   2.66707
 Alpha virt. eigenvalues --    2.66768   2.67304   2.67905   2.68034   2.68504
 Alpha virt. eigenvalues --    2.69328   2.69494   2.69997   2.70834   2.71059
 Alpha virt. eigenvalues --    2.71309   2.71518   2.71855   2.72468   2.73293
 Alpha virt. eigenvalues --    2.73649   2.74059   2.74621   2.75945   2.76319
 Alpha virt. eigenvalues --    2.76351   2.76654   2.77132   2.77657   2.78497
 Alpha virt. eigenvalues --    2.79181   2.79746   2.79971   2.80351   2.81431
 Alpha virt. eigenvalues --    2.81571   2.82008   2.82115   2.82761   2.83607
 Alpha virt. eigenvalues --    2.83695   2.83986   2.84339   2.85183   2.85222
 Alpha virt. eigenvalues --    2.86007   2.86513   2.86998   2.87668   2.87980
 Alpha virt. eigenvalues --    2.88293   2.88951   2.89152   2.89675   2.90495
 Alpha virt. eigenvalues --    2.90723   2.91048   2.92144   2.93265   2.93357
 Alpha virt. eigenvalues --    2.93950   2.94760   2.95306   2.95784   2.96397
 Alpha virt. eigenvalues --    2.96569   2.97678   2.98027   2.99249   2.99915
 Alpha virt. eigenvalues --    3.00472   3.02030   3.02164   3.02882   3.03333
 Alpha virt. eigenvalues --    3.04451   3.04513   3.04993   3.06482   3.07208
 Alpha virt. eigenvalues --    3.07270   3.08878   3.09189   3.09499   3.10721
 Alpha virt. eigenvalues --    3.11946   3.12090   3.12616   3.14324   3.16175
 Alpha virt. eigenvalues --    3.18593   3.18936   3.19159   3.20385   3.20683
 Alpha virt. eigenvalues --    3.20929   3.22730   3.23233   3.24285   3.27622
 Alpha virt. eigenvalues --    3.28377   3.29063   3.30785   3.31717   3.32287
 Alpha virt. eigenvalues --    3.33948   3.34171   3.35292   3.37163   3.37550
 Alpha virt. eigenvalues --    3.38388   3.38934   3.40355   3.40759   3.41434
 Alpha virt. eigenvalues --    3.42285   3.42380   3.43513   3.44627   3.46073
 Alpha virt. eigenvalues --    3.46284   3.47412   3.47683   3.47718   3.49560
 Alpha virt. eigenvalues --    3.50866   3.51515   3.51551   3.52599   3.53787
 Alpha virt. eigenvalues --    3.54512   3.56876   3.57424   3.59073   3.61035
 Alpha virt. eigenvalues --    3.62021   3.64914   3.65321   3.65507   3.66266
 Alpha virt. eigenvalues --    3.66417   3.69739   3.74143   3.74218   3.76894
 Alpha virt. eigenvalues --    3.77513   3.78628   4.01708   4.08352   4.17147
 Alpha virt. eigenvalues --    4.18724   4.19139   4.21466   4.24159   4.25823
 Alpha virt. eigenvalues --    4.27583   4.29704   4.30657   4.33410   4.36341
 Alpha virt. eigenvalues --    4.37913   4.40304   4.41105   4.44483   4.46041
 Alpha virt. eigenvalues --    4.46657   4.46826   4.49117   4.53570   4.54881
 Alpha virt. eigenvalues --    4.57924   4.58334   4.59767   4.60980   4.62687
 Alpha virt. eigenvalues --    4.65055   4.65649   4.66543   4.68689   4.72584
 Alpha virt. eigenvalues --    4.74061   4.76114   4.77618   4.79820   4.83657
 Alpha virt. eigenvalues --    4.84945   4.87706   4.92399   4.93290
          Condensed to atoms (all electrons):
 Mulliken charges:
               1
     1  O   -0.566880
     2  O   -0.558274
     3  C   -0.007313
     4  C   -0.152377
     5  C   -0.194456
     6  C    0.157605
     7  C    0.153799
     8  C   -0.038296
     9  C   -0.270713
    10  C   -0.274422
    11  C   -0.154314
    12  C   -0.163132
    13  C    0.112280
    14  C    0.085552
    15  C   -0.068604
    16  C   -0.215740
    17  C    0.027551
    18  C   -0.335626
    19  C   -0.270628
    20  C   -0.379218
    21  C   -0.093300
    22  C   -0.128621
    23  C   -0.357305
    24  C    0.071689
    25  C   -0.089794
    26  C   -0.342171
    27  C    0.037169
    28  C   -0.149742
    29  C   -0.368209
    30  C   -0.083911
    31  C   -0.041873
    32  C   -0.157119
    33  C   -0.113270
    34  C    0.041921
    35  C   -0.092308
    36  C    0.151983
    37  C   -0.368313
    38  C   -0.098664
    39  C   -0.115585
    40  C   -0.366978
    41  C   -0.075562
    42  C   -0.089426
    43  H    0.090149
    44  H    0.114727
    45  H    0.099591
    46  H    0.099684
    47  H    0.059529
    48  H    0.111492
    49  H    0.108081
    50  H    0.086185
    51  H    0.104849
    52  H    0.079198
    53  H    0.121248
    54  H    0.078290
    55  H    0.085647
    56  H    0.077310
    57  H    0.098426
    58  H    0.094479
    59  H    0.133811
    60  H    0.101738
    61  H    0.107841
    62  H    0.103190
    63  H    0.076714
    64  H    0.118052
    65  H    0.104491
    66  H    0.117572
    67  H    0.110651
    68  H    0.104680
    69  H    0.292744
    70  H    0.072618
    71  H    0.084731
    72  H    0.120850
    73  H    0.124386
    74  H    0.109997
    75  H    0.296173
    76  H    0.086717
    77  H    0.099088
    78  H    0.132696
    79  H    0.126803
    80  H    0.081084
    81  H    0.126896
    82  H    0.127283
    83  H    0.086234
    84  H    0.078542
    85  H    0.053045
    86  H    0.095432
    87  H    0.083650
    88  H    0.076456
    89  H    0.137226
    90  H    0.142983
    91  H    0.090303
    92  H    0.071347
    93  H    0.065546
    94  H    0.100584
    95  H    0.101305
    96  H    0.119079
    97  H    0.094430
    98  H    0.076736
 Sum of Mulliken charges =  -0.00000
 Mulliken charges with hydrogens summed into heavy atoms:
               1
     1  O   -0.274136
     2  O   -0.262102
     3  C   -0.007313
     4  C   -0.062229
     5  C    0.019862
     6  C    0.257289
     7  C    0.153799
     8  C   -0.038296
     9  C    0.008389
    10  C   -0.004190
    11  C    0.045224
    12  C   -0.077485
    13  C    0.189590
    14  C    0.085552
    15  C    0.029822
    16  C    0.012551
    17  C    0.027551
    18  C   -0.022856
    19  C    0.028629
    20  C   -0.046314
    21  C   -0.008569
    22  C   -0.056004
    23  C   -0.002072
    24  C    0.071689
    25  C   -0.003076
    26  C    0.016417
    27  C    0.037169
    28  C   -0.068658
    29  C   -0.027796
    30  C   -0.005369
    31  C    0.011172
    32  C   -0.061687
    33  C   -0.029619
    34  C    0.041921
    35  C   -0.015851
    36  C    0.151983
    37  C    0.002199
    38  C   -0.027317
    39  C   -0.050038
    40  C   -0.046010
    41  C    0.018868
    42  C   -0.012690
 Electronic spatial extent (au):  <R**2>=         105268.7037
 Charge=              0.0000 electrons
 Dipole moment (field-independent basis, Debye):
    X=             -0.9794    Y=              0.1825    Z=              0.0688  Tot=              0.9986
 Quadrupole moment (field-independent basis, Debye-Ang):
   XX=           -294.2792   YY=           -248.9758   ZZ=           -262.6086
   XY=             -4.5340   XZ=             36.1503   YZ=              1.2668
 Traceless Quadrupole moment (field-independent basis, Debye-Ang):
   XX=            -25.6580   YY=             19.6454   ZZ=              6.0127
   XY=             -4.5340   XZ=             36.1503   YZ=              1.2668
 Octapole moment (field-independent basis, Debye-Ang**2):
  XXX=           -125.1337  YYY=              7.0786  ZZZ=            -17.2977  XYY=             29.7354
  XXY=              8.1468  XXZ=            -15.5282  XZZ=              9.3138  YZZ=              0.4767
  YYZ=            -16.1227  XYZ=             20.0867
 Hexadecapole moment (field-independent basis, Debye-Ang**3):
 XXXX=        -153368.4752 YYYY=          -4281.7240 ZZZZ=          -2188.9733 XXXY=          -1411.0242
 XXXZ=           8189.6892 YYYX=            131.1502 YYYZ=            -25.6446 ZZZX=             16.3874
 ZZZY=            -11.8189 XXYY=         -23355.6172 XXZZ=         -22766.4996 YYZZ=          -1087.1453
 XXYZ=           1045.0431 YYXZ=            163.5946 ZZXY=            141.0783
 N-N= 4.008544256721D+03 E-N=-1.197012285767D+04  KE= 1.688655079031D+03
 1\1\GINC-PADAWAN\SP\RCAM-B3LYP TD-FC\6-31G(d,p)\C40H56O2\PADAWAN\15-Ju
 l-2019\0\\# td=(NStates=1) CAM-B3LYP/6-31G(d,p)\\TD\\0,1\O,0,-14.30771
 66469,-1.94268265,0.3990901643\O,0,14.8617080076,0.8141089975,-0.10685
 00891\C,0,-11.8342262822,-0.0206159867,1.2375785779\C,0,-11.0366406266
 ,0.2058633573,-0.0685031375\C,0,-12.0380492855,-1.615075992,1.38933677
 5\C,0,-12.7887122647,-2.1372847933,0.1977739283\C,0,-11.6092862175,-0.
 5281102893,-1.2372992198\C,0,11.2510084314,0.9047421167,1.1175220319\C
 ,0,-11.1961410873,0.4535470935,2.5538524359\C,0,-13.1596821306,0.72621
 82687,1.2640674835\C,0,12.6359707776,1.4249519217,0.7431116974\C,0,-12
 .3521662025,-1.6213800058,-1.104583227\C,0,13.4988815091,0.2400116738,
 0.2819755165\C,0,10.7229717715,-0.0253819484,-0.0128176967\C,0,-9.6163
 203959,-0.1282056688,0.042434251\C,0,13.0130392815,-0.3474919686,-0.91
 1506737\C,0,11.6012932181,-0.6249775431,-0.8870637652\C,0,10.390995985
 2,2.1418434963,1.0576884822\C,0,11.1766785004,0.2542846039,2.496390200
 3\C,0,-11.1674312406,-0.0332316817,-2.6817204302\C,0,-8.6251286132,0.7
 673717196,-0.2324268652\C,0,9.3907240017,-0.4359113669,0.1827983636\C,
 0,11.0922191674,-1.4387068375,-2.0872183265\C,0,-7.1534266656,0.540121
 2539,-0.0176138507\C,0,8.8405405105,-1.6912889264,0.0087957386\C,0,-6.
 6564270642,-0.8771564725,0.3588287715\C,0,7.463874875,-2.1592287949,-0
 .0759186542\C,0,-6.2659363696,1.5738709616,-0.2348153381\C,0,7.0219053
 847,-3.5753912613,0.1121714353\C,0,6.3921864876,-1.1533256213,-0.19987
 23296\C,0,-4.8604900227,1.5551890581,-0.3453654499\C,0,5.0110019461,-1
 .3873765806,-0.1872565059\C,0,-4.044015774,2.6666196882,-0.6225534443\
 C,0,-2.586749113,2.6683147891,-0.7338361314\C,0,4.006504616,-0.3670472
 108,-0.2147409905\C,0,2.6367607247,-0.6196264341,-0.0718021328\C,0,-1.
 9097195222,3.9807326559,-1.0959087383\C,0,-1.6884459301,1.6128240268,-
 0.4460906255\C,0,1.7215607011,0.4292644879,-0.2428228442\C,0,2.1605293
 74,-1.9901818055,0.1150938773\C,0,-0.3589981587,1.6391452358,-0.462059
 5658\C,0,0.4060654373,0.4947411419,-0.2417774385\H,0,-11.3086076023,1.
 3316149468,-0.0295748027\H,0,-12.8627997531,-1.6522952432,2.2187797727
 \H,0,-11.0741850881,-2.1011893139,1.4729605787\H,0,-12.5521688505,-3.1
 428333906,0.1614010022\H,0,-10.2330987112,-0.2415224766,2.9121298369\H
 ,0,-10.7787980464,1.3641294899,2.3194166636\H,0,-12.1031379061,0.23553
 69727,3.2682109989\H,0,-13.7321544172,0.705066509,0.1731137817\H,0,-14
 .0242181924,0.4831199194,2.0881628183\H,0,-12.7618448699,1.7907126931,
 1.5188423675\H,0,12.4718845552,1.997344684,-0.0455267095\H,0,13.137338
 1609,1.9262066596,1.6415017514\H,0,-12.4547389525,-2.177514548,-2.1415
 583465\H,0,13.6341029951,-0.6906588117,1.0482051564\H,0,-9.3788102467,
 -1.1321380728,0.4568732473\H,0,13.7534404881,-1.3035633956,-1.08596375
 24\H,0,13.1958059981,0.3040089788,-1.7567355974\H,0,9.3458012777,1.940
 9341452,1.3561908665\H,0,10.1637982414,2.7187044728,0.1472216377\H,0,1
 0.8661102843,2.9513901107,1.537919943\H,0,12.1266855099,-0.5221294615,
 2.3622126427\H,0,10.2077457452,-0.274009942,2.6674398721\H,0,11.262767
 1758,1.1138991867,3.1673516782\H,0,-10.0433068287,0.0925091616,-2.9200
 393996\H,0,-11.3131703733,1.0512811266,-2.8814552108\H,0,-11.760133858
 5,-0.3726060119,-3.6263803956\H,0,-14.738187092,-1.9659655492,-0.37452
 56564\H,0,8.8494440124,0.4843886641,0.7159842446\H,0,-8.95691086,1.906
 742327,-0.4899743178\H,0,11.5545611906,-2.3202435204,-1.9938822397\H,0
 ,10.0452373901,-1.371003202,-2.2788838224\H,0,11.435892883,-1.08805189
 53,-3.0032562737\H,0,15.0982790082,1.034721572,0.9579137603\H,0,9.3443
 842147,-2.4309161733,-0.4597424167\H,0,-5.5125257136,-0.9943965904,0.8
 48722269\H,0,-7.3073996381,-1.0864106143,1.0769799504\H,0,-6.729939229
 1,-1.497808229,-0.5981980346\H,0,-6.6475470412,2.6338321783,-0.4302862
 303\H,0,6.6335068997,-3.9350469273,1.0886685626\H,0,6.3143087761,-3.76
 3461534,-0.7026698582\H,0,7.9449043878,-4.2601922038,-0.0830913418\H,0
 ,7.1363520621,-0.1758048199,-0.4364557675\H,0,-4.0323254641,0.53878354
 36,-0.2235784154\H,0,4.5649200955,-2.3710363566,0.3359059298\H,0,-4.84
 32203677,3.3653245143,-0.8801776733\H,0,4.2443645127,0.8665139903,-0.2
 204112585\H,0,-1.4690266609,3.9981812648,-2.0207403459\H,0,-1.46089892
 83,4.296106768,-0.2817901388\H,0,-2.7778272708,4.6903314486,-1.3998482
 785\H,0,-2.2440032807,0.7497215977,0.1977850485\H,0,2.297048747,1.4735
 913483,-0.2405610712\H,0,2.3669152192,-2.0346798704,1.3605344319\H,0,0
 .9303881101,-2.1288921803,-0.1690681919\H,0,2.929915741,-2.7931270999,
 -0.3156958126\H,0,0.1853744223,2.6664864883,-0.7354705386\H,0,-0.23175
 60716,-0.4285730271,0.2228416292\\Version=ES64L-G16RevA.03\State=1-A\H
 F=-1706.7523636\RMSD=9.002e-09\PG=C01 [X(C40H56O2)]\\@


 A people that values its privileges above its principles soon loses both.
 -- Dwight D. Eisenhower
 Job cpu time:       0 days  2 hours 22 minutes  9.1 seconds.
 Elapsed time:       0 days  1 hours 34 minutes 52.3 seconds.
 File lengths (MBytes):  RWF=   3127 Int=      0 D2E=      0 Chk=     84 Scr=      1
 Normal termination of Gaussian 16 at Mon Jul 15 15:53:25 2019.
