 Entering Gaussian System, Link 0=g16
 Input=Geometria-156-.com
 Output=Geometria-156-.log
 Initial command:
 /usr/local/g16/l1.exe "/home/padawan/israel-mol/lutein/spectra/emi/Gau-12222.inp" -scrdir="/home/padawan/israel-mol/lutein/spectra/emi/"
 Entering Link 1 = /usr/local/g16/l1.exe PID=     12224.
  
 Copyright (c) 1988,1990,1992,1993,1995,1998,2003,2009,2016,
            Gaussian, Inc.  All Rights Reserved.
  
 This is part of the Gaussian(R) 16 program.  It is based on
 the Gaussian(R) 09 system (copyright 2009, Gaussian, Inc.),
 the Gaussian(R) 03 system (copyright 2003, Gaussian, Inc.),
 the Gaussian(R) 98 system (copyright 1998, Gaussian, Inc.),
 the Gaussian(R) 94 system (copyright 1995, Gaussian, Inc.),
 the Gaussian 92(TM) system (copyright 1992, Gaussian, Inc.),
 the Gaussian 90(TM) system (copyright 1990, Gaussian, Inc.),
 the Gaussian 88(TM) system (copyright 1988, Gaussian, Inc.),
 the Gaussian 86(TM) system (copyright 1986, Carnegie Mellon
 University), and the Gaussian 82(TM) system (copyright 1983,
 Carnegie Mellon University). Gaussian is a federally registered
 trademark of Gaussian, Inc.
  
 This software contains proprietary and confidential information,
 including trade secrets, belonging to Gaussian, Inc.
  
 This software is provided under written license and may be
 used, copied, transmitted, or stored only in accord with that
 written license.
  
 The following legend is applicable only to US Government
 contracts under FAR:
  
                    RESTRICTED RIGHTS LEGEND
  
 Use, reproduction and disclosure by the US Government is
 subject to restrictions as set forth in subparagraphs (a)
 and (c) of the Commercial Computer Software - Restricted
 Rights clause in FAR 52.227-19.
  
 Gaussian, Inc.
 340 Quinnipiac St., Bldg. 40, Wallingford CT 06492
  
  
 ---------------------------------------------------------------
 Warning -- This program may not be used in any manner that
 competes with the business of Gaussian, Inc. or will provide
 assistance to any competitor of Gaussian, Inc.  The licensee
 of this program is prohibited from giving any competitor of
 Gaussian, Inc. access to this program.  By using this program,
 the user acknowledges that Gaussian, Inc. is engaged in the
 business of creating and licensing software in the field of
 computational chemistry and represents and warrants to the
 licensee that it is not a competitor of Gaussian, Inc. and that
 it will not use this program in any manner prohibited above.
 ---------------------------------------------------------------
  

 Cite this work as:
 Gaussian 16, Revision A.03,
 M. J. Frisch, G. W. Trucks, H. B. Schlegel, G. E. Scuseria, 
 M. A. Robb, J. R. Cheeseman, G. Scalmani, V. Barone, 
 G. A. Petersson, H. Nakatsuji, X. Li, M. Caricato, A. V. Marenich, 
 J. Bloino, B. G. Janesko, R. Gomperts, B. Mennucci, H. P. Hratchian, 
 J. V. Ortiz, A. F. Izmaylov, J. L. Sonnenberg, D. Williams-Young, 
 F. Ding, F. Lipparini, F. Egidi, J. Goings, B. Peng, A. Petrone, 
 T. Henderson, D. Ranasinghe, V. G. Zakrzewski, J. Gao, N. Rega, 
 G. Zheng, W. Liang, M. Hada, M. Ehara, K. Toyota, R. Fukuda, 
 J. Hasegawa, M. Ishida, T. Nakajima, Y. Honda, O. Kitao, H. Nakai, 
 T. Vreven, K. Throssell, J. A. Montgomery, Jr., J. E. Peralta, 
 F. Ogliaro, M. J. Bearpark, J. J. Heyd, E. N. Brothers, K. N. Kudin, 
 V. N. Staroverov, T. A. Keith, R. Kobayashi, J. Normand, 
 K. Raghavachari, A. P. Rendell, J. C. Burant, S. S. Iyengar, 
 J. Tomasi, M. Cossi, J. M. Millam, M. Klene, C. Adamo, R. Cammi, 
 J. W. Ochterski, R. L. Martin, K. Morokuma, O. Farkas, 
 J. B. Foresman, and D. J. Fox, Gaussian, Inc., Wallingford CT, 2016.
 
 ******************************************
 Gaussian 16:  ES64L-G16RevA.03 25-Dec-2016
                13-Jul-2019 
 ******************************************
 %nproc=4
 Will use up to    4 processors via shared memory.
 %Mem=4GB
 -------------------------------------
 # td=(NStates=1) CAM-B3LYP/6-31G(d,p)
 -------------------------------------
 1/38=1,172=1/1;
 2/12=2,17=6,18=5,40=1/2;
 3/5=1,6=6,7=101,11=9,25=1,30=1,74=-40/1,2,3,8;
 4//1;
 5/5=2,38=5/2;
 8/6=1,10=2,108=1/1;
 9/41=1,42=1,70=2/14;
 6/7=2,8=2,9=2,10=2/1;
 99/5=1,9=1/99;
 --
 TD
 --
 Symbolic Z-matrix:
 Charge =  0 Multiplicity = 1
 8                    -14.30354  -1.9315    0.2617 
 8                     14.85995   1.09824  -0.33906 
 6                    -11.82742  -0.00949   1.14199 
 6                    -10.90698   0.31939  -0.08942 
 6                    -12.20044  -1.45607   1.24604 
 6                    -12.91865  -1.99292  -0.0099 
 6                    -11.5311  -0.33485  -1.35463 
 6                     11.19187   0.93145   0.95847 
 6                    -10.98561   0.37779   2.53199 
 6                    -13.11435   0.98266   1.04437 
 6                     12.69554   1.55488   0.63792 
 6                    -12.38668  -1.35286  -1.26251 
 6                     13.56563   0.56283   0.08456 
 6                     10.7234  -0.09936  -0.04123 
 6                    -9.50562  -0.11589   0.15588 
 6                     13.04876  -0.15377  -1.08848 
 6                     11.61287  -0.5585   -1.0135 
 6                     10.24587   2.21279   1.15518 
 6                     11.24109   0.28203   2.33338 
 6                    -10.98735   0.25205  -2.60818 
 6                    -8.44225   0.66772  -0.05309 
 6                     9.37086  -0.38457   0.09902 
 6                     11.1358  -1.63522  -2.10785 
 6                    -7.07133   0.38268  -0.00311 
 6                     8.83599  -1.60761   0.06983 
 6                    -6.649    -1.01851   0.33491 
 6                     7.43729  -2.04431   0.0815 
 6                    -6.23723   1.41233  -0.28323 
 6                     7.1877   -3.54268   0.2465 
 6                     6.32817  -1.20975  -0.12934 
 6                    -4.81058   1.40776  -0.31252 
 6                     4.95976  -1.55785   0.04174 
 6                    -4.04317   2.53421  -0.58214 
 6                    -2.54315   2.59504  -0.57187 
 6                     3.93454  -0.6543   -0.01519 
 6                     2.50813  -0.81828   0.01811 
 6                    -2.00751   3.85411  -0.83203 
 6                    -1.79766   1.48857  -0.37826 
 6                     1.77965   0.27916  -0.14591 
 6                     1.91048  -2.15295   0.32529 
 6                    -0.39071   1.40017  -0.34463 
 6                     0.40532   0.27598  -0.07696 
 1                    -11.00199   1.32735  -0.17204 
 1                    -13.00805  -1.64275   2.10301 
 1                    -11.30469  -1.85144   1.58681 
 1                    -12.6383  -3.25985  -0.22933 
 1                    -10.16931  -0.3371    2.66656 
 1                    -10.83829   1.60053   2.63181 
 1                    -11.70121  -0.02413   3.41116 
 1                    -13.79462   0.67891   0.40207 
 1                    -13.89635   1.04241   2.03289 
 1                    -12.91667   2.00217   0.78645 
 1                     12.35786   2.23567  -0.19284 
 1                     13.07328   2.25599   1.57521 
 1                    -12.93698  -1.98288  -2.08708 
 1                     13.64382  -0.17175   1.08165 
 1                    -9.40116  -1.16053   0.41405 
 1                     13.59495  -1.04221  -1.32066 
 1                     12.94263   0.39604  -2.20564 
 1                     9.37323   1.87902   1.66727 
 1                     10.09344   2.519     0.24429 
 1                     10.80816   3.08421   1.66821 
 1                     12.05594  -0.4007    2.18677 
 1                     10.24977  -0.13434   2.69883 
 1                     11.43433   0.90865   2.97092 
 1                    -9.83319   0.49402  -2.71565 
 1                    -11.27709   1.25554  -2.6697 
 1                    -11.30266  -0.09724  -3.45988 
 1                    -14.92654  -1.65626  -0.61869 
 1                     8.81532   0.41284   0.36082 
 1                    -8.69298   1.70433  -0.38776 
 1                     11.36193  -2.65873  -1.89333 
 1                     9.92333  -1.48316  -2.27986 
 1                     11.58753  -1.32425  -3.10455 
 1                     15.44234   1.4422    0.37224 
 1                     9.48756  -2.55476   0.09185 
 1                    -5.53114  -1.14865   0.23566 
 1                    -6.90975  -1.25178   1.63612 
 1                    -7.05959  -1.63577  -0.29327 
 1                    -6.65699   2.37074  -0.51078 
 1                     6.80042  -3.82237   1.26667 
 1                     6.42422  -3.93224  -0.28396 
 1                     8.15829  -4.04648   0.06021 
 1                     6.53079  -0.20628  -0.31464 
 1                    -4.2835    0.19775  -0.23701 
 1                     4.50509  -2.61949   0.51479 
 1                    -4.6572    3.45     -0.46826 
 1                     4.20134   0.55992  -0.13902 
 1                    -1.32015   3.74668  -1.91364 
 1                    -1.38205   4.35452   0.01327 
 1                    -2.73263   4.65982  -0.92991 
 1                    -2.45757   0.59313  -0.40717 
 1                     2.29678   1.21612  -0.63387 
 1                     2.30902  -2.60494   1.31316 
 1                     0.82407  -2.14293   0.52725 
 1                     1.77363  -3.1104   -0.36903 
 1                     0.163     2.37314  -0.68842 
 1                    -0.24064  -0.63153  -0.24357 
 
 Stoichiometry    C40H56O2
 Framework group  C1[X(C40H56O2)]
 Deg. of freedom   288
 Full point group                 C1      NOp   1
 Largest Abelian subgroup         C1      NOp   1
 Largest concise Abelian subgroup C1      NOp   1
                         Standard orientation:                         
 ---------------------------------------------------------------------
 Center     Atomic      Atomic             Coordinates (Angstroms)
 Number     Number       Type             X           Y           Z
 ---------------------------------------------------------------------
      1          8           0      -14.306525   -1.919590    0.242006
      2          8           0       14.859817    1.088874   -0.326084
      3          6           0      -11.829249   -0.004770    1.134624
      4          6           0      -10.907885    0.330412   -0.094388
      5          6           0      -12.203543   -1.451603    1.230167
      6          6           0      -12.921543   -1.980619   -0.029212
      7          6           0      -11.531889   -0.316024   -1.363669
      8          6           0       11.190918    0.917742    0.968548
      9          6           0      -10.987851    0.373808    2.527268
     10          6           0      -13.115293    0.989022    1.042031
     11          6           0       12.695276    1.541731    0.652377
     12          6           0      -12.388377   -1.333825   -1.277847
     13          6           0       13.564823    0.552140    0.093775
     14          6           0       10.722106   -0.106914   -0.037301
     15          6           0       -9.507023   -0.107465    0.149129
     16          6           0       13.047972   -0.157276   -1.083635
     17          6           0       11.611704   -0.561213   -1.011724
     18          6           0       10.245894    2.198726    1.172126
     19          6           0       11.238867    0.260383    2.339736
     20          6           0      -10.986988    0.277607   -2.613543
     21          6           0       -8.442884    0.676439   -0.054772
     22          6           0        9.369252   -0.391778    0.100601
     23          6           0       11.134303   -1.631218   -2.112498
     24          6           0       -7.072229    0.389950   -0.005718
     25          6           0        8.833365   -1.614181    0.064105
     26          6           0       -6.651257   -1.013512    0.324464
     27          6           0        7.434293   -2.049754    0.072529
     28          6           0       -6.237119    1.420496   -0.279477
     29          6           0        7.183353   -3.548836    0.228792
     30          6           0        6.325986   -1.213062   -0.134084
     31          6           0       -4.810450    1.414887   -0.308049
     32          6           0        4.957190   -1.560984    0.034269
     33          6           0       -4.041949    2.542210   -0.570787
     34          6           0       -2.541893    2.601712   -0.559384
     35          6           0        3.932763   -0.656247   -0.018001
     36          6           0        2.506198   -0.819209    0.013608
     37          6           0       -2.005049    3.861805   -0.812026
     38          6           0       -1.797430    1.493521   -0.371750
     39          6           0        1.778729    0.279768   -0.144483
     40          6           0        1.907268   -2.155118    0.312808
     41          6           0       -0.390578    1.403739   -0.337887
     42          6           0        0.404360    0.277354   -0.076269
     43          1           0      -11.002000    1.338910   -0.171268
     44          1           0      -13.011771   -1.642525    2.085624
     45          1           0      -11.308310   -1.849686    1.569127
     46          1           0      -12.642147   -3.246499   -0.255774
     47          1           0      -10.172228   -0.342535    2.658149
     48          1           0      -10.839557    1.595833    2.634188
     49          1           0      -11.704251   -0.032550    3.403734
     50          1           0      -13.795482    0.689544    0.397642
     51          1           0      -13.897761    1.043744    2.030471
     52          1           0      -12.916620    2.009830    0.790081
     53          1           0       12.358615    2.227563   -0.174636
     54          1           0       13.073117    2.237118    1.593872
     55          1           0      -12.938770   -1.958622   -2.106315
     56          1           0       13.641873   -0.188224    1.086670
     57          1           0       -9.403584   -1.153656    0.401350
     58          1           0       13.593537   -1.044823   -1.320624
     59          1           0       12.942893    0.399035   -2.197668
     60          1           0        9.372705    1.862754    1.681837
     61          1           0       10.094202    2.510298    0.262934
     62          1           0       10.808650    3.066710    1.690454
     63          1           0       12.053212   -0.422178    2.189622
     64          1           0       10.246999   -0.157235    2.702268
     65          1           0       11.432298    0.883166    2.980966
     66          1           0       -9.832560    0.519217   -2.719013
     67          1           0      -11.275843    1.281684   -2.669448
     68          1           0      -11.302137   -0.066511   -3.467402
     69          1           0      -14.928827   -1.638772   -0.637110
     70          1           0        8.814245    0.404582    0.366687
     71          1           0       -8.692567    1.715167   -0.383616
     72          1           0       11.359455   -2.656136   -1.903747
     73          1           0        9.922044   -1.477154   -2.284268
     74          1           0       11.586815   -1.314907   -3.107154
     75          1           0       15.442126    1.428253    0.387484
     76          1           0        9.484123   -2.561991    0.081023
     77          1           0       -5.533456   -1.144027    0.225056
     78          1           0       -6.912894   -1.254031    1.624174
     79          1           0       -7.062042   -1.626806   -0.307462
     80          1           0       -6.655945    2.380544   -0.501739
     81          1           0        6.795300   -3.834054    1.247127
     82          1           0        6.419822   -3.934696   -0.304300
     83          1           0        8.153609   -4.052381    0.040115
     84          1           0        6.529552   -0.208712   -0.313516
     85          1           0       -4.284435    0.204013   -0.239216
     86          1           0        4.501383   -2.624937    0.500979
     87          1           0       -4.655272    3.457856   -0.451964
     88          1           0        4.200655    0.558438   -0.134714
     89          1           0       -1.317211    3.760007   -1.893873
     90          1           0       -1.379615    4.356822    0.036464
     91          1           0       -2.729441    4.668676   -0.905652
     92          1           0       -2.458087    0.598815   -0.406142
     93          1           0        2.296909    1.219074   -0.626777
     94          1           0        2.304900   -2.613113    1.298267
     95          1           0        0.820753   -2.145344    0.514251
     96          1           0        1.769973   -3.108446   -0.387080
     97          1           0        0.164137    2.378195   -0.675788
     98          1           0       -0.242270   -0.628639   -0.248423
 ---------------------------------------------------------------------
 Rotational constants (GHZ):           0.2552492           0.0098243           0.0096747
 Standard basis: 6-31G(d,p) (6D, 7F)
 There are   910 symmetry adapted cartesian basis functions of A   symmetry.
 There are   910 symmetry adapted basis functions of A   symmetry.
   910 basis functions,  1568 primitive gaussians,   910 cartesian basis functions
   156 alpha electrons      156 beta electrons
       nuclear repulsion energy      4007.5399351525 Hartrees.
 NAtoms=   98 NActive=   98 NUniq=   98 SFac= 1.00D+00 NAtFMM=   60 NAOKFM=T Big=T
 Integral buffers will be    131072 words long.
 Raffenetti 1 integral format.
 Two-electron integral symmetry is turned on.
 One-electron integrals computed using PRISM.
 NBasis=   910 RedAO= T EigKep=  8.11D-04  NBF=   910
 NBsUse=   910 1.00D-06 EigRej= -1.00D+00 NBFU=   910
 ExpMin= 1.61D-01 ExpMax= 5.48D+03 ExpMxC= 8.25D+02 IAcc=3 IRadAn=         5 AccDes= 0.00D+00
 Harris functional with IExCor=20419 and IRadAn=       5 diagonalized for initial guess.
 HarFok:  IExCor=20419 AccDes= 0.00D+00 IRadAn=         5 IDoV= 1 UseB2=F ITyADJ=14
 ICtDFT=  3500011 ScaDFX=  1.000000  1.000000  1.000000  1.000000
 FoFCou: FMM=F IPFlag=           0 FMFlag=      100000 FMFlg1=        2001
         NFxFlg=           0 DoJE=T BraDBF=F KetDBF=T FulRan=T
         wScrn=  0.000000 ICntrl=       500 IOpCl=  0 I1Cent=   200000004 NGrid=           0
         NMat0=    1 NMatS0=      1 NMatT0=    0 NMatD0=    1 NMtDS0=    0 NMtDT0=    0
 Petite list used in FoFCou.
 Requested convergence on RMS density matrix=1.00D-08 within 128 cycles.
 Requested convergence on MAX density matrix=1.00D-06.
 Requested convergence on             energy=1.00D-06.
 No special actions if energy rises.
 Integral accuracy reduced to 1.0D-05 until final iterations.
 Initial convergence to 1.0D-05 achieved.  Increase integral accuracy.
 SCF Done:  E(RCAM-B3LYP) =  -1706.82937704     A.U. after   14 cycles
            NFock= 14  Conv=0.99D-08     -V/T= 2.0102
 DoSCS=F DFT=T ScalE2(SS,OS)=  1.000000  1.000000
 ExpMin= 1.61D-01 ExpMax= 5.48D+03 ExpMxC= 8.25D+02 IAcc=3 IRadAn=         5 AccDes= 0.00D+00
 HarFok:  IExCor=  205 AccDes= 0.00D+00 IRadAn=         5 IDoV=-2 UseB2=F ITyADJ=14
 ICtDFT= 12500011 ScaDFX=  1.000000  1.000000  1.000000  1.000000
 GSVD:  LWork=       -2100 too small for GESVD, short by        9450 words or        9450 for optimal perf.
 Range of M.O.s used for correlation:    43   910
 NBasis=   910 NAE=   156 NBE=   156 NFC=    42 NFV=     0
 NROrb=    868 NOA=   114 NOB=   114 NVA=   754 NVB=   754
 Orbital symmetries:
       Occupied  (A) (A) (A) (A) (A) (A) (A) (A) (A) (A) (A) (A)
                 (A) (A) (A) (A) (A) (A) (A) (A) (A) (A) (A) (A)
                 (A) (A) (A) (A) (A) (A) (A) (A) (A) (A) (A) (A)
                 (A) (A) (A) (A) (A) (A) (A) (A) (A) (A) (A) (A)
                 (A) (A) (A) (A) (A) (A) (A) (A) (A) (A) (A) (A)
                 (A) (A) (A) (A) (A) (A) (A) (A) (A) (A) (A) (A)
                 (A) (A) (A) (A) (A) (A) (A) (A) (A) (A) (A) (A)
                 (A) (A) (A) (A) (A) (A) (A) (A) (A) (A) (A) (A)
                 (A) (A) (A) (A) (A) (A) (A) (A) (A) (A) (A) (A)
                 (A) (A) (A) (A) (A) (A) (A) (A) (A) (A) (A) (A)
                 (A) (A) (A) (A) (A) (A) (A) (A) (A) (A) (A) (A)
                 (A) (A) (A) (A) (A) (A) (A) (A) (A) (A) (A) (A)
                 (A) (A) (A) (A) (A) (A) (A) (A) (A) (A) (A) (A)
       Virtual   (A) (A) (A) (A) (A) (A) (A) (A) (A) (A) (A) (A)
                 (A) (A) (A) (A) (A) (A) (A) (A) (A) (A) (A) (A)
                 (A) (A) (A) (A) (A) (A) (A) (A) (A) (A) (A) (A)
                 (A) (A) (A) (A) (A) (A) (A) (A) (A) (A) (A) (A)
                 (A) (A) (A) (A) (A) (A) (A) (A) (A) (A) (A) (A)
                 (A) (A) (A) (A) (A) (A) (A) (A) (A) (A) (A) (A)
                 (A) (A) (A) (A) (A) (A) (A) (A) (A) (A) (A) (A)
                 (A) (A) (A) (A) (A) (A) (A) (A) (A) (A) (A) (A)
                 (A) (A) (A) (A) (A) (A) (A) (A) (A) (A) (A) (A)
                 (A) (A) (A) (A) (A) (A) (A) (A) (A) (A) (A) (A)
                 (A) (A) (A) (A) (A) (A) (A) (A) (A) (A) (A) (A)
                 (A) (A) (A) (A) (A) (A) (A) (A) (A) (A) (A) (A)
                 (A) (A) (A) (A) (A) (A) (A) (A) (A) (A) (A) (A)
                 (A) (A) (A) (A) (A) (A) (A) (A) (A) (A) (A) (A)
                 (A) (A) (A) (A) (A) (A) (A) (A) (A) (A) (A) (A)
                 (A) (A) (A) (A) (A) (A) (A) (A) (A) (A) (A) (A)
                 (A) (A) (A) (A) (A) (A) (A) (A) (A) (A) (A) (A)
                 (A) (A) (A) (A) (A) (A) (A) (A) (A) (A) (A) (A)
                 (A) (A) (A) (A) (A) (A) (A) (A) (A) (A) (A) (A)
                 (A) (A) (A) (A) (A) (A) (A) (A) (A) (A) (A) (A)
                 (A) (A) (A) (A) (A) (A) (A) (A) (A) (A) (A) (A)
                 (A) (A) (A) (A) (A) (A) (A) (A) (A) (A) (A) (A)
                 (A) (A) (A) (A) (A) (A) (A) (A) (A) (A) (A) (A)
                 (A) (A) (A) (A) (A) (A) (A) (A) (A) (A) (A) (A)
                 (A) (A) (A) (A) (A) (A) (A) (A) (A) (A) (A) (A)
                 (A) (A) (A) (A) (A) (A) (A) (A) (A) (A) (A) (A)
                 (A) (A) (A) (A) (A) (A) (A) (A) (A) (A) (A) (A)
                 (A) (A) (A) (A) (A) (A) (A) (A) (A) (A) (A) (A)
                 (A) (A) (A) (A) (A) (A) (A) (A) (A) (A) (A) (A)
                 (A) (A) (A) (A) (A) (A) (A) (A) (A) (A) (A) (A)
                 (A) (A) (A) (A) (A) (A) (A) (A) (A) (A) (A) (A)
                 (A) (A) (A) (A) (A) (A) (A) (A) (A) (A) (A) (A)
                 (A) (A) (A) (A) (A) (A) (A) (A) (A) (A) (A) (A)
                 (A) (A) (A) (A) (A) (A) (A) (A) (A) (A) (A) (A)
                 (A) (A) (A) (A) (A) (A) (A) (A) (A) (A) (A) (A)
                 (A) (A) (A) (A) (A) (A) (A) (A) (A) (A) (A) (A)
                 (A) (A) (A) (A) (A) (A) (A) (A) (A) (A) (A) (A)
                 (A) (A) (A) (A) (A) (A) (A) (A) (A) (A) (A) (A)
                 (A) (A) (A) (A) (A) (A) (A) (A) (A) (A) (A) (A)
                 (A) (A) (A) (A) (A) (A) (A) (A) (A) (A) (A) (A)
                 (A) (A) (A) (A) (A) (A) (A) (A) (A) (A) (A) (A)
                 (A) (A) (A) (A) (A) (A) (A) (A) (A) (A) (A) (A)
                 (A) (A) (A) (A) (A) (A) (A) (A) (A) (A) (A) (A)
                 (A) (A) (A) (A) (A) (A) (A) (A) (A) (A) (A) (A)
                 (A) (A) (A) (A) (A) (A) (A) (A) (A) (A) (A) (A)
                 (A) (A) (A) (A) (A) (A) (A) (A) (A) (A) (A) (A)
                 (A) (A) (A) (A) (A) (A) (A) (A) (A) (A) (A) (A)
                 (A) (A) (A) (A) (A) (A) (A) (A) (A) (A) (A) (A)
                 (A) (A) (A) (A) (A) (A) (A) (A) (A) (A) (A) (A)
                 (A) (A) (A) (A) (A) (A) (A) (A) (A) (A) (A) (A)
                 (A) (A) (A) (A) (A) (A) (A) (A) (A) (A) (A) (A)
                 (A) (A) (A) (A) (A) (A) (A) (A) (A) (A) (A) (A)
                 (A) (A) (A) (A) (A) (A) (A) (A) (A) (A) (A) (A)
                 (A) (A) (A) (A) (A) (A) (A) (A) (A) (A) (A) (A)
                 (A) (A) (A) (A) (A) (A) (A) (A) (A) (A) (A) (A)
                 (A) (A) (A) (A) (A) (A) (A) (A) (A) (A) (A) (A)
                 (A) (A) (A) (A) (A) (A) (A) (A) (A) (A) (A) (A)
                 (A) (A) (A) (A) (A) (A) (A) (A) (A) (A) (A) (A)
                 (A) (A) (A) (A) (A) (A) (A) (A) (A) (A) (A) (A)
                 (A) (A) (A) (A) (A) (A) (A) (A) (A) (A) (A) (A)
                 (A) (A) (A) (A) (A) (A) (A) (A) (A) (A) (A) (A)
                 (A) (A) (A) (A) (A) (A) (A) (A) (A) (A) (A) (A)
                 (A) (A) (A) (A) (A) (A) (A) (A) (A) (A)
     4 initial guesses have been made.
 Convergence on wavefunction:    0.001000000000000
 Iteration     1 Dimension     4 NMult     0 NNew      4
 CISAX will form     4 AO SS matrices at one time.
 Iteration     2 Dimension     6 NMult     4 NNew      2
 Iteration     3 Dimension     8 NMult     6 NNew      2
 Iteration     4 Dimension    10 NMult     8 NNew      2
 Iteration     5 Dimension    12 NMult    10 NNew      2
 Iteration     6 Dimension    14 NMult    12 NNew      2
 ***********************************************************************
 Excited states from <AA,BB:AA,BB> singles matrix:
 ***********************************************************************
 
 Ground to excited state transition densities written to RWF  633
 Ground to excited state transition electric dipole moments (Au):
       state          X           Y           Z        Dip. S.      Osc.
         1         7.1856     -1.0942      0.0151     52.8299      3.0068
 Ground to excited state transition velocity dipole moments (Au):
       state          X           Y           Z        Dip. S.      Osc.
         1        -0.5938      0.0912     -0.0027      0.3610      2.8188
 Ground to excited state transition magnetic dipole moments (Au):
       state          X           Y           Z
         1         0.0612      0.3366      1.0491
 Ground to excited state transition velocity quadrupole moments (Au):
       state          XX          YY          ZZ          XY          XZ          YZ
         1        -1.6479      0.0335      0.0080      0.5323      0.0447     -0.0901
 <0|del|b> * <b|rxdel|0> + <0|del|b> * <b|delr+rdel|0>
 Rotatory Strengths (R) in cgs (10**-40 erg-esu-cm/Gauss)
       state          XX          YY          ZZ    R(velocity)    E-M Angle
         1        92.6871     65.4716   -227.9985    -23.2799       90.73
 1/2[<0|r|b>*<b|rxdel|0> + (<0|rxdel|b>*<b|r|0>)*]
 Rotatory Strengths (R) in cgs (10**-40 erg-esu-cm/Gauss)
       state          XX          YY          ZZ     R(length)
         1      -310.7985    260.4416    -11.2048    -20.5206
  1/2[<0|del|b>*<b|r|0> + (<0|r|b>*<b|del|0>)*] (Au)
       state          X           Y           Z        Dip. S.   Osc.(frdel)
         1        -4.2671     -0.0998     -0.0000      4.3669      2.9113

 Excitation energies and oscillator strengths:
 
 Excited State   1:      Singlet-A      2.3231 eV  533.70 nm  f=3.0068  <S**2>=0.000
     155 ->158        -0.16545
     156 ->157         0.68196
 This state for optimization and/or second-order correction.
 Total Energy, E(TD-HF/TD-DFT) =  -1706.74400379    
 Copying the excited state density for this state as the 1-particle RhoCI density.
 SavETr:  write IOETrn=   770 NScale= 10 NData=  16 NLR=1 NState=    1 LETran=      28.

 **********************************************************************

            Population analysis using the SCF density.

 **********************************************************************

 Orbital symmetries:
       Occupied  (A) (A) (A) (A) (A) (A) (A) (A) (A) (A) (A) (A)
                 (A) (A) (A) (A) (A) (A) (A) (A) (A) (A) (A) (A)
                 (A) (A) (A) (A) (A) (A) (A) (A) (A) (A) (A) (A)
                 (A) (A) (A) (A) (A) (A) (A) (A) (A) (A) (A) (A)
                 (A) (A) (A) (A) (A) (A) (A) (A) (A) (A) (A) (A)
                 (A) (A) (A) (A) (A) (A) (A) (A) (A) (A) (A) (A)
                 (A) (A) (A) (A) (A) (A) (A) (A) (A) (A) (A) (A)
                 (A) (A) (A) (A) (A) (A) (A) (A) (A) (A) (A) (A)
                 (A) (A) (A) (A) (A) (A) (A) (A) (A) (A) (A) (A)
                 (A) (A) (A) (A) (A) (A) (A) (A) (A) (A) (A) (A)
                 (A) (A) (A) (A) (A) (A) (A) (A) (A) (A) (A) (A)
                 (A) (A) (A) (A) (A) (A) (A) (A) (A) (A) (A) (A)
                 (A) (A) (A) (A) (A) (A) (A) (A) (A) (A) (A) (A)
       Virtual   (A) (A) (A) (A) (A) (A) (A) (A) (A) (A) (A) (A)
                 (A) (A) (A) (A) (A) (A) (A) (A) (A) (A) (A) (A)
                 (A) (A) (A) (A) (A) (A) (A) (A) (A) (A) (A) (A)
                 (A) (A) (A) (A) (A) (A) (A) (A) (A) (A) (A) (A)
                 (A) (A) (A) (A) (A) (A) (A) (A) (A) (A) (A) (A)
                 (A) (A) (A) (A) (A) (A) (A) (A) (A) (A) (A) (A)
                 (A) (A) (A) (A) (A) (A) (A) (A) (A) (A) (A) (A)
                 (A) (A) (A) (A) (A) (A) (A) (A) (A) (A) (A) (A)
                 (A) (A) (A) (A) (A) (A) (A) (A) (A) (A) (A) (A)
                 (A) (A) (A) (A) (A) (A) (A) (A) (A) (A) (A) (A)
                 (A) (A) (A) (A) (A) (A) (A) (A) (A) (A) (A) (A)
                 (A) (A) (A) (A) (A) (A) (A) (A) (A) (A) (A) (A)
                 (A) (A) (A) (A) (A) (A) (A) (A) (A) (A) (A) (A)
                 (A) (A) (A) (A) (A) (A) (A) (A) (A) (A) (A) (A)
                 (A) (A) (A) (A) (A) (A) (A) (A) (A) (A) (A) (A)
                 (A) (A) (A) (A) (A) (A) (A) (A) (A) (A) (A) (A)
                 (A) (A) (A) (A) (A) (A) (A) (A) (A) (A) (A) (A)
                 (A) (A) (A) (A) (A) (A) (A) (A) (A) (A) (A) (A)
                 (A) (A) (A) (A) (A) (A) (A) (A) (A) (A) (A) (A)
                 (A) (A) (A) (A) (A) (A) (A) (A) (A) (A) (A) (A)
                 (A) (A) (A) (A) (A) (A) (A) (A) (A) (A) (A) (A)
                 (A) (A) (A) (A) (A) (A) (A) (A) (A) (A) (A) (A)
                 (A) (A) (A) (A) (A) (A) (A) (A) (A) (A) (A) (A)
                 (A) (A) (A) (A) (A) (A) (A) (A) (A) (A) (A) (A)
                 (A) (A) (A) (A) (A) (A) (A) (A) (A) (A) (A) (A)
                 (A) (A) (A) (A) (A) (A) (A) (A) (A) (A) (A) (A)
                 (A) (A) (A) (A) (A) (A) (A) (A) (A) (A) (A) (A)
                 (A) (A) (A) (A) (A) (A) (A) (A) (A) (A) (A) (A)
                 (A) (A) (A) (A) (A) (A) (A) (A) (A) (A) (A) (A)
                 (A) (A) (A) (A) (A) (A) (A) (A) (A) (A) (A) (A)
                 (A) (A) (A) (A) (A) (A) (A) (A) (A) (A) (A) (A)
                 (A) (A) (A) (A) (A) (A) (A) (A) (A) (A) (A) (A)
                 (A) (A) (A) (A) (A) (A) (A) (A) (A) (A) (A) (A)
                 (A) (A) (A) (A) (A) (A) (A) (A) (A) (A) (A) (A)
                 (A) (A) (A) (A) (A) (A) (A) (A) (A) (A) (A) (A)
                 (A) (A) (A) (A) (A) (A) (A) (A) (A) (A) (A) (A)
                 (A) (A) (A) (A) (A) (A) (A) (A) (A) (A) (A) (A)
                 (A) (A) (A) (A) (A) (A) (A) (A) (A) (A) (A) (A)
                 (A) (A) (A) (A) (A) (A) (A) (A) (A) (A) (A) (A)
                 (A) (A) (A) (A) (A) (A) (A) (A) (A) (A) (A) (A)
                 (A) (A) (A) (A) (A) (A) (A) (A) (A) (A) (A) (A)
                 (A) (A) (A) (A) (A) (A) (A) (A) (A) (A) (A) (A)
                 (A) (A) (A) (A) (A) (A) (A) (A) (A) (A) (A) (A)
                 (A) (A) (A) (A) (A) (A) (A) (A) (A) (A) (A) (A)
                 (A) (A) (A) (A) (A) (A) (A) (A) (A) (A) (A) (A)
                 (A) (A) (A) (A) (A) (A) (A) (A) (A) (A) (A) (A)
                 (A) (A) (A) (A) (A) (A) (A) (A) (A) (A) (A) (A)
                 (A) (A) (A) (A) (A) (A) (A) (A) (A) (A) (A) (A)
                 (A) (A) (A) (A) (A) (A) (A) (A) (A) (A) (A) (A)
                 (A) (A) (A) (A) (A) (A) (A) (A) (A) (A) (A) (A)
                 (A) (A) (A) (A) (A) (A) (A) (A) (A) (A) (A) (A)
                 (A) (A) (A) (A) (A) (A) (A) (A) (A) (A) (A) (A)
                 (A) (A) (A) (A) (A) (A) (A) (A) (A) (A) (A) (A)
                 (A) (A) (A) (A) (A) (A) (A) (A) (A) (A) (A) (A)
                 (A) (A) (A) (A) (A) (A) (A) (A) (A) (A) (A) (A)
                 (A) (A) (A) (A) (A) (A) (A) (A) (A) (A) (A) (A)
                 (A) (A) (A) (A) (A) (A) (A) (A) (A) (A) (A) (A)
                 (A) (A) (A) (A) (A) (A) (A) (A) (A) (A) (A) (A)
                 (A) (A) (A) (A) (A) (A) (A) (A) (A) (A) (A) (A)
                 (A) (A) (A) (A) (A) (A) (A) (A) (A) (A) (A) (A)
                 (A) (A) (A) (A) (A) (A) (A) (A) (A) (A) (A) (A)
                 (A) (A) (A) (A) (A) (A) (A) (A) (A) (A) (A) (A)
                 (A) (A) (A) (A) (A) (A) (A) (A) (A) (A)
 The electronic state is 1-A.
 Alpha  occ. eigenvalues --  -19.23020 -19.20911 -10.32718 -10.31970 -10.28792
 Alpha  occ. eigenvalues --  -10.27950 -10.27913 -10.27717 -10.27507 -10.27414
 Alpha  occ. eigenvalues --  -10.27248 -10.27232 -10.27221 -10.27216 -10.27197
 Alpha  occ. eigenvalues --  -10.27191 -10.27174 -10.27081 -10.26982 -10.26907
 Alpha  occ. eigenvalues --  -10.26822 -10.26795 -10.26703 -10.26656 -10.26417
 Alpha  occ. eigenvalues --  -10.26321 -10.26288 -10.26257 -10.26214 -10.26102
 Alpha  occ. eigenvalues --  -10.25954 -10.25659 -10.25488 -10.25352 -10.25265
 Alpha  occ. eigenvalues --  -10.24824 -10.24545 -10.24523 -10.24423 -10.24084
 Alpha  occ. eigenvalues --  -10.23884 -10.21897  -1.08056  -1.07582  -0.93750
 Alpha  occ. eigenvalues --   -0.93687  -0.92621  -0.92033  -0.91190  -0.89834
 Alpha  occ. eigenvalues --   -0.87175  -0.86544  -0.86163  -0.85963  -0.84985
 Alpha  occ. eigenvalues --   -0.83154  -0.82251  -0.80377  -0.80191  -0.78293
 Alpha  occ. eigenvalues --   -0.77449  -0.77187  -0.76930  -0.76195  -0.75764
 Alpha  occ. eigenvalues --   -0.75349  -0.75102  -0.73619  -0.73358  -0.70316
 Alpha  occ. eigenvalues --   -0.69387  -0.67778  -0.66600  -0.64785  -0.63926
 Alpha  occ. eigenvalues --   -0.63155  -0.62570  -0.60995  -0.60017  -0.59540
 Alpha  occ. eigenvalues --   -0.58637  -0.58293  -0.58199  -0.57635  -0.56214
 Alpha  occ. eigenvalues --   -0.55709  -0.55308  -0.54512  -0.54217  -0.53743
 Alpha  occ. eigenvalues --   -0.53258  -0.52921  -0.52669  -0.51746  -0.51198
 Alpha  occ. eigenvalues --   -0.50809  -0.49991  -0.49885  -0.49373  -0.49039
 Alpha  occ. eigenvalues --   -0.48769  -0.48429  -0.48027  -0.47760  -0.47600
 Alpha  occ. eigenvalues --   -0.47369  -0.46844  -0.46355  -0.46267  -0.45854
 Alpha  occ. eigenvalues --   -0.45781  -0.45587  -0.45277  -0.45056  -0.44682
 Alpha  occ. eigenvalues --   -0.44641  -0.44472  -0.43648  -0.43464  -0.43226
 Alpha  occ. eigenvalues --   -0.42986  -0.42880  -0.42476  -0.42033  -0.41749
 Alpha  occ. eigenvalues --   -0.41629  -0.41419  -0.41204  -0.40801  -0.40692
 Alpha  occ. eigenvalues --   -0.40183  -0.39776  -0.39459  -0.39248  -0.39015
 Alpha  occ. eigenvalues --   -0.38776  -0.38620  -0.38436  -0.38080  -0.37796
 Alpha  occ. eigenvalues --   -0.37132  -0.36683  -0.36368  -0.36173  -0.35470
 Alpha  occ. eigenvalues --   -0.34870  -0.34260  -0.33540  -0.32200  -0.31934
 Alpha  occ. eigenvalues --   -0.31794  -0.29637  -0.28709  -0.26551  -0.23660
 Alpha  occ. eigenvalues --   -0.20059
 Alpha virt. eigenvalues --   -0.05407  -0.01300   0.02249   0.05152   0.06500
 Alpha virt. eigenvalues --    0.08954   0.09544   0.09942   0.10904   0.10971
 Alpha virt. eigenvalues --    0.11728   0.11808   0.12336   0.12472   0.12840
 Alpha virt. eigenvalues --    0.13610   0.13798   0.14046   0.14291   0.14732
 Alpha virt. eigenvalues --    0.15064   0.15127   0.15580   0.16119   0.16581
 Alpha virt. eigenvalues --    0.16845   0.17095   0.17160   0.17315   0.17436
 Alpha virt. eigenvalues --    0.17617   0.17966   0.18263   0.18635   0.18675
 Alpha virt. eigenvalues --    0.19404   0.19539   0.19785   0.19933   0.20482
 Alpha virt. eigenvalues --    0.20766   0.21211   0.21456   0.21626   0.21898
 Alpha virt. eigenvalues --    0.22032   0.22165   0.22558   0.22941   0.23234
 Alpha virt. eigenvalues --    0.23404   0.23683   0.23940   0.24136   0.24419
 Alpha virt. eigenvalues --    0.24651   0.25223   0.25454   0.26014   0.26160
 Alpha virt. eigenvalues --    0.26351   0.26531   0.26754   0.26879   0.27356
 Alpha virt. eigenvalues --    0.28153   0.28246   0.28343   0.28866   0.29449
 Alpha virt. eigenvalues --    0.29895   0.29939   0.30192   0.30215   0.30902
 Alpha virt. eigenvalues --    0.31459   0.31609   0.31798   0.32479   0.32803
 Alpha virt. eigenvalues --    0.33675   0.33928   0.34097   0.34827   0.34989
 Alpha virt. eigenvalues --    0.35559   0.35887   0.36120   0.37618   0.38452
 Alpha virt. eigenvalues --    0.39219   0.39991   0.40649   0.41847   0.42904
 Alpha virt. eigenvalues --    0.43151   0.43949   0.44238   0.44992   0.46422
 Alpha virt. eigenvalues --    0.46573   0.47021   0.47944   0.48764   0.49820
 Alpha virt. eigenvalues --    0.51328   0.51456   0.51923   0.53239   0.53789
 Alpha virt. eigenvalues --    0.54384   0.55281   0.55484   0.55981   0.56547
 Alpha virt. eigenvalues --    0.56833   0.57396   0.57526   0.57856   0.58401
 Alpha virt. eigenvalues --    0.58928   0.59265   0.59570   0.59757   0.60336
 Alpha virt. eigenvalues --    0.60513   0.60598   0.60699   0.61118   0.61794
 Alpha virt. eigenvalues --    0.62054   0.62483   0.62619   0.62998   0.63471
 Alpha virt. eigenvalues --    0.63579   0.63865   0.64177   0.64519   0.64859
 Alpha virt. eigenvalues --    0.64956   0.65292   0.66108   0.66524   0.66671
 Alpha virt. eigenvalues --    0.66911   0.66993   0.67557   0.67900   0.68173
 Alpha virt. eigenvalues --    0.68660   0.68960   0.69095   0.69466   0.69508
 Alpha virt. eigenvalues --    0.70411   0.70682   0.70952   0.71144   0.71561
 Alpha virt. eigenvalues --    0.72489   0.72615   0.72961   0.73201   0.73759
 Alpha virt. eigenvalues --    0.74165   0.74298   0.74504   0.75000   0.75058
 Alpha virt. eigenvalues --    0.75297   0.75906   0.76478   0.76787   0.77053
 Alpha virt. eigenvalues --    0.77341   0.77686   0.78475   0.78727   0.79317
 Alpha virt. eigenvalues --    0.79560   0.79768   0.80261   0.81001   0.81044
 Alpha virt. eigenvalues --    0.81150   0.81411   0.81621   0.82068   0.82512
 Alpha virt. eigenvalues --    0.83007   0.83567   0.83629   0.83939   0.84254
 Alpha virt. eigenvalues --    0.84390   0.84822   0.84917   0.85324   0.85507
 Alpha virt. eigenvalues --    0.85777   0.85798   0.86042   0.86396   0.86653
 Alpha virt. eigenvalues --    0.86817   0.86909   0.87084   0.87918   0.88105
 Alpha virt. eigenvalues --    0.88418   0.88735   0.88860   0.89169   0.89744
 Alpha virt. eigenvalues --    0.90104   0.90166   0.90422   0.90861   0.91140
 Alpha virt. eigenvalues --    0.91381   0.91698   0.92031   0.92484   0.92596
 Alpha virt. eigenvalues --    0.92844   0.93090   0.93545   0.94127   0.94254
 Alpha virt. eigenvalues --    0.94912   0.95017   0.95313   0.95929   0.95934
 Alpha virt. eigenvalues --    0.96305   0.96701   0.97194   0.97555   0.97761
 Alpha virt. eigenvalues --    0.97979   0.98126   0.98773   0.99051   0.99706
 Alpha virt. eigenvalues --    0.99803   0.99972   1.00287   1.00733   1.00999
 Alpha virt. eigenvalues --    1.01471   1.01615   1.02463   1.03314   1.03534
 Alpha virt. eigenvalues --    1.04157   1.04192   1.04586   1.05523   1.05796
 Alpha virt. eigenvalues --    1.06062   1.06813   1.07215   1.07705   1.08007
 Alpha virt. eigenvalues --    1.08332   1.08512   1.09222   1.09333   1.09655
 Alpha virt. eigenvalues --    1.09712   1.10457   1.10627   1.12072   1.12350
 Alpha virt. eigenvalues --    1.12479   1.13338   1.13800   1.14394   1.14588
 Alpha virt. eigenvalues --    1.15648   1.16228   1.17161   1.17648   1.17724
 Alpha virt. eigenvalues --    1.18250   1.18787   1.19703   1.20501   1.21208
 Alpha virt. eigenvalues --    1.21907   1.22631   1.23093   1.23724   1.24188
 Alpha virt. eigenvalues --    1.24842   1.26057   1.27361   1.28026   1.29208
 Alpha virt. eigenvalues --    1.29735   1.31045   1.31268   1.31645   1.32794
 Alpha virt. eigenvalues --    1.33275   1.33649   1.34386   1.35085   1.35716
 Alpha virt. eigenvalues --    1.35970   1.37021   1.37492   1.38187   1.38755
 Alpha virt. eigenvalues --    1.39339   1.40429   1.40581   1.41143   1.41489
 Alpha virt. eigenvalues --    1.41725   1.43179   1.43752   1.44077   1.44994
 Alpha virt. eigenvalues --    1.45448   1.46167   1.47015   1.48037   1.49435
 Alpha virt. eigenvalues --    1.49907   1.50498   1.51171   1.52009   1.52929
 Alpha virt. eigenvalues --    1.53283   1.53909   1.54194   1.54943   1.55656
 Alpha virt. eigenvalues --    1.56595   1.57169   1.57720   1.58156   1.59162
 Alpha virt. eigenvalues --    1.60000   1.60552   1.62042   1.62482   1.62918
 Alpha virt. eigenvalues --    1.63367   1.64293   1.65165   1.65683   1.65909
 Alpha virt. eigenvalues --    1.68039   1.68407   1.69127   1.70534   1.71038
 Alpha virt. eigenvalues --    1.71228   1.73467   1.74542   1.74692   1.75294
 Alpha virt. eigenvalues --    1.75322   1.76065   1.76339   1.76865   1.77172
 Alpha virt. eigenvalues --    1.78617   1.79290   1.80211   1.80638   1.80898
 Alpha virt. eigenvalues --    1.81384   1.81953   1.82541   1.82944   1.83726
 Alpha virt. eigenvalues --    1.83832   1.84623   1.84895   1.84996   1.85386
 Alpha virt. eigenvalues --    1.86137   1.86432   1.87140   1.87319   1.87472
 Alpha virt. eigenvalues --    1.88250   1.88587   1.88994   1.89047   1.89475
 Alpha virt. eigenvalues --    1.89751   1.90686   1.90799   1.91111   1.91623
 Alpha virt. eigenvalues --    1.92296   1.93177   1.93484   1.93678   1.93784
 Alpha virt. eigenvalues --    1.94123   1.94592   1.94830   1.95329   1.95763
 Alpha virt. eigenvalues --    1.96230   1.96716   1.97105   1.97750   1.98008
 Alpha virt. eigenvalues --    1.98538   1.98909   1.99172   2.00666   2.01090
 Alpha virt. eigenvalues --    2.01292   2.01625   2.01923   2.02399   2.02976
 Alpha virt. eigenvalues --    2.03415   2.03642   2.04857   2.05078   2.05323
 Alpha virt. eigenvalues --    2.06022   2.06454   2.07327   2.07666   2.07757
 Alpha virt. eigenvalues --    2.08060   2.08199   2.08755   2.08881   2.09764
 Alpha virt. eigenvalues --    2.09853   2.10001   2.10479   2.10547   2.11578
 Alpha virt. eigenvalues --    2.11879   2.12301   2.12636   2.12685   2.13563
 Alpha virt. eigenvalues --    2.13721   2.14137   2.14687   2.15495   2.15908
 Alpha virt. eigenvalues --    2.16118   2.16493   2.16813   2.16971   2.17307
 Alpha virt. eigenvalues --    2.17460   2.17755   2.18220   2.18414   2.18932
 Alpha virt. eigenvalues --    2.19880   2.20512   2.20786   2.21454   2.21709
 Alpha virt. eigenvalues --    2.21883   2.22197   2.22841   2.23516   2.24165
 Alpha virt. eigenvalues --    2.24700   2.24737   2.25265   2.25401   2.25850
 Alpha virt. eigenvalues --    2.26485   2.27372   2.27847   2.28682   2.29005
 Alpha virt. eigenvalues --    2.29576   2.30675   2.30777   2.31043   2.31962
 Alpha virt. eigenvalues --    2.32024   2.32107   2.32516   2.33385   2.33565
 Alpha virt. eigenvalues --    2.35283   2.35439   2.35868   2.36612   2.37129
 Alpha virt. eigenvalues --    2.37318   2.37830   2.38142   2.38587   2.38906
 Alpha virt. eigenvalues --    2.39163   2.39553   2.40149   2.40660   2.40979
 Alpha virt. eigenvalues --    2.41695   2.42744   2.43153   2.43342   2.43789
 Alpha virt. eigenvalues --    2.44291   2.44386   2.45142   2.45312   2.46069
 Alpha virt. eigenvalues --    2.46269   2.46741   2.47176   2.47214   2.47963
 Alpha virt. eigenvalues --    2.48134   2.48697   2.48900   2.49013   2.49276
 Alpha virt. eigenvalues --    2.50094   2.50428   2.50972   2.51240   2.51883
 Alpha virt. eigenvalues --    2.52337   2.53126   2.53472   2.53823   2.54219
 Alpha virt. eigenvalues --    2.54525   2.54858   2.55054   2.55378   2.55886
 Alpha virt. eigenvalues --    2.56704   2.56897   2.57480   2.57990   2.58223
 Alpha virt. eigenvalues --    2.58459   2.60161   2.60289   2.60500   2.60925
 Alpha virt. eigenvalues --    2.61196   2.61494   2.61948   2.62185   2.62951
 Alpha virt. eigenvalues --    2.63508   2.63860   2.64645   2.65203   2.65806
 Alpha virt. eigenvalues --    2.66235   2.66438   2.67281   2.67612   2.67842
 Alpha virt. eigenvalues --    2.68341   2.68886   2.69402   2.70056   2.70769
 Alpha virt. eigenvalues --    2.70925   2.71412   2.71636   2.72159   2.72823
 Alpha virt. eigenvalues --    2.73249   2.73790   2.74219   2.74356   2.74782
 Alpha virt. eigenvalues --    2.74991   2.75553   2.76192   2.76273   2.76909
 Alpha virt. eigenvalues --    2.77009   2.77445   2.77806   2.78791   2.78829
 Alpha virt. eigenvalues --    2.79552   2.79835   2.80645   2.81280   2.81467
 Alpha virt. eigenvalues --    2.81924   2.82234   2.82993   2.83328   2.84234
 Alpha virt. eigenvalues --    2.84871   2.84973   2.85270   2.85655   2.86228
 Alpha virt. eigenvalues --    2.87349   2.87701   2.88780   2.89366   2.89995
 Alpha virt. eigenvalues --    2.90857   2.90974   2.91608   2.92254   2.93004
 Alpha virt. eigenvalues --    2.93558   2.94261   2.94998   2.95733   2.96439
 Alpha virt. eigenvalues --    2.96610   2.98045   2.98292   2.99549   2.99778
 Alpha virt. eigenvalues --    3.00128   3.01069   3.01485   3.01986   3.02665
 Alpha virt. eigenvalues --    3.03524   3.04077   3.04212   3.04895   3.06136
 Alpha virt. eigenvalues --    3.06620   3.06758   3.07102   3.07706   3.08698
 Alpha virt. eigenvalues --    3.09537   3.09772   3.11577   3.11930   3.12353
 Alpha virt. eigenvalues --    3.14408   3.15130   3.15813   3.16757   3.17065
 Alpha virt. eigenvalues --    3.17188   3.17866   3.18604   3.20059   3.20614
 Alpha virt. eigenvalues --    3.21809   3.23547   3.23584   3.26159   3.29207
 Alpha virt. eigenvalues --    3.29211   3.29509   3.31767   3.33427   3.33813
 Alpha virt. eigenvalues --    3.34404   3.35037   3.35421   3.37124   3.38065
 Alpha virt. eigenvalues --    3.40035   3.40066   3.41114   3.42238   3.42958
 Alpha virt. eigenvalues --    3.44322   3.47444   3.47456   3.49589   3.49757
 Alpha virt. eigenvalues --    3.51131   3.51159   3.52818   3.53658   3.54057
 Alpha virt. eigenvalues --    3.55075   3.55462   3.55974   3.56611   3.56989
 Alpha virt. eigenvalues --    3.58093   3.58732   3.60308   3.60965   3.62473
 Alpha virt. eigenvalues --    3.66425   3.67659   3.68760   3.71176   3.72611
 Alpha virt. eigenvalues --    3.74131   3.79494   3.81165   3.81872   3.82383
 Alpha virt. eigenvalues --    3.85676   4.02607   4.07759   4.11930   4.18446
 Alpha virt. eigenvalues --    4.19056   4.21137   4.21423   4.22814   4.25509
 Alpha virt. eigenvalues --    4.26414   4.27374   4.28396   4.31206   4.35887
 Alpha virt. eigenvalues --    4.37508   4.38641   4.40158   4.42433   4.43772
 Alpha virt. eigenvalues --    4.45206   4.47116   4.47803   4.51450   4.53974
 Alpha virt. eigenvalues --    4.54447   4.56379   4.58125   4.60170   4.60673
 Alpha virt. eigenvalues --    4.62131   4.63127   4.66595   4.68006   4.71620
 Alpha virt. eigenvalues --    4.73207   4.76594   4.79580   4.80945   4.82797
 Alpha virt. eigenvalues --    4.84837   4.86620   4.90579   4.90894
          Condensed to atoms (all electrons):
 Mulliken charges:
               1
     1  O   -0.548905
     2  O   -0.578531
     3  C    0.006748
     4  C   -0.123750
     5  C   -0.171770
     6  C    0.192620
     7  C    0.126783
     8  C   -0.092728
     9  C   -0.301066
    10  C   -0.303369
    11  C   -0.187001
    12  C   -0.158498
    13  C    0.200356
    14  C    0.096683
    15  C   -0.077536
    16  C   -0.193052
    17  C    0.018562
    18  C   -0.311568
    19  C   -0.253834
    20  C   -0.362075
    21  C   -0.094125
    22  C   -0.102562
    23  C   -0.356573
    24  C    0.138148
    25  C   -0.103416
    26  C   -0.338005
    27  C    0.084814
    28  C   -0.138226
    29  C   -0.369626
    30  C   -0.119898
    31  C   -0.046566
    32  C   -0.090975
    33  C   -0.158500
    34  C    0.140576
    35  C   -0.119707
    36  C    0.164980
    37  C   -0.386171
    38  C   -0.091136
    39  C   -0.121537
    40  C   -0.396144
    41  C   -0.107269
    42  C   -0.099447
    43  H    0.095245
    44  H    0.107785
    45  H    0.096969
    46  H    0.027264
    47  H    0.108088
    48  H    0.090955
    49  H    0.080744
    50  H    0.114169
    51  H    0.063156
    52  H    0.093115
    53  H    0.095131
    54  H    0.074938
    55  H    0.077184
    56  H    0.053364
    57  H    0.089344
    58  H    0.130762
    59  H    0.103479
    60  H    0.107600
    61  H    0.118433
    62  H    0.092128
    63  H    0.089013
    64  H    0.090971
    65  H    0.101535
    66  H    0.108505
    67  H    0.120252
    68  H    0.117863
    69  H    0.309809
    70  H    0.085309
    71  H    0.069453
    72  H    0.127320
    73  H    0.107674
    74  H    0.095163
    75  H    0.305412
    76  H    0.077092
    77  H    0.101954
    78  H    0.079304
    79  H    0.138828
    80  H    0.082540
    81  H    0.111217
    82  H    0.132976
    83  H    0.100157
    84  H    0.080456
    85  H    0.059678
    86  H    0.076639
    87  H    0.093143
    88  H    0.055413
    89  H    0.094445
    90  H    0.116680
    91  H    0.113268
    92  H    0.065160
    93  H    0.095855
    94  H    0.109966
    95  H    0.116273
    96  H    0.112247
    97  H    0.076143
    98  H    0.095731
 Sum of Mulliken charges =  -0.00000
 Mulliken charges with hydrogens summed into heavy atoms:
               1
     1  O   -0.239097
     2  O   -0.273119
     3  C    0.006748
     4  C   -0.028505
     5  C    0.032984
     6  C    0.219884
     7  C    0.126783
     8  C   -0.092728
     9  C   -0.021279
    10  C   -0.032929
    11  C   -0.016931
    12  C   -0.081314
    13  C    0.253720
    14  C    0.096683
    15  C    0.011808
    16  C    0.041189
    17  C    0.018562
    18  C    0.006593
    19  C    0.027685
    20  C   -0.015456
    21  C   -0.024672
    22  C   -0.017253
    23  C   -0.026416
    24  C    0.138148
    25  C   -0.026323
    26  C   -0.017920
    27  C    0.084814
    28  C   -0.055687
    29  C   -0.025276
    30  C   -0.039442
    31  C    0.013112
    32  C   -0.014337
    33  C   -0.065357
    34  C    0.140576
    35  C   -0.064295
    36  C    0.164980
    37  C   -0.061777
    38  C   -0.025976
    39  C   -0.025682
    40  C   -0.057658
    41  C   -0.031126
    42  C   -0.003716
 Electronic spatial extent (au):  <R**2>=         104788.1794
 Charge=             -0.0000 electrons
 Dipole moment (field-independent basis, Debye):
    X=             -0.8595    Y=              0.8596    Z=             -0.8742  Tot=              1.4973
 Quadrupole moment (field-independent basis, Debye-Ang):
   XX=           -260.5616   YY=           -247.5732   ZZ=           -264.3078
   XY=             -9.7013   XZ=             45.0911   YZ=              1.7580
 Traceless Quadrupole moment (field-independent basis, Debye-Ang):
   XX=             -3.0807   YY=              9.9077   ZZ=             -6.8270
   XY=             -9.7013   XZ=             45.0911   YZ=              1.7580
 Octapole moment (field-independent basis, Debye-Ang**2):
  XXX=             18.6466  YYY=             19.5914  ZZZ=             -9.7687  XYY=             46.5499
  XXY=            183.8391  XXZ=            -99.6017  XZZ=              0.1113  YZZ=             -2.9104
  YYZ=             -2.1503  XYZ=             33.3633
 Hexadecapole moment (field-independent basis, Debye-Ang**3):
 XXXX=        -136389.9480 YYYY=          -4157.8365 ZZZZ=          -2086.6102 XXXY=          -1084.8669
 XXXZ=          10021.7512 YYYX=           -162.8854 YYYZ=             16.1120 ZZZX=             88.0105
 ZZZY=            -11.4340 XXYY=         -23411.8471 XXZZ=         -23074.0887 YYZZ=          -1076.7036
 XXYZ=           1080.6223 YYXZ=            158.6424 ZZXY=            184.9565
 N-N= 4.007539935152D+03 E-N=-1.196938144310D+04  KE= 1.689625749323D+03
 1\1\GINC-PADAWAN\SP\RCAM-B3LYP TD-FC\6-31G(d,p)\C40H56O2\PADAWAN\13-Ju
 l-2019\0\\# td=(NStates=1) CAM-B3LYP/6-31G(d,p)\\TD\\0,1\O,0,-14.30353
 62288,-1.9315015319,0.2616964249\O,0,14.8599478316,1.0982374103,-0.339
 0633104\C,0,-11.8274156012,-0.0094948746,1.1419890189\C,0,-10.90697766
 03,0.3193947105,-0.0894152287\C,0,-12.2004355242,-1.4560700914,1.24604
 24455\C,0,-12.918645258,-1.9929203568,-0.0098968388\C,0,-11.5310983987
 ,-0.3348509634,-1.354630953\C,0,11.1918725179,0.931454788,0.9584661263
 \C,0,-10.9856100342,0.3777895178,2.5319902497\C,0,-13.1143475972,0.982
 6639133,1.0443655134\C,0,12.6955367342,1.554884915,0.6379211783\C,0,-1
 2.3866796539,-1.3528631541,-1.2625090196\C,0,13.5656281837,0.562833956
 ,0.0845557745\C,0,10.7234018145,-0.0993593461,-0.041230538\C,0,-9.5056
 193258,-0.1158944376,0.1558755952\C,0,13.0487628539,-0.1537725967,-1.0
 884844347\C,0,11.6128743762,-0.5585008954,-1.0134964084\C,0,10.2458714
 727,2.2127905911,1.1551782312\C,0,11.241094942,0.2820273781,2.33338389
 97\C,0,-10.9873532328,0.2520468462,-2.6081830765\C,0,-8.4422503253,0.6
 677217546,-0.0530889314\C,0,9.3708620155,-0.3845662324,0.0990199858\C,
 0,11.1358035259,-1.6352164884,-2.1078503897\C,0,-7.0713284557,0.382675
 5094,-0.0031124005\C,0,8.8359900554,-1.6076105586,0.0698318422\C,0,-6.
 6489963211,-1.018510608,0.3349063792\C,0,7.4372922167,-2.0443073027,0.
 0814970874\C,0,-6.2372334993,1.412334808,-0.2832301796\C,0,7.187701964
 4,-3.54267799,0.2465048687\C,0,6.328170086,-1.2097512638,-0.1293352759
 \C,0,-4.8105750312,1.4077643156,-0.3125221656\C,0,4.9597568216,-1.5578
 536283,0.0417363934\C,0,-4.043165689,2.5342064468,-0.5821394029\C,0,-2
 .5431547536,2.5950374613,-0.5718699348\C,0,3.9345374192,-0.6542959357,
 -0.0151910355\C,0,2.5081278614,-0.8182762991,0.0181068581\C,0,-2.00750
 93011,3.8541099936,-0.8320323506\C,0,-1.7976568512,1.4885716016,-0.378
 2638428\C,0,1.7796465097,0.2791594774,-0.1459131532\C,0,1.9104843695,-
 2.1529480821,0.3252948974\C,0,-0.39071133,1.4001713384,-0.3446278226\C
 ,0,0.4053153623,0.2759792657,-0.0769609569\H,0,-11.0019869402,1.327354
 5208,-0.1720390491\H,0,-13.0080542785,-1.6427542891,2.1030081955\H,0,-
 11.3046881384,-1.8514443394,1.5868119638\H,0,-12.6382974633,-3.2598450
 918,-0.2293280707\H,0,-10.1693123325,-0.3371020346,2.6665552794\H,0,-1
 0.838293996,1.6005331303,2.6318079027\H,0,-11.7012077131,-0.0241289939
 ,3.4111552933\H,0,-13.7946206639,0.6789138937,0.402066677\H,0,-13.8963
 454051,1.042405848,2.0328872907\H,0,-12.9166703524,2.0021738392,0.7864
 491282\H,0,12.357863153,2.2356685164,-0.1928414409\H,0,13.0732817553,2
 .2559896379,1.5752051217\H,0,-12.9369771763,-1.982875084,-2.087082899\
 H,0,13.6438239672,-0.1717469205,1.0816485008\H,0,-9.4011624819,-1.1605
 309121,0.4140489649\H,0,13.5949546396,-1.04220726,-1.3206572217\H,0,12
 .9426306806,0.3960381817,-2.2056404878\H,0,9.373234021,1.8790179536,1.
 6672719746\H,0,10.0934412057,2.5190045029,0.2442913446\H,0,10.80816448
 97,3.084213393,1.6682129723\H,0,12.0559384351,-0.4006973183,2.18676509
 79\H,0,10.2497699476,-0.1343359746,2.6988330114\H,0,11.4343343325,0.90
 86486617,2.9709220352\H,0,-9.8331858166,0.4940193126,-2.7156489606\H,0
 ,-11.277086765,1.2555415527,-2.6697040357\H,0,-11.3026581109,-0.097238
 4751,-3.459883746\H,0,-14.9265359269,-1.6562645791,-0.6186900728\H,0,8
 .8153206001,0.4128415094,0.3608187281\H,0,-8.6929844673,1.704332086,-0
 .3877640968\H,0,11.3619319277,-2.6587273687,-1.8933321847\H,0,9.923325
 1989,-1.4831644181,-2.2798639204\H,0,11.5875280465,-1.3242455147,-3.10
 45464027\H,0,15.4423434146,1.44220232,0.3722351924\H,0,9.4875585322,-2
 .5547585576,0.0918527428\H,0,-5.5311375748,-1.1486520159,0.2356609629\
 H,0,-6.9097498731,-1.2517771509,1.636115864\H,0,-7.0595921944,-1.63577
 20254,-0.2932675416\H,0,-6.6569879853,2.3707358687,-0.5107842801\H,0,6
 .8004235914,-3.8223656592,1.2666663623\H,0,6.4242197672,-3.9322384116,
 -0.283957987\H,0,8.158285726,-4.0464808327,0.0602129886\H,0,6.53079150
 61,-0.2062778672,-0.3146435863\H,0,-4.2835005817,0.1977494401,-0.23700
 97586\H,0,4.5050941129,-2.6194912021,0.5147938186\H,0,-4.6572017659,3.
 4500029821,-0.4682564811\H,0,4.2013402102,0.5599233312,-0.1390231197\H
 ,0,-1.3201517734,3.7466761143,-1.9136396359\H,0,-1.3820510435,4.354522
 6096,0.0132693671\H,0,-2.7326327514,4.6598183973,-0.9299112848\H,0,-2.
 4575746379,0.5931259381,-0.4071654465\H,0,2.29677872,1.2161156008,-0.6
 338704021\H,0,2.3090194296,-2.6049368961,1.3131596945\H,0,0.824067478,
 -2.1429335845,0.52725144\H,0,1.7736301124,-3.1103988271,-0.3690311461\
 H,0,0.1630021851,2.3731371534,-0.6884158331\H,0,-0.2406369597,-0.63153
 33231,-0.2435650115\\Version=ES64L-G16RevA.03\State=1-A\HF=-1706.82937
 7\RMSD=9.858e-09\PG=C01 [X(C40H56O2)]\\@


 LORD, MAN... WERE YE BUT WHYLES WHERE I AM, 
 THE GENTILES YE WAD NE'ER ENVY 'EM.        
 IT'S TRUE, THEY NEEDNA STARVE OR SWEAT,     
 THRO' WINTER'S CAULD OR SIMMER'S HEAT...  
 THEY'VE NAE SAIR WARK TO CRAZE THEIR BANES, 
 AND FILL AULD AGE WITH GRIPS AN' GRANES...  
                                             
 BUT HUMAN BODIES ARE SIC FOOLS              
 FOR A' THEIR COLLEGES AND SCHOOLS,           
 THAT WHEN NAE REAL ILLS PERPLEX THEM,       
 THEY MAK ENOW THEMSELVES TO VEX THEM,       
 AN' AYE THE LESS THEY HAE TO STURT THEM,    
 IN LIKE PROPORTION LESS WILL HURT THEM....  
                                             
                (ROBERT BURNS 'THE TWA DOGS')
 Job cpu time:       0 days  2 hours 15 minutes 22.3 seconds.
 Elapsed time:       0 days  1 hours 30 minutes 13.4 seconds.
 File lengths (MBytes):  RWF=   3127 Int=      0 D2E=      0 Chk=     84 Scr=      1
 Normal termination of Gaussian 16 at Sat Jul 13 21:26:24 2019.
