 Entering Gaussian System, Link 0=g16
 Input=Geometria-122-.com
 Output=Geometria-122-.log
 Initial command:
 /usr/local/g16/l1.exe "/home/padawan/israel-mol/lutein/spectra/emi/Gau-9998.inp" -scrdir="/home/padawan/israel-mol/lutein/spectra/emi/"
 Entering Link 1 = /usr/local/g16/l1.exe PID=     10000.
  
 Copyright (c) 1988,1990,1992,1993,1995,1998,2003,2009,2016,
            Gaussian, Inc.  All Rights Reserved.
  
 This is part of the Gaussian(R) 16 program.  It is based on
 the Gaussian(R) 09 system (copyright 2009, Gaussian, Inc.),
 the Gaussian(R) 03 system (copyright 2003, Gaussian, Inc.),
 the Gaussian(R) 98 system (copyright 1998, Gaussian, Inc.),
 the Gaussian(R) 94 system (copyright 1995, Gaussian, Inc.),
 the Gaussian 92(TM) system (copyright 1992, Gaussian, Inc.),
 the Gaussian 90(TM) system (copyright 1990, Gaussian, Inc.),
 the Gaussian 88(TM) system (copyright 1988, Gaussian, Inc.),
 the Gaussian 86(TM) system (copyright 1986, Carnegie Mellon
 University), and the Gaussian 82(TM) system (copyright 1983,
 Carnegie Mellon University). Gaussian is a federally registered
 trademark of Gaussian, Inc.
  
 This software contains proprietary and confidential information,
 including trade secrets, belonging to Gaussian, Inc.
  
 This software is provided under written license and may be
 used, copied, transmitted, or stored only in accord with that
 written license.
  
 The following legend is applicable only to US Government
 contracts under FAR:
  
                    RESTRICTED RIGHTS LEGEND
  
 Use, reproduction and disclosure by the US Government is
 subject to restrictions as set forth in subparagraphs (a)
 and (c) of the Commercial Computer Software - Restricted
 Rights clause in FAR 52.227-19.
  
 Gaussian, Inc.
 340 Quinnipiac St., Bldg. 40, Wallingford CT 06492
  
  
 ---------------------------------------------------------------
 Warning -- This program may not be used in any manner that
 competes with the business of Gaussian, Inc. or will provide
 assistance to any competitor of Gaussian, Inc.  The licensee
 of this program is prohibited from giving any competitor of
 Gaussian, Inc. access to this program.  By using this program,
 the user acknowledges that Gaussian, Inc. is engaged in the
 business of creating and licensing software in the field of
 computational chemistry and represents and warrants to the
 licensee that it is not a competitor of Gaussian, Inc. and that
 it will not use this program in any manner prohibited above.
 ---------------------------------------------------------------
  

 Cite this work as:
 Gaussian 16, Revision A.03,
 M. J. Frisch, G. W. Trucks, H. B. Schlegel, G. E. Scuseria, 
 M. A. Robb, J. R. Cheeseman, G. Scalmani, V. Barone, 
 G. A. Petersson, H. Nakatsuji, X. Li, M. Caricato, A. V. Marenich, 
 J. Bloino, B. G. Janesko, R. Gomperts, B. Mennucci, H. P. Hratchian, 
 J. V. Ortiz, A. F. Izmaylov, J. L. Sonnenberg, D. Williams-Young, 
 F. Ding, F. Lipparini, F. Egidi, J. Goings, B. Peng, A. Petrone, 
 T. Henderson, D. Ranasinghe, V. G. Zakrzewski, J. Gao, N. Rega, 
 G. Zheng, W. Liang, M. Hada, M. Ehara, K. Toyota, R. Fukuda, 
 J. Hasegawa, M. Ishida, T. Nakajima, Y. Honda, O. Kitao, H. Nakai, 
 T. Vreven, K. Throssell, J. A. Montgomery, Jr., J. E. Peralta, 
 F. Ogliaro, M. J. Bearpark, J. J. Heyd, E. N. Brothers, K. N. Kudin, 
 V. N. Staroverov, T. A. Keith, R. Kobayashi, J. Normand, 
 K. Raghavachari, A. P. Rendell, J. C. Burant, S. S. Iyengar, 
 J. Tomasi, M. Cossi, J. M. Millam, M. Klene, C. Adamo, R. Cammi, 
 J. W. Ochterski, R. L. Martin, K. Morokuma, O. Farkas, 
 J. B. Foresman, and D. J. Fox, Gaussian, Inc., Wallingford CT, 2016.
 
 ******************************************
 Gaussian 16:  ES64L-G16RevA.03 25-Dec-2016
                13-Jul-2019 
 ******************************************
 %nproc=4
 Will use up to    4 processors via shared memory.
 %Mem=4GB
 -------------------------------------
 # td=(NStates=1) CAM-B3LYP/6-31G(d,p)
 -------------------------------------
 1/38=1,172=1/1;
 2/12=2,17=6,18=5,40=1/2;
 3/5=1,6=6,7=101,11=9,25=1,30=1,74=-40/1,2,3,8;
 4//1;
 5/5=2,38=5/2;
 8/6=1,10=2,108=1/1;
 9/41=1,42=1,70=2/14;
 6/7=2,8=2,9=2,10=2/1;
 99/5=1,9=1/99;
 --
 TD
 --
 Symbolic Z-matrix:
 Charge =  0 Multiplicity = 1
 8                    -14.13831  -1.9021    0.65401 
 8                     14.70421   1.09203   0.24206 
 6                    -11.7315   0.17858   1.32112 
 6                    -10.98382   0.369    -0.03409 
 6                    -11.95038  -1.27626   1.58215 
 6                    -12.66864  -2.05492   0.44225 
 6                    -11.54945  -0.46874  -1.17129 
 6                     11.08925   0.97551   1.19578 
 6                    -10.85104   0.76953   2.43297 
 6                    -13.14745   0.89383   1.16368 
 6                     12.45859   1.52935   0.90175 
 6                    -12.28301  -1.57681  -0.92645 
 6                     13.46666   0.46152   0.42687 
 6                     10.58821   0.02704   0.06738 
 6                    -9.54702   0.00209   0.13167 
 6                     12.92382  -0.07135  -0.92849 
 6                     11.45645  -0.40945  -0.84646 
 6                     10.0865   2.13976   1.27656 
 6                     11.06445   0.15788   2.52709 
 6                    -11.30131   0.06159  -2.57145 
 6                    -8.45524   0.71525  -0.21699 
 6                     9.13706  -0.39637   0.09068 
 6                     11.16506  -1.36915  -2.03711 
 6                    -7.00432   0.50498  -0.1626 
 6                     8.74768  -1.5665   -0.18384 
 6                    -6.60964  -0.86098   0.20163 
 6                     7.40764  -2.10507  -0.13774 
 6                    -6.18641   1.51856  -0.5408 
 6                     7.16079  -3.54713  -0.2116 
 6                     6.36266  -1.13489  -0.14038 
 6                    -4.76502   1.47232  -0.58232 
 6                     4.98599  -1.55548  -0.19943 
 6                    -3.92245   2.45153  -0.67264 
 6                    -2.50924   2.50769  -0.71223 
 6                     3.97212  -0.72734  -0.29017 
 6                     2.57862  -0.93159  -0.27061 
 6                    -1.88007   3.8165   -0.82607 
 6                    -1.73558   1.34378  -0.54588 
 6                     1.77106   0.13708  -0.33123 
 6                     2.0578   -2.23939  -0.14292 
 6                    -0.31956   1.32102  -0.57123 
 6                     0.32721   0.09886  -0.46841 
 1                    -10.75362   1.40021  -0.2872 
 1                    -12.6061  -1.37297   2.50637 
 1                    -11.02553  -1.78842   1.68801 
 1                    -12.46331  -3.23039   0.47658 
 1                    -9.85632   0.34226   2.6107 
 1                    -10.59473   1.79805   2.03579 
 1                    -11.4092   0.91871   3.47073 
 1                    -13.6217   0.27396   0.26246 
 1                    -13.84549   0.59701   2.08869 
 1                    -12.97401   1.86072   1.01446 
 1                     12.35234   2.42385   0.12419 
 1                     12.99509   2.02177   1.88957 
 1                    -12.69298  -2.13749  -1.79978 
 1                     13.49586  -0.43412   0.96923 
 1                    -9.34897  -1.02595   0.65197 
 1                     13.63498  -1.04615  -1.1978 
 1                     13.26777   0.72467  -1.5129 
 1                     9.06248   1.85046   1.6658 
 1                     10.17852   2.53248   0.25616 
 1                     10.41161   3.00415   2.08492 
 1                     11.89456  -0.53606   2.56072 
 1                     10.10208  -0.29101   2.79957 
 1                     11.45202   0.89581   3.26693 
 1                    -10.21043  -0.08805  -2.70968 
 1                    -11.59706   1.22122  -2.78802 
 1                    -11.66859  -0.60969  -3.36619 
 1                    -14.78397  -2.33938   0.07289 
 1                     8.3656    0.37664   0.54277 
 1                    -8.85093   1.62957  -0.85461 
 1                     11.2068  -2.41738  -1.89224 
 1                     10.14091  -1.15919  -2.51444 
 1                     11.99816  -1.19865  -2.84936 
 1                     14.85011   1.46818   1.20482 
 1                     9.52743  -2.20135  -0.5038 
 1                    -5.6387   -0.99066  -0.00456 
 1                    -7.093    -1.2385    1.24247 
 1                    -7.14556  -1.45691  -0.57594 
 1                    -6.68638   2.32822  -0.94228 
 1                     6.98058  -4.07773   0.74749 
 1                     6.14038  -3.68492  -0.89344 
 1                     8.16308  -4.15363  -0.38191 
 1                     6.4902   -0.15144  -0.18601 
 1                    -4.33079   0.50481  -0.15385 
 1                     4.72755  -2.61505   0.11645 
 1                    -4.27397   3.55043  -0.92407 
 1                     4.30253   0.2467   -0.32581 
 1                    -1.27838   3.70879  -1.70046 
 1                    -1.25375   4.07935   0.11035 
 1                    -2.48456   4.62229  -1.09167 
 1                    -2.02899   0.29889  -0.59818 
 1                     2.41418   0.9638   -0.66 
 1                     2.65279  -2.76615   0.74116 
 1                     0.95712  -2.43631  -0.12952 
 1                     2.13082  -2.93641  -1.08222 
 1                     0.15075   2.25333  -0.79741 
 1                    -0.21435  -0.83315  -0.2702 
 
 Stoichiometry    C40H56O2
 Framework group  C1[X(C40H56O2)]
 Deg. of freedom   288
 Full point group                 C1      NOp   1
 Largest Abelian subgroup         C1      NOp   1
 Largest concise Abelian subgroup C1      NOp   1
                         Standard orientation:                         
 ---------------------------------------------------------------------
 Center     Atomic      Atomic             Coordinates (Angstroms)
 Number     Number       Type             X           Y           Z
 ---------------------------------------------------------------------
      1          8           0      -14.139912   -1.845731    0.781438
      2          8           0       14.703812    1.102040    0.168397
      3          6           0      -11.732114    0.273536    1.308928
      4          6           0      -10.984562    0.373423   -0.056011
      5          6           0      -11.951574   -1.160724    1.665800
      6          6           0      -12.670340   -2.012879    0.580085
      7          6           0      -11.550727   -0.537579   -1.135141
      8          6           0       11.088950    1.050530    1.128192
      9          6           0      -10.851233    0.936465    2.379075
     10          6           0      -13.147790    0.977388    1.104626
     11          6           0       12.458480    1.583083    0.797939
     12          6           0      -12.284718   -1.626666   -0.817326
     13          6           0       13.466019    0.485702    0.394725
     14          6           0       10.587330    0.029604    0.065174
     15          6           0       -9.547900    0.017678    0.133516
     16          6           0       12.922747   -0.135567   -0.922282
     17          6           0       11.455245   -0.466846   -0.817849
     18          6           0       10.086699    2.218011    1.131786
     19          6           0       11.064004    0.322916    2.510754
     20          6           0      -11.302583   -0.101284   -2.567389
     21          6           0       -8.455870    0.705697   -0.261763
     22          6           0        9.136005   -0.390704    0.116657
     23          6           0       11.163262   -1.503200   -1.942266
     24          6           0       -7.005031    0.498866   -0.193748
     25          6           0        8.746090   -1.576282   -0.079689
     26          6           0       -6.610874   -0.840135    0.260133
     27          6           0        7.405827   -2.110041    0.002160
     28          6           0       -6.186747    1.484806   -0.638370
     29          6           0        7.158355   -3.553714    0.024038
     30          6           0        6.361262   -1.141715   -0.064612
     31          6           0       -4.765385    1.435306   -0.676918
     32          6           0        4.984401   -1.564697   -0.095495
     33          6           0       -3.922418    2.406014   -0.832021
     34          6           0       -2.509188    2.458816   -0.875428
     35          6           0        3.970869   -0.743950   -0.240775
     36          6           0        2.577289   -0.945847   -0.207554
     37          6           0       -1.879476    3.756933   -1.075808
     38          6           0       -1.735994    1.308148   -0.632425
     39          6           0        1.770164    0.116801   -0.338741
     40          6           0        2.055930   -2.242087    0.006567
     41          6           0       -0.319992    1.283152   -0.656390
     42          6           0        0.326278    0.070208   -0.472905
     43          1           0      -10.753971    1.385500   -0.376916
     44          1           0      -12.607196   -1.195701    2.594481
     45          1           0      -11.026925   -1.665141    1.805248
     46          1           0      -12.465502   -3.183586    0.692197
     47          1           0       -9.856671    0.521476    2.584597
     48          1           0      -10.594552    1.936304    1.914591
     49          1           0      -11.409171    1.154311    3.404743
     50          1           0      -13.622444    0.299385    0.246519
     51          1           0      -13.845812    0.742814    2.047362
     52          1           0      -12.973959    1.932197    0.891656
     53          1           0       12.352488    2.424142   -0.037160
     54          1           0       12.995342    2.139628    1.750896
     55          1           0      -12.695063   -2.243803   -1.651547
     56          1           0       13.494925   -0.372057    0.995227
     57          1           0       -9.350199   -0.973713    0.720758
     58          1           0       13.633450   -1.126370   -1.126513
     59          1           0       13.266946    0.619841   -1.558193
     60          1           0        9.062624    1.955571    1.539468
     61          1           0       10.178732    2.542217    0.087600
     62          1           0       10.412309    3.133910    1.881065
     63          1           0       11.893831   -0.367636    2.590181
     64          1           0       10.101484   -0.106525    2.812497
     65          1           0       11.452000    1.108066    3.200028
     66          1           0      -10.211787   -0.260222   -2.695537
     67          1           0      -11.597870    1.041578   -2.860271
     68          1           0      -11.670270   -0.823582   -3.315867
     69          1           0      -14.785848   -2.320276    0.230651
     70          1           0        8.364939    0.410889    0.516634
     71          1           0       -8.851270    1.575943   -0.958515
     72          1           0       11.204581   -2.539550   -1.728270
     73          1           0       10.139128   -1.324885   -2.432323
     74          1           0       11.996311   -1.387253   -2.764130
     75          1           0       14.850022    1.541094    1.104095
     76          1           0        9.525523   -2.231279   -0.356976
     77          1           0       -5.640017   -0.983602    0.062859
     78          1           0       -7.094229   -1.147648    1.323752
     79          1           0       -7.147165   -1.486039   -0.476177
     80          1           0       -6.686439    2.266310   -1.092550
     81          1           0        6.978071   -4.019530    1.016203
     82          1           0        6.137783   -3.735939   -0.647044
     83          1           0        8.160358   -4.170602   -0.105841
     84          1           0        6.489205   -0.163503   -0.175319
     85          1           0       -4.331494    0.498121   -0.185346
     86          1           0        4.725558   -2.600896    0.289926
     87          1           0       -4.273511    3.485998   -1.155664
     88          1           0        4.301685    0.225451   -0.340916
     89          1           0       -1.277968    3.591275   -1.941213
     90          1           0       -1.252902    4.080974   -0.158938
     91          1           0       -2.483668    4.543626   -1.394131
     92          1           0       -2.029856    0.262215   -0.615349
     93          1           0        2.413588    0.919649   -0.721645
     94          1           0        2.650838   -2.709380    0.923534
     95          1           0        0.955170   -2.437216    0.033121
     96          1           0        2.128506   -2.999843   -0.884499
     97          1           0        0.150683    2.198217   -0.943897
     98          1           0       -0.215648   -0.846393   -0.213310
 ---------------------------------------------------------------------
 Rotational constants (GHZ):           0.2528172           0.0099631           0.0098214
 Standard basis: 6-31G(d,p) (6D, 7F)
 There are   910 symmetry adapted cartesian basis functions of A   symmetry.
 There are   910 symmetry adapted basis functions of A   symmetry.
   910 basis functions,  1568 primitive gaussians,   910 cartesian basis functions
   156 alpha electrons      156 beta electrons
       nuclear repulsion energy      4036.5126146327 Hartrees.
 NAtoms=   98 NActive=   98 NUniq=   98 SFac= 1.00D+00 NAtFMM=   60 NAOKFM=T Big=T
 Integral buffers will be    131072 words long.
 Raffenetti 1 integral format.
 Two-electron integral symmetry is turned on.
 One-electron integrals computed using PRISM.
 NBasis=   910 RedAO= T EigKep=  7.61D-04  NBF=   910
 NBsUse=   910 1.00D-06 EigRej= -1.00D+00 NBFU=   910
 ExpMin= 1.61D-01 ExpMax= 5.48D+03 ExpMxC= 8.25D+02 IAcc=3 IRadAn=         5 AccDes= 0.00D+00
 Harris functional with IExCor=20419 and IRadAn=       5 diagonalized for initial guess.
 HarFok:  IExCor=20419 AccDes= 0.00D+00 IRadAn=         5 IDoV= 1 UseB2=F ITyADJ=14
 ICtDFT=  3500011 ScaDFX=  1.000000  1.000000  1.000000  1.000000
 FoFCou: FMM=F IPFlag=           0 FMFlag=      100000 FMFlg1=        2001
         NFxFlg=           0 DoJE=T BraDBF=F KetDBF=T FulRan=T
         wScrn=  0.000000 ICntrl=       500 IOpCl=  0 I1Cent=   200000004 NGrid=           0
         NMat0=    1 NMatS0=      1 NMatT0=    0 NMatD0=    1 NMtDS0=    0 NMtDT0=    0
 Petite list used in FoFCou.
 Requested convergence on RMS density matrix=1.00D-08 within 128 cycles.
 Requested convergence on MAX density matrix=1.00D-06.
 Requested convergence on             energy=1.00D-06.
 No special actions if energy rises.
 Integral accuracy reduced to 1.0D-05 until final iterations.
 Initial convergence to 1.0D-05 achieved.  Increase integral accuracy.
 SCF Done:  E(RCAM-B3LYP) =  -1707.00944578     A.U. after   14 cycles
            NFock= 14  Conv=0.83D-08     -V/T= 2.0098
 DoSCS=F DFT=T ScalE2(SS,OS)=  1.000000  1.000000
 ExpMin= 1.61D-01 ExpMax= 5.48D+03 ExpMxC= 8.25D+02 IAcc=3 IRadAn=         5 AccDes= 0.00D+00
 HarFok:  IExCor=  205 AccDes= 0.00D+00 IRadAn=         5 IDoV=-2 UseB2=F ITyADJ=14
 ICtDFT= 12500011 ScaDFX=  1.000000  1.000000  1.000000  1.000000
 GSVD:  LWork=       -2100 too small for GESVD, short by        9450 words or        9450 for optimal perf.
 Range of M.O.s used for correlation:    43   910
 NBasis=   910 NAE=   156 NBE=   156 NFC=    42 NFV=     0
 NROrb=    868 NOA=   114 NOB=   114 NVA=   754 NVB=   754
 Orbital symmetries:
       Occupied  (A) (A) (A) (A) (A) (A) (A) (A) (A) (A) (A) (A)
                 (A) (A) (A) (A) (A) (A) (A) (A) (A) (A) (A) (A)
                 (A) (A) (A) (A) (A) (A) (A) (A) (A) (A) (A) (A)
                 (A) (A) (A) (A) (A) (A) (A) (A) (A) (A) (A) (A)
                 (A) (A) (A) (A) (A) (A) (A) (A) (A) (A) (A) (A)
                 (A) (A) (A) (A) (A) (A) (A) (A) (A) (A) (A) (A)
                 (A) (A) (A) (A) (A) (A) (A) (A) (A) (A) (A) (A)
                 (A) (A) (A) (A) (A) (A) (A) (A) (A) (A) (A) (A)
                 (A) (A) (A) (A) (A) (A) (A) (A) (A) (A) (A) (A)
                 (A) (A) (A) (A) (A) (A) (A) (A) (A) (A) (A) (A)
                 (A) (A) (A) (A) (A) (A) (A) (A) (A) (A) (A) (A)
                 (A) (A) (A) (A) (A) (A) (A) (A) (A) (A) (A) (A)
                 (A) (A) (A) (A) (A) (A) (A) (A) (A) (A) (A) (A)
       Virtual   (A) (A) (A) (A) (A) (A) (A) (A) (A) (A) (A) (A)
                 (A) (A) (A) (A) (A) (A) (A) (A) (A) (A) (A) (A)
                 (A) (A) (A) (A) (A) (A) (A) (A) (A) (A) (A) (A)
                 (A) (A) (A) (A) (A) (A) (A) (A) (A) (A) (A) (A)
                 (A) (A) (A) (A) (A) (A) (A) (A) (A) (A) (A) (A)
                 (A) (A) (A) (A) (A) (A) (A) (A) (A) (A) (A) (A)
                 (A) (A) (A) (A) (A) (A) (A) (A) (A) (A) (A) (A)
                 (A) (A) (A) (A) (A) (A) (A) (A) (A) (A) (A) (A)
                 (A) (A) (A) (A) (A) (A) (A) (A) (A) (A) (A) (A)
                 (A) (A) (A) (A) (A) (A) (A) (A) (A) (A) (A) (A)
                 (A) (A) (A) (A) (A) (A) (A) (A) (A) (A) (A) (A)
                 (A) (A) (A) (A) (A) (A) (A) (A) (A) (A) (A) (A)
                 (A) (A) (A) (A) (A) (A) (A) (A) (A) (A) (A) (A)
                 (A) (A) (A) (A) (A) (A) (A) (A) (A) (A) (A) (A)
                 (A) (A) (A) (A) (A) (A) (A) (A) (A) (A) (A) (A)
                 (A) (A) (A) (A) (A) (A) (A) (A) (A) (A) (A) (A)
                 (A) (A) (A) (A) (A) (A) (A) (A) (A) (A) (A) (A)
                 (A) (A) (A) (A) (A) (A) (A) (A) (A) (A) (A) (A)
                 (A) (A) (A) (A) (A) (A) (A) (A) (A) (A) (A) (A)
                 (A) (A) (A) (A) (A) (A) (A) (A) (A) (A) (A) (A)
                 (A) (A) (A) (A) (A) (A) (A) (A) (A) (A) (A) (A)
                 (A) (A) (A) (A) (A) (A) (A) (A) (A) (A) (A) (A)
                 (A) (A) (A) (A) (A) (A) (A) (A) (A) (A) (A) (A)
                 (A) (A) (A) (A) (A) (A) (A) (A) (A) (A) (A) (A)
                 (A) (A) (A) (A) (A) (A) (A) (A) (A) (A) (A) (A)
                 (A) (A) (A) (A) (A) (A) (A) (A) (A) (A) (A) (A)
                 (A) (A) (A) (A) (A) (A) (A) (A) (A) (A) (A) (A)
                 (A) (A) (A) (A) (A) (A) (A) (A) (A) (A) (A) (A)
                 (A) (A) (A) (A) (A) (A) (A) (A) (A) (A) (A) (A)
                 (A) (A) (A) (A) (A) (A) (A) (A) (A) (A) (A) (A)
                 (A) (A) (A) (A) (A) (A) (A) (A) (A) (A) (A) (A)
                 (A) (A) (A) (A) (A) (A) (A) (A) (A) (A) (A) (A)
                 (A) (A) (A) (A) (A) (A) (A) (A) (A) (A) (A) (A)
                 (A) (A) (A) (A) (A) (A) (A) (A) (A) (A) (A) (A)
                 (A) (A) (A) (A) (A) (A) (A) (A) (A) (A) (A) (A)
                 (A) (A) (A) (A) (A) (A) (A) (A) (A) (A) (A) (A)
                 (A) (A) (A) (A) (A) (A) (A) (A) (A) (A) (A) (A)
                 (A) (A) (A) (A) (A) (A) (A) (A) (A) (A) (A) (A)
                 (A) (A) (A) (A) (A) (A) (A) (A) (A) (A) (A) (A)
                 (A) (A) (A) (A) (A) (A) (A) (A) (A) (A) (A) (A)
                 (A) (A) (A) (A) (A) (A) (A) (A) (A) (A) (A) (A)
                 (A) (A) (A) (A) (A) (A) (A) (A) (A) (A) (A) (A)
                 (A) (A) (A) (A) (A) (A) (A) (A) (A) (A) (A) (A)
                 (A) (A) (A) (A) (A) (A) (A) (A) (A) (A) (A) (A)
                 (A) (A) (A) (A) (A) (A) (A) (A) (A) (A) (A) (A)
                 (A) (A) (A) (A) (A) (A) (A) (A) (A) (A) (A) (A)
                 (A) (A) (A) (A) (A) (A) (A) (A) (A) (A) (A) (A)
                 (A) (A) (A) (A) (A) (A) (A) (A) (A) (A) (A) (A)
                 (A) (A) (A) (A) (A) (A) (A) (A) (A) (A) (A) (A)
                 (A) (A) (A) (A) (A) (A) (A) (A) (A) (A) (A) (A)
                 (A) (A) (A) (A) (A) (A) (A) (A) (A) (A) (A) (A)
                 (A) (A) (A) (A) (A) (A) (A) (A) (A) (A) (A) (A)
                 (A) (A) (A) (A) (A) (A) (A) (A) (A) (A) (A) (A)
                 (A) (A) (A) (A) (A) (A) (A) (A) (A) (A) (A) (A)
                 (A) (A) (A) (A) (A) (A) (A) (A) (A) (A) (A) (A)
                 (A) (A) (A) (A) (A) (A) (A) (A) (A) (A) (A) (A)
                 (A) (A) (A) (A) (A) (A) (A) (A) (A) (A) (A) (A)
                 (A) (A) (A) (A) (A) (A) (A) (A) (A) (A) (A) (A)
                 (A) (A) (A) (A) (A) (A) (A) (A) (A) (A) (A) (A)
                 (A) (A) (A) (A) (A) (A) (A) (A) (A) (A) (A) (A)
                 (A) (A) (A) (A) (A) (A) (A) (A) (A) (A) (A) (A)
                 (A) (A) (A) (A) (A) (A) (A) (A) (A) (A) (A) (A)
                 (A) (A) (A) (A) (A) (A) (A) (A) (A) (A)
     4 initial guesses have been made.
 Convergence on wavefunction:    0.001000000000000
 Iteration     1 Dimension     4 NMult     0 NNew      4
 CISAX will form     4 AO SS matrices at one time.
 Iteration     2 Dimension     6 NMult     4 NNew      2
 Iteration     3 Dimension     8 NMult     6 NNew      2
 Iteration     4 Dimension    10 NMult     8 NNew      2
 Iteration     5 Dimension    12 NMult    10 NNew      2
 Iteration     6 Dimension    14 NMult    12 NNew      2
 ***********************************************************************
 Excited states from <AA,BB:AA,BB> singles matrix:
 ***********************************************************************
 
 Ground to excited state transition densities written to RWF  633
 Ground to excited state transition electric dipole moments (Au):
       state          X           Y           Z        Dip. S.      Osc.
         1         6.8646     -1.1810      0.0780     48.5238      2.9410
 Ground to excited state transition velocity dipole moments (Au):
       state          X           Y           Z        Dip. S.      Osc.
         1        -0.6055      0.1038     -0.0068      0.3774      2.7676
 Ground to excited state transition magnetic dipole moments (Au):
       state          X           Y           Z
         1         0.1537      0.8559      1.2694
 Ground to excited state transition velocity quadrupole moments (Au):
       state          XX          YY          ZZ          XY          XZ          YZ
         1        -0.4207     -0.0640      0.0381      0.6017      0.0176     -0.1344
 <0|del|b> * <b|rxdel|0> + <0|del|b> * <b|delr+rdel|0>
 Rotatory Strengths (R) in cgs (10**-40 erg-esu-cm/Gauss)
       state          XX          YY          ZZ    R(velocity)    E-M Angle
         1       288.7751    -63.1549   -325.8588    -33.4129       90.78
 1/2[<0|r|b>*<b|rxdel|0> + (<0|rxdel|b>*<b|r|0>)*]
 Rotatory Strengths (R) in cgs (10**-40 erg-esu-cm/Gauss)
       state          XX          YY          ZZ     R(length)
         1      -746.1680    714.7639    -69.9825    -33.7955
  1/2[<0|del|b>*<b|r|0> + (<0|r|b>*<b|del|0>)*] (Au)
       state          X           Y           Z        Dip. S.   Osc.(frdel)
         1        -4.1564     -0.1226     -0.0005      4.2795      2.8530

 Excitation energies and oscillator strengths:
 
 Excited State   1:      Singlet-A      2.4739 eV  501.16 nm  f=2.9410  <S**2>=0.000
     155 ->158         0.16319
     156 ->157         0.68576
 This state for optimization and/or second-order correction.
 Total Energy, E(TD-HF/TD-DFT) =  -1706.91853063    
 Copying the excited state density for this state as the 1-particle RhoCI density.
 SavETr:  write IOETrn=   770 NScale= 10 NData=  16 NLR=1 NState=    1 LETran=      28.

 **********************************************************************

            Population analysis using the SCF density.

 **********************************************************************

 Orbital symmetries:
       Occupied  (A) (A) (A) (A) (A) (A) (A) (A) (A) (A) (A) (A)
                 (A) (A) (A) (A) (A) (A) (A) (A) (A) (A) (A) (A)
                 (A) (A) (A) (A) (A) (A) (A) (A) (A) (A) (A) (A)
                 (A) (A) (A) (A) (A) (A) (A) (A) (A) (A) (A) (A)
                 (A) (A) (A) (A) (A) (A) (A) (A) (A) (A) (A) (A)
                 (A) (A) (A) (A) (A) (A) (A) (A) (A) (A) (A) (A)
                 (A) (A) (A) (A) (A) (A) (A) (A) (A) (A) (A) (A)
                 (A) (A) (A) (A) (A) (A) (A) (A) (A) (A) (A) (A)
                 (A) (A) (A) (A) (A) (A) (A) (A) (A) (A) (A) (A)
                 (A) (A) (A) (A) (A) (A) (A) (A) (A) (A) (A) (A)
                 (A) (A) (A) (A) (A) (A) (A) (A) (A) (A) (A) (A)
                 (A) (A) (A) (A) (A) (A) (A) (A) (A) (A) (A) (A)
                 (A) (A) (A) (A) (A) (A) (A) (A) (A) (A) (A) (A)
       Virtual   (A) (A) (A) (A) (A) (A) (A) (A) (A) (A) (A) (A)
                 (A) (A) (A) (A) (A) (A) (A) (A) (A) (A) (A) (A)
                 (A) (A) (A) (A) (A) (A) (A) (A) (A) (A) (A) (A)
                 (A) (A) (A) (A) (A) (A) (A) (A) (A) (A) (A) (A)
                 (A) (A) (A) (A) (A) (A) (A) (A) (A) (A) (A) (A)
                 (A) (A) (A) (A) (A) (A) (A) (A) (A) (A) (A) (A)
                 (A) (A) (A) (A) (A) (A) (A) (A) (A) (A) (A) (A)
                 (A) (A) (A) (A) (A) (A) (A) (A) (A) (A) (A) (A)
                 (A) (A) (A) (A) (A) (A) (A) (A) (A) (A) (A) (A)
                 (A) (A) (A) (A) (A) (A) (A) (A) (A) (A) (A) (A)
                 (A) (A) (A) (A) (A) (A) (A) (A) (A) (A) (A) (A)
                 (A) (A) (A) (A) (A) (A) (A) (A) (A) (A) (A) (A)
                 (A) (A) (A) (A) (A) (A) (A) (A) (A) (A) (A) (A)
                 (A) (A) (A) (A) (A) (A) (A) (A) (A) (A) (A) (A)
                 (A) (A) (A) (A) (A) (A) (A) (A) (A) (A) (A) (A)
                 (A) (A) (A) (A) (A) (A) (A) (A) (A) (A) (A) (A)
                 (A) (A) (A) (A) (A) (A) (A) (A) (A) (A) (A) (A)
                 (A) (A) (A) (A) (A) (A) (A) (A) (A) (A) (A) (A)
                 (A) (A) (A) (A) (A) (A) (A) (A) (A) (A) (A) (A)
                 (A) (A) (A) (A) (A) (A) (A) (A) (A) (A) (A) (A)
                 (A) (A) (A) (A) (A) (A) (A) (A) (A) (A) (A) (A)
                 (A) (A) (A) (A) (A) (A) (A) (A) (A) (A) (A) (A)
                 (A) (A) (A) (A) (A) (A) (A) (A) (A) (A) (A) (A)
                 (A) (A) (A) (A) (A) (A) (A) (A) (A) (A) (A) (A)
                 (A) (A) (A) (A) (A) (A) (A) (A) (A) (A) (A) (A)
                 (A) (A) (A) (A) (A) (A) (A) (A) (A) (A) (A) (A)
                 (A) (A) (A) (A) (A) (A) (A) (A) (A) (A) (A) (A)
                 (A) (A) (A) (A) (A) (A) (A) (A) (A) (A) (A) (A)
                 (A) (A) (A) (A) (A) (A) (A) (A) (A) (A) (A) (A)
                 (A) (A) (A) (A) (A) (A) (A) (A) (A) (A) (A) (A)
                 (A) (A) (A) (A) (A) (A) (A) (A) (A) (A) (A) (A)
                 (A) (A) (A) (A) (A) (A) (A) (A) (A) (A) (A) (A)
                 (A) (A) (A) (A) (A) (A) (A) (A) (A) (A) (A) (A)
                 (A) (A) (A) (A) (A) (A) (A) (A) (A) (A) (A) (A)
                 (A) (A) (A) (A) (A) (A) (A) (A) (A) (A) (A) (A)
                 (A) (A) (A) (A) (A) (A) (A) (A) (A) (A) (A) (A)
                 (A) (A) (A) (A) (A) (A) (A) (A) (A) (A) (A) (A)
                 (A) (A) (A) (A) (A) (A) (A) (A) (A) (A) (A) (A)
                 (A) (A) (A) (A) (A) (A) (A) (A) (A) (A) (A) (A)
                 (A) (A) (A) (A) (A) (A) (A) (A) (A) (A) (A) (A)
                 (A) (A) (A) (A) (A) (A) (A) (A) (A) (A) (A) (A)
                 (A) (A) (A) (A) (A) (A) (A) (A) (A) (A) (A) (A)
                 (A) (A) (A) (A) (A) (A) (A) (A) (A) (A) (A) (A)
                 (A) (A) (A) (A) (A) (A) (A) (A) (A) (A) (A) (A)
                 (A) (A) (A) (A) (A) (A) (A) (A) (A) (A) (A) (A)
                 (A) (A) (A) (A) (A) (A) (A) (A) (A) (A) (A) (A)
                 (A) (A) (A) (A) (A) (A) (A) (A) (A) (A) (A) (A)
                 (A) (A) (A) (A) (A) (A) (A) (A) (A) (A) (A) (A)
                 (A) (A) (A) (A) (A) (A) (A) (A) (A) (A) (A) (A)
                 (A) (A) (A) (A) (A) (A) (A) (A) (A) (A) (A) (A)
                 (A) (A) (A) (A) (A) (A) (A) (A) (A) (A) (A) (A)
                 (A) (A) (A) (A) (A) (A) (A) (A) (A) (A) (A) (A)
                 (A) (A) (A) (A) (A) (A) (A) (A) (A) (A) (A) (A)
                 (A) (A) (A) (A) (A) (A) (A) (A) (A) (A) (A) (A)
                 (A) (A) (A) (A) (A) (A) (A) (A) (A) (A) (A) (A)
                 (A) (A) (A) (A) (A) (A) (A) (A) (A) (A) (A) (A)
                 (A) (A) (A) (A) (A) (A) (A) (A) (A) (A) (A) (A)
                 (A) (A) (A) (A) (A) (A) (A) (A) (A) (A) (A) (A)
                 (A) (A) (A) (A) (A) (A) (A) (A) (A) (A) (A) (A)
                 (A) (A) (A) (A) (A) (A) (A) (A) (A) (A) (A) (A)
                 (A) (A) (A) (A) (A) (A) (A) (A) (A) (A) (A) (A)
                 (A) (A) (A) (A) (A) (A) (A) (A) (A) (A) (A) (A)
                 (A) (A) (A) (A) (A) (A) (A) (A) (A) (A)
 The electronic state is 1-A.
 Alpha  occ. eigenvalues --  -19.22076 -19.20254 -10.32263 -10.29456 -10.27664
 Alpha  occ. eigenvalues --  -10.27510 -10.27503 -10.27432 -10.27395 -10.27356
 Alpha  occ. eigenvalues --  -10.27189 -10.27085 -10.26789 -10.26747 -10.26695
 Alpha  occ. eigenvalues --  -10.26676 -10.26553 -10.26500 -10.26478 -10.26329
 Alpha  occ. eigenvalues --  -10.26150 -10.26148 -10.25998 -10.25875 -10.25839
 Alpha  occ. eigenvalues --  -10.25704 -10.25694 -10.25694 -10.25675 -10.25647
 Alpha  occ. eigenvalues --  -10.25556 -10.25494 -10.25412 -10.25389 -10.25305
 Alpha  occ. eigenvalues --  -10.25222 -10.25046 -10.24887 -10.24602 -10.24389
 Alpha  occ. eigenvalues --  -10.24234 -10.23817  -1.09480  -1.06344  -0.93972
 Alpha  occ. eigenvalues --   -0.93645  -0.93202  -0.92474  -0.91060  -0.90686
 Alpha  occ. eigenvalues --   -0.87791  -0.86561  -0.86376  -0.85931  -0.85133
 Alpha  occ. eigenvalues --   -0.83654  -0.82874  -0.80330  -0.79974  -0.78409
 Alpha  occ. eigenvalues --   -0.77611  -0.76310  -0.76118  -0.75722  -0.75499
 Alpha  occ. eigenvalues --   -0.74752  -0.74577  -0.74351  -0.73332  -0.70303
 Alpha  occ. eigenvalues --   -0.68475  -0.67874  -0.65754  -0.64662  -0.63347
 Alpha  occ. eigenvalues --   -0.62758  -0.62592  -0.62085  -0.61486  -0.60166
 Alpha  occ. eigenvalues --   -0.59145  -0.59018  -0.58422  -0.58235  -0.57241
 Alpha  occ. eigenvalues --   -0.55704  -0.55261  -0.54972  -0.54333  -0.53602
 Alpha  occ. eigenvalues --   -0.53049  -0.52744  -0.52411  -0.52289  -0.51018
 Alpha  occ. eigenvalues --   -0.50784  -0.50248  -0.49856  -0.49160  -0.48907
 Alpha  occ. eigenvalues --   -0.48730  -0.48570  -0.48235  -0.48021  -0.47798
 Alpha  occ. eigenvalues --   -0.47450  -0.47290  -0.47162  -0.46309  -0.45981
 Alpha  occ. eigenvalues --   -0.45772  -0.45379  -0.45068  -0.44910  -0.44424
 Alpha  occ. eigenvalues --   -0.44111  -0.43934  -0.43786  -0.43570  -0.43532
 Alpha  occ. eigenvalues --   -0.43030  -0.42748  -0.42568  -0.42487  -0.42224
 Alpha  occ. eigenvalues --   -0.41782  -0.41621  -0.41463  -0.40912  -0.40810
 Alpha  occ. eigenvalues --   -0.40382  -0.40132  -0.39681  -0.39561  -0.39140
 Alpha  occ. eigenvalues --   -0.38555  -0.38526  -0.38204  -0.38084  -0.37822
 Alpha  occ. eigenvalues --   -0.37425  -0.37068  -0.36505  -0.36263  -0.35886
 Alpha  occ. eigenvalues --   -0.35341  -0.33871  -0.33594  -0.32475  -0.32076
 Alpha  occ. eigenvalues --   -0.31674  -0.29477  -0.29023  -0.27318  -0.24104
 Alpha  occ. eigenvalues --   -0.20321
 Alpha virt. eigenvalues --   -0.04917  -0.00559   0.03120   0.05715   0.07070
 Alpha virt. eigenvalues --    0.09021   0.10111   0.11501   0.11874   0.12734
 Alpha virt. eigenvalues --    0.12865   0.13140   0.13355   0.13966   0.14061
 Alpha virt. eigenvalues --    0.14242   0.14605   0.15044   0.15414   0.15758
 Alpha virt. eigenvalues --    0.15895   0.15993   0.16151   0.16363   0.16485
 Alpha virt. eigenvalues --    0.16563   0.16747   0.17211   0.17453   0.18212
 Alpha virt. eigenvalues --    0.18256   0.18601   0.18990   0.19322   0.19574
 Alpha virt. eigenvalues --    0.19726   0.19876   0.20192   0.20479   0.20717
 Alpha virt. eigenvalues --    0.20964   0.21197   0.21333   0.21707   0.21958
 Alpha virt. eigenvalues --    0.22095   0.22428   0.22637   0.23109   0.23206
 Alpha virt. eigenvalues --    0.23548   0.23714   0.24112   0.24420   0.24567
 Alpha virt. eigenvalues --    0.24734   0.25029   0.25317   0.25799   0.26219
 Alpha virt. eigenvalues --    0.26763   0.26976   0.27251   0.27472   0.27980
 Alpha virt. eigenvalues --    0.28317   0.28466   0.28792   0.28916   0.29441
 Alpha virt. eigenvalues --    0.29593   0.30146   0.30520   0.30846   0.31171
 Alpha virt. eigenvalues --    0.31658   0.32106   0.32270   0.32879   0.33304
 Alpha virt. eigenvalues --    0.33590   0.34158   0.34355   0.34553   0.34684
 Alpha virt. eigenvalues --    0.34795   0.35092   0.35983   0.36001   0.38554
 Alpha virt. eigenvalues --    0.38990   0.39074   0.39780   0.41378   0.42537
 Alpha virt. eigenvalues --    0.43020   0.44103   0.44352   0.45236   0.45488
 Alpha virt. eigenvalues --    0.46496   0.47860   0.48839   0.49454   0.49671
 Alpha virt. eigenvalues --    0.50886   0.52238   0.53062   0.53798   0.54764
 Alpha virt. eigenvalues --    0.54976   0.55260   0.56411   0.56726   0.57189
 Alpha virt. eigenvalues --    0.57740   0.57999   0.58070   0.58339   0.58360
 Alpha virt. eigenvalues --    0.59032   0.59463   0.59665   0.59844   0.60206
 Alpha virt. eigenvalues --    0.60990   0.61290   0.61673   0.62069   0.62522
 Alpha virt. eigenvalues --    0.62578   0.62662   0.62920   0.63181   0.63770
 Alpha virt. eigenvalues --    0.64172   0.64454   0.65037   0.65199   0.65635
 Alpha virt. eigenvalues --    0.65794   0.65960   0.66119   0.66741   0.66861
 Alpha virt. eigenvalues --    0.67084   0.67220   0.67781   0.68096   0.68319
 Alpha virt. eigenvalues --    0.69055   0.69211   0.69360   0.69898   0.70176
 Alpha virt. eigenvalues --    0.70336   0.71063   0.71410   0.71498   0.71795
 Alpha virt. eigenvalues --    0.72320   0.72850   0.72956   0.73320   0.73965
 Alpha virt. eigenvalues --    0.74047   0.74318   0.74414   0.74991   0.75726
 Alpha virt. eigenvalues --    0.76281   0.76645   0.76753   0.76944   0.77446
 Alpha virt. eigenvalues --    0.78139   0.78243   0.78765   0.78959   0.79090
 Alpha virt. eigenvalues --    0.79321   0.79612   0.80270   0.81059   0.81165
 Alpha virt. eigenvalues --    0.81801   0.82143   0.82390   0.82740   0.83242
 Alpha virt. eigenvalues --    0.83504   0.83894   0.84320   0.84721   0.85023
 Alpha virt. eigenvalues --    0.85092   0.85236   0.85825   0.86241   0.86303
 Alpha virt. eigenvalues --    0.86638   0.86719   0.87159   0.87550   0.87771
 Alpha virt. eigenvalues --    0.87862   0.88053   0.88298   0.88522   0.88719
 Alpha virt. eigenvalues --    0.89043   0.89162   0.89327   0.89607   0.89930
 Alpha virt. eigenvalues --    0.90246   0.90364   0.90685   0.90902   0.91087
 Alpha virt. eigenvalues --    0.91588   0.91874   0.92422   0.92475   0.92708
 Alpha virt. eigenvalues --    0.93798   0.93837   0.94037   0.94248   0.94494
 Alpha virt. eigenvalues --    0.94860   0.94900   0.95206   0.95822   0.95931
 Alpha virt. eigenvalues --    0.96264   0.96963   0.97116   0.97560   0.97926
 Alpha virt. eigenvalues --    0.98222   0.98630   0.99036   0.99332   0.99749
 Alpha virt. eigenvalues --    1.00147   1.00288   1.00443   1.00818   1.01046
 Alpha virt. eigenvalues --    1.01639   1.01916   1.01947   1.02349   1.02498
 Alpha virt. eigenvalues --    1.02845   1.03638   1.04898   1.05158   1.05383
 Alpha virt. eigenvalues --    1.05497   1.05979   1.06258   1.06297   1.06758
 Alpha virt. eigenvalues --    1.07537   1.08030   1.08478   1.08615   1.09935
 Alpha virt. eigenvalues --    1.10001   1.10413   1.10818   1.11418   1.11806
 Alpha virt. eigenvalues --    1.12544   1.12997   1.13642   1.13993   1.15293
 Alpha virt. eigenvalues --    1.15892   1.16278   1.17410   1.18404   1.18803
 Alpha virt. eigenvalues --    1.19303   1.19660   1.19869   1.20417   1.21012
 Alpha virt. eigenvalues --    1.21956   1.23313   1.23709   1.24428   1.25147
 Alpha virt. eigenvalues --    1.25858   1.26917   1.27079   1.28426   1.29462
 Alpha virt. eigenvalues --    1.30309   1.31050   1.31825   1.32209   1.32289
 Alpha virt. eigenvalues --    1.33206   1.34056   1.34164   1.35306   1.36129
 Alpha virt. eigenvalues --    1.36696   1.36894   1.37716   1.38263   1.38414
 Alpha virt. eigenvalues --    1.39364   1.39961   1.42227   1.42382   1.42645
 Alpha virt. eigenvalues --    1.43528   1.43770   1.43946   1.44834   1.45379
 Alpha virt. eigenvalues --    1.46958   1.47613   1.47874   1.48723   1.49186
 Alpha virt. eigenvalues --    1.50058   1.50589   1.51775   1.52095   1.53161
 Alpha virt. eigenvalues --    1.53418   1.53595   1.55539   1.56234   1.57738
 Alpha virt. eigenvalues --    1.58072   1.58638   1.60023   1.60402   1.61443
 Alpha virt. eigenvalues --    1.61699   1.62251   1.62656   1.62926   1.63919
 Alpha virt. eigenvalues --    1.64411   1.64910   1.65991   1.66885   1.67051
 Alpha virt. eigenvalues --    1.68912   1.69573   1.69641   1.70733   1.71402
 Alpha virt. eigenvalues --    1.73732   1.73827   1.74908   1.76224   1.76382
 Alpha virt. eigenvalues --    1.76693   1.78526   1.79052   1.80183   1.80234
 Alpha virt. eigenvalues --    1.81055   1.81190   1.82302   1.82667   1.83167
 Alpha virt. eigenvalues --    1.83579   1.83707   1.84686   1.84859   1.85571
 Alpha virt. eigenvalues --    1.86012   1.86066   1.86156   1.86645   1.86924
 Alpha virt. eigenvalues --    1.87135   1.87234   1.87381   1.87773   1.89235
 Alpha virt. eigenvalues --    1.89543   1.90551   1.90647   1.90749   1.91188
 Alpha virt. eigenvalues --    1.91658   1.92378   1.92562   1.92824   1.92999
 Alpha virt. eigenvalues --    1.93619   1.94088   1.94355   1.94531   1.95033
 Alpha virt. eigenvalues --    1.95507   1.95904   1.96209   1.96816   1.97566
 Alpha virt. eigenvalues --    1.97889   1.98045   1.98294   1.98551   1.99135
 Alpha virt. eigenvalues --    1.99401   1.99521   1.99949   2.00344   2.00519
 Alpha virt. eigenvalues --    2.01020   2.01386   2.02193   2.02334   2.03099
 Alpha virt. eigenvalues --    2.03256   2.03792   2.04587   2.04857   2.05905
 Alpha virt. eigenvalues --    2.06038   2.06196   2.06551   2.07507   2.07629
 Alpha virt. eigenvalues --    2.07964   2.08187   2.08466   2.09340   2.09624
 Alpha virt. eigenvalues --    2.10052   2.10598   2.10656   2.11015   2.11102
 Alpha virt. eigenvalues --    2.11443   2.11847   2.11986   2.12150   2.13178
 Alpha virt. eigenvalues --    2.13915   2.14028   2.14665   2.15268   2.15455
 Alpha virt. eigenvalues --    2.15730   2.16168   2.16648   2.16960   2.17814
 Alpha virt. eigenvalues --    2.18289   2.18661   2.18972   2.19831   2.19970
 Alpha virt. eigenvalues --    2.20742   2.20973   2.21739   2.22070   2.22163
 Alpha virt. eigenvalues --    2.22507   2.23849   2.24288   2.24982   2.25179
 Alpha virt. eigenvalues --    2.25770   2.26039   2.26481   2.27024   2.27460
 Alpha virt. eigenvalues --    2.27820   2.27996   2.28455   2.29037   2.29092
 Alpha virt. eigenvalues --    2.29581   2.29663   2.30331   2.30977   2.31051
 Alpha virt. eigenvalues --    2.31827   2.32838   2.33642   2.33735   2.34353
 Alpha virt. eigenvalues --    2.34546   2.34729   2.35614   2.35936   2.36392
 Alpha virt. eigenvalues --    2.36873   2.37084   2.37366   2.38096   2.38523
 Alpha virt. eigenvalues --    2.38764   2.39124   2.39255   2.40320   2.41525
 Alpha virt. eigenvalues --    2.41583   2.43015   2.43204   2.43602   2.43964
 Alpha virt. eigenvalues --    2.44395   2.45341   2.45687   2.46104   2.46570
 Alpha virt. eigenvalues --    2.46808   2.47133   2.47380   2.47794   2.48499
 Alpha virt. eigenvalues --    2.48790   2.49400   2.50335   2.50508   2.51004
 Alpha virt. eigenvalues --    2.51232   2.51416   2.51739   2.52379   2.52890
 Alpha virt. eigenvalues --    2.53206   2.54142   2.54918   2.55281   2.55596
 Alpha virt. eigenvalues --    2.56466   2.56766   2.57113   2.57636   2.57984
 Alpha virt. eigenvalues --    2.58894   2.59305   2.59577   2.59964   2.60269
 Alpha virt. eigenvalues --    2.60745   2.62202   2.62421   2.62955   2.63227
 Alpha virt. eigenvalues --    2.63581   2.64072   2.64530   2.65223   2.65964
 Alpha virt. eigenvalues --    2.66154   2.66613   2.67001   2.67491   2.67713
 Alpha virt. eigenvalues --    2.68435   2.68867   2.69226   2.69833   2.70192
 Alpha virt. eigenvalues --    2.70633   2.71115   2.71159   2.72080   2.72284
 Alpha virt. eigenvalues --    2.72655   2.73102   2.73454   2.73778   2.73948
 Alpha virt. eigenvalues --    2.74387   2.74568   2.74983   2.75290   2.75511
 Alpha virt. eigenvalues --    2.76349   2.76773   2.77426   2.77899   2.78014
 Alpha virt. eigenvalues --    2.78789   2.78916   2.79187   2.79432   2.79811
 Alpha virt. eigenvalues --    2.80100   2.80131   2.81194   2.81923   2.82162
 Alpha virt. eigenvalues --    2.82371   2.82540   2.83715   2.84131   2.85061
 Alpha virt. eigenvalues --    2.86181   2.86362   2.86630   2.87096   2.87983
 Alpha virt. eigenvalues --    2.88449   2.89134   2.89255   2.89796   2.90087
 Alpha virt. eigenvalues --    2.90588   2.90838   2.91308   2.91923   2.92327
 Alpha virt. eigenvalues --    2.93097   2.93885   2.94304   2.95323   2.95810
 Alpha virt. eigenvalues --    2.96447   2.96749   2.98105   2.98701   2.99500
 Alpha virt. eigenvalues --    3.00543   3.00750   3.01040   3.01217   3.02118
 Alpha virt. eigenvalues --    3.02393   3.03131   3.03759   3.04131   3.05027
 Alpha virt. eigenvalues --    3.05421   3.07617   3.08667   3.09923   3.10686
 Alpha virt. eigenvalues --    3.11467   3.11846   3.12757   3.12882   3.13702
 Alpha virt. eigenvalues --    3.14529   3.15857   3.16690   3.16987   3.18553
 Alpha virt. eigenvalues --    3.18634   3.21701   3.22350   3.22833   3.22898
 Alpha virt. eigenvalues --    3.24654   3.25392   3.25993   3.27077   3.28007
 Alpha virt. eigenvalues --    3.30721   3.32792   3.33032   3.33291   3.34287
 Alpha virt. eigenvalues --    3.38116   3.39271   3.41940   3.42241   3.42608
 Alpha virt. eigenvalues --    3.43321   3.43463   3.43607   3.44069   3.44843
 Alpha virt. eigenvalues --    3.45326   3.46178   3.46246   3.47203   3.47633
 Alpha virt. eigenvalues --    3.48750   3.49955   3.50418   3.50807   3.51890
 Alpha virt. eigenvalues --    3.52127   3.53656   3.54621   3.54923   3.55263
 Alpha virt. eigenvalues --    3.55489   3.57420   3.57949   3.59653   3.60557
 Alpha virt. eigenvalues --    3.63235   3.63383   3.63617   3.67971   3.68312
 Alpha virt. eigenvalues --    3.70114   3.72311   3.73095   3.74290   3.75056
 Alpha virt. eigenvalues --    3.79646   3.86780   4.07296   4.10620   4.19746
 Alpha virt. eigenvalues --    4.20461   4.21219   4.22367   4.23973   4.26685
 Alpha virt. eigenvalues --    4.27599   4.28228   4.30779   4.32122   4.34837
 Alpha virt. eigenvalues --    4.38447   4.40740   4.41744   4.44916   4.45851
 Alpha virt. eigenvalues --    4.46947   4.48029   4.49899   4.54739   4.55293
 Alpha virt. eigenvalues --    4.55327   4.58237   4.59512   4.61721   4.63158
 Alpha virt. eigenvalues --    4.64301   4.65094   4.68299   4.71994   4.72526
 Alpha virt. eigenvalues --    4.74687   4.78212   4.80895   4.82585   4.85542
 Alpha virt. eigenvalues --    4.87334   4.89189   4.90580   4.91911
          Condensed to atoms (all electrons):
 Mulliken charges:
               1
     1  O   -0.575921
     2  O   -0.556633
     3  C    0.016693
     4  C   -0.145500
     5  C   -0.162994
     6  C    0.133250
     7  C    0.145593
     8  C   -0.011018
     9  C   -0.304267
    10  C   -0.277660
    11  C   -0.189513
    12  C   -0.133239
    13  C    0.163687
    14  C    0.059617
    15  C   -0.092879
    16  C   -0.234857
    17  C    0.048645
    18  C   -0.289617
    19  C   -0.300375
    20  C   -0.362193
    21  C   -0.107021
    22  C   -0.094788
    23  C   -0.378233
    24  C    0.116745
    25  C   -0.086019
    26  C   -0.358554
    27  C    0.101480
    28  C   -0.097738
    29  C   -0.385738
    30  C   -0.102455
    31  C   -0.097326
    32  C   -0.090677
    33  C   -0.087180
    34  C    0.078586
    35  C   -0.121968
    36  C    0.182823
    37  C   -0.380808
    38  C   -0.116799
    39  C   -0.136710
    40  C   -0.394172
    41  C   -0.058290
    42  C   -0.120552
    43  H    0.091376
    44  H    0.113377
    45  H    0.098681
    46  H    0.069264
    47  H    0.110839
    48  H    0.092136
    49  H    0.085351
    50  H    0.117827
    51  H    0.085876
    52  H    0.097457
    53  H    0.097424
    54  H    0.045636
    55  H    0.074534
    56  H    0.094299
    57  H    0.064678
    58  H    0.079951
    59  H    0.133480
    60  H    0.102840
    61  H    0.109139
    62  H    0.071426
    63  H    0.101532
    64  H    0.114281
    65  H    0.091271
    66  H    0.124141
    67  H    0.105638
    68  H    0.109685
    69  H    0.304965
    70  H    0.075520
    71  H    0.056076
    72  H    0.127639
    73  H    0.114681
    74  H    0.095153
    75  H    0.307067
    76  H    0.080123
    77  H    0.112302
    78  H    0.109170
    79  H    0.124312
    80  H    0.078638
    81  H    0.127521
    82  H    0.116344
    83  H    0.101710
    84  H    0.078158
    85  H    0.080407
    86  H    0.073908
    87  H    0.054417
    88  H    0.064713
    89  H    0.132342
    90  H    0.125007
    91  H    0.116828
    92  H    0.080916
    93  H    0.081920
    94  H    0.102415
    95  H    0.107634
    96  H    0.107601
    97  H    0.088053
    98  H    0.096896
 Sum of Mulliken charges =  -0.00000
 Mulliken charges with hydrogens summed into heavy atoms:
               1
     1  O   -0.270956
     2  O   -0.249566
     3  C    0.016693
     4  C   -0.054125
     5  C    0.049064
     6  C    0.202514
     7  C    0.145593
     8  C   -0.011018
     9  C   -0.015941
    10  C    0.023500
    11  C   -0.046452
    12  C   -0.058705
    13  C    0.257986
    14  C    0.059617
    15  C   -0.028201
    16  C   -0.021425
    17  C    0.048645
    18  C   -0.006213
    19  C    0.006708
    20  C   -0.022728
    21  C   -0.050945
    22  C   -0.019268
    23  C   -0.040760
    24  C    0.116745
    25  C   -0.005896
    26  C   -0.012769
    27  C    0.101480
    28  C   -0.019099
    29  C   -0.040162
    30  C   -0.024298
    31  C   -0.016919
    32  C   -0.016770
    33  C   -0.032763
    34  C    0.078586
    35  C   -0.057255
    36  C    0.182823
    37  C   -0.006631
    38  C   -0.035884
    39  C   -0.054790
    40  C   -0.076521
    41  C    0.029762
    42  C   -0.023656
 Electronic spatial extent (au):  <R**2>=         103379.2294
 Charge=             -0.0000 electrons
 Dipole moment (field-independent basis, Debye):
    X=             -0.6164    Y=             -1.3577    Z=             -0.2440  Tot=              1.5109
 Quadrupole moment (field-independent basis, Debye-Ang):
   XX=           -292.1236   YY=           -243.3305   ZZ=           -262.4191
   XY=             10.7439   XZ=             39.4963   YZ=             -0.5131
 Traceless Quadrupole moment (field-independent basis, Debye-Ang):
   XX=            -26.1659   YY=             22.6272   ZZ=              3.5386
   XY=             10.7439   XZ=             39.4963   YZ=             -0.5131
 Octapole moment (field-independent basis, Debye-Ang**2):
  XXX=           -277.8829  YYY=            -10.2856  ZZZ=              6.5813  XYY=            -18.4261
  XXY=           -248.1613  XXZ=             31.5966  XZZ=             14.3518  YZZ=              5.2500
  YYZ=            -12.5342  XYZ=             17.7967
 Hexadecapole moment (field-independent basis, Debye-Ang**3):
 XXXX=        -145927.5341 YYYY=          -4070.4179 ZZZZ=          -2209.8099 XXXY=           2863.4143
 XXXZ=           7884.9205 YYYX=            174.0583 YYYZ=            -67.4995 ZZZX=             27.0020
 ZZZY=             -4.6334 XXYY=         -21942.7174 XXZZ=         -22670.9246 YYZZ=          -1059.7099
 XXYZ=            800.6759 YYXZ=            201.0676 ZZXY=            126.1665
 N-N= 4.036512614633D+03 E-N=-1.202840044257D+04  KE= 1.690418431561D+03
 1\1\GINC-PADAWAN\SP\RCAM-B3LYP TD-FC\6-31G(d,p)\C40H56O2\PADAWAN\13-Ju
 l-2019\0\\# td=(NStates=1) CAM-B3LYP/6-31G(d,p)\\TD\\0,1\O,0,-14.13830
 97062,-1.9020985916,0.6540056559\O,0,14.704212258,1.0920267893,0.24206
 48024\C,0,-11.7314960092,0.1785839333,1.3211169317\C,0,-10.983815344,0
 .368999671,-0.0340896962\C,0,-11.9503805187,-1.2762621106,1.5821460559
 \C,0,-12.6686402575,-2.0549165565,0.4422483757\C,0,-11.5494502339,-0.4
 687443527,-1.1712926192\C,0,11.0892522558,0.9755091934,1.1957798577\C,
 0,-10.8510365769,0.7695286917,2.4329703477\C,0,-13.1474509075,0.893825
 0294,1.1636774445\C,0,12.4585930398,1.5293523617,0.901747561\C,0,-12.2
 830092868,-1.5768055484,-0.9264454132\C,0,13.4666582867,0.461523825,0.
 4268700059\C,0,10.5882082951,0.0270432941,0.0673803231\C,0,-9.54702346
 62,0.0020873605,0.1316731749\C,0,12.9238203596,-0.0713543548,-0.928488
 4351\C,0,11.4564487337,-0.4094459899,-0.8464597048\C,0,10.0864955352,2
 .1397632883,1.2765603694\C,0,11.0644472772,0.1578849639,2.5270932706\C
 ,0,-11.301314629,0.0615878003,-2.5714494031\C,0,-8.4552416245,0.715246
 5071,-0.216985321\C,0,9.1370586352,-0.3963674125,0.0906791517\C,0,11.1
 650564511,-1.3691498818,-2.037113316\C,0,-7.0043217551,0.5049777396,-0
 .1625983491\C,0,8.7476812245,-1.5664964471,-0.1838435254\C,0,-6.609642
 3857,-0.8609848554,0.2016330519\C,0,7.4076392514,-2.1050733793,-0.1377
 448368\C,0,-6.1864084168,1.51855543,-0.5407959362\C,0,7.1607892731,-3.
 547128435,-0.2116009419\C,0,6.3626635354,-1.1348937781,-0.14037638\C,0
 ,-4.7650204757,1.4723207713,-0.5823191453\C,0,4.9859894448,-1.55548339
 12,-0.199427723\C,0,-3.9224536178,2.451528179,-0.6726384528\C,0,-2.509
 2413622,2.5076887265,-0.7122339712\C,0,3.9721211776,-0.7273432404,-0.2
 901685333\C,0,2.5786249111,-0.9315876303,-0.2706120138\C,0,-1.88006655
 69,3.8164962322,-0.8260717546\C,0,-1.7355806436,1.3437771221,-0.545880
 6045\C,0,1.7710556506,0.137075269,-0.3312316851\C,0,2.057799101,-2.239
 386726,-0.1429219243\C,0,-0.3195642153,1.3210234236,-0.5712304828\C,0,
 0.3272075516,0.098861554,-0.4684101018\H,0,-10.7536221037,1.4002118065
 ,-0.2872005653\H,0,-12.6061040835,-1.3729673104,2.5063685316\H,0,-11.0
 255302226,-1.7884180368,1.6880120838\H,0,-12.4633099646,-3.2303921465,
 0.4765825204\H,0,-9.8563210334,0.3422559012,2.6106996939\H,0,-10.59472
 96396,1.7980528823,2.0357883007\H,0,-11.4091985122,0.9187052895,3.4707
 312509\H,0,-13.6217033721,0.2739633986,0.2624627166\H,0,-13.8454903196
 ,0.5970113085,2.0886928713\H,0,-12.974006086,1.8607196938,1.0144619295
 \H,0,12.352342601,2.4238473342,0.1241902622\H,0,12.9950939365,2.021766
 2155,1.8895665579\H,0,-12.6929827769,-2.1374905456,-1.7997841691\H,0,1
 3.4958591707,-0.4341231581,0.9692272586\H,0,-9.3489672624,-1.025947453
 7,0.6519727573\H,0,13.634978642,-1.0461476541,-1.1978049365\H,0,13.267
 7731948,0.724671045,-1.5129012139\H,0,9.0624829459,1.8504550973,1.6658
 018276\H,0,10.1785197136,2.53247585,0.2561625318\H,0,10.4116148348,3.0
 041453862,2.0849246435\H,0,11.8945622975,-0.5360608547,2.5607224936\H,
 0,10.1020751781,-0.2910116422,2.7995730854\H,0,11.4520161007,0.8958073
 775,3.2669316362\H,0,-10.2104335414,-0.0880488942,-2.7096783635\H,0,-1
 1.5970587622,1.2212181203,-2.7880158669\H,0,-11.6685947046,-0.60968972
 03,-3.366194377\H,0,-14.7839716705,-2.3393828909,0.0728890851\H,0,8.36
 55956276,0.376637889,0.5427669229\H,0,-8.8509302619,1.6295746103,-0.85
 46107815\H,0,11.2067964141,-2.4173832343,-1.8922420757\H,0,10.14090695
 71,-1.1591920209,-2.5144373777\H,0,11.9981591096,-1.1986529554,-2.8493
 608842\H,0,14.8501141917,1.4681849183,1.2048184507\H,0,9.5274325196,-2
 .201353217,-0.5037968222\H,0,-5.6386983308,-0.9906562163,-0.0045630595
 \H,0,-7.0929981979,-1.2384958228,1.242466499\H,0,-7.1455607913,-1.4569
 141396,-0.5759358084\H,0,-6.6863809246,2.3282216173,-0.9422774294\H,0,
 6.9805816072,-4.0777311957,0.7474944451\H,0,6.1403813833,-3.6849236802
 ,-0.8934389351\H,0,8.163076205,-4.1536315478,-0.3819112238\H,0,6.49019
 74466,-0.1514423836,-0.186010723\H,0,-4.3307853101,0.5048101462,-0.153
 8514427\H,0,4.7275463581,-2.6150507581,0.1164539846\H,0,-4.273973443,3
 .5504330251,-0.9240720627\H,0,4.3025303292,0.2467020091,-0.3258117986\
 H,0,-1.278377596,3.7087923259,-1.7004583177\H,0,-1.2537482132,4.079345
 0918,0.1103490751\H,0,-2.4845579439,4.622294645,-1.0916674604\H,0,-2.0
 289917796,0.2988865142,-0.5981845485\H,0,2.4141804601,0.9638003692,-0.
 6600030154\H,0,2.6527938071,-2.7661530177,0.7411624947\H,0,0.957120783
 4,-2.4363129224,-0.1295242375\H,0,2.130815831,-2.9364114283,-1.0822224
 652\H,0,0.15075096,2.2533251722,-0.7974067322\H,0,-0.2143543314,-0.833
 1534851,-0.2701976748\\Version=ES64L-G16RevA.03\State=1-A\HF=-1707.009
 4458\RMSD=8.324e-09\PG=C01 [X(C40H56O2)]\\@


 WE HAVE LEARNED THAT NOTHING IS SIMPLE AND
 RATIONAL EXCEPT WHAT WE OURSELVES HAVE INVENTED;
 THAT GOD THINKS IN TERMS NEITHER OF EUCLID OR RIEMANN; THAT SCIENCE HAS "EXPLAINED" NOTHING;
 THAT THE MORE WE KNOW THE MORE FANTASTIC THE WORLD BECOMES
 AND THE PROFOUNDER THE SURROUNDING DARKNESS.
   --  ALDOUS HUXLEY
 Job cpu time:       0 days  2 hours 18 minutes  9.5 seconds.
 Elapsed time:       0 days  1 hours 32 minutes 10.1 seconds.
 File lengths (MBytes):  RWF=   3127 Int=      0 D2E=      0 Chk=     84 Scr=      1
 Normal termination of Gaussian 16 at Sat Jul 13 15:08:53 2019.
