 Entering Gaussian System, Link 0=g16
 Input=Geometria-108-.com
 Output=Geometria-108-.log
 Initial command:
 /usr/local/g16/l1.exe "/home/padawan/israel-mol/lutein/spectra/emi/Gau-9026.inp" -scrdir="/home/padawan/israel-mol/lutein/spectra/emi/"
 Entering Link 1 = /usr/local/g16/l1.exe PID=      9028.
  
 Copyright (c) 1988,1990,1992,1993,1995,1998,2003,2009,2016,
            Gaussian, Inc.  All Rights Reserved.
  
 This is part of the Gaussian(R) 16 program.  It is based on
 the Gaussian(R) 09 system (copyright 2009, Gaussian, Inc.),
 the Gaussian(R) 03 system (copyright 2003, Gaussian, Inc.),
 the Gaussian(R) 98 system (copyright 1998, Gaussian, Inc.),
 the Gaussian(R) 94 system (copyright 1995, Gaussian, Inc.),
 the Gaussian 92(TM) system (copyright 1992, Gaussian, Inc.),
 the Gaussian 90(TM) system (copyright 1990, Gaussian, Inc.),
 the Gaussian 88(TM) system (copyright 1988, Gaussian, Inc.),
 the Gaussian 86(TM) system (copyright 1986, Carnegie Mellon
 University), and the Gaussian 82(TM) system (copyright 1983,
 Carnegie Mellon University). Gaussian is a federally registered
 trademark of Gaussian, Inc.
  
 This software contains proprietary and confidential information,
 including trade secrets, belonging to Gaussian, Inc.
  
 This software is provided under written license and may be
 used, copied, transmitted, or stored only in accord with that
 written license.
  
 The following legend is applicable only to US Government
 contracts under FAR:
  
                    RESTRICTED RIGHTS LEGEND
  
 Use, reproduction and disclosure by the US Government is
 subject to restrictions as set forth in subparagraphs (a)
 and (c) of the Commercial Computer Software - Restricted
 Rights clause in FAR 52.227-19.
  
 Gaussian, Inc.
 340 Quinnipiac St., Bldg. 40, Wallingford CT 06492
  
  
 ---------------------------------------------------------------
 Warning -- This program may not be used in any manner that
 competes with the business of Gaussian, Inc. or will provide
 assistance to any competitor of Gaussian, Inc.  The licensee
 of this program is prohibited from giving any competitor of
 Gaussian, Inc. access to this program.  By using this program,
 the user acknowledges that Gaussian, Inc. is engaged in the
 business of creating and licensing software in the field of
 computational chemistry and represents and warrants to the
 licensee that it is not a competitor of Gaussian, Inc. and that
 it will not use this program in any manner prohibited above.
 ---------------------------------------------------------------
  

 Cite this work as:
 Gaussian 16, Revision A.03,
 M. J. Frisch, G. W. Trucks, H. B. Schlegel, G. E. Scuseria, 
 M. A. Robb, J. R. Cheeseman, G. Scalmani, V. Barone, 
 G. A. Petersson, H. Nakatsuji, X. Li, M. Caricato, A. V. Marenich, 
 J. Bloino, B. G. Janesko, R. Gomperts, B. Mennucci, H. P. Hratchian, 
 J. V. Ortiz, A. F. Izmaylov, J. L. Sonnenberg, D. Williams-Young, 
 F. Ding, F. Lipparini, F. Egidi, J. Goings, B. Peng, A. Petrone, 
 T. Henderson, D. Ranasinghe, V. G. Zakrzewski, J. Gao, N. Rega, 
 G. Zheng, W. Liang, M. Hada, M. Ehara, K. Toyota, R. Fukuda, 
 J. Hasegawa, M. Ishida, T. Nakajima, Y. Honda, O. Kitao, H. Nakai, 
 T. Vreven, K. Throssell, J. A. Montgomery, Jr., J. E. Peralta, 
 F. Ogliaro, M. J. Bearpark, J. J. Heyd, E. N. Brothers, K. N. Kudin, 
 V. N. Staroverov, T. A. Keith, R. Kobayashi, J. Normand, 
 K. Raghavachari, A. P. Rendell, J. C. Burant, S. S. Iyengar, 
 J. Tomasi, M. Cossi, J. M. Millam, M. Klene, C. Adamo, R. Cammi, 
 J. W. Ochterski, R. L. Martin, K. Morokuma, O. Farkas, 
 J. B. Foresman, and D. J. Fox, Gaussian, Inc., Wallingford CT, 2016.
 
 ******************************************
 Gaussian 16:  ES64L-G16RevA.03 25-Dec-2016
                13-Jul-2019 
 ******************************************
 %nproc=4
 Will use up to    4 processors via shared memory.
 %Mem=4GB
 -------------------------------------
 # td=(NStates=1) CAM-B3LYP/6-31G(d,p)
 -------------------------------------
 1/38=1,172=1/1;
 2/12=2,17=6,18=5,40=1/2;
 3/5=1,6=6,7=101,11=9,25=1,30=1,74=-40/1,2,3,8;
 4//1;
 5/5=2,38=5/2;
 8/6=1,10=2,108=1/1;
 9/41=1,42=1,70=2/14;
 6/7=2,8=2,9=2,10=2/1;
 99/5=1,9=1/99;
 --
 TD
 --
 Symbolic Z-matrix:
 Charge =  0 Multiplicity = 1
 8                    -14.24821  -1.84374   0.23636 
 8                     14.87897   0.94648  -0.29988 
 6                    -11.84288   0.0359    1.16569 
 6                    -11.03564   0.43467  -0.16896 
 6                    -12.07426  -1.46271   1.31162 
 6                    -12.78479  -2.17004   0.13891 
 6                    -11.5596  -0.44672  -1.31925 
 6                     11.21726   0.97431   0.87861 
 6                    -11.08567   0.48422   2.43821 
 6                    -13.14085   0.90702   1.05653 
 6                     12.62043   1.55176   0.53459 
 6                    -12.29121  -1.61     -1.20351 
 6                     13.57945   0.39318   0.14573 
 6                     10.67645  -0.08942  -0.04997 
 6                    -9.52678  -0.03756  -0.04344 
 6                     12.98674  -0.29457  -1.09228 
 6                     11.46898  -0.55089  -1.01652 
 6                     10.22626   2.23928   1.07463 
 6                     11.22874   0.41205   2.37049 
 6                    -11.2132   0.21317  -2.61517 
 6                    -8.54335   0.82619  -0.13956 
 6                     9.32717  -0.35753   0.11508 
 6                     11.08559  -1.38985  -2.24202 
 6                    -7.20498   0.46281  -0.13623 
 6                     8.84376  -1.60207  -0.07117 
 6                    -6.78696  -0.96424   0.09685 
 6                     7.5024   -2.1431    0.10785 
 6                    -6.2616    1.50704  -0.10265 
 6                     7.17104  -3.61448   0.27443 
 6                     6.42069  -1.26882   0.10775 
 6                    -4.7989    1.387    -0.22814 
 6                     5.03956  -1.5481    0.12154 
 6                    -4.00435   2.49645  -0.41702 
 6                    -2.57471   2.59041  -0.47708 
 6                     4.0402   -0.61394  -0.15375 
 6                     2.58746  -0.84444   0.1886 
 6                    -1.97925   3.94389  -0.79936 
 6                    -1.73941   1.54779  -0.33841 
 6                     1.77102   0.22197  -0.13589 
 6                     2.14044  -2.17457   0.34772 
 6                    -0.36197   1.54137  -0.31809 
 6                     0.28762   0.27915  -0.04761 
 1                    -11.0054   1.53931  -0.43327 
 1                    -12.5412  -1.97483   2.30197 
 1                    -11.06826  -1.92761   1.40547 
 1                    -12.76828  -3.27177   0.06459 
 1                    -10.24996  -0.2155    2.44949 
 1                    -10.58015   1.61698   2.30134 
 1                    -11.82384   0.30479   3.33997 
 1                    -13.64352   0.58952   0.19299 
 1                    -13.62835   0.68223   1.85041 
 1                    -12.5594   1.85785   0.85871 
 1                     12.62406   2.17517  -0.36236 
 1                     13.30795   2.00928   1.41362 
 1                    -12.63846  -2.12196  -2.08395 
 1                     13.70736  -0.23576   0.9263 
 1                    -9.34411  -1.18     -0.14487 
 1                     13.87755  -1.06888  -1.42363 
 1                     13.10745   0.32574  -2.01855 
 1                     9.34202   1.76811   1.3456 
 1                     9.93707   2.744     0.20298 
 1                     10.44559   2.9399    1.63346 
 1                     11.63871  -0.49375   2.40996 
 1                     10.0712   0.38938   2.68857 
 1                     11.67318   1.1295    2.98367 
 1                    -10.16249   0.117    -2.89773 
 1                    -11.59801   1.16121  -2.77873 
 1                    -11.62804  -0.4776   -3.41598 
 1                    -14.6886  -2.00951  -0.67826 
 1                     8.55548   0.54093   0.45927 
 1                    -8.72841   1.83926  -0.44218 
 1                     11.13101  -2.26849  -1.90476 
 1                     10.05413  -1.17173  -2.56413 
 1                     11.92219  -1.12449  -2.9803 
 1                     15.17617   1.52638   0.57892 
 1                     9.58046  -2.46434  -0.12042 
 1                    -5.79403  -1.06032  -0.11195 
 1                    -6.93356  -1.0606    1.23203 
 1                    -7.35223  -1.64863  -0.53619 
 1                    -6.63894   2.48984  -0.27046 
 1                     6.5184   -3.86476   1.30237 
 1                     6.67492  -4.04224  -0.74685 
 1                     8.14135  -4.2864    0.33479 
 1                     6.56782  -0.17499  -0.35342 
 1                    -4.40011   0.49842   0.12222 
 1                     4.75125  -2.32579   0.69492 
 1                    -4.57911   3.40773  -0.68736 
 1                     4.48232   0.42241  -0.38458 
 1                    -1.49098   3.97541  -1.85065 
 1                    -1.16991   4.25299   0.06836 
 1                    -2.57231   4.64267  -0.82238 
 1                    -2.07143   0.42844   0.04255 
 1                     2.22744   1.10506  -0.49543 
 1                     2.73551  -2.60094   1.13466 
 1                     0.94538  -2.21124   0.54944 
 1                     2.20156  -2.94594  -0.45105 
 1                     0.11141   2.47977  -0.50207 
 1                    -0.26958  -0.7175   -0.1156 
 
 Stoichiometry    C40H56O2
 Framework group  C1[X(C40H56O2)]
 Deg. of freedom   288
 Full point group                 C1      NOp   1
 Largest Abelian subgroup         C1      NOp   1
 Largest concise Abelian subgroup C1      NOp   1
                         Standard orientation:                         
 ---------------------------------------------------------------------
 Center     Atomic      Atomic             Coordinates (Angstroms)
 Number     Number       Type             X           Y           Z
 ---------------------------------------------------------------------
      1          8           0       14.252957   -1.831567   -0.267942
      2          8           0      -14.876100    0.930337    0.311249
      3          6           0       11.846295    0.060187   -1.168819
      4          6           0       11.038848    0.438291    0.171709
      5          6           0       12.078699   -1.435902   -1.337268
      6          6           0       12.789766   -2.160292   -0.175349
      7          6           0       11.563465   -0.459931    1.308594
      8          6           0      -11.214460    0.978385   -0.866820
      9          6           0       11.088722    0.527068   -2.434428
     10          6           0       13.143677    0.930452   -1.046618
     11          6           0      -12.618013    1.549642   -0.514110
     12          6           0       12.295864   -1.620836    1.175358
     13          6           0      -13.576223    0.384683   -0.142677
     14          6           0      -10.672881   -0.098812    0.045643
     15          6           0        9.530307   -0.033024    0.039160
     16          6           0      -12.982981   -0.321188    1.084839
     17          6           0      -11.465053   -0.575304    1.005171
     18          6           0      -10.224340    2.246841   -1.043839
     19          6           0      -11.225634    0.438610   -2.366983
     20          6           0       11.216669    0.180170    2.614307
     21          6           0        8.546289    0.828504    0.148283
     22          6           0       -9.323427   -0.363491   -0.123471
     23          6           0      -11.081031   -1.432332    2.217913
     24          6           0        7.208170    0.464304    0.139538
     25          6           0       -8.839160   -1.610356    0.044034
     26          6           0        6.791113   -0.959365   -0.114952
     27          6           0       -7.497436   -2.147712   -0.143150
     28          6           0        6.264068    1.508276    0.121701
     29          6           0       -7.165079   -3.616192   -0.331841
     30          6           0       -6.416325   -1.272792   -0.129944
     31          6           0        4.801464    1.385359    0.245427
     32          6           0       -5.035011   -1.550893   -0.147988
     33          6           0        4.006162    2.491300    0.450992
     34          6           0        2.576457    2.583362    0.512508
     35          6           0       -4.036270   -0.620292    0.141288
     36          6           0       -2.583387   -0.844622   -0.204551
     37          6           0        1.980085    3.931438    0.855119
     38          6           0        1.741867    1.542374    0.358209
     39          6           0       -1.767661    0.217351    0.135911
     40          6           0       -2.135466   -2.171904   -0.383659
     41          6           0        0.364428    1.535315    0.337840
     42          6           0       -0.284313    0.276863    0.048442
     43          1           0       11.007862    1.538811    0.452588
     44          1           0       12.545938   -1.932752   -2.335221
     45          1           0       11.073014   -1.900028   -1.438065
     46          1           0       12.774012   -3.263024   -0.117603
     47          1           0       10.253491   -0.172975   -2.456198
     48          1           0       10.582432    1.657301   -2.280529
     49          1           0       11.826972    0.361724   -3.338807
     50          1           0       13.646600    0.600359   -0.187966
     51          1           0       13.631292    0.717960   -1.843808
     52          1           0       12.561590    1.877806   -0.834505
     53          1           0      -12.622028    2.159493    0.392110
     54          1           0      -13.305883    2.019855   -1.386135
     55          1           0       12.643503   -2.145736    2.047988
     56          1           0      -13.703740   -0.232539   -0.932611
     57          1           0        9.348418   -1.176991    0.123403
     58          1           0      -13.873252   -1.101005    1.404536
     59          1           0      -13.104073    0.285042    2.020331
     60          1           0       -9.339792    1.780397   -1.321894
     61          1           0       -9.935450    2.738592   -0.164708
     62          1           0      -10.444174    2.955628   -1.592065
     63          1           0      -11.634979   -0.466772   -2.420051
     64          1           0      -10.068092    0.421513   -2.685415
     65          1           0      -11.670588    1.164893   -2.969298
     66          1           0       10.166041    0.079042    2.895421
     67          1           0       11.600841    1.125906    2.792087
     68          1           0       11.632024   -0.522276    3.404622
     69          1           0       14.693505   -2.010763    0.644066
     70          1           0       -8.552375    0.540577   -0.454140
     71          1           0        8.730668    1.837034    0.466094
     72          1           0      -11.125866   -2.305830    1.867483
     73          1           0      -10.049705   -1.218374    2.543226
     74          1           0      -11.917781   -1.178668    2.960129
     75          1           0      -15.173735    1.523178   -0.558718
     76          1           0       -9.575265   -2.473773    0.080339
     77          1           0        5.798263   -1.059261    0.092422
     78          1           0        6.937728   -1.038551   -1.251451
     79          1           0        7.356882   -1.652815    0.507711
     80          1           0        6.640744    2.488694    0.304251
     81          1           0       -6.512311   -3.850548   -1.363453
     82          1           0       -6.668624   -4.058922    0.682877
     83          1           0       -8.134936   -4.287803   -0.402263
     84          1           0       -6.564178   -0.186127    0.347619
     85          1           0        4.403264    0.501871   -0.118237
     86          1           0       -4.746189   -2.319677   -0.733002
     87          1           0        4.580313    3.398803    0.734976
     88          1           0       -4.479089    0.412169    0.387680
     89          1           0        1.491845    3.946816    1.906786
     90          1           0        1.170497    4.252998   -0.007830
     91          1           0        2.572668    4.630197    0.888621
     92          1           0        2.074630    0.429107   -0.039547
     93          1           0       -2.224674    1.094624    0.508697
     94          1           0       -2.730286   -2.586799   -1.176903
     95          1           0       -0.940393   -2.204719   -0.585957
     96          1           0       -2.196026   -2.955239    0.403423
     97          1           0       -0.109580    2.470521    0.535926
     98          1           0        0.273576   -0.720316    0.101425
 ---------------------------------------------------------------------
 Rotational constants (GHZ):           0.2522833           0.0098233           0.0096655
 Standard basis: 6-31G(d,p) (6D, 7F)
 There are   910 symmetry adapted cartesian basis functions of A   symmetry.
 There are   910 symmetry adapted basis functions of A   symmetry.
   910 basis functions,  1568 primitive gaussians,   910 cartesian basis functions
   156 alpha electrons      156 beta electrons
       nuclear repulsion energy      4011.5988768725 Hartrees.
 NAtoms=   98 NActive=   98 NUniq=   98 SFac= 1.00D+00 NAtFMM=   60 NAOKFM=T Big=T
 Integral buffers will be    131072 words long.
 Raffenetti 1 integral format.
 Two-electron integral symmetry is turned on.
 One-electron integrals computed using PRISM.
 NBasis=   910 RedAO= T EigKep=  8.78D-04  NBF=   910
 NBsUse=   910 1.00D-06 EigRej= -1.00D+00 NBFU=   910
 ExpMin= 1.61D-01 ExpMax= 5.48D+03 ExpMxC= 8.25D+02 IAcc=3 IRadAn=         5 AccDes= 0.00D+00
 Harris functional with IExCor=20419 and IRadAn=       5 diagonalized for initial guess.
 HarFok:  IExCor=20419 AccDes= 0.00D+00 IRadAn=         5 IDoV= 1 UseB2=F ITyADJ=14
 ICtDFT=  3500011 ScaDFX=  1.000000  1.000000  1.000000  1.000000
 FoFCou: FMM=F IPFlag=           0 FMFlag=      100000 FMFlg1=        2001
         NFxFlg=           0 DoJE=T BraDBF=F KetDBF=T FulRan=T
         wScrn=  0.000000 ICntrl=       500 IOpCl=  0 I1Cent=   200000004 NGrid=           0
         NMat0=    1 NMatS0=      1 NMatT0=    0 NMatD0=    1 NMtDS0=    0 NMtDT0=    0
 Petite list used in FoFCou.
 Requested convergence on RMS density matrix=1.00D-08 within 128 cycles.
 Requested convergence on MAX density matrix=1.00D-06.
 Requested convergence on             energy=1.00D-06.
 No special actions if energy rises.
 Integral accuracy reduced to 1.0D-05 until final iterations.
 Initial convergence to 1.0D-05 achieved.  Increase integral accuracy.
 SCF Done:  E(RCAM-B3LYP) =  -1706.87964606     A.U. after   15 cycles
            NFock= 15  Conv=0.38D-08     -V/T= 2.0099
 DoSCS=F DFT=T ScalE2(SS,OS)=  1.000000  1.000000
 ExpMin= 1.61D-01 ExpMax= 5.48D+03 ExpMxC= 8.25D+02 IAcc=3 IRadAn=         5 AccDes= 0.00D+00
 HarFok:  IExCor=  205 AccDes= 0.00D+00 IRadAn=         5 IDoV=-2 UseB2=F ITyADJ=14
 ICtDFT= 12500011 ScaDFX=  1.000000  1.000000  1.000000  1.000000
 GSVD:  LWork=       -2100 too small for GESVD, short by        9450 words or        9450 for optimal perf.
 Range of M.O.s used for correlation:    43   910
 NBasis=   910 NAE=   156 NBE=   156 NFC=    42 NFV=     0
 NROrb=    868 NOA=   114 NOB=   114 NVA=   754 NVB=   754
 Orbital symmetries:
       Occupied  (A) (A) (A) (A) (A) (A) (A) (A) (A) (A) (A) (A)
                 (A) (A) (A) (A) (A) (A) (A) (A) (A) (A) (A) (A)
                 (A) (A) (A) (A) (A) (A) (A) (A) (A) (A) (A) (A)
                 (A) (A) (A) (A) (A) (A) (A) (A) (A) (A) (A) (A)
                 (A) (A) (A) (A) (A) (A) (A) (A) (A) (A) (A) (A)
                 (A) (A) (A) (A) (A) (A) (A) (A) (A) (A) (A) (A)
                 (A) (A) (A) (A) (A) (A) (A) (A) (A) (A) (A) (A)
                 (A) (A) (A) (A) (A) (A) (A) (A) (A) (A) (A) (A)
                 (A) (A) (A) (A) (A) (A) (A) (A) (A) (A) (A) (A)
                 (A) (A) (A) (A) (A) (A) (A) (A) (A) (A) (A) (A)
                 (A) (A) (A) (A) (A) (A) (A) (A) (A) (A) (A) (A)
                 (A) (A) (A) (A) (A) (A) (A) (A) (A) (A) (A) (A)
                 (A) (A) (A) (A) (A) (A) (A) (A) (A) (A) (A) (A)
       Virtual   (A) (A) (A) (A) (A) (A) (A) (A) (A) (A) (A) (A)
                 (A) (A) (A) (A) (A) (A) (A) (A) (A) (A) (A) (A)
                 (A) (A) (A) (A) (A) (A) (A) (A) (A) (A) (A) (A)
                 (A) (A) (A) (A) (A) (A) (A) (A) (A) (A) (A) (A)
                 (A) (A) (A) (A) (A) (A) (A) (A) (A) (A) (A) (A)
                 (A) (A) (A) (A) (A) (A) (A) (A) (A) (A) (A) (A)
                 (A) (A) (A) (A) (A) (A) (A) (A) (A) (A) (A) (A)
                 (A) (A) (A) (A) (A) (A) (A) (A) (A) (A) (A) (A)
                 (A) (A) (A) (A) (A) (A) (A) (A) (A) (A) (A) (A)
                 (A) (A) (A) (A) (A) (A) (A) (A) (A) (A) (A) (A)
                 (A) (A) (A) (A) (A) (A) (A) (A) (A) (A) (A) (A)
                 (A) (A) (A) (A) (A) (A) (A) (A) (A) (A) (A) (A)
                 (A) (A) (A) (A) (A) (A) (A) (A) (A) (A) (A) (A)
                 (A) (A) (A) (A) (A) (A) (A) (A) (A) (A) (A) (A)
                 (A) (A) (A) (A) (A) (A) (A) (A) (A) (A) (A) (A)
                 (A) (A) (A) (A) (A) (A) (A) (A) (A) (A) (A) (A)
                 (A) (A) (A) (A) (A) (A) (A) (A) (A) (A) (A) (A)
                 (A) (A) (A) (A) (A) (A) (A) (A) (A) (A) (A) (A)
                 (A) (A) (A) (A) (A) (A) (A) (A) (A) (A) (A) (A)
                 (A) (A) (A) (A) (A) (A) (A) (A) (A) (A) (A) (A)
                 (A) (A) (A) (A) (A) (A) (A) (A) (A) (A) (A) (A)
                 (A) (A) (A) (A) (A) (A) (A) (A) (A) (A) (A) (A)
                 (A) (A) (A) (A) (A) (A) (A) (A) (A) (A) (A) (A)
                 (A) (A) (A) (A) (A) (A) (A) (A) (A) (A) (A) (A)
                 (A) (A) (A) (A) (A) (A) (A) (A) (A) (A) (A) (A)
                 (A) (A) (A) (A) (A) (A) (A) (A) (A) (A) (A) (A)
                 (A) (A) (A) (A) (A) (A) (A) (A) (A) (A) (A) (A)
                 (A) (A) (A) (A) (A) (A) (A) (A) (A) (A) (A) (A)
                 (A) (A) (A) (A) (A) (A) (A) (A) (A) (A) (A) (A)
                 (A) (A) (A) (A) (A) (A) (A) (A) (A) (A) (A) (A)
                 (A) (A) (A) (A) (A) (A) (A) (A) (A) (A) (A) (A)
                 (A) (A) (A) (A) (A) (A) (A) (A) (A) (A) (A) (A)
                 (A) (A) (A) (A) (A) (A) (A) (A) (A) (A) (A) (A)
                 (A) (A) (A) (A) (A) (A) (A) (A) (A) (A) (A) (A)
                 (A) (A) (A) (A) (A) (A) (A) (A) (A) (A) (A) (A)
                 (A) (A) (A) (A) (A) (A) (A) (A) (A) (A) (A) (A)
                 (A) (A) (A) (A) (A) (A) (A) (A) (A) (A) (A) (A)
                 (A) (A) (A) (A) (A) (A) (A) (A) (A) (A) (A) (A)
                 (A) (A) (A) (A) (A) (A) (A) (A) (A) (A) (A) (A)
                 (A) (A) (A) (A) (A) (A) (A) (A) (A) (A) (A) (A)
                 (A) (A) (A) (A) (A) (A) (A) (A) (A) (A) (A) (A)
                 (A) (A) (A) (A) (A) (A) (A) (A) (A) (A) (A) (A)
                 (A) (A) (A) (A) (A) (A) (A) (A) (A) (A) (A) (A)
                 (A) (A) (A) (A) (A) (A) (A) (A) (A) (A) (A) (A)
                 (A) (A) (A) (A) (A) (A) (A) (A) (A) (A) (A) (A)
                 (A) (A) (A) (A) (A) (A) (A) (A) (A) (A) (A) (A)
                 (A) (A) (A) (A) (A) (A) (A) (A) (A) (A) (A) (A)
                 (A) (A) (A) (A) (A) (A) (A) (A) (A) (A) (A) (A)
                 (A) (A) (A) (A) (A) (A) (A) (A) (A) (A) (A) (A)
                 (A) (A) (A) (A) (A) (A) (A) (A) (A) (A) (A) (A)
                 (A) (A) (A) (A) (A) (A) (A) (A) (A) (A) (A) (A)
                 (A) (A) (A) (A) (A) (A) (A) (A) (A) (A) (A) (A)
                 (A) (A) (A) (A) (A) (A) (A) (A) (A) (A) (A) (A)
                 (A) (A) (A) (A) (A) (A) (A) (A) (A) (A) (A) (A)
                 (A) (A) (A) (A) (A) (A) (A) (A) (A) (A) (A) (A)
                 (A) (A) (A) (A) (A) (A) (A) (A) (A) (A) (A) (A)
                 (A) (A) (A) (A) (A) (A) (A) (A) (A) (A) (A) (A)
                 (A) (A) (A) (A) (A) (A) (A) (A) (A) (A) (A) (A)
                 (A) (A) (A) (A) (A) (A) (A) (A) (A) (A) (A) (A)
                 (A) (A) (A) (A) (A) (A) (A) (A) (A) (A) (A) (A)
                 (A) (A) (A) (A) (A) (A) (A) (A) (A) (A) (A) (A)
                 (A) (A) (A) (A) (A) (A) (A) (A) (A) (A) (A) (A)
                 (A) (A) (A) (A) (A) (A) (A) (A) (A) (A)
     4 initial guesses have been made.
 Convergence on wavefunction:    0.001000000000000
 Iteration     1 Dimension     4 NMult     0 NNew      4
 CISAX will form     4 AO SS matrices at one time.
 Iteration     2 Dimension     6 NMult     4 NNew      2
 Iteration     3 Dimension     8 NMult     6 NNew      2
 Iteration     4 Dimension    10 NMult     8 NNew      2
 Iteration     5 Dimension    12 NMult    10 NNew      2
 ***********************************************************************
 Excited states from <AA,BB:AA,BB> singles matrix:
 ***********************************************************************
 
 Ground to excited state transition densities written to RWF  633
 Ground to excited state transition electric dipole moments (Au):
       state          X           Y           Z        Dip. S.      Osc.
         1        -7.2980     -0.9959     -0.1055     54.2645      3.0334
 Ground to excited state transition velocity dipole moments (Au):
       state          X           Y           Z        Dip. S.      Osc.
         1         0.5926      0.0810      0.0096      0.3578      2.8445
 Ground to excited state transition magnetic dipole moments (Au):
       state          X           Y           Z
         1        -0.0011      0.2034     -1.2719
 Ground to excited state transition velocity quadrupole moments (Au):
       state          XX          YY          ZZ          XY          XZ          YZ
         1        -0.9383     -0.0350     -0.0013     -0.5658      0.1118      0.0680
 <0|del|b> * <b|rxdel|0> + <0|del|b> * <b|delr+rdel|0>
 Rotatory Strengths (R) in cgs (10**-40 erg-esu-cm/Gauss)
       state          XX          YY          ZZ    R(velocity)    E-M Angle
         1       -42.8946    138.7359    -64.9605     10.2936       89.73
 1/2[<0|r|b>*<b|rxdel|0> + (<0|rxdel|b>*<b|r|0>)*]
 Rotatory Strengths (R) in cgs (10**-40 erg-esu-cm/Gauss)
       state          XX          YY          ZZ     R(length)
         1        -5.5070    143.2634    -94.9095     14.2823
  1/2[<0|del|b>*<b|r|0> + (<0|r|b>*<b|del|0>)*] (Au)
       state          X           Y           Z        Dip. S.   Osc.(frdel)
         1        -4.3245     -0.0806     -0.0010      4.4061      2.9374

 Excitation energies and oscillator strengths:
 
 Excited State   1:      Singlet-A      2.2817 eV  543.38 nm  f=3.0334  <S**2>=0.000
     155 ->158        -0.17339
     156 ->157         0.68279
 This state for optimization and/or second-order correction.
 Total Energy, E(TD-HF/TD-DFT) =  -1706.79579468    
 Copying the excited state density for this state as the 1-particle RhoCI density.
 SavETr:  write IOETrn=   770 NScale= 10 NData=  16 NLR=1 NState=    1 LETran=      28.

 **********************************************************************

            Population analysis using the SCF density.

 **********************************************************************

 Orbital symmetries:
       Occupied  (A) (A) (A) (A) (A) (A) (A) (A) (A) (A) (A) (A)
                 (A) (A) (A) (A) (A) (A) (A) (A) (A) (A) (A) (A)
                 (A) (A) (A) (A) (A) (A) (A) (A) (A) (A) (A) (A)
                 (A) (A) (A) (A) (A) (A) (A) (A) (A) (A) (A) (A)
                 (A) (A) (A) (A) (A) (A) (A) (A) (A) (A) (A) (A)
                 (A) (A) (A) (A) (A) (A) (A) (A) (A) (A) (A) (A)
                 (A) (A) (A) (A) (A) (A) (A) (A) (A) (A) (A) (A)
                 (A) (A) (A) (A) (A) (A) (A) (A) (A) (A) (A) (A)
                 (A) (A) (A) (A) (A) (A) (A) (A) (A) (A) (A) (A)
                 (A) (A) (A) (A) (A) (A) (A) (A) (A) (A) (A) (A)
                 (A) (A) (A) (A) (A) (A) (A) (A) (A) (A) (A) (A)
                 (A) (A) (A) (A) (A) (A) (A) (A) (A) (A) (A) (A)
                 (A) (A) (A) (A) (A) (A) (A) (A) (A) (A) (A) (A)
       Virtual   (A) (A) (A) (A) (A) (A) (A) (A) (A) (A) (A) (A)
                 (A) (A) (A) (A) (A) (A) (A) (A) (A) (A) (A) (A)
                 (A) (A) (A) (A) (A) (A) (A) (A) (A) (A) (A) (A)
                 (A) (A) (A) (A) (A) (A) (A) (A) (A) (A) (A) (A)
                 (A) (A) (A) (A) (A) (A) (A) (A) (A) (A) (A) (A)
                 (A) (A) (A) (A) (A) (A) (A) (A) (A) (A) (A) (A)
                 (A) (A) (A) (A) (A) (A) (A) (A) (A) (A) (A) (A)
                 (A) (A) (A) (A) (A) (A) (A) (A) (A) (A) (A) (A)
                 (A) (A) (A) (A) (A) (A) (A) (A) (A) (A) (A) (A)
                 (A) (A) (A) (A) (A) (A) (A) (A) (A) (A) (A) (A)
                 (A) (A) (A) (A) (A) (A) (A) (A) (A) (A) (A) (A)
                 (A) (A) (A) (A) (A) (A) (A) (A) (A) (A) (A) (A)
                 (A) (A) (A) (A) (A) (A) (A) (A) (A) (A) (A) (A)
                 (A) (A) (A) (A) (A) (A) (A) (A) (A) (A) (A) (A)
                 (A) (A) (A) (A) (A) (A) (A) (A) (A) (A) (A) (A)
                 (A) (A) (A) (A) (A) (A) (A) (A) (A) (A) (A) (A)
                 (A) (A) (A) (A) (A) (A) (A) (A) (A) (A) (A) (A)
                 (A) (A) (A) (A) (A) (A) (A) (A) (A) (A) (A) (A)
                 (A) (A) (A) (A) (A) (A) (A) (A) (A) (A) (A) (A)
                 (A) (A) (A) (A) (A) (A) (A) (A) (A) (A) (A) (A)
                 (A) (A) (A) (A) (A) (A) (A) (A) (A) (A) (A) (A)
                 (A) (A) (A) (A) (A) (A) (A) (A) (A) (A) (A) (A)
                 (A) (A) (A) (A) (A) (A) (A) (A) (A) (A) (A) (A)
                 (A) (A) (A) (A) (A) (A) (A) (A) (A) (A) (A) (A)
                 (A) (A) (A) (A) (A) (A) (A) (A) (A) (A) (A) (A)
                 (A) (A) (A) (A) (A) (A) (A) (A) (A) (A) (A) (A)
                 (A) (A) (A) (A) (A) (A) (A) (A) (A) (A) (A) (A)
                 (A) (A) (A) (A) (A) (A) (A) (A) (A) (A) (A) (A)
                 (A) (A) (A) (A) (A) (A) (A) (A) (A) (A) (A) (A)
                 (A) (A) (A) (A) (A) (A) (A) (A) (A) (A) (A) (A)
                 (A) (A) (A) (A) (A) (A) (A) (A) (A) (A) (A) (A)
                 (A) (A) (A) (A) (A) (A) (A) (A) (A) (A) (A) (A)
                 (A) (A) (A) (A) (A) (A) (A) (A) (A) (A) (A) (A)
                 (A) (A) (A) (A) (A) (A) (A) (A) (A) (A) (A) (A)
                 (A) (A) (A) (A) (A) (A) (A) (A) (A) (A) (A) (A)
                 (A) (A) (A) (A) (A) (A) (A) (A) (A) (A) (A) (A)
                 (A) (A) (A) (A) (A) (A) (A) (A) (A) (A) (A) (A)
                 (A) (A) (A) (A) (A) (A) (A) (A) (A) (A) (A) (A)
                 (A) (A) (A) (A) (A) (A) (A) (A) (A) (A) (A) (A)
                 (A) (A) (A) (A) (A) (A) (A) (A) (A) (A) (A) (A)
                 (A) (A) (A) (A) (A) (A) (A) (A) (A) (A) (A) (A)
                 (A) (A) (A) (A) (A) (A) (A) (A) (A) (A) (A) (A)
                 (A) (A) (A) (A) (A) (A) (A) (A) (A) (A) (A) (A)
                 (A) (A) (A) (A) (A) (A) (A) (A) (A) (A) (A) (A)
                 (A) (A) (A) (A) (A) (A) (A) (A) (A) (A) (A) (A)
                 (A) (A) (A) (A) (A) (A) (A) (A) (A) (A) (A) (A)
                 (A) (A) (A) (A) (A) (A) (A) (A) (A) (A) (A) (A)
                 (A) (A) (A) (A) (A) (A) (A) (A) (A) (A) (A) (A)
                 (A) (A) (A) (A) (A) (A) (A) (A) (A) (A) (A) (A)
                 (A) (A) (A) (A) (A) (A) (A) (A) (A) (A) (A) (A)
                 (A) (A) (A) (A) (A) (A) (A) (A) (A) (A) (A) (A)
                 (A) (A) (A) (A) (A) (A) (A) (A) (A) (A) (A) (A)
                 (A) (A) (A) (A) (A) (A) (A) (A) (A) (A) (A) (A)
                 (A) (A) (A) (A) (A) (A) (A) (A) (A) (A) (A) (A)
                 (A) (A) (A) (A) (A) (A) (A) (A) (A) (A) (A) (A)
                 (A) (A) (A) (A) (A) (A) (A) (A) (A) (A) (A) (A)
                 (A) (A) (A) (A) (A) (A) (A) (A) (A) (A) (A) (A)
                 (A) (A) (A) (A) (A) (A) (A) (A) (A) (A) (A) (A)
                 (A) (A) (A) (A) (A) (A) (A) (A) (A) (A) (A) (A)
                 (A) (A) (A) (A) (A) (A) (A) (A) (A) (A) (A) (A)
                 (A) (A) (A) (A) (A) (A) (A) (A) (A) (A) (A) (A)
                 (A) (A) (A) (A) (A) (A) (A) (A) (A) (A) (A) (A)
                 (A) (A) (A) (A) (A) (A) (A) (A) (A) (A)
 The electronic state is 1-A.
 Alpha  occ. eigenvalues --  -19.21751 -19.20717 -10.31467 -10.29175 -10.29059
 Alpha  occ. eigenvalues --  -10.28355 -10.27900 -10.27885 -10.27745 -10.27589
 Alpha  occ. eigenvalues --  -10.27527 -10.27484 -10.27251 -10.27031 -10.26977
 Alpha  occ. eigenvalues --  -10.26973 -10.26911 -10.26697 -10.26695 -10.26658
 Alpha  occ. eigenvalues --  -10.26610 -10.26598 -10.26502 -10.26404 -10.26282
 Alpha  occ. eigenvalues --  -10.26246 -10.26208 -10.26155 -10.26047 -10.26042
 Alpha  occ. eigenvalues --  -10.25957 -10.25947 -10.25861 -10.25489 -10.25243
 Alpha  occ. eigenvalues --  -10.25004 -10.24928 -10.24923 -10.23864 -10.23787
 Alpha  occ. eigenvalues --  -10.21749 -10.21393  -1.05710  -1.05606  -0.93817
 Alpha  occ. eigenvalues --   -0.93150  -0.92138  -0.91422  -0.90969  -0.89592
 Alpha  occ. eigenvalues --   -0.86935  -0.86630  -0.86491  -0.85586  -0.84347
 Alpha  occ. eigenvalues --   -0.82852  -0.82296  -0.80784  -0.80329  -0.78761
 Alpha  occ. eigenvalues --   -0.77205  -0.77154  -0.76304  -0.76248  -0.75540
 Alpha  occ. eigenvalues --   -0.74786  -0.74595  -0.74084  -0.72663  -0.70225
 Alpha  occ. eigenvalues --   -0.68813  -0.67526  -0.66047  -0.65613  -0.64219
 Alpha  occ. eigenvalues --   -0.62851  -0.62398  -0.61560  -0.60934  -0.59930
 Alpha  occ. eigenvalues --   -0.59455  -0.57971  -0.57502  -0.57317  -0.56276
 Alpha  occ. eigenvalues --   -0.55317  -0.54463  -0.54351  -0.53607  -0.53278
 Alpha  occ. eigenvalues --   -0.52936  -0.52740  -0.52483  -0.51480  -0.51142
 Alpha  occ. eigenvalues --   -0.50589  -0.50216  -0.49781  -0.49582  -0.49268
 Alpha  occ. eigenvalues --   -0.49100  -0.48802  -0.48566  -0.48084  -0.47955
 Alpha  occ. eigenvalues --   -0.47791  -0.47582  -0.46984  -0.46849  -0.46159
 Alpha  occ. eigenvalues --   -0.45942  -0.45803  -0.45460  -0.45172  -0.45000
 Alpha  occ. eigenvalues --   -0.44902  -0.44290  -0.44129  -0.43872  -0.43547
 Alpha  occ. eigenvalues --   -0.43073  -0.42545  -0.42427  -0.42352  -0.42091
 Alpha  occ. eigenvalues --   -0.41499  -0.41279  -0.41051  -0.40872  -0.40285
 Alpha  occ. eigenvalues --   -0.40172  -0.39886  -0.39823  -0.39575  -0.39152
 Alpha  occ. eigenvalues --   -0.39034  -0.38922  -0.38779  -0.38114  -0.37679
 Alpha  occ. eigenvalues --   -0.37569  -0.37414  -0.37073  -0.35867  -0.35081
 Alpha  occ. eigenvalues --   -0.34741  -0.34534  -0.33672  -0.32078  -0.31927
 Alpha  occ. eigenvalues --   -0.31478  -0.29284  -0.28808  -0.26620  -0.23334
 Alpha  occ. eigenvalues --   -0.20078
 Alpha virt. eigenvalues --   -0.05592  -0.01556   0.02062   0.05142   0.06171
 Alpha virt. eigenvalues --    0.08606   0.09285   0.10597   0.11889   0.12126
 Alpha virt. eigenvalues --    0.12231   0.12604   0.12971   0.13388   0.13456
 Alpha virt. eigenvalues --    0.13786   0.14186   0.14553   0.14769   0.15028
 Alpha virt. eigenvalues --    0.15256   0.15443   0.16142   0.16357   0.16481
 Alpha virt. eigenvalues --    0.16739   0.17032   0.17455   0.17704   0.17900
 Alpha virt. eigenvalues --    0.18131   0.18273   0.18677   0.18784   0.19112
 Alpha virt. eigenvalues --    0.19814   0.19933   0.20001   0.20438   0.20919
 Alpha virt. eigenvalues --    0.21099   0.21190   0.21322   0.21625   0.21970
 Alpha virt. eigenvalues --    0.22217   0.22547   0.23035   0.23180   0.23349
 Alpha virt. eigenvalues --    0.23613   0.23937   0.24103   0.24593   0.24706
 Alpha virt. eigenvalues --    0.25009   0.25199   0.25729   0.26368   0.26553
 Alpha virt. eigenvalues --    0.27115   0.27280   0.27458   0.27702   0.28293
 Alpha virt. eigenvalues --    0.28445   0.28538   0.28586   0.28998   0.29331
 Alpha virt. eigenvalues --    0.29666   0.30024   0.30356   0.30446   0.30609
 Alpha virt. eigenvalues --    0.30842   0.31223   0.31738   0.32091   0.32300
 Alpha virt. eigenvalues --    0.32574   0.32999   0.33376   0.33587   0.34002
 Alpha virt. eigenvalues --    0.34400   0.34955   0.35262   0.35639   0.37207
 Alpha virt. eigenvalues --    0.38460   0.38877   0.39833   0.41065   0.41775
 Alpha virt. eigenvalues --    0.41894   0.42963   0.43730   0.44450   0.44782
 Alpha virt. eigenvalues --    0.45353   0.45893   0.46441   0.47890   0.48356
 Alpha virt. eigenvalues --    0.48987   0.50777   0.51792   0.52978   0.54388
 Alpha virt. eigenvalues --    0.54780   0.55221   0.55658   0.56433   0.56684
 Alpha virt. eigenvalues --    0.56855   0.57380   0.57809   0.58040   0.58325
 Alpha virt. eigenvalues --    0.58754   0.58893   0.58989   0.59509   0.59703
 Alpha virt. eigenvalues --    0.60094   0.60367   0.60879   0.60959   0.61150
 Alpha virt. eigenvalues --    0.61531   0.62164   0.62206   0.62340   0.62973
 Alpha virt. eigenvalues --    0.63284   0.63803   0.64217   0.64317   0.64775
 Alpha virt. eigenvalues --    0.65285   0.65541   0.65582   0.65723   0.66351
 Alpha virt. eigenvalues --    0.66528   0.66788   0.67013   0.67385   0.67571
 Alpha virt. eigenvalues --    0.67773   0.68214   0.68349   0.69642   0.69758
 Alpha virt. eigenvalues --    0.69924   0.70512   0.70914   0.70955   0.71235
 Alpha virt. eigenvalues --    0.71714   0.71802   0.72175   0.72366   0.72917
 Alpha virt. eigenvalues --    0.73217   0.73663   0.74031   0.74201   0.74995
 Alpha virt. eigenvalues --    0.75239   0.75979   0.76389   0.76804   0.77119
 Alpha virt. eigenvalues --    0.77629   0.77817   0.78266   0.78390   0.79188
 Alpha virt. eigenvalues --    0.79803   0.79816   0.80338   0.80513   0.80716
 Alpha virt. eigenvalues --    0.80743   0.80877   0.81011   0.81755   0.81951
 Alpha virt. eigenvalues --    0.82566   0.82738   0.83333   0.83445   0.83682
 Alpha virt. eigenvalues --    0.83969   0.84331   0.84620   0.84953   0.85328
 Alpha virt. eigenvalues --    0.85799   0.86292   0.86363   0.86790   0.87491
 Alpha virt. eigenvalues --    0.87699   0.87967   0.88259   0.88599   0.88958
 Alpha virt. eigenvalues --    0.89025   0.89386   0.89541   0.89722   0.90311
 Alpha virt. eigenvalues --    0.90745   0.90781   0.91206   0.91438   0.91716
 Alpha virt. eigenvalues --    0.91861   0.91920   0.92556   0.92783   0.92831
 Alpha virt. eigenvalues --    0.93182   0.93716   0.93986   0.94347   0.94655
 Alpha virt. eigenvalues --    0.94847   0.95150   0.95205   0.95461   0.95681
 Alpha virt. eigenvalues --    0.96108   0.96399   0.96713   0.97174   0.97361
 Alpha virt. eigenvalues --    0.97581   0.97803   0.98427   0.98536   0.99223
 Alpha virt. eigenvalues --    1.00234   1.00463   1.01084   1.01785   1.02025
 Alpha virt. eigenvalues --    1.02122   1.02497   1.03032   1.03271   1.03573
 Alpha virt. eigenvalues --    1.03777   1.04109   1.04565   1.04677   1.05491
 Alpha virt. eigenvalues --    1.05855   1.06026   1.06673   1.07248   1.07582
 Alpha virt. eigenvalues --    1.08124   1.08798   1.09068   1.09600   1.09909
 Alpha virt. eigenvalues --    1.10333   1.11171   1.11257   1.12152   1.12626
 Alpha virt. eigenvalues --    1.12847   1.13248   1.13683   1.13987   1.14179
 Alpha virt. eigenvalues --    1.15213   1.16152   1.16486   1.16932   1.17689
 Alpha virt. eigenvalues --    1.18123   1.18421   1.18945   1.19085   1.19612
 Alpha virt. eigenvalues --    1.20336   1.21356   1.22269   1.22466   1.23223
 Alpha virt. eigenvalues --    1.24122   1.24909   1.25589   1.26263   1.27158
 Alpha virt. eigenvalues --    1.28303   1.28660   1.28988   1.30801   1.32213
 Alpha virt. eigenvalues --    1.33216   1.33364   1.34086   1.35206   1.35396
 Alpha virt. eigenvalues --    1.36042   1.37486   1.37904   1.38655   1.38923
 Alpha virt. eigenvalues --    1.39694   1.40090   1.40829   1.41304   1.41436
 Alpha virt. eigenvalues --    1.42107   1.42938   1.43933   1.44423   1.44562
 Alpha virt. eigenvalues --    1.45288   1.45566   1.46836   1.46996   1.47230
 Alpha virt. eigenvalues --    1.50572   1.51220   1.51959   1.52287   1.53574
 Alpha virt. eigenvalues --    1.53701   1.54142   1.55124   1.55464   1.56521
 Alpha virt. eigenvalues --    1.57558   1.57795   1.58513   1.59179   1.59640
 Alpha virt. eigenvalues --    1.60613   1.61861   1.61987   1.62489   1.64781
 Alpha virt. eigenvalues --    1.65353   1.65418   1.65977   1.66711   1.67183
 Alpha virt. eigenvalues --    1.68784   1.68838   1.68951   1.69989   1.70484
 Alpha virt. eigenvalues --    1.70986   1.71638   1.73379   1.74717   1.74862
 Alpha virt. eigenvalues --    1.76670   1.76981   1.78717   1.79774   1.79891
 Alpha virt. eigenvalues --    1.80337   1.80517   1.81387   1.81845   1.82182
 Alpha virt. eigenvalues --    1.82503   1.82804   1.83209   1.83656   1.84219
 Alpha virt. eigenvalues --    1.85227   1.85401   1.85907   1.86088   1.87030
 Alpha virt. eigenvalues --    1.87385   1.87580   1.88418   1.88653   1.89443
 Alpha virt. eigenvalues --    1.89688   1.90004   1.90370   1.90646   1.91139
 Alpha virt. eigenvalues --    1.91227   1.91641   1.91901   1.92370   1.92574
 Alpha virt. eigenvalues --    1.93397   1.94033   1.94181   1.94210   1.94562
 Alpha virt. eigenvalues --    1.94862   1.95105   1.96025   1.96477   1.96672
 Alpha virt. eigenvalues --    1.96953   1.97059   1.97782   1.97882   1.98261
 Alpha virt. eigenvalues --    1.98748   1.99076   1.99449   1.99845   2.00253
 Alpha virt. eigenvalues --    2.01286   2.01743   2.02422   2.02479   2.03215
 Alpha virt. eigenvalues --    2.03311   2.04203   2.04697   2.05158   2.05216
 Alpha virt. eigenvalues --    2.05664   2.05750   2.06444   2.06593   2.06705
 Alpha virt. eigenvalues --    2.07130   2.08180   2.08456   2.08722   2.09688
 Alpha virt. eigenvalues --    2.10116   2.10270   2.10567   2.11290   2.11616
 Alpha virt. eigenvalues --    2.11848   2.12745   2.13245   2.13425   2.13831
 Alpha virt. eigenvalues --    2.14249   2.14650   2.14874   2.15177   2.15355
 Alpha virt. eigenvalues --    2.15930   2.16155   2.16191   2.16817   2.17099
 Alpha virt. eigenvalues --    2.17876   2.17924   2.18195   2.18518   2.19082
 Alpha virt. eigenvalues --    2.19277   2.19615   2.20418   2.20682   2.21211
 Alpha virt. eigenvalues --    2.21257   2.21997   2.22343   2.22649   2.22878
 Alpha virt. eigenvalues --    2.23323   2.23906   2.24491   2.25481   2.26757
 Alpha virt. eigenvalues --    2.26836   2.27469   2.27910   2.28064   2.28229
 Alpha virt. eigenvalues --    2.28680   2.28847   2.29808   2.30574   2.31551
 Alpha virt. eigenvalues --    2.32257   2.32308   2.32615   2.32995   2.33574
 Alpha virt. eigenvalues --    2.33908   2.34308   2.34746   2.35655   2.36208
 Alpha virt. eigenvalues --    2.36525   2.37494   2.38231   2.38657   2.39126
 Alpha virt. eigenvalues --    2.39464   2.39544   2.40062   2.40357   2.41046
 Alpha virt. eigenvalues --    2.41094   2.41545   2.42222   2.42968   2.43171
 Alpha virt. eigenvalues --    2.43527   2.43693   2.45354   2.45480   2.46914
 Alpha virt. eigenvalues --    2.48015   2.48100   2.48331   2.48384   2.49774
 Alpha virt. eigenvalues --    2.50138   2.50705   2.51529   2.51599   2.51663
 Alpha virt. eigenvalues --    2.52540   2.53007   2.53437   2.53824   2.54343
 Alpha virt. eigenvalues --    2.54677   2.54944   2.55288   2.56168   2.56421
 Alpha virt. eigenvalues --    2.56794   2.57275   2.57358   2.57908   2.58475
 Alpha virt. eigenvalues --    2.58662   2.59140   2.59564   2.59848   2.60256
 Alpha virt. eigenvalues --    2.60660   2.60991   2.61186   2.61549   2.62071
 Alpha virt. eigenvalues --    2.62754   2.63208   2.63228   2.63774   2.64343
 Alpha virt. eigenvalues --    2.64909   2.65068   2.65429   2.65895   2.66143
 Alpha virt. eigenvalues --    2.66809   2.66941   2.67359   2.67484   2.67696
 Alpha virt. eigenvalues --    2.69108   2.69442   2.69651   2.70045   2.70472
 Alpha virt. eigenvalues --    2.70646   2.71191   2.71419   2.72091   2.72491
 Alpha virt. eigenvalues --    2.72914   2.73669   2.73850   2.74187   2.75329
 Alpha virt. eigenvalues --    2.75968   2.76501   2.76809   2.77312   2.77638
 Alpha virt. eigenvalues --    2.78235   2.78830   2.78954   2.79557   2.80196
 Alpha virt. eigenvalues --    2.80385   2.80705   2.81929   2.82548   2.83160
 Alpha virt. eigenvalues --    2.83446   2.83780   2.84516   2.84870   2.85331
 Alpha virt. eigenvalues --    2.86677   2.87182   2.87579   2.88531   2.89482
 Alpha virt. eigenvalues --    2.89506   2.90084   2.90261   2.91171   2.92213
 Alpha virt. eigenvalues --    2.92541   2.93286   2.93961   2.94777   2.95340
 Alpha virt. eigenvalues --    2.96011   2.96207   2.97013   2.97351   2.97534
 Alpha virt. eigenvalues --    2.97983   2.98302   2.98931   2.99512   3.00719
 Alpha virt. eigenvalues --    3.01391   3.01787   3.02540   3.03386   3.03755
 Alpha virt. eigenvalues --    3.04265   3.04813   3.05368   3.05732   3.06629
 Alpha virt. eigenvalues --    3.07051   3.07809   3.08134   3.08918   3.09204
 Alpha virt. eigenvalues --    3.10501   3.11188   3.14443   3.14744   3.15424
 Alpha virt. eigenvalues --    3.17363   3.17491   3.18087   3.18968   3.19855
 Alpha virt. eigenvalues --    3.20867   3.21188   3.21929   3.23006   3.24602
 Alpha virt. eigenvalues --    3.24868   3.28616   3.29439   3.29615   3.30217
 Alpha virt. eigenvalues --    3.31537   3.32867   3.33912   3.34278   3.35824
 Alpha virt. eigenvalues --    3.37487   3.38480   3.39337   3.39849   3.41863
 Alpha virt. eigenvalues --    3.42572   3.43439   3.43497   3.44494   3.44737
 Alpha virt. eigenvalues --    3.45159   3.46745   3.47081   3.47510   3.47606
 Alpha virt. eigenvalues --    3.50852   3.51762   3.52639   3.53078   3.54488
 Alpha virt. eigenvalues --    3.54568   3.54990   3.58572   3.58906   3.60839
 Alpha virt. eigenvalues --    3.61925   3.62195   3.62800   3.64642   3.64846
 Alpha virt. eigenvalues --    3.66800   3.67396   3.68976   3.71233   3.73043
 Alpha virt. eigenvalues --    3.73625   3.74013   3.75356   3.89800   3.92643
 Alpha virt. eigenvalues --    3.98455   4.01817   4.03564   4.07127   4.18229
 Alpha virt. eigenvalues --    4.18492   4.19606   4.21443   4.22023   4.26555
 Alpha virt. eigenvalues --    4.28541   4.29221   4.30986   4.31591   4.35920
 Alpha virt. eigenvalues --    4.37696   4.39563   4.40570   4.42478   4.45283
 Alpha virt. eigenvalues --    4.46601   4.47770   4.49421   4.52844   4.54515
 Alpha virt. eigenvalues --    4.55628   4.56876   4.59233   4.61594   4.62866
 Alpha virt. eigenvalues --    4.63913   4.68016   4.68290   4.70080   4.71882
 Alpha virt. eigenvalues --    4.73759   4.75394   4.78753   4.79559   4.81651
 Alpha virt. eigenvalues --    4.82705   4.85193   4.89940   4.92954
          Condensed to atoms (all electrons):
 Mulliken charges:
               1
     1  O   -0.566830
     2  O   -0.570104
     3  C   -0.000954
     4  C   -0.152178
     5  C   -0.185849
     6  C    0.149339
     7  C    0.118295
     8  C   -0.069156
     9  C   -0.274591
    10  C   -0.239603
    11  C   -0.174958
    12  C   -0.159494
    13  C    0.152550
    14  C    0.130081
    15  C   -0.106747
    16  C   -0.246742
    17  C    0.005212
    18  C   -0.291406
    19  C   -0.286188
    20  C   -0.367268
    21  C   -0.061883
    22  C   -0.110291
    23  C   -0.325946
    24  C    0.085341
    25  C   -0.121102
    26  C   -0.359035
    27  C    0.092647
    28  C   -0.141596
    29  C   -0.359459
    30  C   -0.132649
    31  C   -0.058058
    32  C   -0.070627
    33  C   -0.131943
    34  C    0.089484
    35  C   -0.116124
    36  C    0.098470
    37  C   -0.345184
    38  C   -0.106205
    39  C   -0.106009
    40  C   -0.368412
    41  C   -0.060673
    42  C   -0.127376
    43  H    0.097135
    44  H    0.096372
    45  H    0.096293
    46  H    0.087514
    47  H    0.102630
    48  H    0.073627
    49  H    0.092851
    50  H    0.111977
    51  H    0.100563
    52  H    0.074028
    53  H    0.112475
    54  H    0.048992
    55  H    0.078269
    56  H    0.098701
    57  H    0.095209
    58  H    0.102150
    59  H    0.124332
    60  H    0.094341
    61  H    0.095791
    62  H    0.104170
    63  H    0.107945
    64  H    0.083975
    65  H    0.106219
    66  H    0.126759
    67  H    0.129185
    68  H    0.090866
    69  H    0.301455
    70  H    0.094789
    71  H    0.081508
    72  H    0.137488
    73  H    0.116779
    74  H    0.095728
    75  H    0.294497
    76  H    0.077925
    77  H    0.117976
    78  H    0.127650
    79  H    0.114680
    80  H    0.071249
    81  H    0.109529
    82  H    0.115456
    83  H    0.094659
    84  H    0.062937
    85  H    0.086012
    86  H    0.072281
    87  H    0.076693
    88  H    0.082167
    89  H    0.113101
    90  H    0.095000
    91  H    0.113239
    92  H    0.064092
    93  H    0.087556
    94  H    0.120340
    95  H    0.085543
    96  H    0.134367
    97  H    0.096601
    98  H    0.099554
 Sum of Mulliken charges =  -0.00000
 Mulliken charges with hydrogens summed into heavy atoms:
               1
     1  O   -0.265375
     2  O   -0.275608
     3  C   -0.000954
     4  C   -0.055043
     5  C    0.006816
     6  C    0.236852
     7  C    0.118295
     8  C   -0.069156
     9  C   -0.005482
    10  C    0.046966
    11  C   -0.013491
    12  C   -0.081224
    13  C    0.251251
    14  C    0.130081
    15  C   -0.011538
    16  C   -0.020261
    17  C    0.005212
    18  C    0.002896
    19  C    0.011951
    20  C   -0.020458
    21  C    0.019626
    22  C   -0.015502
    23  C    0.024050
    24  C    0.085341
    25  C   -0.043177
    26  C    0.001270
    27  C    0.092647
    28  C   -0.070347
    29  C   -0.039816
    30  C   -0.069712
    31  C    0.027954
    32  C    0.001653
    33  C   -0.055251
    34  C    0.089484
    35  C   -0.033957
    36  C    0.098470
    37  C   -0.023844
    38  C   -0.042113
    39  C   -0.018453
    40  C   -0.028162
    41  C    0.035928
    42  C   -0.027822
 Electronic spatial extent (au):  <R**2>=         104854.7160
 Charge=             -0.0000 electrons
 Dipole moment (field-independent basis, Debye):
    X=              0.7782    Y=             -0.6497    Z=              0.8566  Tot=              1.3272
 Quadrupole moment (field-independent basis, Debye-Ang):
   XX=           -305.6876   YY=           -241.2905   ZZ=           -262.7662
   XY=             -9.1661   XZ=             43.8339   YZ=              0.1110
 Traceless Quadrupole moment (field-independent basis, Debye-Ang):
   XX=            -35.7729   YY=             28.6243   ZZ=              7.1486
   XY=             -9.1661   XZ=             43.8339   YZ=              0.1110
 Octapole moment (field-independent basis, Debye-Ang**2):
  XXX=            -17.5437  YYY=              6.9056  ZZZ=              7.2831  XYY=              3.7238
  XXY=            -89.0559  XXZ=             62.9899  XZZ=              9.4441  YZZ=             -5.7162
  YYZ=             14.3333  XYZ=             20.4401
 Hexadecapole moment (field-independent basis, Debye-Ang**3):
 XXXX=        -153606.0556 YYYY=          -4178.3462 ZZZZ=          -2066.0735 XXXY=          -2283.7379
 XXXZ=           9466.5589 YYYX=           -179.3390 YYYZ=             24.5818 ZZZX=             -9.6619
 ZZZY=             17.0357 XXYY=         -22458.6593 XXZZ=         -22812.2053 YYZZ=          -1057.8590
 XXYZ=           -898.5683 YYXZ=            236.2968 ZZXY=           -198.8548
 N-N= 4.011598876873D+03 E-N=-1.197824053816D+04  KE= 1.690123577235D+03
 1\1\GINC-PADAWAN\SP\RCAM-B3LYP TD-FC\6-31G(d,p)\C40H56O2\PADAWAN\13-Ju
 l-2019\0\\# td=(NStates=1) CAM-B3LYP/6-31G(d,p)\\TD\\0,1\O,0,-14.24821
 06963,-1.843742756,0.2363638917\O,0,14.8789697338,0.9464822348,-0.2998
 79392\C,0,-11.8428771473,0.0358996649,1.1656913891\C,0,-11.0356405266,
 0.4346662376,-0.1689631835\C,0,-12.0742629069,-1.4627107555,1.31161900
 32\C,0,-12.7847918727,-2.1700380686,0.1389080417\C,0,-11.559601249,-0.
 4467221505,-1.3192474146\C,0,11.2172550561,0.9743090734,0.8786081405\C
 ,0,-11.0856700402,0.4842201608,2.4382108718\C,0,-13.1408502474,0.90701
 63485,1.0565267295\C,0,12.6204292234,1.551764603,0.5345908453\C,0,-12.
 2912101069,-1.6099988677,-1.20351312\C,0,13.5794495659,0.3931769903,0.
 1457318921\C,0,10.676447119,-0.089418352,-0.049971412\C,0,-9.526781442
 ,-0.0375566039,-0.0434443368\C,0,12.9867366513,-0.2945666761,-1.092284
 8148\C,0,11.4689799868,-0.5508901343,-1.0165167105\C,0,10.2262595116,2
 .2392832403,1.0746301764\C,0,11.2287437069,0.4120503804,2.3704876101\C
 ,0,-11.2131958171,0.2131729588,-2.6151737756\C,0,-8.5433504353,0.82618
 76012,-0.1395575783\C,0,9.3271676461,-0.3575335292,0.115081592\C,0,11.
 0855885044,-1.389851952,-2.2420238071\C,0,-7.2049818211,0.4628135232,-
 0.1362257119\C,0,8.8437608325,-1.6020700045,-0.0711722582\C,0,-6.78696
 01175,-0.9642351804,0.0968525739\C,0,7.5023987274,-2.1430971817,0.1078
 497227\C,0,-6.2615959356,1.5070442789,-0.1026521218\C,0,7.1710402982,-
 3.6144751697,0.274427661\C,0,6.4206893379,-1.2688171704,0.1077484324\C
 ,0,-4.7989038641,1.3870022394,-0.2281437278\C,0,5.0395648024,-1.548102
 6532,0.1215443742\C,0,-4.0043518076,2.4964526715,-0.4170228913\C,0,-2.
 5747079089,2.5904069983,-0.4770804558\C,0,4.0401979853,-0.6139419003,-
 0.1537548919\C,0,2.5874557942,-0.8444389154,0.1886039078\C,0,-1.979246
 4748,3.9438889715,-0.7993590833\C,0,-1.7394110266,1.5477875232,-0.3384
 098574\C,0,1.7710156466,0.2219737589,-0.1358921511\C,0,2.1404373648,-2
 .1745702443,0.3477171396\C,0,-0.3619684557,1.5413654578,-0.3180851683\
 C,0,0.2876235932,0.2791495828,-0.0476080216\H,0,-11.0053972812,1.53930
 57159,-0.4332651717\H,0,-12.5411975929,-1.9748274964,2.3019680915\H,0,
 -11.068264496,-1.9276119562,1.40547383\H,0,-12.7682804616,-3.271766283
 9,0.0645913212\H,0,-10.2499603973,-0.2154998744,2.4494935733\H,0,-10.5
 801481814,1.6169847755,2.3013448564\H,0,-11.8238399763,0.3047938984,3.
 3399681746\H,0,-13.6435155534,0.5895249548,0.1929857689\H,0,-13.628348
 6055,0.6822298304,1.8504090429\H,0,-12.5594046259,1.8578494067,0.85870
 63539\H,0,12.6240597727,2.1751724667,-0.3623583926\H,0,13.3079452216,2
 .0092849674,1.4136189631\H,0,-12.6384573243,-2.1219589924,-2.083952586
 \H,0,13.7073603208,-0.2357633221,0.9263029662\H,0,-9.3441067764,-1.180
 0028593,-0.1448669267\H,0,13.8775528994,-1.0688799273,-1.4236275188\H,
 0,13.1074471622,0.325741152,-2.018551779\H,0,9.3420208997,1.7681068625
 ,1.3455998074\H,0,9.9370655682,2.7439970021,0.2029772132\H,0,10.445588
 2321,2.9398989616,1.6334594969\H,0,11.638706712,-0.4937466233,2.409957
 4171\H,0,10.0712020908,0.3893763966,2.6885719853\H,0,11.6731782169,1.1
 295007469,2.9836733103\H,0,-10.1624887469,0.1170016109,-2.8977271684\H
 ,0,-11.5980088572,1.1612121197,-2.7787349388\H,0,-11.6280406492,-0.477
 596511,-3.4159793555\H,0,-14.6886021335,-2.0095099036,-0.6782560294\H,
 0,8.5554846165,0.5409343186,0.4592685731\H,0,-8.7284080097,1.839255578
 4,-0.4421795384\H,0,11.1310088354,-2.2684883448,-1.9047633278\H,0,10.0
 541282792,-1.171733275,-2.5641323472\H,0,11.9221915129,-1.1244855387,-
 2.9803039785\H,0,15.176166797,1.5263807379,0.5789158605\H,0,9.58045782
 21,-2.4643395157,-0.1204184843\H,0,-5.7940338644,-1.060323183,-0.11195
 37986\H,0,-6.9335622543,-1.060598033,1.2320254549\H,0,-7.3522314583,-1
 .6486333115,-0.536191834\H,0,-6.6389361801,2.4898377789,-0.2704602477\
 H,0,6.5183953885,-3.8647598986,1.3023699327\H,0,6.6749248377,-4.042239
 4117,-0.7468542766\H,0,8.1413540328,-4.2864048251,0.3347904463\H,0,6.5
 678152084,-0.1749947389,-0.3534174636\H,0,-4.4001122428,0.4984195072,0
 .122216164\H,0,4.7512487284,-2.3257918322,0.6949218314\H,0,-4.57911395
 71,3.4077287547,-0.6873583913\H,0,4.482318308,0.4224095799,-0.38457767
 52\H,0,-1.4909788561,3.9754089876,-1.8506533372\H,0,-1.1699098294,4.25
 29924565,0.0683648767\H,0,-2.5723067188,4.6426666822,-0.8223805318\H,0
 ,-2.071426023,0.4284394694,0.042549525\H,0,2.2274417863,1.1050644956,-
 0.4954265578\H,0,2.7355120789,-2.600936496,1.1346618447\H,0,0.94537960
 93,-2.2112404151,0.5494436593\H,0,2.2015629057,-2.9459423814,-0.451049
 3479\H,0,0.1114070256,2.4797678165,-0.5020671982\H,0,-0.269579854,-0.7
 1750192,-0.1156022152\\Version=ES64L-G16RevA.03\State=1-A\HF=-1706.879
 6461\RMSD=3.804e-09\PG=C01 [X(C40H56O2)]\\@


      SCIENCE SANS CONSCIENCE N'EST QUE RUINE DE L'AME.

                                                  -- RABELAIS
 Job cpu time:       0 days  2 hours  5 minutes 56.9 seconds.
 Elapsed time:       0 days  1 hours 24 minutes 11.9 seconds.
 File lengths (MBytes):  RWF=   3127 Int=      0 D2E=      0 Chk=     84 Scr=      1
 Normal termination of Gaussian 16 at Sat Jul 13 12:02:08 2019.
