 Entering Gaussian System, Link 0=g16
 Input=Geometria-380-.com
 Output=Geometria-380-.log
 Initial command:
 /usr/local/g16/l1.exe "/home/padawan/israel-mol/lutein/spectra/emi/Gau-28435.inp" -scrdir="/home/padawan/israel-mol/lutein/spectra/emi/"
 Entering Link 1 = /usr/local/g16/l1.exe PID=     28437.
  
 Copyright (c) 1988,1990,1992,1993,1995,1998,2003,2009,2016,
            Gaussian, Inc.  All Rights Reserved.
  
 This is part of the Gaussian(R) 16 program.  It is based on
 the Gaussian(R) 09 system (copyright 2009, Gaussian, Inc.),
 the Gaussian(R) 03 system (copyright 2003, Gaussian, Inc.),
 the Gaussian(R) 98 system (copyright 1998, Gaussian, Inc.),
 the Gaussian(R) 94 system (copyright 1995, Gaussian, Inc.),
 the Gaussian 92(TM) system (copyright 1992, Gaussian, Inc.),
 the Gaussian 90(TM) system (copyright 1990, Gaussian, Inc.),
 the Gaussian 88(TM) system (copyright 1988, Gaussian, Inc.),
 the Gaussian 86(TM) system (copyright 1986, Carnegie Mellon
 University), and the Gaussian 82(TM) system (copyright 1983,
 Carnegie Mellon University). Gaussian is a federally registered
 trademark of Gaussian, Inc.
  
 This software contains proprietary and confidential information,
 including trade secrets, belonging to Gaussian, Inc.
  
 This software is provided under written license and may be
 used, copied, transmitted, or stored only in accord with that
 written license.
  
 The following legend is applicable only to US Government
 contracts under FAR:
  
                    RESTRICTED RIGHTS LEGEND
  
 Use, reproduction and disclosure by the US Government is
 subject to restrictions as set forth in subparagraphs (a)
 and (c) of the Commercial Computer Software - Restricted
 Rights clause in FAR 52.227-19.
  
 Gaussian, Inc.
 340 Quinnipiac St., Bldg. 40, Wallingford CT 06492
  
  
 ---------------------------------------------------------------
 Warning -- This program may not be used in any manner that
 competes with the business of Gaussian, Inc. or will provide
 assistance to any competitor of Gaussian, Inc.  The licensee
 of this program is prohibited from giving any competitor of
 Gaussian, Inc. access to this program.  By using this program,
 the user acknowledges that Gaussian, Inc. is engaged in the
 business of creating and licensing software in the field of
 computational chemistry and represents and warrants to the
 licensee that it is not a competitor of Gaussian, Inc. and that
 it will not use this program in any manner prohibited above.
 ---------------------------------------------------------------
  

 Cite this work as:
 Gaussian 16, Revision A.03,
 M. J. Frisch, G. W. Trucks, H. B. Schlegel, G. E. Scuseria, 
 M. A. Robb, J. R. Cheeseman, G. Scalmani, V. Barone, 
 G. A. Petersson, H. Nakatsuji, X. Li, M. Caricato, A. V. Marenich, 
 J. Bloino, B. G. Janesko, R. Gomperts, B. Mennucci, H. P. Hratchian, 
 J. V. Ortiz, A. F. Izmaylov, J. L. Sonnenberg, D. Williams-Young, 
 F. Ding, F. Lipparini, F. Egidi, J. Goings, B. Peng, A. Petrone, 
 T. Henderson, D. Ranasinghe, V. G. Zakrzewski, J. Gao, N. Rega, 
 G. Zheng, W. Liang, M. Hada, M. Ehara, K. Toyota, R. Fukuda, 
 J. Hasegawa, M. Ishida, T. Nakajima, Y. Honda, O. Kitao, H. Nakai, 
 T. Vreven, K. Throssell, J. A. Montgomery, Jr., J. E. Peralta, 
 F. Ogliaro, M. J. Bearpark, J. J. Heyd, E. N. Brothers, K. N. Kudin, 
 V. N. Staroverov, T. A. Keith, R. Kobayashi, J. Normand, 
 K. Raghavachari, A. P. Rendell, J. C. Burant, S. S. Iyengar, 
 J. Tomasi, M. Cossi, J. M. Millam, M. Klene, C. Adamo, R. Cammi, 
 J. W. Ochterski, R. L. Martin, K. Morokuma, O. Farkas, 
 J. B. Foresman, and D. J. Fox, Gaussian, Inc., Wallingford CT, 2016.
 
 ******************************************
 Gaussian 16:  ES64L-G16RevA.03 25-Dec-2016
                15-Jul-2019 
 ******************************************
 %nproc=4
 Will use up to    4 processors via shared memory.
 %Mem=4GB
 -------------------------------------
 # td=(NStates=1) CAM-B3LYP/6-31G(d,p)
 -------------------------------------
 1/38=1,172=1/1;
 2/12=2,17=6,18=5,40=1/2;
 3/5=1,6=6,7=101,11=9,25=1,30=1,74=-40/1,2,3,8;
 4//1;
 5/5=2,38=5/2;
 8/6=1,10=2,108=1/1;
 9/41=1,42=1,70=2/14;
 6/7=2,8=2,9=2,10=2/1;
 99/5=1,9=1/99;
 --
 TD
 --
 Symbolic Z-matrix:
 Charge =  0 Multiplicity = 1
 8                    -14.09773  -1.93633   0.24404 
 8                     14.77437   0.94352   0.27495 
 6                    -11.83316   0.16724   1.22961 
 6                    -11.03792   0.35597  -0.04759 
 6                    -12.09662  -1.3908    1.46732 
 6                    -12.66006  -2.08105   0.18116 
 6                    -11.56893  -0.3581   -1.30472 
 6                     11.01486   1.05487   1.09607 
 6                    -11.12175   0.78877   2.35783 
 6                    -13.29778   0.86233   1.20597 
 6                     12.36836   1.53069   0.75243 
 6                    -12.25444  -1.53552  -1.10113 
 6                     13.50563   0.45447   0.33939 
 6                     10.71079   0.01397   0.00561 
 6                    -9.57292   0.04598   0.18969 
 6                     13.06194  -0.17647  -0.97302 
 6                     11.51828  -0.48897  -0.88975 
 6                     10.19746   2.26957   1.06999 
 6                     10.87367   0.31182   2.49247 
 6                    -11.08215   0.1588   -2.53528 
 6                    -8.46458   0.77339  -0.01172 
 6                     9.25789  -0.41565  -0.09876 
 6                     11.11513  -1.47538  -2.02437 
 6                    -7.0827    0.47107   0.11766 
 6                     8.8383   -1.67361  -0.29097 
 6                    -6.69132  -0.99849   0.48472 
 6                     7.47025  -2.1032   -0.17232 
 6                    -6.1059    1.4172   -0.21857 
 6                     7.18367  -3.60146   0.09135 
 6                     6.40513  -1.217    -0.31266 
 6                    -4.73637   1.33107  -0.25375 
 6                     5.0526   -1.51535  -0.23635 
 6                    -4.03943   2.41386  -0.54954 
 6                    -2.61253   2.54603  -0.65607 
 6                     4.09941  -0.5998   -0.29687 
 6                     2.73155  -0.84481  -0.21593 
 6                    -1.86923   3.88801  -0.87021 
 6                    -1.78452   1.42463  -0.37668 
 6                     1.77609   0.25071  -0.50348 
 6                     2.18911  -2.22959   0.18007 
 6                    -0.43914   1.35834  -0.57197 
 6                     0.36433   0.20351  -0.43813 
 1                    -11.16617   1.58785  -0.3709 
 1                    -12.68068  -1.4893    2.35672 
 1                    -11.20289  -1.91584   1.7314 
 1                    -12.57465  -3.26435   0.31602 
 1                    -10.20622   0.3305    2.51641 
 1                    -10.75752   1.83208   2.20663 
 1                    -11.67485   0.9092    3.36148 
 1                    -13.93209   0.17003   0.40178 
 1                    -13.90445   0.85358   2.12813 
 1                    -13.02519   2.04352   0.88486 
 1                     12.31991   2.42971  -0.02165 
 1                     12.82871   2.08251   1.68355 
 1                    -12.50353  -2.17597  -1.8915 
 1                     13.38877  -0.38461   1.0034 
 1                    -9.4341   -1.03643   0.6917 
 1                     13.49892  -1.14656  -1.18397 
 1                     13.37105   0.43667  -1.72061 
 1                     9.08395   2.14631   1.25979 
 1                     10.22903   2.83702   0.09952 
 1                     10.36932   3.05218   1.63857 
 1                     11.49552  -0.47338   2.54606 
 1                     9.8585    0.12225   2.677 
 1                     11.2381   0.9448    3.36486 
 1                    -10.00309   0.17112  -2.84576 
 1                    -11.46579   1.18305  -2.77546 
 1                    -11.62415  -0.44784  -3.44706 
 1                    -14.53074  -2.57067  -0.41065 
 1                     8.5144    0.43971   0.01783 
 1                    -8.85062   1.80117  -0.59683 
 1                     11.30111  -2.48269  -1.54073 
 1                     10.16454  -1.32686  -2.26616 
 1                     11.67858  -1.33651  -2.97949 
 1                     15.1053   1.24833   1.06549 
 1                     9.57166  -2.27762  -0.20154 
 1                    -5.768    -1.30389   0.67152 
 1                    -7.27926  -1.28133   1.26677 
 1                    -6.86395  -1.90023  -0.27566 
 1                    -6.44812   2.46785  -0.37612 
 1                     6.78256  -4.02821   1.11741 
 1                     6.57272  -4.10981  -0.58505 
 1                     8.16186  -4.14679   0.05216 
 1                     6.76961  -0.3329   -0.64425 
 1                    -4.32829   0.32033   0.05168 
 1                     4.79642  -2.51584   0.16001 
 1                    -4.5307    3.38371  -0.72502 
 1                     4.42246   0.48532  -0.58465 
 1                    -1.4151    3.89132  -1.95369 
 1                    -0.94221   4.00006  -0.17867 
 1                    -2.64745   4.65015  -0.92422 
 1                    -2.24158   0.249    -0.18334 
 1                     2.21976   1.21268  -0.55455 
 1                     2.72014  -2.51353   1.23736 
 1                     1.06908  -2.18475   0.49673 
 1                     2.22596  -2.81345  -0.67499 
 1                     0.10969   2.2122   -0.79686 
 1                    -0.21754  -0.76414  -0.10834 
 
 Stoichiometry    C40H56O2
 Framework group  C1[X(C40H56O2)]
 Deg. of freedom   288
 Full point group                 C1      NOp   1
 Largest Abelian subgroup         C1      NOp   1
 Largest concise Abelian subgroup C1      NOp   1
                         Standard orientation:                         
 ---------------------------------------------------------------------
 Center     Atomic      Atomic             Coordinates (Angstroms)
 Number     Number       Type             X           Y           Z
 ---------------------------------------------------------------------
      1          8           0      -14.094866   -1.926805    0.338389
      2          8           0       14.775448    0.969292    0.238316
      3          6           0      -11.832966    0.233273    1.200078
      4          6           0      -11.035998    0.346120   -0.084974
      5          6           0      -12.095848   -1.308024    1.529814
      6          6           0      -12.657025   -2.074040    0.286262
      7          6           0      -11.564770   -0.441928   -1.298076
      8          6           0       11.014695    1.126811    1.046055
      9          6           0      -11.123562    0.921384    2.290276
     10          6           0      -13.297961    0.924729    1.133017
     11          6           0       12.368408    1.582236    0.676589
     12          6           0      -12.249872   -1.605591   -1.025681
     13          6           0       13.506908    0.484092    0.329992
     14          6           0       10.712812    0.022602    0.019115
     15          6           0       -9.571154    0.051808    0.172412
     16          6           0       13.065490   -0.224214   -0.943130
     17          6           0       11.521897   -0.532241   -0.843566
     18          6           0       10.196608    2.337246    0.946512
     19          6           0       10.871920    0.468170    2.484038
     20          6           0      -11.076518    0.001081   -2.556556
     21          6           0       -8.462961    0.766678   -0.070416
     22          6           0        9.260319   -0.413456   -0.061526
     23          6           0       11.120966   -1.584756   -1.917975
     24          6           0       -7.081088    0.473539    0.078692
     25          6           0        8.841750   -1.680913   -0.179053
     26          6           0       -6.689371   -0.971284    0.533193
     27          6           0        7.473780   -2.103603   -0.036942
     28          6           0       -6.104363    1.398611   -0.311929
     29          6           0        7.187710   -3.583690    0.315104
     30          6           0        6.408342   -1.228056   -0.231328
     31          6           0       -4.734730    1.311466   -0.339981
     32          6           0        5.055878   -1.522242   -0.139282
     33          6           0       -4.038001    2.375192   -0.698767
     34          6           0       -2.611034    2.501744   -0.810975
     35          6           0        4.102244   -0.612568   -0.255573
     36          6           0        2.734409   -0.853245   -0.162104
     37          6           0       -1.868212    3.829088   -1.103627
     38          6           0       -1.782760    1.399530   -0.464120
     39          6           0        1.778715    0.222550   -0.515749
     40          6           0        2.192218   -2.212340    0.314917
     41          6           0       -0.437061    1.322636   -0.653217
     42          6           0        0.366895    0.178378   -0.449689
     43          1           0      -11.164511    1.556468   -0.481271
     44          1           0      -12.681140   -1.353759    2.422678
     45          1           0      -11.202193   -1.815794    1.825951
     46          1           0      -12.571112   -3.247144    0.491485
     47          1           0      -10.207984    0.473998    2.477159
     48          1           0      -10.759723    1.954076    2.077700
     49          1           0      -11.678174    1.101016    3.284188
     50          1           0      -13.930707    0.185326    0.370598
     51          1           0      -13.905958    0.970511    2.053202
     52          1           0      -13.025610    2.084874    0.742496
     53          1           0       12.320541    2.433511   -0.149745
     54          1           0       12.827080    2.188852    1.573824
     55          1           0      -12.497448   -2.292156   -1.776846
     56          1           0       13.389581   -0.314024    1.042640
     57          1           0       -9.432420   -0.998682    0.738201
     58          1           0       13.503338   -1.204844   -1.095303
     59          1           0       13.375317    0.343521   -1.725480
     60          1           0        9.082897    2.224767    1.141752
     61          1           0       10.229253    2.845900   -0.055995
     62          1           0       10.367188    3.152456    1.467704
     63          1           0       11.494160   -0.312028    2.585184
     64          1           0        9.856600    0.289242    2.678106
     65          1           0       11.234722    1.152241    3.317686
     66          1           0       -9.997018   -0.004387   -2.865705
     67          1           0      -11.460409    1.008952   -2.857872
     68          1           0      -11.616839   -0.659163   -3.431348
     69          1           0      -14.526555   -2.599305   -0.277964
     70          1           0        8.516156    0.446831    0.002861
     71          1           0       -8.848760    1.757518   -0.716244
     72          1           0       11.306837   -2.561340   -1.374923
     73          1           0       10.170637   -1.451544   -2.169521
     74          1           0       11.685709   -1.502643   -2.878880
     75          1           0       15.105055    1.320877    1.009766
     76          1           0        9.575334   -2.278031   -0.052762
     77          1           0       -5.766143   -1.264389    0.739157
     78          1           0       -7.278270   -1.207435    1.329873
     79          1           0       -6.860372   -1.916834   -0.172359
     80          1           0       -6.446973    2.437779   -0.532265
     81          1           0        6.785371   -3.948825    1.364199
     82          1           0        6.578042   -4.131835   -0.330670
     83          1           0        8.166273   -4.129722    0.309848
     84          1           0        6.772776   -0.365030   -0.614474
     85          1           0       -4.326492    0.320995    0.025685
     86          1           0        4.799724   -2.497519    0.315612
     87          1           0       -4.529594    3.332526   -0.932405
     88          1           0        4.425066    0.453697   -0.607025
     89          1           0       -1.412525    3.768154   -2.184747
     90          1           0       -0.942260    3.982753   -0.418689
     91          1           0       -2.646812    4.586124   -1.204041
     92          1           0       -2.239411    0.237202   -0.201734
     93          1           0        2.221894    1.180068   -0.623412
     94          1           0        2.721886   -2.432437    1.387991
     95          1           0        1.071705   -2.149476    0.626765
     96          1           0        2.230642   -2.846076   -0.503794
     97          1           0        0.111582    2.161959   -0.927796
     98          1           0       -0.214885   -0.768300   -0.063666
 ---------------------------------------------------------------------
 Rotational constants (GHZ):           0.2525831           0.0099048           0.0097509
 Standard basis: 6-31G(d,p) (6D, 7F)
 There are   910 symmetry adapted cartesian basis functions of A   symmetry.
 There are   910 symmetry adapted basis functions of A   symmetry.
   910 basis functions,  1568 primitive gaussians,   910 cartesian basis functions
   156 alpha electrons      156 beta electrons
       nuclear repulsion energy      4021.3299560934 Hartrees.
 NAtoms=   98 NActive=   98 NUniq=   98 SFac= 1.00D+00 NAtFMM=   60 NAOKFM=T Big=T
 Integral buffers will be    131072 words long.
 Raffenetti 1 integral format.
 Two-electron integral symmetry is turned on.
 One-electron integrals computed using PRISM.
 NBasis=   910 RedAO= T EigKep=  8.54D-04  NBF=   910
 NBsUse=   910 1.00D-06 EigRej= -1.00D+00 NBFU=   910
 ExpMin= 1.61D-01 ExpMax= 5.48D+03 ExpMxC= 8.25D+02 IAcc=3 IRadAn=         5 AccDes= 0.00D+00
 Harris functional with IExCor=20419 and IRadAn=       5 diagonalized for initial guess.
 HarFok:  IExCor=20419 AccDes= 0.00D+00 IRadAn=         5 IDoV= 1 UseB2=F ITyADJ=14
 ICtDFT=  3500011 ScaDFX=  1.000000  1.000000  1.000000  1.000000
 FoFCou: FMM=F IPFlag=           0 FMFlag=      100000 FMFlg1=        2001
         NFxFlg=           0 DoJE=T BraDBF=F KetDBF=T FulRan=T
         wScrn=  0.000000 ICntrl=       500 IOpCl=  0 I1Cent=   200000004 NGrid=           0
         NMat0=    1 NMatS0=      1 NMatT0=    0 NMatD0=    1 NMtDS0=    0 NMtDT0=    0
 Petite list used in FoFCou.
 Requested convergence on RMS density matrix=1.00D-08 within 128 cycles.
 Requested convergence on MAX density matrix=1.00D-06.
 Requested convergence on             energy=1.00D-06.
 No special actions if energy rises.
 Integral accuracy reduced to 1.0D-05 until final iterations.
 Initial convergence to 1.0D-05 achieved.  Increase integral accuracy.
 SCF Done:  E(RCAM-B3LYP) =  -1706.95398291     A.U. after   15 cycles
            NFock= 15  Conv=0.64D-08     -V/T= 2.0098
 DoSCS=F DFT=T ScalE2(SS,OS)=  1.000000  1.000000
 ExpMin= 1.61D-01 ExpMax= 5.48D+03 ExpMxC= 8.25D+02 IAcc=3 IRadAn=         5 AccDes= 0.00D+00
 HarFok:  IExCor=  205 AccDes= 0.00D+00 IRadAn=         5 IDoV=-2 UseB2=F ITyADJ=14
 ICtDFT= 12500011 ScaDFX=  1.000000  1.000000  1.000000  1.000000
 GSVD:  LWork=       -2100 too small for GESVD, short by        9450 words or        9450 for optimal perf.
 Range of M.O.s used for correlation:    43   910
 NBasis=   910 NAE=   156 NBE=   156 NFC=    42 NFV=     0
 NROrb=    868 NOA=   114 NOB=   114 NVA=   754 NVB=   754
 Orbital symmetries:
       Occupied  (A) (A) (A) (A) (A) (A) (A) (A) (A) (A) (A) (A)
                 (A) (A) (A) (A) (A) (A) (A) (A) (A) (A) (A) (A)
                 (A) (A) (A) (A) (A) (A) (A) (A) (A) (A) (A) (A)
                 (A) (A) (A) (A) (A) (A) (A) (A) (A) (A) (A) (A)
                 (A) (A) (A) (A) (A) (A) (A) (A) (A) (A) (A) (A)
                 (A) (A) (A) (A) (A) (A) (A) (A) (A) (A) (A) (A)
                 (A) (A) (A) (A) (A) (A) (A) (A) (A) (A) (A) (A)
                 (A) (A) (A) (A) (A) (A) (A) (A) (A) (A) (A) (A)
                 (A) (A) (A) (A) (A) (A) (A) (A) (A) (A) (A) (A)
                 (A) (A) (A) (A) (A) (A) (A) (A) (A) (A) (A) (A)
                 (A) (A) (A) (A) (A) (A) (A) (A) (A) (A) (A) (A)
                 (A) (A) (A) (A) (A) (A) (A) (A) (A) (A) (A) (A)
                 (A) (A) (A) (A) (A) (A) (A) (A) (A) (A) (A) (A)
       Virtual   (A) (A) (A) (A) (A) (A) (A) (A) (A) (A) (A) (A)
                 (A) (A) (A) (A) (A) (A) (A) (A) (A) (A) (A) (A)
                 (A) (A) (A) (A) (A) (A) (A) (A) (A) (A) (A) (A)
                 (A) (A) (A) (A) (A) (A) (A) (A) (A) (A) (A) (A)
                 (A) (A) (A) (A) (A) (A) (A) (A) (A) (A) (A) (A)
                 (A) (A) (A) (A) (A) (A) (A) (A) (A) (A) (A) (A)
                 (A) (A) (A) (A) (A) (A) (A) (A) (A) (A) (A) (A)
                 (A) (A) (A) (A) (A) (A) (A) (A) (A) (A) (A) (A)
                 (A) (A) (A) (A) (A) (A) (A) (A) (A) (A) (A) (A)
                 (A) (A) (A) (A) (A) (A) (A) (A) (A) (A) (A) (A)
                 (A) (A) (A) (A) (A) (A) (A) (A) (A) (A) (A) (A)
                 (A) (A) (A) (A) (A) (A) (A) (A) (A) (A) (A) (A)
                 (A) (A) (A) (A) (A) (A) (A) (A) (A) (A) (A) (A)
                 (A) (A) (A) (A) (A) (A) (A) (A) (A) (A) (A) (A)
                 (A) (A) (A) (A) (A) (A) (A) (A) (A) (A) (A) (A)
                 (A) (A) (A) (A) (A) (A) (A) (A) (A) (A) (A) (A)
                 (A) (A) (A) (A) (A) (A) (A) (A) (A) (A) (A) (A)
                 (A) (A) (A) (A) (A) (A) (A) (A) (A) (A) (A) (A)
                 (A) (A) (A) (A) (A) (A) (A) (A) (A) (A) (A) (A)
                 (A) (A) (A) (A) (A) (A) (A) (A) (A) (A) (A) (A)
                 (A) (A) (A) (A) (A) (A) (A) (A) (A) (A) (A) (A)
                 (A) (A) (A) (A) (A) (A) (A) (A) (A) (A) (A) (A)
                 (A) (A) (A) (A) (A) (A) (A) (A) (A) (A) (A) (A)
                 (A) (A) (A) (A) (A) (A) (A) (A) (A) (A) (A) (A)
                 (A) (A) (A) (A) (A) (A) (A) (A) (A) (A) (A) (A)
                 (A) (A) (A) (A) (A) (A) (A) (A) (A) (A) (A) (A)
                 (A) (A) (A) (A) (A) (A) (A) (A) (A) (A) (A) (A)
                 (A) (A) (A) (A) (A) (A) (A) (A) (A) (A) (A) (A)
                 (A) (A) (A) (A) (A) (A) (A) (A) (A) (A) (A) (A)
                 (A) (A) (A) (A) (A) (A) (A) (A) (A) (A) (A) (A)
                 (A) (A) (A) (A) (A) (A) (A) (A) (A) (A) (A) (A)
                 (A) (A) (A) (A) (A) (A) (A) (A) (A) (A) (A) (A)
                 (A) (A) (A) (A) (A) (A) (A) (A) (A) (A) (A) (A)
                 (A) (A) (A) (A) (A) (A) (A) (A) (A) (A) (A) (A)
                 (A) (A) (A) (A) (A) (A) (A) (A) (A) (A) (A) (A)
                 (A) (A) (A) (A) (A) (A) (A) (A) (A) (A) (A) (A)
                 (A) (A) (A) (A) (A) (A) (A) (A) (A) (A) (A) (A)
                 (A) (A) (A) (A) (A) (A) (A) (A) (A) (A) (A) (A)
                 (A) (A) (A) (A) (A) (A) (A) (A) (A) (A) (A) (A)
                 (A) (A) (A) (A) (A) (A) (A) (A) (A) (A) (A) (A)
                 (A) (A) (A) (A) (A) (A) (A) (A) (A) (A) (A) (A)
                 (A) (A) (A) (A) (A) (A) (A) (A) (A) (A) (A) (A)
                 (A) (A) (A) (A) (A) (A) (A) (A) (A) (A) (A) (A)
                 (A) (A) (A) (A) (A) (A) (A) (A) (A) (A) (A) (A)
                 (A) (A) (A) (A) (A) (A) (A) (A) (A) (A) (A) (A)
                 (A) (A) (A) (A) (A) (A) (A) (A) (A) (A) (A) (A)
                 (A) (A) (A) (A) (A) (A) (A) (A) (A) (A) (A) (A)
                 (A) (A) (A) (A) (A) (A) (A) (A) (A) (A) (A) (A)
                 (A) (A) (A) (A) (A) (A) (A) (A) (A) (A) (A) (A)
                 (A) (A) (A) (A) (A) (A) (A) (A) (A) (A) (A) (A)
                 (A) (A) (A) (A) (A) (A) (A) (A) (A) (A) (A) (A)
                 (A) (A) (A) (A) (A) (A) (A) (A) (A) (A) (A) (A)
                 (A) (A) (A) (A) (A) (A) (A) (A) (A) (A) (A) (A)
                 (A) (A) (A) (A) (A) (A) (A) (A) (A) (A) (A) (A)
                 (A) (A) (A) (A) (A) (A) (A) (A) (A) (A) (A) (A)
                 (A) (A) (A) (A) (A) (A) (A) (A) (A) (A) (A) (A)
                 (A) (A) (A) (A) (A) (A) (A) (A) (A) (A) (A) (A)
                 (A) (A) (A) (A) (A) (A) (A) (A) (A) (A) (A) (A)
                 (A) (A) (A) (A) (A) (A) (A) (A) (A) (A) (A) (A)
                 (A) (A) (A) (A) (A) (A) (A) (A) (A) (A) (A) (A)
                 (A) (A) (A) (A) (A) (A) (A) (A) (A) (A) (A) (A)
                 (A) (A) (A) (A) (A) (A) (A) (A) (A) (A) (A) (A)
                 (A) (A) (A) (A) (A) (A) (A) (A) (A) (A)
     4 initial guesses have been made.
 Convergence on wavefunction:    0.001000000000000
 Iteration     1 Dimension     4 NMult     0 NNew      4
 CISAX will form     4 AO SS matrices at one time.
 Iteration     2 Dimension     6 NMult     4 NNew      2
 Iteration     3 Dimension     8 NMult     6 NNew      2
 Iteration     4 Dimension    10 NMult     8 NNew      2
 Iteration     5 Dimension    12 NMult    10 NNew      2
 Iteration     6 Dimension    14 NMult    12 NNew      2
 ***********************************************************************
 Excited states from <AA,BB:AA,BB> singles matrix:
 ***********************************************************************
 
 Ground to excited state transition densities written to RWF  633
 Ground to excited state transition electric dipole moments (Au):
       state          X           Y           Z        Dip. S.      Osc.
         1         7.8814     -1.2346      0.1334     63.6588      3.0558
 Ground to excited state transition velocity dipole moments (Au):
       state          X           Y           Z        Dip. S.      Osc.
         1        -0.5495      0.0851     -0.0101      0.3093      2.8634
 Ground to excited state transition magnetic dipole moments (Au):
       state          X           Y           Z
         1         0.1678      0.7120      1.1713
 Ground to excited state transition velocity quadrupole moments (Au):
       state          XX          YY          ZZ          XY          XZ          YZ
         1        -0.3260     -0.0190      0.0331      0.5078     -0.0120     -0.0806
 <0|del|b> * <b|rxdel|0> + <0|del|b> * <b|delr+rdel|0>
 Rotatory Strengths (R) in cgs (10**-40 erg-esu-cm/Gauss)
       state          XX          YY          ZZ    R(velocity)    E-M Angle
         1       218.9610   -268.4105   -377.8808   -142.4434       93.25
 1/2[<0|r|b>*<b|rxdel|0> + (<0|rxdel|b>*<b|r|0>)*]
 Rotatory Strengths (R) in cgs (10**-40 erg-esu-cm/Gauss)
       state          XX          YY          ZZ     R(length)
         1      -935.4077    621.6729   -110.5296   -141.4215
  1/2[<0|del|b>*<b|r|0> + (<0|r|b>*<b|del|0>)*] (Au)
       state          X           Y           Z        Dip. S.   Osc.(frdel)
         1        -4.3306     -0.1050     -0.0014      4.4370      2.9580

 Excitation energies and oscillator strengths:
 
 Excited State   1:      Singlet-A      1.9593 eV  632.79 nm  f=3.0558  <S**2>=0.000
     155 ->158         0.13010
     156 ->157         0.69992
     156 <-157        -0.10950
 This state for optimization and/or second-order correction.
 Total Energy, E(TD-HF/TD-DFT) =  -1706.88197889    
 Copying the excited state density for this state as the 1-particle RhoCI density.
 SavETr:  write IOETrn=   770 NScale= 10 NData=  16 NLR=1 NState=    1 LETran=      28.

 **********************************************************************

            Population analysis using the SCF density.

 **********************************************************************

 Orbital symmetries:
       Occupied  (A) (A) (A) (A) (A) (A) (A) (A) (A) (A) (A) (A)
                 (A) (A) (A) (A) (A) (A) (A) (A) (A) (A) (A) (A)
                 (A) (A) (A) (A) (A) (A) (A) (A) (A) (A) (A) (A)
                 (A) (A) (A) (A) (A) (A) (A) (A) (A) (A) (A) (A)
                 (A) (A) (A) (A) (A) (A) (A) (A) (A) (A) (A) (A)
                 (A) (A) (A) (A) (A) (A) (A) (A) (A) (A) (A) (A)
                 (A) (A) (A) (A) (A) (A) (A) (A) (A) (A) (A) (A)
                 (A) (A) (A) (A) (A) (A) (A) (A) (A) (A) (A) (A)
                 (A) (A) (A) (A) (A) (A) (A) (A) (A) (A) (A) (A)
                 (A) (A) (A) (A) (A) (A) (A) (A) (A) (A) (A) (A)
                 (A) (A) (A) (A) (A) (A) (A) (A) (A) (A) (A) (A)
                 (A) (A) (A) (A) (A) (A) (A) (A) (A) (A) (A) (A)
                 (A) (A) (A) (A) (A) (A) (A) (A) (A) (A) (A) (A)
       Virtual   (A) (A) (A) (A) (A) (A) (A) (A) (A) (A) (A) (A)
                 (A) (A) (A) (A) (A) (A) (A) (A) (A) (A) (A) (A)
                 (A) (A) (A) (A) (A) (A) (A) (A) (A) (A) (A) (A)
                 (A) (A) (A) (A) (A) (A) (A) (A) (A) (A) (A) (A)
                 (A) (A) (A) (A) (A) (A) (A) (A) (A) (A) (A) (A)
                 (A) (A) (A) (A) (A) (A) (A) (A) (A) (A) (A) (A)
                 (A) (A) (A) (A) (A) (A) (A) (A) (A) (A) (A) (A)
                 (A) (A) (A) (A) (A) (A) (A) (A) (A) (A) (A) (A)
                 (A) (A) (A) (A) (A) (A) (A) (A) (A) (A) (A) (A)
                 (A) (A) (A) (A) (A) (A) (A) (A) (A) (A) (A) (A)
                 (A) (A) (A) (A) (A) (A) (A) (A) (A) (A) (A) (A)
                 (A) (A) (A) (A) (A) (A) (A) (A) (A) (A) (A) (A)
                 (A) (A) (A) (A) (A) (A) (A) (A) (A) (A) (A) (A)
                 (A) (A) (A) (A) (A) (A) (A) (A) (A) (A) (A) (A)
                 (A) (A) (A) (A) (A) (A) (A) (A) (A) (A) (A) (A)
                 (A) (A) (A) (A) (A) (A) (A) (A) (A) (A) (A) (A)
                 (A) (A) (A) (A) (A) (A) (A) (A) (A) (A) (A) (A)
                 (A) (A) (A) (A) (A) (A) (A) (A) (A) (A) (A) (A)
                 (A) (A) (A) (A) (A) (A) (A) (A) (A) (A) (A) (A)
                 (A) (A) (A) (A) (A) (A) (A) (A) (A) (A) (A) (A)
                 (A) (A) (A) (A) (A) (A) (A) (A) (A) (A) (A) (A)
                 (A) (A) (A) (A) (A) (A) (A) (A) (A) (A) (A) (A)
                 (A) (A) (A) (A) (A) (A) (A) (A) (A) (A) (A) (A)
                 (A) (A) (A) (A) (A) (A) (A) (A) (A) (A) (A) (A)
                 (A) (A) (A) (A) (A) (A) (A) (A) (A) (A) (A) (A)
                 (A) (A) (A) (A) (A) (A) (A) (A) (A) (A) (A) (A)
                 (A) (A) (A) (A) (A) (A) (A) (A) (A) (A) (A) (A)
                 (A) (A) (A) (A) (A) (A) (A) (A) (A) (A) (A) (A)
                 (A) (A) (A) (A) (A) (A) (A) (A) (A) (A) (A) (A)
                 (A) (A) (A) (A) (A) (A) (A) (A) (A) (A) (A) (A)
                 (A) (A) (A) (A) (A) (A) (A) (A) (A) (A) (A) (A)
                 (A) (A) (A) (A) (A) (A) (A) (A) (A) (A) (A) (A)
                 (A) (A) (A) (A) (A) (A) (A) (A) (A) (A) (A) (A)
                 (A) (A) (A) (A) (A) (A) (A) (A) (A) (A) (A) (A)
                 (A) (A) (A) (A) (A) (A) (A) (A) (A) (A) (A) (A)
                 (A) (A) (A) (A) (A) (A) (A) (A) (A) (A) (A) (A)
                 (A) (A) (A) (A) (A) (A) (A) (A) (A) (A) (A) (A)
                 (A) (A) (A) (A) (A) (A) (A) (A) (A) (A) (A) (A)
                 (A) (A) (A) (A) (A) (A) (A) (A) (A) (A) (A) (A)
                 (A) (A) (A) (A) (A) (A) (A) (A) (A) (A) (A) (A)
                 (A) (A) (A) (A) (A) (A) (A) (A) (A) (A) (A) (A)
                 (A) (A) (A) (A) (A) (A) (A) (A) (A) (A) (A) (A)
                 (A) (A) (A) (A) (A) (A) (A) (A) (A) (A) (A) (A)
                 (A) (A) (A) (A) (A) (A) (A) (A) (A) (A) (A) (A)
                 (A) (A) (A) (A) (A) (A) (A) (A) (A) (A) (A) (A)
                 (A) (A) (A) (A) (A) (A) (A) (A) (A) (A) (A) (A)
                 (A) (A) (A) (A) (A) (A) (A) (A) (A) (A) (A) (A)
                 (A) (A) (A) (A) (A) (A) (A) (A) (A) (A) (A) (A)
                 (A) (A) (A) (A) (A) (A) (A) (A) (A) (A) (A) (A)
                 (A) (A) (A) (A) (A) (A) (A) (A) (A) (A) (A) (A)
                 (A) (A) (A) (A) (A) (A) (A) (A) (A) (A) (A) (A)
                 (A) (A) (A) (A) (A) (A) (A) (A) (A) (A) (A) (A)
                 (A) (A) (A) (A) (A) (A) (A) (A) (A) (A) (A) (A)
                 (A) (A) (A) (A) (A) (A) (A) (A) (A) (A) (A) (A)
                 (A) (A) (A) (A) (A) (A) (A) (A) (A) (A) (A) (A)
                 (A) (A) (A) (A) (A) (A) (A) (A) (A) (A) (A) (A)
                 (A) (A) (A) (A) (A) (A) (A) (A) (A) (A) (A) (A)
                 (A) (A) (A) (A) (A) (A) (A) (A) (A) (A) (A) (A)
                 (A) (A) (A) (A) (A) (A) (A) (A) (A) (A) (A) (A)
                 (A) (A) (A) (A) (A) (A) (A) (A) (A) (A) (A) (A)
                 (A) (A) (A) (A) (A) (A) (A) (A) (A) (A) (A) (A)
                 (A) (A) (A) (A) (A) (A) (A) (A) (A) (A) (A) (A)
                 (A) (A) (A) (A) (A) (A) (A) (A) (A) (A)
 The electronic state is 1-A.
 Alpha  occ. eigenvalues --  -19.21398 -19.20795 -10.31579 -10.30390 -10.28159
 Alpha  occ. eigenvalues --  -10.28006 -10.27893 -10.27834 -10.27612 -10.27606
 Alpha  occ. eigenvalues --  -10.27548 -10.27485 -10.27307 -10.27111 -10.27049
 Alpha  occ. eigenvalues --  -10.26868 -10.26762 -10.26744 -10.26652 -10.26515
 Alpha  occ. eigenvalues --  -10.26391 -10.26350 -10.26341 -10.26156 -10.26038
 Alpha  occ. eigenvalues --  -10.25955 -10.25926 -10.25763 -10.25747 -10.25534
 Alpha  occ. eigenvalues --  -10.25470 -10.25297 -10.25148 -10.24730 -10.24725
 Alpha  occ. eigenvalues --  -10.24634 -10.24347 -10.24280 -10.24253 -10.24171
 Alpha  occ. eigenvalues --  -10.24020 -10.22861  -1.12321  -1.08041  -0.94183
 Alpha  occ. eigenvalues --   -0.92964  -0.92066  -0.91825  -0.90200  -0.89429
 Alpha  occ. eigenvalues --   -0.87802  -0.87233  -0.86686  -0.85467  -0.84158
 Alpha  occ. eigenvalues --   -0.82855  -0.82032  -0.80177  -0.79750  -0.78020
 Alpha  occ. eigenvalues --   -0.77915  -0.76923  -0.76860  -0.76160  -0.75843
 Alpha  occ. eigenvalues --   -0.75202  -0.75097  -0.73063  -0.72289  -0.70415
 Alpha  occ. eigenvalues --   -0.69188  -0.67351  -0.66706  -0.66200  -0.64622
 Alpha  occ. eigenvalues --   -0.62748  -0.62650  -0.62147  -0.60357  -0.60215
 Alpha  occ. eigenvalues --   -0.60113  -0.59079  -0.57729  -0.57577  -0.56362
 Alpha  occ. eigenvalues --   -0.55659  -0.54757  -0.54560  -0.54120  -0.53921
 Alpha  occ. eigenvalues --   -0.52979  -0.52543  -0.52072  -0.52003  -0.51859
 Alpha  occ. eigenvalues --   -0.50957  -0.50518  -0.50418  -0.49575  -0.49215
 Alpha  occ. eigenvalues --   -0.48808  -0.48457  -0.47998  -0.47545  -0.47387
 Alpha  occ. eigenvalues --   -0.47021  -0.46663  -0.46532  -0.46273  -0.46104
 Alpha  occ. eigenvalues --   -0.45841  -0.45629  -0.45440  -0.45382  -0.45037
 Alpha  occ. eigenvalues --   -0.44650  -0.43995  -0.43674  -0.43602  -0.43349
 Alpha  occ. eigenvalues --   -0.43194  -0.42953  -0.42293  -0.42070  -0.41395
 Alpha  occ. eigenvalues --   -0.41345  -0.40955  -0.40794  -0.40565  -0.40479
 Alpha  occ. eigenvalues --   -0.40387  -0.40046  -0.39938  -0.39742  -0.39653
 Alpha  occ. eigenvalues --   -0.38755  -0.38437  -0.38323  -0.38131  -0.37993
 Alpha  occ. eigenvalues --   -0.37158  -0.36974  -0.36405  -0.36232  -0.35253
 Alpha  occ. eigenvalues --   -0.34260  -0.34084  -0.33140  -0.32247  -0.31988
 Alpha  occ. eigenvalues --   -0.31817  -0.29971  -0.28648  -0.27000  -0.23766
 Alpha  occ. eigenvalues --   -0.18624
 Alpha virt. eigenvalues --   -0.06452  -0.00717   0.02921   0.04810   0.07142
 Alpha virt. eigenvalues --    0.09658   0.11128   0.11315   0.11746   0.12321
 Alpha virt. eigenvalues --    0.12826   0.13054   0.13450   0.14041   0.14285
 Alpha virt. eigenvalues --    0.14576   0.14731   0.14948   0.15234   0.15420
 Alpha virt. eigenvalues --    0.15658   0.16034   0.16203   0.16629   0.16951
 Alpha virt. eigenvalues --    0.17326   0.17653   0.17740   0.17871   0.18013
 Alpha virt. eigenvalues --    0.18086   0.18745   0.19118   0.19260   0.20161
 Alpha virt. eigenvalues --    0.20218   0.20482   0.20960   0.21035   0.21257
 Alpha virt. eigenvalues --    0.21349   0.21806   0.21947   0.22090   0.22181
 Alpha virt. eigenvalues --    0.22443   0.22696   0.22937   0.23019   0.23086
 Alpha virt. eigenvalues --    0.23640   0.23865   0.24407   0.24620   0.24785
 Alpha virt. eigenvalues --    0.24969   0.25404   0.25743   0.26196   0.26411
 Alpha virt. eigenvalues --    0.26691   0.26866   0.27151   0.27624   0.27755
 Alpha virt. eigenvalues --    0.28106   0.28307   0.28885   0.29089   0.29353
 Alpha virt. eigenvalues --    0.29407   0.29741   0.29862   0.30123   0.30430
 Alpha virt. eigenvalues --    0.30942   0.31402   0.31567   0.31704   0.32540
 Alpha virt. eigenvalues --    0.32687   0.33349   0.33373   0.34168   0.35438
 Alpha virt. eigenvalues --    0.36105   0.36179   0.36867   0.37683   0.38266
 Alpha virt. eigenvalues --    0.38761   0.39018   0.40061   0.42156   0.42912
 Alpha virt. eigenvalues --    0.43572   0.43980   0.44735   0.45080   0.45649
 Alpha virt. eigenvalues --    0.46272   0.47263   0.47845   0.48858   0.49403
 Alpha virt. eigenvalues --    0.50499   0.51646   0.52507   0.53451   0.54106
 Alpha virt. eigenvalues --    0.54860   0.55634   0.55708   0.56587   0.57207
 Alpha virt. eigenvalues --    0.57355   0.57480   0.57858   0.58504   0.58775
 Alpha virt. eigenvalues --    0.58799   0.59008   0.59247   0.59683   0.60374
 Alpha virt. eigenvalues --    0.60842   0.61075   0.61382   0.61520   0.61567
 Alpha virt. eigenvalues --    0.61908   0.62318   0.62751   0.63438   0.63539
 Alpha virt. eigenvalues --    0.64243   0.64445   0.64554   0.64797   0.65244
 Alpha virt. eigenvalues --    0.65419   0.65830   0.66236   0.66408   0.66713
 Alpha virt. eigenvalues --    0.67196   0.67434   0.67793   0.67984   0.68171
 Alpha virt. eigenvalues --    0.68777   0.68977   0.69173   0.69658   0.69824
 Alpha virt. eigenvalues --    0.70348   0.70579   0.70952   0.71818   0.72189
 Alpha virt. eigenvalues --    0.72611   0.72733   0.72935   0.73324   0.73563
 Alpha virt. eigenvalues --    0.73780   0.74159   0.74565   0.74908   0.74964
 Alpha virt. eigenvalues --    0.75375   0.76004   0.76295   0.76879   0.77474
 Alpha virt. eigenvalues --    0.78053   0.78508   0.78761   0.79220   0.79685
 Alpha virt. eigenvalues --    0.79917   0.80538   0.80781   0.81006   0.81119
 Alpha virt. eigenvalues --    0.81622   0.81770   0.82347   0.82996   0.83203
 Alpha virt. eigenvalues --    0.83462   0.84021   0.84070   0.84282   0.84838
 Alpha virt. eigenvalues --    0.85346   0.85747   0.85864   0.86124   0.86436
 Alpha virt. eigenvalues --    0.86704   0.86829   0.87165   0.87582   0.87626
 Alpha virt. eigenvalues --    0.87851   0.88181   0.88749   0.88881   0.89049
 Alpha virt. eigenvalues --    0.89253   0.89379   0.89625   0.89788   0.90198
 Alpha virt. eigenvalues --    0.90380   0.90843   0.90997   0.91804   0.92518
 Alpha virt. eigenvalues --    0.92875   0.93068   0.93265   0.93528   0.93878
 Alpha virt. eigenvalues --    0.94081   0.94337   0.94782   0.95238   0.95402
 Alpha virt. eigenvalues --    0.95593   0.95691   0.96417   0.96530   0.96727
 Alpha virt. eigenvalues --    0.96907   0.97206   0.97281   0.97919   0.98258
 Alpha virt. eigenvalues --    0.98539   0.98797   0.99132   0.99271   0.99640
 Alpha virt. eigenvalues --    1.00187   1.00438   1.00650   1.01445   1.01823
 Alpha virt. eigenvalues --    1.02015   1.02321   1.02609   1.03165   1.03251
 Alpha virt. eigenvalues --    1.03906   1.04340   1.04512   1.05179   1.05417
 Alpha virt. eigenvalues --    1.06143   1.06872   1.06900   1.07422   1.07525
 Alpha virt. eigenvalues --    1.07952   1.08514   1.09372   1.09779   1.09843
 Alpha virt. eigenvalues --    1.10630   1.11034   1.11157   1.11440   1.11688
 Alpha virt. eigenvalues --    1.12710   1.13577   1.14148   1.14467   1.15030
 Alpha virt. eigenvalues --    1.15472   1.16015   1.16172   1.17225   1.17575
 Alpha virt. eigenvalues --    1.18379   1.18803   1.19275   1.20274   1.20470
 Alpha virt. eigenvalues --    1.21546   1.23445   1.24076   1.24193   1.25170
 Alpha virt. eigenvalues --    1.26413   1.26837   1.27559   1.27865   1.28263
 Alpha virt. eigenvalues --    1.29440   1.29783   1.30615   1.31244   1.31425
 Alpha virt. eigenvalues --    1.31680   1.32573   1.32725   1.34119   1.34807
 Alpha virt. eigenvalues --    1.35442   1.37555   1.38157   1.39045   1.39973
 Alpha virt. eigenvalues --    1.40725   1.41444   1.42436   1.42986   1.43583
 Alpha virt. eigenvalues --    1.43844   1.44414   1.44525   1.44830   1.45281
 Alpha virt. eigenvalues --    1.46529   1.46889   1.47966   1.48248   1.49263
 Alpha virt. eigenvalues --    1.50068   1.50727   1.52056   1.53096   1.53948
 Alpha virt. eigenvalues --    1.54148   1.54460   1.55375   1.55758   1.56501
 Alpha virt. eigenvalues --    1.56826   1.57087   1.57879   1.59360   1.59848
 Alpha virt. eigenvalues --    1.60054   1.61234   1.61413   1.63696   1.63804
 Alpha virt. eigenvalues --    1.64494   1.64772   1.65461   1.65479   1.66518
 Alpha virt. eigenvalues --    1.67463   1.67981   1.68864   1.69228   1.70445
 Alpha virt. eigenvalues --    1.71710   1.72752   1.72985   1.75228   1.75407
 Alpha virt. eigenvalues --    1.76552   1.76671   1.77633   1.77925   1.78630
 Alpha virt. eigenvalues --    1.78918   1.79554   1.80339   1.80692   1.80968
 Alpha virt. eigenvalues --    1.81848   1.81893   1.82655   1.83460   1.83740
 Alpha virt. eigenvalues --    1.83934   1.84058   1.85192   1.85483   1.85653
 Alpha virt. eigenvalues --    1.85941   1.86558   1.86863   1.87171   1.87583
 Alpha virt. eigenvalues --    1.88437   1.88626   1.89069   1.89586   1.90235
 Alpha virt. eigenvalues --    1.90500   1.91556   1.91685   1.92102   1.92475
 Alpha virt. eigenvalues --    1.92907   1.93178   1.93316   1.93500   1.94041
 Alpha virt. eigenvalues --    1.94250   1.94467   1.95028   1.95662   1.95950
 Alpha virt. eigenvalues --    1.96212   1.96921   1.97121   1.98034   1.98501
 Alpha virt. eigenvalues --    1.99113   2.00048   2.00634   2.01107   2.01509
 Alpha virt. eigenvalues --    2.01776   2.02180   2.02756   2.02953   2.03888
 Alpha virt. eigenvalues --    2.04045   2.04550   2.04782   2.05691   2.06464
 Alpha virt. eigenvalues --    2.07432   2.07636   2.08354   2.08442   2.08952
 Alpha virt. eigenvalues --    2.09437   2.10324   2.10602   2.11015   2.11407
 Alpha virt. eigenvalues --    2.11530   2.12017   2.12265   2.12509   2.12680
 Alpha virt. eigenvalues --    2.13044   2.13720   2.14099   2.14403   2.15173
 Alpha virt. eigenvalues --    2.15295   2.16303   2.16613   2.16856   2.17174
 Alpha virt. eigenvalues --    2.17663   2.17744   2.18088   2.18506   2.18677
 Alpha virt. eigenvalues --    2.19021   2.19288   2.19496   2.19768   2.20278
 Alpha virt. eigenvalues --    2.20726   2.21065   2.21447   2.21578   2.22458
 Alpha virt. eigenvalues --    2.22584   2.23121   2.24102   2.24773   2.24982
 Alpha virt. eigenvalues --    2.25295   2.25614   2.26189   2.26748   2.27296
 Alpha virt. eigenvalues --    2.27930   2.28048   2.28194   2.28598   2.29869
 Alpha virt. eigenvalues --    2.30231   2.30518   2.31009   2.31554   2.31853
 Alpha virt. eigenvalues --    2.32191   2.32992   2.33523   2.33666   2.34274
 Alpha virt. eigenvalues --    2.35273   2.36226   2.36433   2.36645   2.36896
 Alpha virt. eigenvalues --    2.37472   2.38080   2.38417   2.38665   2.39270
 Alpha virt. eigenvalues --    2.39402   2.40384   2.41218   2.41558   2.42002
 Alpha virt. eigenvalues --    2.42416   2.43010   2.43079   2.43678   2.43982
 Alpha virt. eigenvalues --    2.44328   2.44845   2.45199   2.45756   2.46257
 Alpha virt. eigenvalues --    2.46604   2.47056   2.47570   2.47869   2.48312
 Alpha virt. eigenvalues --    2.48462   2.48857   2.49044   2.49418   2.49759
 Alpha virt. eigenvalues --    2.49850   2.51112   2.52065   2.52571   2.52941
 Alpha virt. eigenvalues --    2.53027   2.53492   2.53793   2.54783   2.55066
 Alpha virt. eigenvalues --    2.55404   2.57126   2.57249   2.57917   2.59049
 Alpha virt. eigenvalues --    2.59235   2.60438   2.60766   2.61094   2.61147
 Alpha virt. eigenvalues --    2.61499   2.62432   2.62517   2.63516   2.63663
 Alpha virt. eigenvalues --    2.63998   2.64363   2.64841   2.65058   2.65802
 Alpha virt. eigenvalues --    2.65881   2.66856   2.67447   2.67774   2.68057
 Alpha virt. eigenvalues --    2.68514   2.69569   2.69810   2.70024   2.70276
 Alpha virt. eigenvalues --    2.70700   2.70932   2.71654   2.71725   2.71805
 Alpha virt. eigenvalues --    2.72772   2.72911   2.73427   2.73879   2.74620
 Alpha virt. eigenvalues --    2.74895   2.75529   2.75841   2.76559   2.77002
 Alpha virt. eigenvalues --    2.77390   2.77961   2.78542   2.78939   2.78999
 Alpha virt. eigenvalues --    2.79666   2.80054   2.80444   2.80920   2.81149
 Alpha virt. eigenvalues --    2.81304   2.82013   2.82481   2.83391   2.83712
 Alpha virt. eigenvalues --    2.83837   2.85078   2.85569   2.86229   2.86444
 Alpha virt. eigenvalues --    2.87316   2.87423   2.88026   2.88236   2.88668
 Alpha virt. eigenvalues --    2.89479   2.89992   2.90850   2.91642   2.92397
 Alpha virt. eigenvalues --    2.93024   2.93363   2.93446   2.93949   2.95201
 Alpha virt. eigenvalues --    2.95633   2.96084   2.96456   2.97478   2.98058
 Alpha virt. eigenvalues --    2.98293   2.98482   2.99403   3.00192   3.00456
 Alpha virt. eigenvalues --    3.01038   3.01230   3.01909   3.03100   3.04141
 Alpha virt. eigenvalues --    3.04202   3.04260   3.04895   3.05269   3.05832
 Alpha virt. eigenvalues --    3.06685   3.07918   3.09042   3.10639   3.11010
 Alpha virt. eigenvalues --    3.12028   3.13369   3.14074   3.14184   3.14307
 Alpha virt. eigenvalues --    3.15360   3.15816   3.16176   3.16971   3.20095
 Alpha virt. eigenvalues --    3.20823   3.22665   3.24200   3.24283   3.24627
 Alpha virt. eigenvalues --    3.24923   3.25213   3.26032   3.27329   3.27480
 Alpha virt. eigenvalues --    3.29430   3.30347   3.30683   3.33420   3.35662
 Alpha virt. eigenvalues --    3.35865   3.38070   3.39833   3.41184   3.42202
 Alpha virt. eigenvalues --    3.42261   3.45427   3.45847   3.46173   3.47049
 Alpha virt. eigenvalues --    3.47256   3.47381   3.48712   3.48733   3.50034
 Alpha virt. eigenvalues --    3.50635   3.52445   3.52561   3.53391   3.56432
 Alpha virt. eigenvalues --    3.57632   3.58339   3.58642   3.59474   3.60155
 Alpha virt. eigenvalues --    3.60487   3.62346   3.62743   3.63621   3.65858
 Alpha virt. eigenvalues --    3.66401   3.67839   3.70266   3.70546   3.72681
 Alpha virt. eigenvalues --    3.73836   3.76166   3.77275   3.80487   3.81623
 Alpha virt. eigenvalues --    3.83999   3.91808   4.09588   4.17839   4.19126
 Alpha virt. eigenvalues --    4.19151   4.19694   4.20290   4.23922   4.26662
 Alpha virt. eigenvalues --    4.28188   4.29631   4.31367   4.31795   4.35499
 Alpha virt. eigenvalues --    4.37553   4.40160   4.40942   4.44030   4.44910
 Alpha virt. eigenvalues --    4.46099   4.48813   4.49428   4.54844   4.55095
 Alpha virt. eigenvalues --    4.57308   4.58002   4.59075   4.62045   4.62853
 Alpha virt. eigenvalues --    4.63332   4.64797   4.68346   4.69905   4.71023
 Alpha virt. eigenvalues --    4.73598   4.74188   4.78196   4.81827   4.82125
 Alpha virt. eigenvalues --    4.84916   4.86069   4.89026   4.89509
          Condensed to atoms (all electrons):
 Mulliken charges:
               1
     1  O   -0.546085
     2  O   -0.537610
     3  C    0.024159
     4  C   -0.127297
     5  C   -0.177490
     6  C    0.102802
     7  C    0.152524
     8  C    0.020270
     9  C   -0.299357
    10  C   -0.293070
    11  C   -0.208476
    12  C   -0.080290
    13  C    0.178635
    14  C    0.064195
    15  C   -0.084978
    16  C   -0.206806
    17  C    0.001999
    18  C   -0.316969
    19  C   -0.300185
    20  C   -0.381043
    21  C   -0.085907
    22  C   -0.125349
    23  C   -0.351508
    24  C    0.079144
    25  C   -0.073214
    26  C   -0.363364
    27  C    0.073706
    28  C   -0.126198
    29  C   -0.387324
    30  C   -0.095243
    31  C   -0.018790
    32  C   -0.080659
    33  C   -0.123180
    34  C    0.063687
    35  C   -0.094200
    36  C    0.074630
    37  C   -0.367640
    38  C   -0.103724
    39  C   -0.134382
    40  C   -0.360952
    41  C   -0.064678
    42  C   -0.083455
    43  H    0.052349
    44  H    0.114384
    45  H    0.092688
    46  H    0.068337
    47  H    0.104725
    48  H    0.096575
    49  H    0.084972
    50  H    0.120481
    51  H    0.103945
    52  H    0.055803
    53  H    0.086962
    54  H    0.052153
    55  H    0.075080
    56  H    0.071764
    57  H    0.071042
    58  H    0.101716
    59  H    0.122687
    60  H    0.084635
    61  H    0.097294
    62  H    0.121661
    63  H    0.113750
    64  H    0.121541
    65  H    0.085578
    66  H    0.139436
    67  H    0.118716
    68  H    0.080225
    69  H    0.301705
    70  H    0.086602
    71  H    0.064545
    72  H    0.113378
    73  H    0.138028
    74  H    0.101965
    75  H    0.301216
    76  H    0.067507
    77  H    0.116347
    78  H    0.125760
    79  H    0.090317
    80  H    0.077130
    81  H    0.103761
    82  H    0.133562
    83  H    0.099601
    84  H    0.067973
    85  H    0.091665
    86  H    0.089862
    87  H    0.080407
    88  H    0.075977
    89  H    0.113722
    90  H    0.129333
    91  H    0.112005
    92  H    0.056315
    93  H    0.082882
    94  H    0.108862
    95  H    0.102170
    96  H    0.143429
    97  H    0.074535
    98  H    0.074615
 Sum of Mulliken charges =  -0.00000
 Mulliken charges with hydrogens summed into heavy atoms:
               1
     1  O   -0.244380
     2  O   -0.236395
     3  C    0.024159
     4  C   -0.074947
     5  C    0.029581
     6  C    0.171139
     7  C    0.152524
     8  C    0.020270
     9  C   -0.013086
    10  C   -0.012841
    11  C   -0.069361
    12  C   -0.005210
    13  C    0.250399
    14  C    0.064195
    15  C   -0.013936
    16  C    0.017596
    17  C    0.001999
    18  C   -0.013379
    19  C    0.020684
    20  C   -0.042665
    21  C   -0.021362
    22  C   -0.038747
    23  C    0.001863
    24  C    0.079144
    25  C   -0.005707
    26  C   -0.030940
    27  C    0.073706
    28  C   -0.049068
    29  C   -0.050401
    30  C   -0.027270
    31  C    0.072875
    32  C    0.009203
    33  C   -0.042773
    34  C    0.063687
    35  C   -0.018223
    36  C    0.074630
    37  C   -0.012580
    38  C   -0.047408
    39  C   -0.051500
    40  C   -0.006491
    41  C    0.009857
    42  C   -0.008840
 Electronic spatial extent (au):  <R**2>=         103999.7233
 Charge=             -0.0000 electrons
 Dipole moment (field-independent basis, Debye):
    X=              2.7782    Y=             -1.4821    Z=              0.4094  Tot=              3.1753
 Quadrupole moment (field-independent basis, Debye-Ang):
   XX=           -277.3225   YY=           -239.5689   ZZ=           -259.6038
   XY=             21.5963   XZ=             31.4603   YZ=             -1.3625
 Traceless Quadrupole moment (field-independent basis, Debye-Ang):
   XX=            -18.4908   YY=             19.2628   ZZ=             -0.7720
   XY=             21.5963   XZ=             31.4603   YZ=             -1.3625
 Octapole moment (field-independent basis, Debye-Ang**2):
  XXX=            513.6726  YYY=            -20.1802  ZZZ=              7.8044  XYY=            -26.1936
  XXY=           -266.7568  XXZ=             79.3871  XZZ=             26.4844  YZZ=             -0.6731
  YYZ=             -9.6670  XYZ=             17.7363
 Hexadecapole moment (field-independent basis, Debye-Ang**3):
 XXXX=        -143382.6889 YYYY=          -4133.1620 ZZZZ=          -2060.1481 XXXY=           4702.9831
 XXXZ=           6883.7292 YYYX=            421.8136 YYYZ=            -29.7824 ZZZX=             10.5337
 ZZZY=              1.1861 XXYY=         -21609.9700 XXZZ=         -22227.6174 YYZZ=          -1062.8268
 XXYZ=            806.3217 YYXZ=            204.6522 ZZXY=            134.5740
 N-N= 4.021329956093D+03 E-N=-1.199803572096D+04  KE= 1.690440934456D+03
 1\1\GINC-PADAWAN\SP\RCAM-B3LYP TD-FC\6-31G(d,p)\C40H56O2\PADAWAN\15-Ju
 l-2019\0\\# td=(NStates=1) CAM-B3LYP/6-31G(d,p)\\TD\\0,1\O,0,-14.09772
 56478,-1.9363320149,0.2440446598\O,0,14.7743692737,0.9435219388,0.2749
 480907\C,0,-11.8331561752,0.1672427992,1.2296077808\C,0,-11.0379207546
 ,0.3559683678,-0.0475910463\C,0,-12.0966151421,-1.3908035648,1.4673245
 738\C,0,-12.6600593994,-2.0810491697,0.1811622671\C,0,-11.5689321821,-
 0.3581032886,-1.3047159615\C,0,11.0148648171,1.0548671292,1.0960698867
 \C,0,-11.1217536486,0.7887706159,2.357832834\C,0,-13.29777594,0.862331
 8801,1.205971674\C,0,12.3683640169,1.5306924957,0.7524326295\C,0,-12.2
 544364295,-1.5355214199,-1.101132882\C,0,13.5056321841,0.4544731199,0.
 339391258\C,0,10.7107905534,0.013971987,0.0056141465\C,0,-9.5729160555
 ,0.04598175,0.1896889765\C,0,13.061944172,-0.1764748669,-0.9730228886\
 C,0,11.5182849173,-0.4889739427,-0.8897540342\C,0,10.1974566313,2.2695
 662686,1.0699897124\C,0,10.8736681993,0.3118203574,2.4924698083\C,0,-1
 1.0821527128,0.1587975213,-2.5352757858\C,0,-8.4645825586,0.7733923216
 ,-0.011724795\C,0,9.2578907184,-0.4156493407,-0.0987597922\C,0,11.1151
 314586,-1.4753805049,-2.0243720419\C,0,-7.0826995929,0.4710743492,0.11
 76596767\C,0,8.8383002864,-1.6736071582,-0.2909742384\C,0,-6.691320553
 6,-0.9984886058,0.4847213607\C,0,7.4702455121,-2.1032031923,-0.1723182
 941\C,0,-6.105900366,1.417195294,-0.218573714\C,0,7.1836715614,-3.6014
 638686,0.0913493531\C,0,6.4051277818,-1.2170019889,-0.3126636088\C,0,-
 4.7363676105,1.3310666459,-0.253746288\C,0,5.0525961055,-1.5153493778,
 -0.2363514153\C,0,-4.0394253149,2.4138644126,-0.5495361426\C,0,-2.6125
 316913,2.5460325609,-0.6560683546\C,0,4.0994139069,-0.5998004861,-0.29
 68692033\C,0,2.7315502036,-0.8448089524,-0.2159265453\C,0,-1.869225472
 7,3.8880133839,-0.870206168\C,0,-1.7845155371,1.4246252069,-0.37668368
 48\C,0,1.7760861536,0.2507066322,-0.5034789098\C,0,2.1891122323,-2.229
 5857459,0.1800703749\C,0,-0.4391361725,1.358337155,-0.5719705569\C,0,0
 .3643312639,0.203512019,-0.4381270735\H,0,-11.1661733588,1.5878505704,
 -0.3708989351\H,0,-12.6806815413,-1.4892989436,2.3567235671\H,0,-11.20
 28879584,-1.9158407791,1.7313964222\H,0,-12.5746510987,-3.2643455419,0
 .3160164637\H,0,-10.2062160229,0.3305047261,2.5164102649\H,0,-10.75751
 59182,1.8320762846,2.2066253844\H,0,-11.6748450768,0.9092043394,3.3614
 803258\H,0,-13.9320944112,0.1700330056,0.401776648\H,0,-13.9044462152,
 0.8535769651,2.1281268147\H,0,-13.0251912045,2.0435179736,0.8848589692
 \H,0,12.3199093576,2.4297079203,-0.0216543222\H,0,12.8287072978,2.0825
 122901,1.6835459558\H,0,-12.503533832,-2.1759743939,-1.891503341\H,0,1
 3.3887684616,-0.3846082066,1.003400676\H,0,-9.4340957753,-1.0364285019
 ,0.6916967297\H,0,13.4989150356,-1.1465576951,-1.1839735534\H,0,13.371
 0535229,0.4366722451,-1.720611985\H,0,9.0839450921,2.1463146833,1.2597
 912265\H,0,10.2290347651,2.837016304,0.0995168672\H,0,10.3693206054,3.
 0521801897,1.638570008\H,0,11.4955223935,-0.4733845871,2.5460610275\H,
 0,9.8585008207,0.122249684,2.6770008282\H,0,11.2381047096,0.944802277,
 3.3648614291\H,0,-10.0030928073,0.1711170224,-2.8457619719\H,0,-11.465
 7856349,1.1830543039,-2.7754646118\H,0,-11.6241502601,-0.4478435357,-3
 .4470624638\H,0,-14.5307363469,-2.5706660192,-0.4106492687\H,0,8.51440
 05081,0.4397141966,0.0178344296\H,0,-8.8506202309,1.80117177,-0.596825
 0029\H,0,11.3011058451,-2.482689765,-1.5407269242\H,0,10.1645393203,-1
 .3268587876,-2.2661625503\H,0,11.6785771514,-1.3365067408,-2.979493897
 5\H,0,15.1052997103,1.2483329331,1.0654945184\H,0,9.571656942,-2.27762
 08438,-0.2015365962\H,0,-5.7680012611,-1.3038875395,0.6715245493\H,0,-
 7.2792568238,-1.2813301062,1.2667689293\H,0,-6.8639526305,-1.900228471
 ,-0.2756557804\H,0,-6.4481170982,2.4678455797,-0.3761208138\H,0,6.7825
 618052,-4.0282062432,1.1174114368\H,0,6.5727246177,-4.1098061684,-0.58
 5048096\H,0,8.161856083,-4.1467908637,0.0521621835\H,0,6.7696053874,-0
 .3329005295,-0.6442465466\H,0,-4.3282850601,0.3203316984,0.0516791103\
 H,0,4.7964232458,-2.5158408371,0.16000834\H,0,-4.5306991156,3.38370635
 24,-0.7250221577\H,0,4.4224623224,0.4853158705,-0.5846476822\H,0,-1.41
 51012683,3.8913205788,-1.9536936413\H,0,-0.9422070591,4.000057163,-0.1
 786698268\H,0,-2.6474542335,4.6501474302,-0.9242207158\H,0,-2.24158303
 87,0.2490015257,-0.1833430643\H,0,2.2197610182,1.2126752567,-0.5545524
 703\H,0,2.7201405418,-2.5135277552,1.2373621147\H,0,1.0690819795,-2.18
 47477659,0.4967283877\H,0,2.2259553449,-2.8134491321,-0.6749917422\H,0
 ,0.1096868536,2.2122010598,-0.7968566772\H,0,-0.2175446505,-0.76413658
 35,-0.1083414891\\Version=ES64L-G16RevA.03\State=1-A\HF=-1706.9539829\
 RMSD=6.371e-09\PG=C01 [X(C40H56O2)]\\@


 IN NATURE THERE ARE NEITHER REWARDS OR
 PUNISHMENTS -- THERE ARE CONSEQUENCES.

                            -- ROBERT GREEN INGERSOLL
 Job cpu time:       0 days  2 hours 20 minutes 20.8 seconds.
 Elapsed time:       0 days  1 hours 33 minutes 42.4 seconds.
 File lengths (MBytes):  RWF=   3127 Int=      0 D2E=      0 Chk=     84 Scr=      1
 Normal termination of Gaussian 16 at Mon Jul 15 16:57:06 2019.
