 Entering Gaussian System, Link 0=g16
 Input=Geometria-267-.com
 Output=Geometria-267-.log
 Initial command:
 /usr/local/g16/l1.exe "/home/padawan/israel-mol/lutein/spectra/emi/Gau-20435.inp" -scrdir="/home/padawan/israel-mol/lutein/spectra/emi/"
 Entering Link 1 = /usr/local/g16/l1.exe PID=     20437.
  
 Copyright (c) 1988,1990,1992,1993,1995,1998,2003,2009,2016,
            Gaussian, Inc.  All Rights Reserved.
  
 This is part of the Gaussian(R) 16 program.  It is based on
 the Gaussian(R) 09 system (copyright 2009, Gaussian, Inc.),
 the Gaussian(R) 03 system (copyright 2003, Gaussian, Inc.),
 the Gaussian(R) 98 system (copyright 1998, Gaussian, Inc.),
 the Gaussian(R) 94 system (copyright 1995, Gaussian, Inc.),
 the Gaussian 92(TM) system (copyright 1992, Gaussian, Inc.),
 the Gaussian 90(TM) system (copyright 1990, Gaussian, Inc.),
 the Gaussian 88(TM) system (copyright 1988, Gaussian, Inc.),
 the Gaussian 86(TM) system (copyright 1986, Carnegie Mellon
 University), and the Gaussian 82(TM) system (copyright 1983,
 Carnegie Mellon University). Gaussian is a federally registered
 trademark of Gaussian, Inc.
  
 This software contains proprietary and confidential information,
 including trade secrets, belonging to Gaussian, Inc.
  
 This software is provided under written license and may be
 used, copied, transmitted, or stored only in accord with that
 written license.
  
 The following legend is applicable only to US Government
 contracts under FAR:
  
                    RESTRICTED RIGHTS LEGEND
  
 Use, reproduction and disclosure by the US Government is
 subject to restrictions as set forth in subparagraphs (a)
 and (c) of the Commercial Computer Software - Restricted
 Rights clause in FAR 52.227-19.
  
 Gaussian, Inc.
 340 Quinnipiac St., Bldg. 40, Wallingford CT 06492
  
  
 ---------------------------------------------------------------
 Warning -- This program may not be used in any manner that
 competes with the business of Gaussian, Inc. or will provide
 assistance to any competitor of Gaussian, Inc.  The licensee
 of this program is prohibited from giving any competitor of
 Gaussian, Inc. access to this program.  By using this program,
 the user acknowledges that Gaussian, Inc. is engaged in the
 business of creating and licensing software in the field of
 computational chemistry and represents and warrants to the
 licensee that it is not a competitor of Gaussian, Inc. and that
 it will not use this program in any manner prohibited above.
 ---------------------------------------------------------------
  

 Cite this work as:
 Gaussian 16, Revision A.03,
 M. J. Frisch, G. W. Trucks, H. B. Schlegel, G. E. Scuseria, 
 M. A. Robb, J. R. Cheeseman, G. Scalmani, V. Barone, 
 G. A. Petersson, H. Nakatsuji, X. Li, M. Caricato, A. V. Marenich, 
 J. Bloino, B. G. Janesko, R. Gomperts, B. Mennucci, H. P. Hratchian, 
 J. V. Ortiz, A. F. Izmaylov, J. L. Sonnenberg, D. Williams-Young, 
 F. Ding, F. Lipparini, F. Egidi, J. Goings, B. Peng, A. Petrone, 
 T. Henderson, D. Ranasinghe, V. G. Zakrzewski, J. Gao, N. Rega, 
 G. Zheng, W. Liang, M. Hada, M. Ehara, K. Toyota, R. Fukuda, 
 J. Hasegawa, M. Ishida, T. Nakajima, Y. Honda, O. Kitao, H. Nakai, 
 T. Vreven, K. Throssell, J. A. Montgomery, Jr., J. E. Peralta, 
 F. Ogliaro, M. J. Bearpark, J. J. Heyd, E. N. Brothers, K. N. Kudin, 
 V. N. Staroverov, T. A. Keith, R. Kobayashi, J. Normand, 
 K. Raghavachari, A. P. Rendell, J. C. Burant, S. S. Iyengar, 
 J. Tomasi, M. Cossi, J. M. Millam, M. Klene, C. Adamo, R. Cammi, 
 J. W. Ochterski, R. L. Martin, K. Morokuma, O. Farkas, 
 J. B. Foresman, and D. J. Fox, Gaussian, Inc., Wallingford CT, 2016.
 
 ******************************************
 Gaussian 16:  ES64L-G16RevA.03 25-Dec-2016
                14-Jul-2019 
 ******************************************
 %nproc=4
 Will use up to    4 processors via shared memory.
 %Mem=4GB
 -------------------------------------
 # td=(NStates=1) CAM-B3LYP/6-31G(d,p)
 -------------------------------------
 1/38=1,172=1/1;
 2/12=2,17=6,18=5,40=1/2;
 3/5=1,6=6,7=101,11=9,25=1,30=1,74=-40/1,2,3,8;
 4//1;
 5/5=2,38=5/2;
 8/6=1,10=2,108=1/1;
 9/41=1,42=1,70=2/14;
 6/7=2,8=2,9=2,10=2/1;
 99/5=1,9=1/99;
 --
 TD
 --
 Symbolic Z-matrix:
 Charge =  0 Multiplicity = 1
 8                    -14.11159  -2.14515   1.0038 
 8                     14.83363   0.74569   0.48287 
 6                    -11.80923   0.1515    1.35071 
 6                    -11.09728   0.39378   0.00119 
 6                    -11.85736  -1.36524   1.67275 
 6                    -12.67336  -2.21219   0.59588 
 6                    -11.8206  -0.43819  -1.14913 
 6                     11.09198   0.83367   1.23167 
 6                    -10.89435   0.78808   2.42908 
 6                    -13.20865   0.72438   1.3871 
 6                     12.58021   1.44062   1.15269 
 6                    -12.37993  -1.63082  -0.82788 
 6                     13.57314   0.27384   0.65193 
 6                     10.72888  -0.03537   0.10998 
 6                    -9.63718  -0.0501   -0.07581 
 6                     13.16993  -0.21831  -0.69273 
 6                     11.60818  -0.5142   -0.77575 
 6                     10.21716   2.06248   1.31658 
 6                     10.93229   0.10488   2.59674 
 6                    -11.61625   0.05229  -2.53576 
 6                    -8.60389   0.83844  -0.18059 
 6                     9.32827  -0.34537   0.06847 
 6                     11.38842  -1.19249  -2.10381 
 6                    -7.14507   0.47134  -0.25746 
 6                     8.80045  -1.64171  -0.22071 
 6                    -6.64459  -0.94432  -0.09003 
 6                     7.48706  -2.02028  -0.1853 
 6                    -6.31209   1.52372  -0.37191 
 6                     7.18302  -3.51657   0.03393 
 6                     6.35615  -1.06738  -0.3462 
 6                    -4.85013   1.41019  -0.52914 
 6                     5.04195  -1.4985   -0.33857 
 6                    -4.00727   2.44632  -0.77785 
 6                    -2.65482   2.55022  -0.8739 
 6                     4.00875  -0.54537  -0.60582 
 6                     2.61657  -0.75863  -0.52686 
 6                    -2.10651   3.94887  -1.17147 
 6                    -1.67243   1.47674  -0.60945 
 6                     1.80823   0.33405  -0.74683 
 6                     2.13033  -2.18782  -0.178 
 6                    -0.27033   1.67114  -0.69436 
 6                     0.40055   0.44977  -0.54222 
 1                    -10.88958   1.42243  -0.30256 
 1                    -12.38889  -1.52983   2.62996 
 1                    -10.75526  -1.67331   1.84766 
 1                    -12.45761  -3.24668   0.50769 
 1                    -9.83087   0.35605   2.52983 
 1                    -10.8389   1.86828   2.28927 
 1                    -11.38431   0.67837   3.55348 
 1                    -13.63628   0.48923   0.49742 
 1                    -13.79049   0.53047   2.27837 
 1                    -13.17391   1.75146   1.15288 
 1                     12.61518   2.04827   0.29178 
 1                     12.97364   1.78905   2.05737 
 1                    -12.94943  -2.15774  -1.65316 
 1                     13.4782  -0.37534   1.50466 
 1                    -9.37007  -1.00963   0.1309 
 1                     13.71555  -1.19817  -1.03685 
 1                     13.56188   0.49848  -1.44681 
 1                     9.07541   2.07371   1.6628 
 1                     10.29464   2.66384   0.38161 
 1                     10.79892   2.69399   2.05642 
 1                     11.56998  -0.66728   2.72212 
 1                     9.98902  -0.16338   2.56334 
 1                     11.04964   0.80859   3.40063 
 1                    -10.67708   0.3716   -2.75453 
 1                    -12.36071   0.9344   -2.68196 
 1                    -11.86837  -0.77208  -3.22812 
 1                    -14.5182  -2.54686   0.25172 
 1                     8.51571   0.32265   0.26109 
 1                    -8.94578   1.89383  -0.19992 
 1                     11.54853  -2.14311  -2.28021 
 1                     10.32015  -1.10194  -2.55179 
 1                     11.89117  -0.60189  -2.94886 
 1                     15.32741   1.17892   1.1754 
 1                     9.47682  -2.57162  -0.46937 
 1                    -5.57222  -1.03631  -0.30796 
 1                    -7.04409  -1.2826    0.92002 
 1                    -7.26242  -1.68636  -0.68799 
 1                    -6.88662   2.43651  -0.42258 
 1                     7.04176  -3.90117   0.96684 
 1                     6.28703  -3.81908  -0.70921 
 1                     8.16744  -3.88109  -0.44362 
 1                     6.6662   -0.02031  -0.71248 
 1                    -4.30746   0.38764  -0.35239 
 1                     4.75061  -2.31914  -0.19266 
 1                    -4.56224   3.50686  -0.93568 
 1                     4.33836   0.34762  -0.89883 
 1                    -1.48404   4.02919  -2.06266 
 1                    -1.58313   4.26839  -0.23956 
 1                    -2.88758   4.53908  -1.1727 
 1                    -2.24652   0.665    -0.32354 
 1                     2.39434   1.21048  -0.67645 
 1                     2.3908   -2.53869   0.75121 
 1                     1.04351  -2.25216  -0.29574 
 1                     2.75221  -2.90373  -0.8173 
 1                     0.22415   2.67832  -0.93516 
 1                    -0.18759  -0.59125  -0.43098 
 
 Stoichiometry    C40H56O2
 Framework group  C1[X(C40H56O2)]
 Deg. of freedom   288
 Full point group                 C1      NOp   1
 Largest Abelian subgroup         C1      NOp   1
 Largest concise Abelian subgroup C1      NOp   1
                         Standard orientation:                         
 ---------------------------------------------------------------------
 Center     Atomic      Atomic             Coordinates (Angstroms)
 Number     Number       Type             X           Y           Z
 ---------------------------------------------------------------------
      1          8           0      -14.107344   -2.168754    0.982980
      2          8           0       14.835295    0.752771    0.491053
      3          6           0      -11.806849    0.125422    1.357510
      4          6           0      -11.095413    0.384835    0.010907
      5          6           0      -11.853621   -1.395195    1.660933
      6          6           0      -12.669157   -2.229569    0.573950
      7          6           0      -11.818301   -0.433582   -1.149371
      8          6           0       11.093755    0.828387    1.241718
      9          6           0      -10.892251    0.749505    2.443400
     10          6           0      -13.206737    0.696624    1.401236
     11          6           0       12.581446    1.437528    1.169852
     12          6           0      -12.376550   -1.630535   -0.842639
     13          6           0       13.575247    0.277809    0.654600
     14          6           0       10.731126   -0.027138    0.109538
     15          6           0       -9.634963   -0.056830   -0.071859
     16          6           0       13.172144   -0.198151   -0.695911
     17          6           0       11.610623   -0.494320   -0.782201
     18          6           0       10.217914    2.055323    1.341886
     19          6           0       10.935002    0.082783    2.597781
     20          6           0      -11.614688    0.074035   -2.529923
     21          6           0       -8.602441    0.833799   -0.165971
     22          6           0        9.330763   -0.337791    0.064536
     23          6           0       11.391120   -1.156466   -2.118427
     24          6           0       -7.143329    0.468910   -0.247659
     25          6           0        8.803969   -1.630936   -0.240394
     26          6           0       -6.641616   -0.948280   -0.097712
     27          6           0        7.490908   -2.011025   -0.209337
     28          6           0       -6.311270    1.523311   -0.349384
     29          6           0        7.188186   -3.510138   -0.008401
     30          6           0        6.359162   -1.057174   -0.358285
     31          6           0       -4.849250    1.412964   -0.508327
     32          6           0        5.045320   -1.489468   -0.355652
     33          6           0       -4.007326    2.452773   -0.744496
     34          6           0       -2.654980    2.558993   -0.839569
     35          6           0        4.011263   -0.534005   -0.610961
     36          6           0        2.619276   -0.749402   -0.534308
     37          6           0       -2.107924    3.961647   -1.120085
     38          6           0       -1.671631    1.483181   -0.588519
     39          6           0        1.809963    0.345214   -0.740687
     40          6           0        2.134322   -2.183175   -0.202888
     41          6           0       -0.269711    1.679793   -0.671359
     42          6           0        0.402240    0.457216   -0.534352
     43          1           0      -10.888651    1.417310   -0.280259
     44          1           0      -12.384788   -1.571963    2.616178
     45          1           0      -10.751222   -1.704449    1.831808
     46          1           0      -12.452554   -3.262718    0.473025
     47          1           0       -9.828381    0.317169    2.538608
     48          1           0      -10.837748    1.831384    2.316838
     49          1           0      -11.381850    0.625601    3.566480
     50          1           0      -13.634384    0.472046    0.508831
     51          1           0      -13.788212    0.491314    2.290193
     52          1           0      -13.172917    1.726529    1.179616
     53          1           0       12.615705    2.055715    0.316445
     54          1           0       12.974801    1.775171    2.078649
     55          1           0      -12.945798   -2.147779   -1.674195
     56          1           0       13.481053   -0.381851    1.499325
     57          1           0       -9.366991   -1.018594    0.123008
     58          1           0       13.718501   -1.173259   -1.052137
     59          1           0       13.563309    0.528161   -1.441232
     60          1           0        9.076242    2.061341    1.688471
     61          1           0       10.294670    2.668171    0.414334
     62          1           0       10.799319    2.678214    2.089282
     63          1           0       11.573368   -0.690320    2.713539
     64          1           0        9.991950   -0.185845    2.561304
     65          1           0       11.051938    0.776681    3.410208
     66          1           0      -10.675844    0.396799   -2.744979
     67          1           0      -12.359926    0.957243   -2.665128
     68          1           0      -11.866283   -0.741989   -3.232288
     69          1           0      -14.513789   -2.561557    0.226118
     70          1           0        8.517688    0.327133    0.265517
     71          1           0       -8.945230    1.889059   -0.172275
     72          1           0       11.551992   -2.104709   -2.306507
     73          1           0       10.322675   -1.061328   -2.565024
     74          1           0       11.893172   -0.555124   -2.956285
     75          1           0       15.328878    1.177889    1.188729
     76          1           0        9.481066   -2.557150   -0.500596
     77          1           0       -5.569225   -1.036680   -0.317001
     78          1           0       -7.040601   -1.299255    0.908204
     79          1           0       -7.258966   -1.683448   -0.704588
     80          1           0       -6.886582    2.436173   -0.388725
     81          1           0        7.047466   -3.906276    0.919747
     82          1           0        6.292272   -3.804273   -0.754998
     83          1           0        8.172797   -3.867950   -0.490606
     84          1           0        6.668234   -0.005431   -0.711773
     85          1           0       -4.305679    0.388778   -0.344248
     86          1           0        4.754711   -2.312086   -0.219746
     87          1           0       -4.563228    3.514699   -0.889190
     88          1           0        4.340050    0.362786   -0.893072
     89          1           0       -1.485730    4.053421   -2.010371
     90          1           0       -1.584597    4.270163   -0.184444
     91          1           0       -2.889491    4.551163   -1.113902
     92          1           0       -2.244968    0.667513   -0.312456
     93          1           0        2.395349    1.221201   -0.659698
     94          1           0        2.395307   -2.545190    0.721890
     95          1           0        1.047532   -2.246989   -0.321170
     96          1           0        2.756658   -2.890661   -0.851059
     97          1           0        0.223860    2.690267   -0.899899
     98          1           0       -0.185002   -0.585584   -0.435761
 ---------------------------------------------------------------------
 Rotational constants (GHZ):           0.2425708           0.0097784           0.0096517
 Standard basis: 6-31G(d,p) (6D, 7F)
 There are   910 symmetry adapted cartesian basis functions of A   symmetry.
 There are   910 symmetry adapted basis functions of A   symmetry.
   910 basis functions,  1568 primitive gaussians,   910 cartesian basis functions
   156 alpha electrons      156 beta electrons
       nuclear repulsion energy      4007.9631933042 Hartrees.
 NAtoms=   98 NActive=   98 NUniq=   98 SFac= 1.00D+00 NAtFMM=   60 NAOKFM=T Big=T
 Integral buffers will be    131072 words long.
 Raffenetti 1 integral format.
 Two-electron integral symmetry is turned on.
 One-electron integrals computed using PRISM.
 NBasis=   910 RedAO= T EigKep=  9.01D-04  NBF=   910
 NBsUse=   910 1.00D-06 EigRej= -1.00D+00 NBFU=   910
 ExpMin= 1.61D-01 ExpMax= 5.48D+03 ExpMxC= 8.25D+02 IAcc=3 IRadAn=         5 AccDes= 0.00D+00
 Harris functional with IExCor=20419 and IRadAn=       5 diagonalized for initial guess.
 HarFok:  IExCor=20419 AccDes= 0.00D+00 IRadAn=         5 IDoV= 1 UseB2=F ITyADJ=14
 ICtDFT=  3500011 ScaDFX=  1.000000  1.000000  1.000000  1.000000
 FoFCou: FMM=F IPFlag=           0 FMFlag=      100000 FMFlg1=        2001
         NFxFlg=           0 DoJE=T BraDBF=F KetDBF=T FulRan=T
         wScrn=  0.000000 ICntrl=       500 IOpCl=  0 I1Cent=   200000004 NGrid=           0
         NMat0=    1 NMatS0=      1 NMatT0=    0 NMatD0=    1 NMtDS0=    0 NMtDT0=    0
 Petite list used in FoFCou.
 Requested convergence on RMS density matrix=1.00D-08 within 128 cycles.
 Requested convergence on MAX density matrix=1.00D-06.
 Requested convergence on             energy=1.00D-06.
 No special actions if energy rises.
 Integral accuracy reduced to 1.0D-05 until final iterations.
 Initial convergence to 1.0D-05 achieved.  Increase integral accuracy.
 SCF Done:  E(RCAM-B3LYP) =  -1706.96725511     A.U. after   15 cycles
            NFock= 15  Conv=0.61D-08     -V/T= 2.0095
 DoSCS=F DFT=T ScalE2(SS,OS)=  1.000000  1.000000
 ExpMin= 1.61D-01 ExpMax= 5.48D+03 ExpMxC= 8.25D+02 IAcc=3 IRadAn=         5 AccDes= 0.00D+00
 HarFok:  IExCor=  205 AccDes= 0.00D+00 IRadAn=         5 IDoV=-2 UseB2=F ITyADJ=14
 ICtDFT= 12500011 ScaDFX=  1.000000  1.000000  1.000000  1.000000
 GSVD:  LWork=       -2100 too small for GESVD, short by        9450 words or        9450 for optimal perf.
 Range of M.O.s used for correlation:    43   910
 NBasis=   910 NAE=   156 NBE=   156 NFC=    42 NFV=     0
 NROrb=    868 NOA=   114 NOB=   114 NVA=   754 NVB=   754
 Orbital symmetries:
       Occupied  (A) (A) (A) (A) (A) (A) (A) (A) (A) (A) (A) (A)
                 (A) (A) (A) (A) (A) (A) (A) (A) (A) (A) (A) (A)
                 (A) (A) (A) (A) (A) (A) (A) (A) (A) (A) (A) (A)
                 (A) (A) (A) (A) (A) (A) (A) (A) (A) (A) (A) (A)
                 (A) (A) (A) (A) (A) (A) (A) (A) (A) (A) (A) (A)
                 (A) (A) (A) (A) (A) (A) (A) (A) (A) (A) (A) (A)
                 (A) (A) (A) (A) (A) (A) (A) (A) (A) (A) (A) (A)
                 (A) (A) (A) (A) (A) (A) (A) (A) (A) (A) (A) (A)
                 (A) (A) (A) (A) (A) (A) (A) (A) (A) (A) (A) (A)
                 (A) (A) (A) (A) (A) (A) (A) (A) (A) (A) (A) (A)
                 (A) (A) (A) (A) (A) (A) (A) (A) (A) (A) (A) (A)
                 (A) (A) (A) (A) (A) (A) (A) (A) (A) (A) (A) (A)
                 (A) (A) (A) (A) (A) (A) (A) (A) (A) (A) (A) (A)
       Virtual   (A) (A) (A) (A) (A) (A) (A) (A) (A) (A) (A) (A)
                 (A) (A) (A) (A) (A) (A) (A) (A) (A) (A) (A) (A)
                 (A) (A) (A) (A) (A) (A) (A) (A) (A) (A) (A) (A)
                 (A) (A) (A) (A) (A) (A) (A) (A) (A) (A) (A) (A)
                 (A) (A) (A) (A) (A) (A) (A) (A) (A) (A) (A) (A)
                 (A) (A) (A) (A) (A) (A) (A) (A) (A) (A) (A) (A)
                 (A) (A) (A) (A) (A) (A) (A) (A) (A) (A) (A) (A)
                 (A) (A) (A) (A) (A) (A) (A) (A) (A) (A) (A) (A)
                 (A) (A) (A) (A) (A) (A) (A) (A) (A) (A) (A) (A)
                 (A) (A) (A) (A) (A) (A) (A) (A) (A) (A) (A) (A)
                 (A) (A) (A) (A) (A) (A) (A) (A) (A) (A) (A) (A)
                 (A) (A) (A) (A) (A) (A) (A) (A) (A) (A) (A) (A)
                 (A) (A) (A) (A) (A) (A) (A) (A) (A) (A) (A) (A)
                 (A) (A) (A) (A) (A) (A) (A) (A) (A) (A) (A) (A)
                 (A) (A) (A) (A) (A) (A) (A) (A) (A) (A) (A) (A)
                 (A) (A) (A) (A) (A) (A) (A) (A) (A) (A) (A) (A)
                 (A) (A) (A) (A) (A) (A) (A) (A) (A) (A) (A) (A)
                 (A) (A) (A) (A) (A) (A) (A) (A) (A) (A) (A) (A)
                 (A) (A) (A) (A) (A) (A) (A) (A) (A) (A) (A) (A)
                 (A) (A) (A) (A) (A) (A) (A) (A) (A) (A) (A) (A)
                 (A) (A) (A) (A) (A) (A) (A) (A) (A) (A) (A) (A)
                 (A) (A) (A) (A) (A) (A) (A) (A) (A) (A) (A) (A)
                 (A) (A) (A) (A) (A) (A) (A) (A) (A) (A) (A) (A)
                 (A) (A) (A) (A) (A) (A) (A) (A) (A) (A) (A) (A)
                 (A) (A) (A) (A) (A) (A) (A) (A) (A) (A) (A) (A)
                 (A) (A) (A) (A) (A) (A) (A) (A) (A) (A) (A) (A)
                 (A) (A) (A) (A) (A) (A) (A) (A) (A) (A) (A) (A)
                 (A) (A) (A) (A) (A) (A) (A) (A) (A) (A) (A) (A)
                 (A) (A) (A) (A) (A) (A) (A) (A) (A) (A) (A) (A)
                 (A) (A) (A) (A) (A) (A) (A) (A) (A) (A) (A) (A)
                 (A) (A) (A) (A) (A) (A) (A) (A) (A) (A) (A) (A)
                 (A) (A) (A) (A) (A) (A) (A) (A) (A) (A) (A) (A)
                 (A) (A) (A) (A) (A) (A) (A) (A) (A) (A) (A) (A)
                 (A) (A) (A) (A) (A) (A) (A) (A) (A) (A) (A) (A)
                 (A) (A) (A) (A) (A) (A) (A) (A) (A) (A) (A) (A)
                 (A) (A) (A) (A) (A) (A) (A) (A) (A) (A) (A) (A)
                 (A) (A) (A) (A) (A) (A) (A) (A) (A) (A) (A) (A)
                 (A) (A) (A) (A) (A) (A) (A) (A) (A) (A) (A) (A)
                 (A) (A) (A) (A) (A) (A) (A) (A) (A) (A) (A) (A)
                 (A) (A) (A) (A) (A) (A) (A) (A) (A) (A) (A) (A)
                 (A) (A) (A) (A) (A) (A) (A) (A) (A) (A) (A) (A)
                 (A) (A) (A) (A) (A) (A) (A) (A) (A) (A) (A) (A)
                 (A) (A) (A) (A) (A) (A) (A) (A) (A) (A) (A) (A)
                 (A) (A) (A) (A) (A) (A) (A) (A) (A) (A) (A) (A)
                 (A) (A) (A) (A) (A) (A) (A) (A) (A) (A) (A) (A)
                 (A) (A) (A) (A) (A) (A) (A) (A) (A) (A) (A) (A)
                 (A) (A) (A) (A) (A) (A) (A) (A) (A) (A) (A) (A)
                 (A) (A) (A) (A) (A) (A) (A) (A) (A) (A) (A) (A)
                 (A) (A) (A) (A) (A) (A) (A) (A) (A) (A) (A) (A)
                 (A) (A) (A) (A) (A) (A) (A) (A) (A) (A) (A) (A)
                 (A) (A) (A) (A) (A) (A) (A) (A) (A) (A) (A) (A)
                 (A) (A) (A) (A) (A) (A) (A) (A) (A) (A) (A) (A)
                 (A) (A) (A) (A) (A) (A) (A) (A) (A) (A) (A) (A)
                 (A) (A) (A) (A) (A) (A) (A) (A) (A) (A) (A) (A)
                 (A) (A) (A) (A) (A) (A) (A) (A) (A) (A) (A) (A)
                 (A) (A) (A) (A) (A) (A) (A) (A) (A) (A) (A) (A)
                 (A) (A) (A) (A) (A) (A) (A) (A) (A) (A) (A) (A)
                 (A) (A) (A) (A) (A) (A) (A) (A) (A) (A) (A) (A)
                 (A) (A) (A) (A) (A) (A) (A) (A) (A) (A) (A) (A)
                 (A) (A) (A) (A) (A) (A) (A) (A) (A) (A) (A) (A)
                 (A) (A) (A) (A) (A) (A) (A) (A) (A) (A) (A) (A)
                 (A) (A) (A) (A) (A) (A) (A) (A) (A) (A) (A) (A)
                 (A) (A) (A) (A) (A) (A) (A) (A) (A) (A)
     4 initial guesses have been made.
 Convergence on wavefunction:    0.001000000000000
 Iteration     1 Dimension     4 NMult     0 NNew      4
 CISAX will form     4 AO SS matrices at one time.
 Iteration     2 Dimension     6 NMult     4 NNew      2
 Iteration     3 Dimension     8 NMult     6 NNew      2
 Iteration     4 Dimension    10 NMult     8 NNew      2
 Iteration     5 Dimension    12 NMult    10 NNew      2
 Iteration     6 Dimension    14 NMult    12 NNew      2
 ***********************************************************************
 Excited states from <AA,BB:AA,BB> singles matrix:
 ***********************************************************************
 
 Ground to excited state transition densities written to RWF  633
 Ground to excited state transition electric dipole moments (Au):
       state          X           Y           Z        Dip. S.      Osc.
         1        -8.1342      1.1502     -0.1572     67.5127      3.0982
 Ground to excited state transition velocity dipole moments (Au):
       state          X           Y           Z        Dip. S.      Osc.
         1         0.5424     -0.0743      0.0118      0.2999      2.9042
 Ground to excited state transition magnetic dipole moments (Au):
       state          X           Y           Z
         1        -0.2089     -0.8304     -0.7931
 Ground to excited state transition velocity quadrupole moments (Au):
       state          XX          YY          ZZ          XY          XZ          YZ
         1         2.8614     -0.0637      0.0203     -0.3477     -0.1076      0.1306
 <0|del|b> * <b|rxdel|0> + <0|del|b> * <b|delr+rdel|0>
 Rotatory Strengths (R) in cgs (10**-40 erg-esu-cm/Gauss)
       state          XX          YY          ZZ    R(velocity)    E-M Angle
         1       206.9980   -245.1904   -587.6689   -208.6205       95.47
 1/2[<0|r|b>*<b|rxdel|0> + (<0|rxdel|b>*<b|r|0>)*]
 Rotatory Strengths (R) in cgs (10**-40 erg-esu-cm/Gauss)
       state          XX          YY          ZZ     R(length)
         1     -1201.6796    675.4004    -88.1609   -204.8134
  1/2[<0|del|b>*<b|r|0> + (<0|r|b>*<b|del|0>)*] (Au)
       state          X           Y           Z        Dip. S.   Osc.(frdel)
         1        -4.4121     -0.0855     -0.0019      4.4994      2.9996

 Excitation energies and oscillator strengths:
 
 Excited State   1:      Singlet-A      1.8731 eV  661.91 nm  f=3.0982  <S**2>=0.000
     155 ->158         0.14977
     156 ->157         0.69667
     156 <-157        -0.11089
 This state for optimization and/or second-order correction.
 Total Energy, E(TD-HF/TD-DFT) =  -1706.89841849    
 Copying the excited state density for this state as the 1-particle RhoCI density.
 SavETr:  write IOETrn=   770 NScale= 10 NData=  16 NLR=1 NState=    1 LETran=      28.

 **********************************************************************

            Population analysis using the SCF density.

 **********************************************************************

 Orbital symmetries:
       Occupied  (A) (A) (A) (A) (A) (A) (A) (A) (A) (A) (A) (A)
                 (A) (A) (A) (A) (A) (A) (A) (A) (A) (A) (A) (A)
                 (A) (A) (A) (A) (A) (A) (A) (A) (A) (A) (A) (A)
                 (A) (A) (A) (A) (A) (A) (A) (A) (A) (A) (A) (A)
                 (A) (A) (A) (A) (A) (A) (A) (A) (A) (A) (A) (A)
                 (A) (A) (A) (A) (A) (A) (A) (A) (A) (A) (A) (A)
                 (A) (A) (A) (A) (A) (A) (A) (A) (A) (A) (A) (A)
                 (A) (A) (A) (A) (A) (A) (A) (A) (A) (A) (A) (A)
                 (A) (A) (A) (A) (A) (A) (A) (A) (A) (A) (A) (A)
                 (A) (A) (A) (A) (A) (A) (A) (A) (A) (A) (A) (A)
                 (A) (A) (A) (A) (A) (A) (A) (A) (A) (A) (A) (A)
                 (A) (A) (A) (A) (A) (A) (A) (A) (A) (A) (A) (A)
                 (A) (A) (A) (A) (A) (A) (A) (A) (A) (A) (A) (A)
       Virtual   (A) (A) (A) (A) (A) (A) (A) (A) (A) (A) (A) (A)
                 (A) (A) (A) (A) (A) (A) (A) (A) (A) (A) (A) (A)
                 (A) (A) (A) (A) (A) (A) (A) (A) (A) (A) (A) (A)
                 (A) (A) (A) (A) (A) (A) (A) (A) (A) (A) (A) (A)
                 (A) (A) (A) (A) (A) (A) (A) (A) (A) (A) (A) (A)
                 (A) (A) (A) (A) (A) (A) (A) (A) (A) (A) (A) (A)
                 (A) (A) (A) (A) (A) (A) (A) (A) (A) (A) (A) (A)
                 (A) (A) (A) (A) (A) (A) (A) (A) (A) (A) (A) (A)
                 (A) (A) (A) (A) (A) (A) (A) (A) (A) (A) (A) (A)
                 (A) (A) (A) (A) (A) (A) (A) (A) (A) (A) (A) (A)
                 (A) (A) (A) (A) (A) (A) (A) (A) (A) (A) (A) (A)
                 (A) (A) (A) (A) (A) (A) (A) (A) (A) (A) (A) (A)
                 (A) (A) (A) (A) (A) (A) (A) (A) (A) (A) (A) (A)
                 (A) (A) (A) (A) (A) (A) (A) (A) (A) (A) (A) (A)
                 (A) (A) (A) (A) (A) (A) (A) (A) (A) (A) (A) (A)
                 (A) (A) (A) (A) (A) (A) (A) (A) (A) (A) (A) (A)
                 (A) (A) (A) (A) (A) (A) (A) (A) (A) (A) (A) (A)
                 (A) (A) (A) (A) (A) (A) (A) (A) (A) (A) (A) (A)
                 (A) (A) (A) (A) (A) (A) (A) (A) (A) (A) (A) (A)
                 (A) (A) (A) (A) (A) (A) (A) (A) (A) (A) (A) (A)
                 (A) (A) (A) (A) (A) (A) (A) (A) (A) (A) (A) (A)
                 (A) (A) (A) (A) (A) (A) (A) (A) (A) (A) (A) (A)
                 (A) (A) (A) (A) (A) (A) (A) (A) (A) (A) (A) (A)
                 (A) (A) (A) (A) (A) (A) (A) (A) (A) (A) (A) (A)
                 (A) (A) (A) (A) (A) (A) (A) (A) (A) (A) (A) (A)
                 (A) (A) (A) (A) (A) (A) (A) (A) (A) (A) (A) (A)
                 (A) (A) (A) (A) (A) (A) (A) (A) (A) (A) (A) (A)
                 (A) (A) (A) (A) (A) (A) (A) (A) (A) (A) (A) (A)
                 (A) (A) (A) (A) (A) (A) (A) (A) (A) (A) (A) (A)
                 (A) (A) (A) (A) (A) (A) (A) (A) (A) (A) (A) (A)
                 (A) (A) (A) (A) (A) (A) (A) (A) (A) (A) (A) (A)
                 (A) (A) (A) (A) (A) (A) (A) (A) (A) (A) (A) (A)
                 (A) (A) (A) (A) (A) (A) (A) (A) (A) (A) (A) (A)
                 (A) (A) (A) (A) (A) (A) (A) (A) (A) (A) (A) (A)
                 (A) (A) (A) (A) (A) (A) (A) (A) (A) (A) (A) (A)
                 (A) (A) (A) (A) (A) (A) (A) (A) (A) (A) (A) (A)
                 (A) (A) (A) (A) (A) (A) (A) (A) (A) (A) (A) (A)
                 (A) (A) (A) (A) (A) (A) (A) (A) (A) (A) (A) (A)
                 (A) (A) (A) (A) (A) (A) (A) (A) (A) (A) (A) (A)
                 (A) (A) (A) (A) (A) (A) (A) (A) (A) (A) (A) (A)
                 (A) (A) (A) (A) (A) (A) (A) (A) (A) (A) (A) (A)
                 (A) (A) (A) (A) (A) (A) (A) (A) (A) (A) (A) (A)
                 (A) (A) (A) (A) (A) (A) (A) (A) (A) (A) (A) (A)
                 (A) (A) (A) (A) (A) (A) (A) (A) (A) (A) (A) (A)
                 (A) (A) (A) (A) (A) (A) (A) (A) (A) (A) (A) (A)
                 (A) (A) (A) (A) (A) (A) (A) (A) (A) (A) (A) (A)
                 (A) (A) (A) (A) (A) (A) (A) (A) (A) (A) (A) (A)
                 (A) (A) (A) (A) (A) (A) (A) (A) (A) (A) (A) (A)
                 (A) (A) (A) (A) (A) (A) (A) (A) (A) (A) (A) (A)
                 (A) (A) (A) (A) (A) (A) (A) (A) (A) (A) (A) (A)
                 (A) (A) (A) (A) (A) (A) (A) (A) (A) (A) (A) (A)
                 (A) (A) (A) (A) (A) (A) (A) (A) (A) (A) (A) (A)
                 (A) (A) (A) (A) (A) (A) (A) (A) (A) (A) (A) (A)
                 (A) (A) (A) (A) (A) (A) (A) (A) (A) (A) (A) (A)
                 (A) (A) (A) (A) (A) (A) (A) (A) (A) (A) (A) (A)
                 (A) (A) (A) (A) (A) (A) (A) (A) (A) (A) (A) (A)
                 (A) (A) (A) (A) (A) (A) (A) (A) (A) (A) (A) (A)
                 (A) (A) (A) (A) (A) (A) (A) (A) (A) (A) (A) (A)
                 (A) (A) (A) (A) (A) (A) (A) (A) (A) (A) (A) (A)
                 (A) (A) (A) (A) (A) (A) (A) (A) (A) (A) (A) (A)
                 (A) (A) (A) (A) (A) (A) (A) (A) (A) (A) (A) (A)
                 (A) (A) (A) (A) (A) (A) (A) (A) (A) (A) (A) (A)
                 (A) (A) (A) (A) (A) (A) (A) (A) (A) (A)
 The electronic state is 1-A.
 Alpha  occ. eigenvalues --  -19.20817 -19.20512 -10.31377 -10.29617 -10.28085
 Alpha  occ. eigenvalues --  -10.28026 -10.27568 -10.27464 -10.27455 -10.27415
 Alpha  occ. eigenvalues --  -10.27374 -10.27122 -10.27025 -10.26988 -10.26851
 Alpha  occ. eigenvalues --  -10.26796 -10.26697 -10.26684 -10.26682 -10.26643
 Alpha  occ. eigenvalues --  -10.26504 -10.26379 -10.26275 -10.26195 -10.26016
 Alpha  occ. eigenvalues --  -10.25856 -10.25829 -10.25817 -10.25766 -10.25629
 Alpha  occ. eigenvalues --  -10.25580 -10.25517 -10.25416 -10.25303 -10.25289
 Alpha  occ. eigenvalues --  -10.25131 -10.24600 -10.24577 -10.23963 -10.23906
 Alpha  occ. eigenvalues --  -10.21938 -10.21717  -1.10793  -1.07876  -0.93771
 Alpha  occ. eigenvalues --   -0.93059  -0.92015  -0.91305  -0.90176  -0.89594
 Alpha  occ. eigenvalues --   -0.87188  -0.86578  -0.86489  -0.85021  -0.84326
 Alpha  occ. eigenvalues --   -0.83179  -0.81540  -0.80385  -0.79713  -0.78735
 Alpha  occ. eigenvalues --   -0.77013  -0.76965  -0.76460  -0.76241  -0.76145
 Alpha  occ. eigenvalues --   -0.75529  -0.74588  -0.73710  -0.72569  -0.70689
 Alpha  occ. eigenvalues --   -0.69301  -0.68128  -0.66828  -0.65782  -0.64807
 Alpha  occ. eigenvalues --   -0.63722  -0.63020  -0.61826  -0.61084  -0.59714
 Alpha  occ. eigenvalues --   -0.59689  -0.58859  -0.57693  -0.57021  -0.56423
 Alpha  occ. eigenvalues --   -0.55913  -0.55194  -0.54655  -0.53949  -0.53801
 Alpha  occ. eigenvalues --   -0.53390  -0.52503  -0.52447  -0.51682  -0.50840
 Alpha  occ. eigenvalues --   -0.50759  -0.50243  -0.50022  -0.49467  -0.49242
 Alpha  occ. eigenvalues --   -0.49172  -0.48751  -0.48634  -0.48370  -0.47941
 Alpha  occ. eigenvalues --   -0.47429  -0.47307  -0.46841  -0.46551  -0.46422
 Alpha  occ. eigenvalues --   -0.46255  -0.45936  -0.45298  -0.45147  -0.44613
 Alpha  occ. eigenvalues --   -0.44428  -0.44332  -0.44149  -0.44026  -0.43695
 Alpha  occ. eigenvalues --   -0.43069  -0.42881  -0.42802  -0.42544  -0.41907
 Alpha  occ. eigenvalues --   -0.41759  -0.41378  -0.41196  -0.41186  -0.40769
 Alpha  occ. eigenvalues --   -0.40612  -0.40388  -0.39830  -0.39527  -0.39380
 Alpha  occ. eigenvalues --   -0.39294  -0.39012  -0.38497  -0.38121  -0.37816
 Alpha  occ. eigenvalues --   -0.37483  -0.37029  -0.36757  -0.36407  -0.35586
 Alpha  occ. eigenvalues --   -0.35333  -0.34498  -0.33651  -0.32444  -0.31685
 Alpha  occ. eigenvalues --   -0.29991  -0.29775  -0.28971  -0.27274  -0.22865
 Alpha  occ. eigenvalues --   -0.18375
 Alpha virt. eigenvalues --   -0.06596  -0.01541   0.02989   0.05375   0.07090
 Alpha virt. eigenvalues --    0.08960   0.10974   0.11606   0.12279   0.12617
 Alpha virt. eigenvalues --    0.12931   0.13273   0.13447   0.13812   0.14255
 Alpha virt. eigenvalues --    0.14517   0.14849   0.15049   0.15566   0.15720
 Alpha virt. eigenvalues --    0.16010   0.16232   0.16713   0.16983   0.17260
 Alpha virt. eigenvalues --    0.17480   0.17584   0.17940   0.18256   0.18519
 Alpha virt. eigenvalues --    0.18800   0.18898   0.19696   0.19808   0.20302
 Alpha virt. eigenvalues --    0.20390   0.20471   0.20588   0.20801   0.21119
 Alpha virt. eigenvalues --    0.21596   0.21811   0.22473   0.22603   0.22724
 Alpha virt. eigenvalues --    0.22910   0.23182   0.23470   0.23645   0.23791
 Alpha virt. eigenvalues --    0.24117   0.24272   0.24436   0.24711   0.24886
 Alpha virt. eigenvalues --    0.25211   0.25740   0.25809   0.26189   0.26494
 Alpha virt. eigenvalues --    0.26825   0.26906   0.27660   0.27664   0.27817
 Alpha virt. eigenvalues --    0.28081   0.28263   0.28661   0.28878   0.29430
 Alpha virt. eigenvalues --    0.29608   0.29859   0.29949   0.30226   0.30775
 Alpha virt. eigenvalues --    0.30953   0.31624   0.31855   0.32142   0.32315
 Alpha virt. eigenvalues --    0.33302   0.33447   0.33728   0.34124   0.34371
 Alpha virt. eigenvalues --    0.34775   0.35449   0.35929   0.37009   0.37677
 Alpha virt. eigenvalues --    0.38046   0.38686   0.40069   0.40876   0.40931
 Alpha virt. eigenvalues --    0.41728   0.42891   0.43961   0.44559   0.45082
 Alpha virt. eigenvalues --    0.46244   0.46839   0.47796   0.48516   0.48779
 Alpha virt. eigenvalues --    0.49655   0.50158   0.51507   0.52862   0.53829
 Alpha virt. eigenvalues --    0.54730   0.55445   0.55626   0.56186   0.56426
 Alpha virt. eigenvalues --    0.56685   0.57074   0.57174   0.57919   0.58155
 Alpha virt. eigenvalues --    0.58511   0.59134   0.59287   0.59595   0.60211
 Alpha virt. eigenvalues --    0.60336   0.60460   0.60763   0.61066   0.61761
 Alpha virt. eigenvalues --    0.61828   0.62384   0.62450   0.62975   0.63295
 Alpha virt. eigenvalues --    0.63545   0.64054   0.64500   0.64870   0.65097
 Alpha virt. eigenvalues --    0.65440   0.65981   0.66445   0.66522   0.66626
 Alpha virt. eigenvalues --    0.66876   0.67212   0.67414   0.67561   0.67663
 Alpha virt. eigenvalues --    0.68160   0.68490   0.68656   0.69233   0.69435
 Alpha virt. eigenvalues --    0.69728   0.70197   0.70613   0.71277   0.71347
 Alpha virt. eigenvalues --    0.71619   0.71880   0.72072   0.72580   0.72654
 Alpha virt. eigenvalues --    0.73846   0.74288   0.74423   0.74681   0.75183
 Alpha virt. eigenvalues --    0.75823   0.75840   0.75959   0.76496   0.77133
 Alpha virt. eigenvalues --    0.77336   0.77679   0.78686   0.79032   0.79136
 Alpha virt. eigenvalues --    0.79246   0.79601   0.80215   0.80421   0.80816
 Alpha virt. eigenvalues --    0.81064   0.81592   0.82044   0.82500   0.82629
 Alpha virt. eigenvalues --    0.83033   0.83400   0.84375   0.84584   0.85140
 Alpha virt. eigenvalues --    0.85246   0.85472   0.85966   0.86376   0.86610
 Alpha virt. eigenvalues --    0.86996   0.87256   0.87922   0.88043   0.88206
 Alpha virt. eigenvalues --    0.88520   0.88855   0.88892   0.89185   0.89391
 Alpha virt. eigenvalues --    0.89488   0.89784   0.90471   0.90648   0.90795
 Alpha virt. eigenvalues --    0.91314   0.91419   0.91610   0.91991   0.92803
 Alpha virt. eigenvalues --    0.92977   0.93529   0.93544   0.93962   0.94019
 Alpha virt. eigenvalues --    0.94629   0.95199   0.95258   0.95647   0.95929
 Alpha virt. eigenvalues --    0.96066   0.96278   0.96503   0.96888   0.97201
 Alpha virt. eigenvalues --    0.97458   0.97728   0.98127   0.98444   0.98924
 Alpha virt. eigenvalues --    0.99170   0.99773   0.99908   1.00238   1.00482
 Alpha virt. eigenvalues --    1.00763   1.00978   1.01589   1.01718   1.01860
 Alpha virt. eigenvalues --    1.02043   1.02637   1.03585   1.03668   1.03901
 Alpha virt. eigenvalues --    1.04174   1.04892   1.05329   1.05595   1.06007
 Alpha virt. eigenvalues --    1.06190   1.06537   1.06954   1.07299   1.07484
 Alpha virt. eigenvalues --    1.07695   1.08260   1.08545   1.08850   1.09258
 Alpha virt. eigenvalues --    1.10085   1.10888   1.11228   1.11599   1.12061
 Alpha virt. eigenvalues --    1.12942   1.13579   1.14036   1.14905   1.15314
 Alpha virt. eigenvalues --    1.15612   1.16548   1.17199   1.17529   1.18211
 Alpha virt. eigenvalues --    1.18733   1.19588   1.19941   1.21023   1.21338
 Alpha virt. eigenvalues --    1.22401   1.23097   1.23789   1.24563   1.24787
 Alpha virt. eigenvalues --    1.25287   1.26179   1.27544   1.28723   1.29635
 Alpha virt. eigenvalues --    1.29999   1.31007   1.31535   1.33277   1.33897
 Alpha virt. eigenvalues --    1.34389   1.35373   1.35851   1.36132   1.36625
 Alpha virt. eigenvalues --    1.36947   1.37421   1.37770   1.38020   1.38738
 Alpha virt. eigenvalues --    1.39791   1.40129   1.40423   1.41923   1.42153
 Alpha virt. eigenvalues --    1.43229   1.43676   1.44579   1.44865   1.45183
 Alpha virt. eigenvalues --    1.46996   1.47491   1.47890   1.48194   1.48564
 Alpha virt. eigenvalues --    1.48949   1.49382   1.51276   1.51466   1.51977
 Alpha virt. eigenvalues --    1.52509   1.53278   1.53694   1.55060   1.55457
 Alpha virt. eigenvalues --    1.55793   1.56909   1.57512   1.58028   1.58397
 Alpha virt. eigenvalues --    1.58747   1.59301   1.59538   1.60611   1.61488
 Alpha virt. eigenvalues --    1.62754   1.62820   1.63844   1.64982   1.66194
 Alpha virt. eigenvalues --    1.67706   1.67966   1.68884   1.70155   1.70449
 Alpha virt. eigenvalues --    1.72510   1.72915   1.74417   1.75193   1.75693
 Alpha virt. eigenvalues --    1.76892   1.77600   1.78064   1.78951   1.79398
 Alpha virt. eigenvalues --    1.79530   1.79741   1.80129   1.80506   1.80968
 Alpha virt. eigenvalues --    1.81166   1.81924   1.82523   1.82820   1.83733
 Alpha virt. eigenvalues --    1.84345   1.84802   1.85366   1.85473   1.85734
 Alpha virt. eigenvalues --    1.85834   1.86651   1.87970   1.88448   1.88952
 Alpha virt. eigenvalues --    1.89099   1.89982   1.90284   1.90710   1.90997
 Alpha virt. eigenvalues --    1.91277   1.91858   1.92091   1.92592   1.93588
 Alpha virt. eigenvalues --    1.93723   1.94113   1.94377   1.95134   1.95409
 Alpha virt. eigenvalues --    1.95778   1.96159   1.96269   1.96406   1.96984
 Alpha virt. eigenvalues --    1.97864   1.98179   1.98318   1.98349   1.99514
 Alpha virt. eigenvalues --    1.99536   2.00042   2.00774   2.00997   2.01330
 Alpha virt. eigenvalues --    2.01679   2.02508   2.03156   2.03298   2.03773
 Alpha virt. eigenvalues --    2.04407   2.04768   2.05028   2.05683   2.06029
 Alpha virt. eigenvalues --    2.07078   2.07179   2.07690   2.07740   2.08633
 Alpha virt. eigenvalues --    2.09622   2.09788   2.10122   2.10639   2.11027
 Alpha virt. eigenvalues --    2.11428   2.11512   2.11769   2.12556   2.12659
 Alpha virt. eigenvalues --    2.12892   2.13387   2.14052   2.14559   2.14774
 Alpha virt. eigenvalues --    2.15601   2.15780   2.15914   2.16187   2.16956
 Alpha virt. eigenvalues --    2.17509   2.17615   2.17858   2.18045   2.18678
 Alpha virt. eigenvalues --    2.19216   2.19242   2.19498   2.19710   2.19996
 Alpha virt. eigenvalues --    2.20229   2.20793   2.21216   2.21383   2.22329
 Alpha virt. eigenvalues --    2.22723   2.22894   2.23309   2.23500   2.25038
 Alpha virt. eigenvalues --    2.25050   2.25633   2.26172   2.26699   2.26948
 Alpha virt. eigenvalues --    2.27658   2.28027   2.28337   2.28873   2.28970
 Alpha virt. eigenvalues --    2.29480   2.29785   2.30558   2.31158   2.31307
 Alpha virt. eigenvalues --    2.31742   2.32679   2.32908   2.33133   2.34389
 Alpha virt. eigenvalues --    2.34909   2.35551   2.36322   2.36440   2.37112
 Alpha virt. eigenvalues --    2.37931   2.38245   2.38364   2.38837   2.39538
 Alpha virt. eigenvalues --    2.40418   2.41110   2.41270   2.42327   2.42728
 Alpha virt. eigenvalues --    2.43115   2.43373   2.44342   2.44657   2.45174
 Alpha virt. eigenvalues --    2.45453   2.45718   2.46806   2.47339   2.47545
 Alpha virt. eigenvalues --    2.47805   2.48326   2.48856   2.49458   2.50233
 Alpha virt. eigenvalues --    2.50426   2.51374   2.51917   2.52038   2.52444
 Alpha virt. eigenvalues --    2.52837   2.53189   2.53987   2.54109   2.54505
 Alpha virt. eigenvalues --    2.54882   2.55330   2.56256   2.56459   2.57035
 Alpha virt. eigenvalues --    2.57672   2.57966   2.58319   2.58766   2.59000
 Alpha virt. eigenvalues --    2.59775   2.60269   2.60631   2.61162   2.61538
 Alpha virt. eigenvalues --    2.61871   2.63098   2.63198   2.63570   2.64059
 Alpha virt. eigenvalues --    2.64367   2.64497   2.65289   2.65738   2.65878
 Alpha virt. eigenvalues --    2.66834   2.67214   2.67424   2.67782   2.68945
 Alpha virt. eigenvalues --    2.69306   2.69923   2.70510   2.70681   2.71223
 Alpha virt. eigenvalues --    2.71594   2.71953   2.72422   2.72921   2.73084
 Alpha virt. eigenvalues --    2.73563   2.73779   2.74252   2.74897   2.75313
 Alpha virt. eigenvalues --    2.75716   2.75922   2.76242   2.76539   2.76834
 Alpha virt. eigenvalues --    2.77186   2.77917   2.78926   2.79452   2.80138
 Alpha virt. eigenvalues --    2.80523   2.81041   2.81229   2.81594   2.82288
 Alpha virt. eigenvalues --    2.82753   2.83248   2.83627   2.83835   2.84076
 Alpha virt. eigenvalues --    2.84327   2.85013   2.85664   2.86372   2.87010
 Alpha virt. eigenvalues --    2.87050   2.88205   2.88532   2.88641   2.89773
 Alpha virt. eigenvalues --    2.90336   2.90847   2.91271   2.91596   2.91753
 Alpha virt. eigenvalues --    2.92217   2.92514   2.93979   2.94497   2.95524
 Alpha virt. eigenvalues --    2.96152   2.96705   2.97607   2.98220   2.98888
 Alpha virt. eigenvalues --    2.98943   2.99555   3.00463   3.00899   3.01244
 Alpha virt. eigenvalues --    3.01404   3.01529   3.02010   3.02606   3.03093
 Alpha virt. eigenvalues --    3.04276   3.05005   3.05796   3.06251   3.06651
 Alpha virt. eigenvalues --    3.08739   3.11903   3.11992   3.12763   3.12903
 Alpha virt. eigenvalues --    3.14393   3.14978   3.15668   3.16577   3.16778
 Alpha virt. eigenvalues --    3.17496   3.18077   3.18750   3.19010   3.20227
 Alpha virt. eigenvalues --    3.20955   3.22226   3.23624   3.25089   3.25445
 Alpha virt. eigenvalues --    3.30702   3.32431   3.32631   3.32728   3.33655
 Alpha virt. eigenvalues --    3.34609   3.38381   3.39738   3.40898   3.41354
 Alpha virt. eigenvalues --    3.43232   3.44246   3.44544   3.44784   3.45763
 Alpha virt. eigenvalues --    3.46848   3.46950   3.47465   3.48278   3.48435
 Alpha virt. eigenvalues --    3.49301   3.49755   3.50002   3.50855   3.52141
 Alpha virt. eigenvalues --    3.52528   3.53141   3.54412   3.54819   3.55454
 Alpha virt. eigenvalues --    3.56371   3.57193   3.58181   3.60518   3.61816
 Alpha virt. eigenvalues --    3.62526   3.62959   3.63749   3.63969   3.64433
 Alpha virt. eigenvalues --    3.65058   3.65752   3.66839   3.71039   3.72770
 Alpha virt. eigenvalues --    3.74189   3.78570   3.80485   3.81680   3.81796
 Alpha virt. eigenvalues --    3.83018   4.00922   4.18004   4.18885   4.18964
 Alpha virt. eigenvalues --    4.19880   4.20795   4.22281   4.24574   4.26787
 Alpha virt. eigenvalues --    4.28127   4.29991   4.31003   4.31743   4.34645
 Alpha virt. eigenvalues --    4.37610   4.40323   4.42223   4.43715   4.45687
 Alpha virt. eigenvalues --    4.46958   4.47841   4.49542   4.54655   4.54834
 Alpha virt. eigenvalues --    4.56690   4.58386   4.59348   4.62169   4.63069
 Alpha virt. eigenvalues --    4.64138   4.67489   4.69894   4.70516   4.71621
 Alpha virt. eigenvalues --    4.73114   4.75805   4.78522   4.82942   4.83267
 Alpha virt. eigenvalues --    4.83337   4.85173   4.90418   4.93259
          Condensed to atoms (all electrons):
 Mulliken charges:
               1
     1  O   -0.543103
     2  O   -0.559583
     3  C    0.031248
     4  C   -0.133281
     5  C   -0.177564
     6  C    0.126603
     7  C    0.115483
     8  C   -0.058475
     9  C   -0.295609
    10  C   -0.277240
    11  C   -0.203007
    12  C   -0.164560
    13  C    0.186402
    14  C    0.121212
    15  C   -0.076430
    16  C   -0.217277
    17  C    0.031762
    18  C   -0.298754
    19  C   -0.281005
    20  C   -0.354689
    21  C   -0.119304
    22  C   -0.140174
    23  C   -0.371233
    24  C    0.125719
    25  C   -0.101776
    26  C   -0.374350
    27  C    0.059289
    28  C   -0.116175
    29  C   -0.350446
    30  C   -0.121900
    31  C   -0.107269
    32  C    0.005516
    33  C   -0.108550
    34  C    0.048523
    35  C   -0.124794
    36  C    0.120229
    37  C   -0.363170
    38  C   -0.079581
    39  C   -0.143518
    40  C   -0.374793
    41  C   -0.087617
    42  C   -0.085914
    43  H    0.081820
    44  H    0.114046
    45  H    0.082227
    46  H    0.097938
    47  H    0.100054
    48  H    0.097231
    49  H    0.064322
    50  H    0.114130
    51  H    0.114105
    52  H    0.081281
    53  H    0.101266
    54  H    0.084104
    55  H    0.059893
    56  H    0.070043
    57  H    0.073772
    58  H    0.096652
    59  H    0.123119
    60  H    0.087767
    61  H    0.100922
    62  H    0.094631
    63  H    0.105350
    64  H    0.114401
    65  H    0.092149
    66  H    0.134681
    67  H    0.106866
    68  H    0.109213
    69  H    0.299631
    70  H    0.096121
    71  H    0.081489
    72  H    0.130780
    73  H    0.097245
    74  H    0.101281
    75  H    0.302879
    76  H    0.075118
    77  H    0.118997
    78  H    0.121424
    79  H    0.114475
    80  H    0.084314
    81  H    0.140795
    82  H    0.097104
    83  H    0.097014
    84  H    0.088517
    85  H    0.077304
    86  H    0.020247
    87  H    0.065319
    88  H    0.065919
    89  H    0.121617
    90  H    0.116206
    91  H    0.109588
    92  H    0.071283
    93  H    0.084620
    94  H    0.139003
    95  H    0.107303
    96  H    0.109168
    97  H    0.116134
    98  H    0.086282
 Sum of Mulliken charges =  -0.00000
 Mulliken charges with hydrogens summed into heavy atoms:
               1
     1  O   -0.243471
     2  O   -0.256704
     3  C    0.031248
     4  C   -0.051462
     5  C    0.018709
     6  C    0.224541
     7  C    0.115483
     8  C   -0.058475
     9  C   -0.034002
    10  C    0.032276
    11  C   -0.017638
    12  C   -0.104667
    13  C    0.256445
    14  C    0.121212
    15  C   -0.002658
    16  C    0.002493
    17  C    0.031762
    18  C   -0.015435
    19  C    0.030894
    20  C   -0.003930
    21  C   -0.037815
    22  C   -0.044053
    23  C   -0.041927
    24  C    0.125719
    25  C   -0.026658
    26  C   -0.019454
    27  C    0.059289
    28  C   -0.031861
    29  C   -0.015533
    30  C   -0.033383
    31  C   -0.029965
    32  C    0.025763
    33  C   -0.043231
    34  C    0.048523
    35  C   -0.058875
    36  C    0.120229
    37  C   -0.015759
    38  C   -0.008299
    39  C   -0.058897
    40  C   -0.019319
    41  C    0.028517
    42  C    0.000368
 Electronic spatial extent (au):  <R**2>=         105255.0745
 Charge=             -0.0000 electrons
 Dipole moment (field-independent basis, Debye):
    X=              1.5557    Y=             -0.3347    Z=             -0.3189  Tot=              1.6229
 Quadrupole moment (field-independent basis, Debye-Ang):
   XX=           -267.0486   YY=           -244.0483   ZZ=           -262.9061
   XY=              7.7419   XZ=             38.4876   YZ=              2.4267
 Traceless Quadrupole moment (field-independent basis, Debye-Ang):
   XX=             -9.0476   YY=             13.9527   ZZ=             -4.9051
   XY=              7.7419   XZ=             38.4876   YZ=              2.4267
 Octapole moment (field-independent basis, Debye-Ang**2):
  XXX=            470.7575  YYY=            -10.3423  ZZZ=             15.7448  XYY=            -16.7685
  XXY=             45.6812  XXZ=            -68.9385  XZZ=             82.7322  YZZ=              0.4785
  YYZ=            -10.2413  XYZ=              1.5190
 Hexadecapole moment (field-independent basis, Debye-Ang**3):
 XXXX=        -139907.9097 YYYY=          -4119.8330 ZZZZ=          -2373.3022 XXXY=           2427.7293
 XXXZ=           8849.4968 YYYX=            199.0397 YYYZ=            -26.3741 ZZZX=             77.4712
 ZZZY=              4.0475 XXYY=         -22441.5901 XXZZ=         -22783.7770 YYZZ=          -1107.9709
 XXYZ=           1138.0590 YYXZ=            165.3748 ZZXY=            117.3720
 N-N= 4.007963193304D+03 E-N=-1.197164464249D+04  KE= 1.690884194784D+03
 1\1\GINC-PADAWAN\SP\RCAM-B3LYP TD-FC\6-31G(d,p)\C40H56O2\PADAWAN\14-Ju
 l-2019\0\\# td=(NStates=1) CAM-B3LYP/6-31G(d,p)\\TD\\0,1\O,0,-14.11158
 70339,-2.145152897,1.0038006354\O,0,14.8336251993,0.7456921558,0.48286
 88828\C,0,-11.809233783,0.151501225,1.350709891\C,0,-11.0972766902,0.3
 937821492,0.0011938322\C,0,-11.8573612167,-1.3652410085,1.6727451158\C
 ,0,-12.6733607296,-2.212192284,0.5958837393\C,0,-11.8205973486,-0.4381
 912974,-1.1491304029\C,0,11.0919825289,0.833665009,1.231673447\C,0,-10
 .8943509083,0.7880805469,2.4290799587\C,0,-13.2086470271,0.7243780847,
 1.3870997868\C,0,12.580205201,1.4406234888,1.1526926555\C,0,-12.379928
 9788,-1.6308209499,-0.8278755563\C,0,13.5731389348,0.2738350561,0.6519
 325122\C,0,10.7288823625,-0.0353729475,0.1099845836\C,0,-9.6371824821,
 -0.050097858,-0.0758075732\C,0,13.1699349711,-0.2183090503,-0.69273485
 98\C,0,11.6081839072,-0.5141964649,-0.7757526341\C,0,10.2171586015,2.0
 624755596,1.3165843718\C,0,10.9322940619,0.1048796634,2.5967402353\C,0
 ,-11.6162461221,0.0522868702,-2.5357558338\C,0,-8.6038864889,0.8384388
 263,-0.1805916817\C,0,9.3282677561,-0.345372313,0.0684669305\C,0,11.38
 84187874,-1.192492216,-2.1038099857\C,0,-7.1450658295,0.4713443762,-0.
 2574578351\C,0,8.8004465011,-1.6417139689,-0.2207072117\C,0,-6.6445858
 801,-0.9443231892,-0.090026114\C,0,7.4870571932,-2.0202849005,-0.18529
 95923\C,0,-6.3120909851,1.5237159461,-0.3719090475\C,0,7.1830214963,-3
 .5165653787,0.0339336116\C,0,6.3561528843,-1.0673770264,-0.3461969621\
 C,0,-4.8501289866,1.4101945587,-0.5291438278\C,0,5.0419450404,-1.49849
 76927,-0.3385716374\C,0,-4.0072720996,2.446317658,-0.7778489739\C,0,-2
 .6548159197,2.5502229799,-0.8739001378\C,0,4.008754841,-0.5453650426,-
 0.6058200984\C,0,2.6165687055,-0.7586303345,-0.5268576384\C,0,-2.10650
 92011,3.9488694695,-1.171466294\C,0,-1.6724343289,1.4767404184,-0.6094
 469611\C,0,1.8082293679,0.334054967,-0.7468332452\C,0,2.1303263537,-2.
 1878215695,-0.1779954316\C,0,-0.2703292918,1.6711384351,-0.6943627961\
 C,0,0.4005548863,0.4497666445,-0.5422174825\H,0,-10.8895756991,1.42243
 40287,-0.3025621014\H,0,-12.3888923623,-1.529832997,2.6299608908\H,0,-
 10.7552631959,-1.6733065257,1.8476580484\H,0,-12.4576093945,-3.2466837
 757,0.5076856307\H,0,-9.8308684881,0.3560472803,2.5298316071\H,0,-10.8
 38904057,1.868279905,2.2892736493\H,0,-11.3843060229,0.6783712561,3.55
 34795258\H,0,-13.6362848303,0.4892349258,0.4974162119\H,0,-13.79049482
 01,0.5304746549,2.2783718392\H,0,-13.173906076,1.7514587677,1.15287577
 09\H,0,12.6151788846,2.0482697765,0.2917770209\H,0,12.9736417913,1.789
 0529442,2.0573733385\H,0,-12.9494284214,-2.1577425708,-1.6531595067\H,
 0,13.4781974045,-0.3753372795,1.504660802\H,0,-9.3700693726,-1.0096258
 216,0.1309006501\H,0,13.7155466988,-1.1981728566,-1.0368488409\H,0,13.
 5618826058,0.4984784257,-1.4468146053\H,0,9.075414239,2.0737074225,1.6
 628015276\H,0,10.2946413257,2.6638389863,0.381605076\H,0,10.7989235657
 ,2.6939943711,2.0564217932\H,0,11.5699798393,-0.667283977,2.7221186333
 \H,0,9.989023873,-0.1633788789,2.563339462\H,0,11.0496358627,0.8085886
 557,3.4006250055\H,0,-10.677080206,0.3715970704,-2.754532849\H,0,-12.3
 607051268,0.9343994384,-2.6819552608\H,0,-11.8683746826,-0.7720759589,
 -3.2281205697\H,0,-14.5181950928,-2.546863639,0.2517169679\H,0,8.51571
 06391,0.3226524904,0.2610887551\H,0,-8.9457797469,1.8938310359,-0.1999
 153119\H,0,11.5485305876,-2.1431058066,-2.2802108726\H,0,10.3201548819
 ,-1.1019362953,-2.5517911131\H,0,11.8911684105,-0.6018932794,-2.948860
 8342\H,0,15.3274119215,1.1789159914,1.1753955085\H,0,9.476817458,-2.57
 16202437,-0.4693733798\H,0,-5.5722216832,-1.0363107818,-0.3079633995\H
 ,0,-7.0440933074,-1.2826002332,0.9200242548\H,0,-7.2624224774,-1.68635
 70839,-0.6879870135\H,0,-6.8866209486,2.4365124463,-0.4225754592\H,0,7
 .0417577248,-3.90117354,0.9668363793\H,0,6.2870260478,-3.8190770955,-0
 .7092105123\H,0,8.1674366411,-3.881094294,-0.4436173944\H,0,6.66619504
 64,-0.0203092703,-0.7124833702\H,0,-4.3074629779,0.387638429,-0.352391
 2967\H,0,4.7506086644,-2.3191411671,-0.1926569265\H,0,-4.5622422699,3.
 5068586677,-0.9356832238\H,0,4.3383639126,0.3476221011,-0.8988291003\H
 ,0,-1.484038162,4.0291943661,-2.0626645384\H,0,-1.5831311515,4.2683939
 967,-0.2395559154\H,0,-2.8875782459,4.5390763231,-1.1726955633\H,0,-2.
 2465235328,0.6650031258,-0.3235370837\H,0,2.3943384759,1.2104750367,-0
 .6764546606\H,0,2.3907976075,-2.5386902714,0.7512134998\H,0,1.04350942
 22,-2.2521645076,-0.2957408592\H,0,2.7522079702,-2.90372816,-0.8172959
 726\H,0,0.2241482997,2.6783176715,-0.9351605076\H,0,-0.1875916552,-0.5
 912492947,-0.4309837534\\Version=ES64L-G16RevA.03\State=1-A\HF=-1706.9
 672551\RMSD=6.107e-09\PG=C01 [X(C40H56O2)]\\@


 RESEARCH IS WHAT I AM DOING WHEN I DON'T KNOW WHAT I AM DOING.
     -- WERNER VON BRAUN
 Job cpu time:       0 days  2 hours 22 minutes 43.0 seconds.
 Elapsed time:       0 days  1 hours 35 minutes  2.5 seconds.
 File lengths (MBytes):  RWF=   3127 Int=      0 D2E=      0 Chk=     84 Scr=      1
 Normal termination of Gaussian 16 at Sun Jul 14 19:13:46 2019.
