 Entering Gaussian System, Link 0=g16
 Input=Geometria-310-.com
 Output=Geometria-310-.log
 Initial command:
 /usr/local/g16/l1.exe "/home/padawan/israel-mol/lutein/spectra/emi/Gau-23276.inp" -scrdir="/home/padawan/israel-mol/lutein/spectra/emi/"
 Entering Link 1 = /usr/local/g16/l1.exe PID=     23278.
  
 Copyright (c) 1988,1990,1992,1993,1995,1998,2003,2009,2016,
            Gaussian, Inc.  All Rights Reserved.
  
 This is part of the Gaussian(R) 16 program.  It is based on
 the Gaussian(R) 09 system (copyright 2009, Gaussian, Inc.),
 the Gaussian(R) 03 system (copyright 2003, Gaussian, Inc.),
 the Gaussian(R) 98 system (copyright 1998, Gaussian, Inc.),
 the Gaussian(R) 94 system (copyright 1995, Gaussian, Inc.),
 the Gaussian 92(TM) system (copyright 1992, Gaussian, Inc.),
 the Gaussian 90(TM) system (copyright 1990, Gaussian, Inc.),
 the Gaussian 88(TM) system (copyright 1988, Gaussian, Inc.),
 the Gaussian 86(TM) system (copyright 1986, Carnegie Mellon
 University), and the Gaussian 82(TM) system (copyright 1983,
 Carnegie Mellon University). Gaussian is a federally registered
 trademark of Gaussian, Inc.
  
 This software contains proprietary and confidential information,
 including trade secrets, belonging to Gaussian, Inc.
  
 This software is provided under written license and may be
 used, copied, transmitted, or stored only in accord with that
 written license.
  
 The following legend is applicable only to US Government
 contracts under FAR:
  
                    RESTRICTED RIGHTS LEGEND
  
 Use, reproduction and disclosure by the US Government is
 subject to restrictions as set forth in subparagraphs (a)
 and (c) of the Commercial Computer Software - Restricted
 Rights clause in FAR 52.227-19.
  
 Gaussian, Inc.
 340 Quinnipiac St., Bldg. 40, Wallingford CT 06492
  
  
 ---------------------------------------------------------------
 Warning -- This program may not be used in any manner that
 competes with the business of Gaussian, Inc. or will provide
 assistance to any competitor of Gaussian, Inc.  The licensee
 of this program is prohibited from giving any competitor of
 Gaussian, Inc. access to this program.  By using this program,
 the user acknowledges that Gaussian, Inc. is engaged in the
 business of creating and licensing software in the field of
 computational chemistry and represents and warrants to the
 licensee that it is not a competitor of Gaussian, Inc. and that
 it will not use this program in any manner prohibited above.
 ---------------------------------------------------------------
  

 Cite this work as:
 Gaussian 16, Revision A.03,
 M. J. Frisch, G. W. Trucks, H. B. Schlegel, G. E. Scuseria, 
 M. A. Robb, J. R. Cheeseman, G. Scalmani, V. Barone, 
 G. A. Petersson, H. Nakatsuji, X. Li, M. Caricato, A. V. Marenich, 
 J. Bloino, B. G. Janesko, R. Gomperts, B. Mennucci, H. P. Hratchian, 
 J. V. Ortiz, A. F. Izmaylov, J. L. Sonnenberg, D. Williams-Young, 
 F. Ding, F. Lipparini, F. Egidi, J. Goings, B. Peng, A. Petrone, 
 T. Henderson, D. Ranasinghe, V. G. Zakrzewski, J. Gao, N. Rega, 
 G. Zheng, W. Liang, M. Hada, M. Ehara, K. Toyota, R. Fukuda, 
 J. Hasegawa, M. Ishida, T. Nakajima, Y. Honda, O. Kitao, H. Nakai, 
 T. Vreven, K. Throssell, J. A. Montgomery, Jr., J. E. Peralta, 
 F. Ogliaro, M. J. Bearpark, J. J. Heyd, E. N. Brothers, K. N. Kudin, 
 V. N. Staroverov, T. A. Keith, R. Kobayashi, J. Normand, 
 K. Raghavachari, A. P. Rendell, J. C. Burant, S. S. Iyengar, 
 J. Tomasi, M. Cossi, J. M. Millam, M. Klene, C. Adamo, R. Cammi, 
 J. W. Ochterski, R. L. Martin, K. Morokuma, O. Farkas, 
 J. B. Foresman, and D. J. Fox, Gaussian, Inc., Wallingford CT, 2016.
 
 ******************************************
 Gaussian 16:  ES64L-G16RevA.03 25-Dec-2016
                15-Jul-2019 
 ******************************************
 %nproc=4
 Will use up to    4 processors via shared memory.
 %Mem=4GB
 -------------------------------------
 # td=(NStates=1) CAM-B3LYP/6-31G(d,p)
 -------------------------------------
 1/38=1,172=1/1;
 2/12=2,17=6,18=5,40=1/2;
 3/5=1,6=6,7=101,11=9,25=1,30=1,74=-40/1,2,3,8;
 4//1;
 5/5=2,38=5/2;
 8/6=1,10=2,108=1/1;
 9/41=1,42=1,70=2/14;
 6/7=2,8=2,9=2,10=2/1;
 99/5=1,9=1/99;
 --
 TD
 --
 Symbolic Z-matrix:
 Charge =  0 Multiplicity = 1
 8                    -14.15046  -1.99398   0.36293 
 8                     14.86556   1.11232  -0.0087 
 6                    -11.84991   0.05893   1.29458 
 6                    -11.0077   0.39734  -0.03502 
 6                    -12.08198  -1.43593   1.37402 
 6                    -12.76908  -2.06796   0.1666 
 6                    -11.64095  -0.37452  -1.24447 
 6                     11.09483   1.0099    1.02823 
 6                    -11.07115   0.59355   2.50838 
 6                    -13.21604   0.7065    1.14705 
 6                     12.5184   1.54224   0.69739 
 6                    -12.33286  -1.46484  -1.13878 
 6                     13.58058   0.52301   0.40046 
 6                     10.66924  -0.02434  -0.04845 
 6                    -9.61534   0.00719   0.03509 
 6                     13.0739  -0.1213   -0.89035 
 6                     11.60722  -0.57984  -0.94357 
 6                     10.10694   2.27212   0.99428 
 6                     11.01239   0.41419   2.42937 
 6                    -11.13389   0.21607  -2.54776 
 6                    -8.50827   0.84791  -0.02039 
 6                     9.27971  -0.57182  -0.04193 
 6                     11.32096  -1.57233  -2.03417 
 6                    -7.0875    0.51101  -0.0175 
 6                     8.81216  -1.89502  -0.00226 
 6                    -6.82092  -0.94672   0.21861 
 6                     7.38982  -2.2089    0.05299 
 6                    -6.16894   1.48233  -0.19819 
 6                     7.04137  -3.61345   0.26773 
 6                     6.41274  -1.26297  -0.19187 
 6                    -4.76182   1.38757  -0.15843 
 6                     5.03733  -1.57462  -0.2398 
 6                    -3.96071   2.49687  -0.54102 
 6                    -2.58319   2.6257   -0.59197 
 6                     4.02331  -0.61333  -0.39122 
 6                     2.67946  -0.87413  -0.19877 
 6                    -1.94959   3.93939  -0.94221 
 6                    -1.72327   1.50728  -0.33253 
 6                     1.84733   0.26581  -0.457 
 6                     2.10902  -2.23697   0.08492 
 6                    -0.3735    1.46565  -0.47969 
 6                     0.40716   0.38056  -0.36824 
 1                    -11.35755   1.42994  -0.24523 
 1                    -12.75191  -1.64683   2.13573 
 1                    -11.31547  -1.95672   1.25242 
 1                    -12.50744  -3.19366   0.09158 
 1                    -10.18943   0.05646   2.6696 
 1                    -10.8853   1.66585   2.5072 
 1                    -11.54979   0.26932   3.37462 
 1                    -13.75944   0.4396    0.15877 
 1                    -13.88967   0.23289   1.7904 
 1                    -13.29363   1.7898    1.06614 
 1                     12.61004   2.10614  -0.22283 
 1                     12.99     1.97474   1.65476 
 1                    -12.74731  -1.99907  -1.9873 
 1                     13.64915  -0.27898   1.27183 
 1                    -9.47055  -1.06374   0.30877 
 1                     13.83289  -1.01734  -1.09499 
 1                     13.24068   0.84906  -1.6598 
 1                     9.20991   2.42581   1.59861 
 1                     9.82762   2.55344  -0.14915 
 1                     10.72948   3.14919   1.24687 
 1                     11.90193  -0.37463   2.58975 
 1                     9.95573  -0.21738   2.50229 
 1                     11.11106   1.09217   3.29394 
 1                    -9.96373   0.06095  -2.83603 
 1                    -11.4099   1.43999  -2.73185 
 1                    -12.06649  -0.03646  -3.45253 
 1                    -14.73196  -2.30386  -0.41235 
 1                     8.49463   0.09518   0.15299 
 1                    -8.56965   1.92243  -0.26004 
 1                     11.67665  -2.60278  -1.58492 
 1                     10.07482  -1.45775  -2.23837 
 1                     11.89414  -1.39347  -2.94632 
 1                     15.10174   1.42693   0.93544 
 1                     9.64713  -2.56473  -0.11202 
 1                    -5.73578  -1.26391   0.62398 
 1                    -7.32401  -1.43243   1.07055 
 1                    -7.02679  -1.55157  -0.74928 
 1                    -6.50423   2.65176  -0.46825 
 1                     6.49555  -3.84471   1.21447 
 1                     6.50659  -3.96158  -0.48225 
 1                     8.06804  -4.24642   0.27254 
 1                     6.64567  -0.26864  -0.35695 
 1                    -4.47286   0.3303    0.06486 
 1                     4.81866  -2.53854  -0.10241 
 1                    -4.66888   3.34811  -0.6932 
 1                     4.45143   0.585    -0.28226 
 1                    -1.29154   3.9133   -1.85493 
 1                    -1.42886   4.39339  -0.1078 
 1                    -2.62836   4.79273  -1.22029 
 1                    -2.30778   0.54788  -0.00054 
 1                     2.4188    1.04382  -0.56893 
 1                     2.3875   -2.5261    1.31426 
 1                     0.99328  -2.20972   0.05819 
 1                     2.55901  -2.989    -0.49062 
 1                    -0.01656   2.42558  -0.62602 
 1                    -0.27519  -0.38092   0.2134 
 
 Stoichiometry    C40H56O2
 Framework group  C1[X(C40H56O2)]
 Deg. of freedom   288
 Full point group                 C1      NOp   1
 Largest Abelian subgroup         C1      NOp   1
 Largest concise Abelian subgroup C1      NOp   1
                         Standard orientation:                         
 ---------------------------------------------------------------------
 Center     Atomic      Atomic             Coordinates (Angstroms)
 Number     Number       Type             X           Y           Z
 ---------------------------------------------------------------------
      1          8           0      -14.148149   -1.986628    0.375534
      2          8           0       14.868730    1.109762   -0.011338
      3          6           0      -11.847929    0.077023    1.283996
      4          6           0      -11.004632    0.399129   -0.048965
      5          6           0      -12.080347   -1.416722    1.381376
      6          6           0      -12.766632   -2.063230    0.181187
      7          6           0      -11.637097   -0.387240   -1.249451
      8          6           0       11.097187    1.020604    1.023849
      9          6           0      -11.070005    0.626188    2.491816
     10          6           0      -13.213824    0.722993    1.127558
     11          6           0       12.521108    1.548639    0.687669
     12          6           0      -12.329298   -1.476074   -1.131074
     13          6           0       13.583326    0.525689    0.403946
     14          6           0       10.672226   -0.026550   -0.040538
     15          6           0       -9.612402    0.009606    0.026952
     16          6           0       13.077515   -0.134141   -0.879346
     17          6           0       11.610799   -0.593036   -0.928127
     18          6           0       10.109555    2.282489    0.973826
     19          6           0       11.013556    0.441947    2.432049
     20          6           0      -11.128921    0.187414   -2.559415
     21          6           0       -8.505129    0.849395   -0.037867
     22          6           0        9.282596   -0.573666   -0.028454
     23          6           0       11.325191   -1.598629   -2.006832
     24          6           0       -7.084428    0.512301   -0.029801
     25          6           0        8.814762   -1.896198    0.026912
     26          6           0       -6.818307   -0.942507    0.224189
     27          6           0        7.392321   -2.209136    0.084867
     28          6           0       -6.165544    1.481197   -0.221549
     29          6           0        7.043442   -3.610907    0.316353
     30          6           0        6.415608   -1.266065   -0.172210
     31          6           0       -4.758476    1.386676   -0.179551
     32          6           0        5.040183   -1.578027   -0.217418
     33          6           0       -3.956861    2.491111   -0.574949
     34          6           0       -2.579279    2.619066   -0.626401
     35          6           0        4.026452   -0.618470   -0.381268
     36          6           0        2.682414   -0.876677   -0.186713
     37          6           0       -1.945168    3.928295   -0.992063
     38          6           0       -1.719770    1.503725   -0.352746
     39          6           0        1.850695    0.260195   -0.459394
     40          6           0        2.111499   -2.235868    0.113053
     41          6           0       -0.369895    1.460067   -0.498350
     42          6           0        0.410471    0.376271   -0.373141
     43          1           0      -11.354131    1.429168   -0.271952
     44          1           0      -12.750898   -1.618254    2.145077
     45          1           0      -11.313836   -1.939093    1.266697
     46          1           0      -12.505149   -3.189805    0.120033
     47          1           0      -10.188516    0.090932    2.660218
     48          1           0      -10.883953    1.698360    2.477770
     49          1           0      -11.549377    0.312575    3.361559
     50          1           0      -13.756512    0.444225    0.142175
     51          1           0      -13.888045    0.257351    1.776093
     52          1           0      -13.291149    1.805252    1.033454
     53          1           0       12.613562    2.101310   -0.239254
     54          1           0       12.992056    1.992635    1.640092
     55          1           0      -12.743188   -2.020477   -1.973377
     56          1           0       13.651079   -0.265682    1.285033
     57          1           0       -9.468023   -1.057951    0.313709
     58          1           0       13.836497   -1.032739   -1.072515
     59          1           0       13.245074    0.826786   -1.660373
     60          1           0        9.212089    2.443665    1.575547
     61          1           0        9.831176    2.549969   -0.173148
     62          1           0       10.732064    3.162451    1.216237
     63          1           0       11.902825   -0.345033    2.602665
     64          1           0        9.956720   -0.188508    2.511808
     65          1           0       11.111687    1.130344    3.288408
     66          1           0       -9.958570    0.028593   -2.844882
     67          1           0      -11.404562    1.409057   -2.758554
     68          1           0      -12.060878   -0.075912   -3.461781
     69          1           0      -14.729106   -2.305788   -0.396375
     70          1           0        8.497487    0.095794    0.157757
     71          1           0       -8.566128    1.920944   -0.290587
     72          1           0       11.680343   -2.623618   -1.544839
     73          1           0       10.079228   -1.486314   -2.213366
     74          1           0       11.899103   -1.430951   -2.920639
     75          1           0       15.104242    1.435762    0.929100
     76          1           0        9.649697   -2.567339   -0.074073
     77          1           0       -5.733533   -1.254950    0.634210
     78          1           0       -7.322141   -1.417749    1.081564
     79          1           0       -7.023540   -1.559017   -0.736459
     80          1           0       -6.500412    2.647327   -0.506032
     81          1           0        6.496855   -3.830570    1.265411
     82          1           0        6.509175   -3.968020   -0.429756
     83          1           0        8.069989   -4.243960    0.329641
     84          1           0        6.648856   -0.273859   -0.349156
     85          1           0       -4.469886    0.332141    0.056768
     86          1           0        4.821217   -2.540178   -0.068511
     87          1           0       -4.664759    3.340569   -0.737994
     88          1           0        4.454711    0.581015   -0.286521
     89          1           0       -1.286416    3.891022   -1.903891
     90          1           0       -1.424988    4.392289   -0.162819
     91          1           0       -2.623562    4.778323   -1.280995
     92          1           0       -2.304715    0.548525   -0.009599
     93          1           0        2.422395    1.036688   -0.580312
     94          1           0        2.388971   -2.510116    1.346024
     95          1           0        0.995785   -2.208749    0.085137
     96          1           0        2.561786   -2.994905   -0.452978
     97          1           0       -0.012658    2.418092   -0.656036
     98          1           0       -0.272465   -0.377973    0.217167
 ---------------------------------------------------------------------
 Rotational constants (GHZ):           0.2468533           0.0098386           0.0096744
 Standard basis: 6-31G(d,p) (6D, 7F)
 There are   910 symmetry adapted cartesian basis functions of A   symmetry.
 There are   910 symmetry adapted basis functions of A   symmetry.
   910 basis functions,  1568 primitive gaussians,   910 cartesian basis functions
   156 alpha electrons      156 beta electrons
       nuclear repulsion energy      4006.5299756880 Hartrees.
 NAtoms=   98 NActive=   98 NUniq=   98 SFac= 1.00D+00 NAtFMM=   60 NAOKFM=T Big=T
 Integral buffers will be    131072 words long.
 Raffenetti 1 integral format.
 Two-electron integral symmetry is turned on.
 One-electron integrals computed using PRISM.
 NBasis=   910 RedAO= T EigKep=  7.87D-04  NBF=   910
 NBsUse=   910 1.00D-06 EigRej= -1.00D+00 NBFU=   910
 ExpMin= 1.61D-01 ExpMax= 5.48D+03 ExpMxC= 8.25D+02 IAcc=3 IRadAn=         5 AccDes= 0.00D+00
 Harris functional with IExCor=20419 and IRadAn=       5 diagonalized for initial guess.
 HarFok:  IExCor=20419 AccDes= 0.00D+00 IRadAn=         5 IDoV= 1 UseB2=F ITyADJ=14
 ICtDFT=  3500011 ScaDFX=  1.000000  1.000000  1.000000  1.000000
 FoFCou: FMM=F IPFlag=           0 FMFlag=      100000 FMFlg1=        2001
         NFxFlg=           0 DoJE=T BraDBF=F KetDBF=T FulRan=T
         wScrn=  0.000000 ICntrl=       500 IOpCl=  0 I1Cent=   200000004 NGrid=           0
         NMat0=    1 NMatS0=      1 NMatT0=    0 NMatD0=    1 NMtDS0=    0 NMtDT0=    0
 Petite list used in FoFCou.
 Requested convergence on RMS density matrix=1.00D-08 within 128 cycles.
 Requested convergence on MAX density matrix=1.00D-06.
 Requested convergence on             energy=1.00D-06.
 No special actions if energy rises.
 Integral accuracy reduced to 1.0D-05 until final iterations.
 Initial convergence to 1.0D-05 achieved.  Increase integral accuracy.
 SCF Done:  E(RCAM-B3LYP) =  -1706.91495091     A.U. after   15 cycles
            NFock= 15  Conv=0.56D-08     -V/T= 2.0105
 DoSCS=F DFT=T ScalE2(SS,OS)=  1.000000  1.000000
 ExpMin= 1.61D-01 ExpMax= 5.48D+03 ExpMxC= 8.25D+02 IAcc=3 IRadAn=         5 AccDes= 0.00D+00
 HarFok:  IExCor=  205 AccDes= 0.00D+00 IRadAn=         5 IDoV=-2 UseB2=F ITyADJ=14
 ICtDFT= 12500011 ScaDFX=  1.000000  1.000000  1.000000  1.000000
 GSVD:  LWork=       -2100 too small for GESVD, short by        9450 words or        9450 for optimal perf.
 Range of M.O.s used for correlation:    43   910
 NBasis=   910 NAE=   156 NBE=   156 NFC=    42 NFV=     0
 NROrb=    868 NOA=   114 NOB=   114 NVA=   754 NVB=   754
 Orbital symmetries:
       Occupied  (A) (A) (A) (A) (A) (A) (A) (A) (A) (A) (A) (A)
                 (A) (A) (A) (A) (A) (A) (A) (A) (A) (A) (A) (A)
                 (A) (A) (A) (A) (A) (A) (A) (A) (A) (A) (A) (A)
                 (A) (A) (A) (A) (A) (A) (A) (A) (A) (A) (A) (A)
                 (A) (A) (A) (A) (A) (A) (A) (A) (A) (A) (A) (A)
                 (A) (A) (A) (A) (A) (A) (A) (A) (A) (A) (A) (A)
                 (A) (A) (A) (A) (A) (A) (A) (A) (A) (A) (A) (A)
                 (A) (A) (A) (A) (A) (A) (A) (A) (A) (A) (A) (A)
                 (A) (A) (A) (A) (A) (A) (A) (A) (A) (A) (A) (A)
                 (A) (A) (A) (A) (A) (A) (A) (A) (A) (A) (A) (A)
                 (A) (A) (A) (A) (A) (A) (A) (A) (A) (A) (A) (A)
                 (A) (A) (A) (A) (A) (A) (A) (A) (A) (A) (A) (A)
                 (A) (A) (A) (A) (A) (A) (A) (A) (A) (A) (A) (A)
       Virtual   (A) (A) (A) (A) (A) (A) (A) (A) (A) (A) (A) (A)
                 (A) (A) (A) (A) (A) (A) (A) (A) (A) (A) (A) (A)
                 (A) (A) (A) (A) (A) (A) (A) (A) (A) (A) (A) (A)
                 (A) (A) (A) (A) (A) (A) (A) (A) (A) (A) (A) (A)
                 (A) (A) (A) (A) (A) (A) (A) (A) (A) (A) (A) (A)
                 (A) (A) (A) (A) (A) (A) (A) (A) (A) (A) (A) (A)
                 (A) (A) (A) (A) (A) (A) (A) (A) (A) (A) (A) (A)
                 (A) (A) (A) (A) (A) (A) (A) (A) (A) (A) (A) (A)
                 (A) (A) (A) (A) (A) (A) (A) (A) (A) (A) (A) (A)
                 (A) (A) (A) (A) (A) (A) (A) (A) (A) (A) (A) (A)
                 (A) (A) (A) (A) (A) (A) (A) (A) (A) (A) (A) (A)
                 (A) (A) (A) (A) (A) (A) (A) (A) (A) (A) (A) (A)
                 (A) (A) (A) (A) (A) (A) (A) (A) (A) (A) (A) (A)
                 (A) (A) (A) (A) (A) (A) (A) (A) (A) (A) (A) (A)
                 (A) (A) (A) (A) (A) (A) (A) (A) (A) (A) (A) (A)
                 (A) (A) (A) (A) (A) (A) (A) (A) (A) (A) (A) (A)
                 (A) (A) (A) (A) (A) (A) (A) (A) (A) (A) (A) (A)
                 (A) (A) (A) (A) (A) (A) (A) (A) (A) (A) (A) (A)
                 (A) (A) (A) (A) (A) (A) (A) (A) (A) (A) (A) (A)
                 (A) (A) (A) (A) (A) (A) (A) (A) (A) (A) (A) (A)
                 (A) (A) (A) (A) (A) (A) (A) (A) (A) (A) (A) (A)
                 (A) (A) (A) (A) (A) (A) (A) (A) (A) (A) (A) (A)
                 (A) (A) (A) (A) (A) (A) (A) (A) (A) (A) (A) (A)
                 (A) (A) (A) (A) (A) (A) (A) (A) (A) (A) (A) (A)
                 (A) (A) (A) (A) (A) (A) (A) (A) (A) (A) (A) (A)
                 (A) (A) (A) (A) (A) (A) (A) (A) (A) (A) (A) (A)
                 (A) (A) (A) (A) (A) (A) (A) (A) (A) (A) (A) (A)
                 (A) (A) (A) (A) (A) (A) (A) (A) (A) (A) (A) (A)
                 (A) (A) (A) (A) (A) (A) (A) (A) (A) (A) (A) (A)
                 (A) (A) (A) (A) (A) (A) (A) (A) (A) (A) (A) (A)
                 (A) (A) (A) (A) (A) (A) (A) (A) (A) (A) (A) (A)
                 (A) (A) (A) (A) (A) (A) (A) (A) (A) (A) (A) (A)
                 (A) (A) (A) (A) (A) (A) (A) (A) (A) (A) (A) (A)
                 (A) (A) (A) (A) (A) (A) (A) (A) (A) (A) (A) (A)
                 (A) (A) (A) (A) (A) (A) (A) (A) (A) (A) (A) (A)
                 (A) (A) (A) (A) (A) (A) (A) (A) (A) (A) (A) (A)
                 (A) (A) (A) (A) (A) (A) (A) (A) (A) (A) (A) (A)
                 (A) (A) (A) (A) (A) (A) (A) (A) (A) (A) (A) (A)
                 (A) (A) (A) (A) (A) (A) (A) (A) (A) (A) (A) (A)
                 (A) (A) (A) (A) (A) (A) (A) (A) (A) (A) (A) (A)
                 (A) (A) (A) (A) (A) (A) (A) (A) (A) (A) (A) (A)
                 (A) (A) (A) (A) (A) (A) (A) (A) (A) (A) (A) (A)
                 (A) (A) (A) (A) (A) (A) (A) (A) (A) (A) (A) (A)
                 (A) (A) (A) (A) (A) (A) (A) (A) (A) (A) (A) (A)
                 (A) (A) (A) (A) (A) (A) (A) (A) (A) (A) (A) (A)
                 (A) (A) (A) (A) (A) (A) (A) (A) (A) (A) (A) (A)
                 (A) (A) (A) (A) (A) (A) (A) (A) (A) (A) (A) (A)
                 (A) (A) (A) (A) (A) (A) (A) (A) (A) (A) (A) (A)
                 (A) (A) (A) (A) (A) (A) (A) (A) (A) (A) (A) (A)
                 (A) (A) (A) (A) (A) (A) (A) (A) (A) (A) (A) (A)
                 (A) (A) (A) (A) (A) (A) (A) (A) (A) (A) (A) (A)
                 (A) (A) (A) (A) (A) (A) (A) (A) (A) (A) (A) (A)
                 (A) (A) (A) (A) (A) (A) (A) (A) (A) (A) (A) (A)
                 (A) (A) (A) (A) (A) (A) (A) (A) (A) (A) (A) (A)
                 (A) (A) (A) (A) (A) (A) (A) (A) (A) (A) (A) (A)
                 (A) (A) (A) (A) (A) (A) (A) (A) (A) (A) (A) (A)
                 (A) (A) (A) (A) (A) (A) (A) (A) (A) (A) (A) (A)
                 (A) (A) (A) (A) (A) (A) (A) (A) (A) (A) (A) (A)
                 (A) (A) (A) (A) (A) (A) (A) (A) (A) (A) (A) (A)
                 (A) (A) (A) (A) (A) (A) (A) (A) (A) (A) (A) (A)
                 (A) (A) (A) (A) (A) (A) (A) (A) (A) (A) (A) (A)
                 (A) (A) (A) (A) (A) (A) (A) (A) (A) (A) (A) (A)
                 (A) (A) (A) (A) (A) (A) (A) (A) (A) (A)
     4 initial guesses have been made.
 Convergence on wavefunction:    0.001000000000000
 Iteration     1 Dimension     4 NMult     0 NNew      4
 CISAX will form     4 AO SS matrices at one time.
 Iteration     2 Dimension     6 NMult     4 NNew      2
 Iteration     3 Dimension     8 NMult     6 NNew      2
 Iteration     4 Dimension    10 NMult     8 NNew      2
 Iteration     5 Dimension    12 NMult    10 NNew      2
 Iteration     6 Dimension    14 NMult    12 NNew      2
 ***********************************************************************
 Excited states from <AA,BB:AA,BB> singles matrix:
 ***********************************************************************
 
 Ground to excited state transition densities written to RWF  633
 Ground to excited state transition electric dipole moments (Au):
       state          X           Y           Z        Dip. S.      Osc.
         1         8.0606     -1.0976      0.0816     66.1840      3.1429
 Ground to excited state transition velocity dipole moments (Au):
       state          X           Y           Z        Dip. S.      Osc.
         1        -0.5572      0.0744     -0.0060      0.3160      2.9579
 Ground to excited state transition magnetic dipole moments (Au):
       state          X           Y           Z
         1         0.1640      0.5399      1.2394
 Ground to excited state transition velocity quadrupole moments (Au):
       state          XX          YY          ZZ          XY          XZ          YZ
         1        -0.5171     -0.0327      0.0141      0.4912      0.0729     -0.0629
 <0|del|b> * <b|rxdel|0> + <0|del|b> * <b|delr+rdel|0>
 Rotatory Strengths (R) in cgs (10**-40 erg-esu-cm/Gauss)
       state          XX          YY          ZZ    R(velocity)    E-M Angle
         1       121.3622   -301.7750   -401.1156   -193.8428       94.39
 1/2[<0|r|b>*<b|rxdel|0> + (<0|rxdel|b>*<b|r|0>)*]
 Rotatory Strengths (R) in cgs (10**-40 erg-esu-cm/Gauss)
       state          XX          YY          ZZ     R(length)
         1      -934.8234    419.1100    -71.4758   -195.7297
  1/2[<0|del|b>*<b|r|0> + (<0|r|b>*<b|del|0>)*] (Au)
       state          X           Y           Z        Dip. S.   Osc.(frdel)
         1        -4.4913     -0.0817     -0.0005      4.5735      3.0490

 Excitation energies and oscillator strengths:
 
 Excited State   1:      Singlet-A      1.9383 eV  639.66 nm  f=3.1429  <S**2>=0.000
     155 ->158        -0.14792
     156 ->157         0.69510
     156 <-157        -0.10064
 This state for optimization and/or second-order correction.
 Total Energy, E(TD-HF/TD-DFT) =  -1706.84372056    
 Copying the excited state density for this state as the 1-particle RhoCI density.
 SavETr:  write IOETrn=   770 NScale= 10 NData=  16 NLR=1 NState=    1 LETran=      28.

 **********************************************************************

            Population analysis using the SCF density.

 **********************************************************************

 Orbital symmetries:
       Occupied  (A) (A) (A) (A) (A) (A) (A) (A) (A) (A) (A) (A)
                 (A) (A) (A) (A) (A) (A) (A) (A) (A) (A) (A) (A)
                 (A) (A) (A) (A) (A) (A) (A) (A) (A) (A) (A) (A)
                 (A) (A) (A) (A) (A) (A) (A) (A) (A) (A) (A) (A)
                 (A) (A) (A) (A) (A) (A) (A) (A) (A) (A) (A) (A)
                 (A) (A) (A) (A) (A) (A) (A) (A) (A) (A) (A) (A)
                 (A) (A) (A) (A) (A) (A) (A) (A) (A) (A) (A) (A)
                 (A) (A) (A) (A) (A) (A) (A) (A) (A) (A) (A) (A)
                 (A) (A) (A) (A) (A) (A) (A) (A) (A) (A) (A) (A)
                 (A) (A) (A) (A) (A) (A) (A) (A) (A) (A) (A) (A)
                 (A) (A) (A) (A) (A) (A) (A) (A) (A) (A) (A) (A)
                 (A) (A) (A) (A) (A) (A) (A) (A) (A) (A) (A) (A)
                 (A) (A) (A) (A) (A) (A) (A) (A) (A) (A) (A) (A)
       Virtual   (A) (A) (A) (A) (A) (A) (A) (A) (A) (A) (A) (A)
                 (A) (A) (A) (A) (A) (A) (A) (A) (A) (A) (A) (A)
                 (A) (A) (A) (A) (A) (A) (A) (A) (A) (A) (A) (A)
                 (A) (A) (A) (A) (A) (A) (A) (A) (A) (A) (A) (A)
                 (A) (A) (A) (A) (A) (A) (A) (A) (A) (A) (A) (A)
                 (A) (A) (A) (A) (A) (A) (A) (A) (A) (A) (A) (A)
                 (A) (A) (A) (A) (A) (A) (A) (A) (A) (A) (A) (A)
                 (A) (A) (A) (A) (A) (A) (A) (A) (A) (A) (A) (A)
                 (A) (A) (A) (A) (A) (A) (A) (A) (A) (A) (A) (A)
                 (A) (A) (A) (A) (A) (A) (A) (A) (A) (A) (A) (A)
                 (A) (A) (A) (A) (A) (A) (A) (A) (A) (A) (A) (A)
                 (A) (A) (A) (A) (A) (A) (A) (A) (A) (A) (A) (A)
                 (A) (A) (A) (A) (A) (A) (A) (A) (A) (A) (A) (A)
                 (A) (A) (A) (A) (A) (A) (A) (A) (A) (A) (A) (A)
                 (A) (A) (A) (A) (A) (A) (A) (A) (A) (A) (A) (A)
                 (A) (A) (A) (A) (A) (A) (A) (A) (A) (A) (A) (A)
                 (A) (A) (A) (A) (A) (A) (A) (A) (A) (A) (A) (A)
                 (A) (A) (A) (A) (A) (A) (A) (A) (A) (A) (A) (A)
                 (A) (A) (A) (A) (A) (A) (A) (A) (A) (A) (A) (A)
                 (A) (A) (A) (A) (A) (A) (A) (A) (A) (A) (A) (A)
                 (A) (A) (A) (A) (A) (A) (A) (A) (A) (A) (A) (A)
                 (A) (A) (A) (A) (A) (A) (A) (A) (A) (A) (A) (A)
                 (A) (A) (A) (A) (A) (A) (A) (A) (A) (A) (A) (A)
                 (A) (A) (A) (A) (A) (A) (A) (A) (A) (A) (A) (A)
                 (A) (A) (A) (A) (A) (A) (A) (A) (A) (A) (A) (A)
                 (A) (A) (A) (A) (A) (A) (A) (A) (A) (A) (A) (A)
                 (A) (A) (A) (A) (A) (A) (A) (A) (A) (A) (A) (A)
                 (A) (A) (A) (A) (A) (A) (A) (A) (A) (A) (A) (A)
                 (A) (A) (A) (A) (A) (A) (A) (A) (A) (A) (A) (A)
                 (A) (A) (A) (A) (A) (A) (A) (A) (A) (A) (A) (A)
                 (A) (A) (A) (A) (A) (A) (A) (A) (A) (A) (A) (A)
                 (A) (A) (A) (A) (A) (A) (A) (A) (A) (A) (A) (A)
                 (A) (A) (A) (A) (A) (A) (A) (A) (A) (A) (A) (A)
                 (A) (A) (A) (A) (A) (A) (A) (A) (A) (A) (A) (A)
                 (A) (A) (A) (A) (A) (A) (A) (A) (A) (A) (A) (A)
                 (A) (A) (A) (A) (A) (A) (A) (A) (A) (A) (A) (A)
                 (A) (A) (A) (A) (A) (A) (A) (A) (A) (A) (A) (A)
                 (A) (A) (A) (A) (A) (A) (A) (A) (A) (A) (A) (A)
                 (A) (A) (A) (A) (A) (A) (A) (A) (A) (A) (A) (A)
                 (A) (A) (A) (A) (A) (A) (A) (A) (A) (A) (A) (A)
                 (A) (A) (A) (A) (A) (A) (A) (A) (A) (A) (A) (A)
                 (A) (A) (A) (A) (A) (A) (A) (A) (A) (A) (A) (A)
                 (A) (A) (A) (A) (A) (A) (A) (A) (A) (A) (A) (A)
                 (A) (A) (A) (A) (A) (A) (A) (A) (A) (A) (A) (A)
                 (A) (A) (A) (A) (A) (A) (A) (A) (A) (A) (A) (A)
                 (A) (A) (A) (A) (A) (A) (A) (A) (A) (A) (A) (A)
                 (A) (A) (A) (A) (A) (A) (A) (A) (A) (A) (A) (A)
                 (A) (A) (A) (A) (A) (A) (A) (A) (A) (A) (A) (A)
                 (A) (A) (A) (A) (A) (A) (A) (A) (A) (A) (A) (A)
                 (A) (A) (A) (A) (A) (A) (A) (A) (A) (A) (A) (A)
                 (A) (A) (A) (A) (A) (A) (A) (A) (A) (A) (A) (A)
                 (A) (A) (A) (A) (A) (A) (A) (A) (A) (A) (A) (A)
                 (A) (A) (A) (A) (A) (A) (A) (A) (A) (A) (A) (A)
                 (A) (A) (A) (A) (A) (A) (A) (A) (A) (A) (A) (A)
                 (A) (A) (A) (A) (A) (A) (A) (A) (A) (A) (A) (A)
                 (A) (A) (A) (A) (A) (A) (A) (A) (A) (A) (A) (A)
                 (A) (A) (A) (A) (A) (A) (A) (A) (A) (A) (A) (A)
                 (A) (A) (A) (A) (A) (A) (A) (A) (A) (A) (A) (A)
                 (A) (A) (A) (A) (A) (A) (A) (A) (A) (A) (A) (A)
                 (A) (A) (A) (A) (A) (A) (A) (A) (A) (A) (A) (A)
                 (A) (A) (A) (A) (A) (A) (A) (A) (A) (A) (A) (A)
                 (A) (A) (A) (A) (A) (A) (A) (A) (A) (A) (A) (A)
                 (A) (A) (A) (A) (A) (A) (A) (A) (A) (A)
 The electronic state is 1-A.
 Alpha  occ. eigenvalues --  -19.23025 -19.21210 -10.31228 -10.30679 -10.29384
 Alpha  occ. eigenvalues --  -10.29328 -10.27832 -10.27717 -10.27707 -10.27701
 Alpha  occ. eigenvalues --  -10.27442 -10.27420 -10.27324 -10.27268 -10.27257
 Alpha  occ. eigenvalues --  -10.27233 -10.27127 -10.27123 -10.27090 -10.27062
 Alpha  occ. eigenvalues --  -10.26968 -10.26801 -10.26572 -10.26530 -10.26529
 Alpha  occ. eigenvalues --  -10.26518 -10.26320 -10.26148 -10.26112 -10.26015
 Alpha  occ. eigenvalues --  -10.25987 -10.25944 -10.25892 -10.25811 -10.25534
 Alpha  occ. eigenvalues --  -10.25401 -10.25057 -10.24931 -10.24453 -10.22555
 Alpha  occ. eigenvalues --  -10.22543 -10.22203  -1.09071  -1.08732  -0.93458
 Alpha  occ. eigenvalues --   -0.92928  -0.92286  -0.91806  -0.90765  -0.90059
 Alpha  occ. eigenvalues --   -0.87346  -0.86601  -0.86108  -0.85205  -0.84818
 Alpha  occ. eigenvalues --   -0.83217  -0.82456  -0.80488  -0.80014  -0.78434
 Alpha  occ. eigenvalues --   -0.76393  -0.76361  -0.76209  -0.75425  -0.75292
 Alpha  occ. eigenvalues --   -0.74975  -0.74201  -0.74086  -0.72828  -0.70323
 Alpha  occ. eigenvalues --   -0.68655  -0.67591  -0.66244  -0.63784  -0.63696
 Alpha  occ. eigenvalues --   -0.63019  -0.62517  -0.62207  -0.60945  -0.60085
 Alpha  occ. eigenvalues --   -0.59786  -0.58847  -0.58660  -0.58116  -0.56381
 Alpha  occ. eigenvalues --   -0.55438  -0.54546  -0.54205  -0.53972  -0.53601
 Alpha  occ. eigenvalues --   -0.53356  -0.52843  -0.51931  -0.51231  -0.50939
 Alpha  occ. eigenvalues --   -0.50504  -0.49870  -0.49633  -0.49100  -0.48986
 Alpha  occ. eigenvalues --   -0.48911  -0.48493  -0.48335  -0.48227  -0.47825
 Alpha  occ. eigenvalues --   -0.47779  -0.46885  -0.46766  -0.46213  -0.46145
 Alpha  occ. eigenvalues --   -0.45875  -0.45524  -0.44963  -0.44746  -0.44616
 Alpha  occ. eigenvalues --   -0.44545  -0.44431  -0.43596  -0.43425  -0.42896
 Alpha  occ. eigenvalues --   -0.42845  -0.42636  -0.42405  -0.41848  -0.41463
 Alpha  occ. eigenvalues --   -0.41271  -0.41166  -0.41032  -0.40725  -0.40627
 Alpha  occ. eigenvalues --   -0.40079  -0.40063  -0.39828  -0.39284  -0.38834
 Alpha  occ. eigenvalues --   -0.38792  -0.38627  -0.38438  -0.37910  -0.37720
 Alpha  occ. eigenvalues --   -0.37564  -0.37220  -0.36477  -0.36154  -0.35912
 Alpha  occ. eigenvalues --   -0.35233  -0.34513  -0.33344  -0.32875  -0.31850
 Alpha  occ. eigenvalues --   -0.31052  -0.30404  -0.28641  -0.26776  -0.23233
 Alpha  occ. eigenvalues --   -0.18828
 Alpha virt. eigenvalues --   -0.06568  -0.01556   0.02720   0.05317   0.07135
 Alpha virt. eigenvalues --    0.08265   0.10476   0.10790   0.11281   0.11857
 Alpha virt. eigenvalues --    0.12119   0.12564   0.12970   0.13248   0.13647
 Alpha virt. eigenvalues --    0.13736   0.13841   0.14154   0.14380   0.14910
 Alpha virt. eigenvalues --    0.15491   0.15739   0.15799   0.16073   0.16318
 Alpha virt. eigenvalues --    0.16684   0.16848   0.17044   0.17380   0.17536
 Alpha virt. eigenvalues --    0.17935   0.18113   0.18791   0.19082   0.19534
 Alpha virt. eigenvalues --    0.19913   0.20041   0.20070   0.20411   0.20559
 Alpha virt. eigenvalues --    0.20651   0.21021   0.21073   0.21264   0.21416
 Alpha virt. eigenvalues --    0.21738   0.21872   0.22437   0.22860   0.22920
 Alpha virt. eigenvalues --    0.23224   0.23666   0.24042   0.24366   0.24584
 Alpha virt. eigenvalues --    0.24673   0.25328   0.25538   0.25590   0.25878
 Alpha virt. eigenvalues --    0.26316   0.26465   0.26557   0.27013   0.27034
 Alpha virt. eigenvalues --    0.27732   0.28372   0.29099   0.29107   0.29372
 Alpha virt. eigenvalues --    0.29493   0.29773   0.29933   0.30535   0.30596
 Alpha virt. eigenvalues --    0.30794   0.31052   0.31844   0.32787   0.32954
 Alpha virt. eigenvalues --    0.33024   0.33351   0.33424   0.34010   0.34141
 Alpha virt. eigenvalues --    0.34615   0.34896   0.35138   0.37646   0.37882
 Alpha virt. eigenvalues --    0.38622   0.39139   0.40654   0.41666   0.41846
 Alpha virt. eigenvalues --    0.42279   0.43140   0.43555   0.44359   0.44891
 Alpha virt. eigenvalues --    0.46416   0.47542   0.48061   0.48587   0.49406
 Alpha virt. eigenvalues --    0.49752   0.50519   0.51857   0.53314   0.54512
 Alpha virt. eigenvalues --    0.55231   0.55522   0.55755   0.56562   0.56981
 Alpha virt. eigenvalues --    0.57124   0.57670   0.58014   0.58285   0.58449
 Alpha virt. eigenvalues --    0.58593   0.59147   0.59364   0.59549   0.60161
 Alpha virt. eigenvalues --    0.60654   0.61356   0.61554   0.61694   0.62161
 Alpha virt. eigenvalues --    0.62423   0.62721   0.62917   0.63482   0.63982
 Alpha virt. eigenvalues --    0.64341   0.64654   0.64723   0.65020   0.65155
 Alpha virt. eigenvalues --    0.65739   0.65890   0.66200   0.66706   0.66930
 Alpha virt. eigenvalues --    0.67177   0.67300   0.67487   0.67849   0.68235
 Alpha virt. eigenvalues --    0.68490   0.68708   0.68932   0.69544   0.70191
 Alpha virt. eigenvalues --    0.70418   0.70751   0.71277   0.71584   0.72108
 Alpha virt. eigenvalues --    0.72495   0.72665   0.73124   0.73534   0.74002
 Alpha virt. eigenvalues --    0.74003   0.74398   0.74590   0.74717   0.75055
 Alpha virt. eigenvalues --    0.75263   0.76135   0.77126   0.77212   0.77719
 Alpha virt. eigenvalues --    0.78126   0.78327   0.79024   0.79155   0.79399
 Alpha virt. eigenvalues --    0.79759   0.79949   0.80306   0.80641   0.80980
 Alpha virt. eigenvalues --    0.81255   0.81725   0.81829   0.82097   0.82456
 Alpha virt. eigenvalues --    0.82742   0.82812   0.83119   0.83188   0.83556
 Alpha virt. eigenvalues --    0.83775   0.84207   0.84322   0.84557   0.84667
 Alpha virt. eigenvalues --    0.85067   0.85333   0.85484   0.86143   0.86332
 Alpha virt. eigenvalues --    0.86696   0.86855   0.87193   0.87352   0.87634
 Alpha virt. eigenvalues --    0.88241   0.88704   0.88912   0.89160   0.89231
 Alpha virt. eigenvalues --    0.89869   0.90071   0.90625   0.91039   0.91130
 Alpha virt. eigenvalues --    0.91264   0.91591   0.92106   0.92199   0.92444
 Alpha virt. eigenvalues --    0.92725   0.93534   0.93714   0.93743   0.94319
 Alpha virt. eigenvalues --    0.94491   0.95160   0.95323   0.95783   0.96291
 Alpha virt. eigenvalues --    0.96506   0.96598   0.97086   0.97168   0.97263
 Alpha virt. eigenvalues --    0.97368   0.98377   0.98577   0.98643   0.99333
 Alpha virt. eigenvalues --    0.99873   0.99982   1.00459   1.00641   1.00827
 Alpha virt. eigenvalues --    1.01064   1.01609   1.02378   1.02559   1.02913
 Alpha virt. eigenvalues --    1.03096   1.03621   1.03701   1.04167   1.04501
 Alpha virt. eigenvalues --    1.04854   1.05582   1.05885   1.06536   1.06652
 Alpha virt. eigenvalues --    1.06668   1.07250   1.08314   1.08545   1.09032
 Alpha virt. eigenvalues --    1.09503   1.09998   1.10253   1.11277   1.13046
 Alpha virt. eigenvalues --    1.13260   1.13575   1.13746   1.14346   1.14695
 Alpha virt. eigenvalues --    1.15864   1.16094   1.16641   1.17115   1.18011
 Alpha virt. eigenvalues --    1.18240   1.19267   1.20306   1.21019   1.21511
 Alpha virt. eigenvalues --    1.21792   1.22183   1.23929   1.24792   1.24961
 Alpha virt. eigenvalues --    1.25150   1.26219   1.26870   1.27383   1.27972
 Alpha virt. eigenvalues --    1.29008   1.30665   1.31424   1.31793   1.32427
 Alpha virt. eigenvalues --    1.33470   1.34249   1.34746   1.35606   1.36420
 Alpha virt. eigenvalues --    1.37114   1.38124   1.38296   1.38530   1.39120
 Alpha virt. eigenvalues --    1.39298   1.40195   1.41232   1.42463   1.42698
 Alpha virt. eigenvalues --    1.43196   1.43277   1.43634   1.43711   1.44336
 Alpha virt. eigenvalues --    1.44980   1.46979   1.47081   1.48699   1.49865
 Alpha virt. eigenvalues --    1.50293   1.50526   1.50986   1.51585   1.52129
 Alpha virt. eigenvalues --    1.52790   1.53965   1.54081   1.54754   1.55462
 Alpha virt. eigenvalues --    1.55738   1.56046   1.57308   1.58581   1.58708
 Alpha virt. eigenvalues --    1.59450   1.60546   1.60866   1.62456   1.62639
 Alpha virt. eigenvalues --    1.63362   1.63797   1.64826   1.65031   1.65822
 Alpha virt. eigenvalues --    1.68225   1.69942   1.70642   1.71851   1.72010
 Alpha virt. eigenvalues --    1.72765   1.74015   1.74651   1.75141   1.75910
 Alpha virt. eigenvalues --    1.78242   1.78362   1.78523   1.79769   1.79823
 Alpha virt. eigenvalues --    1.80159   1.80616   1.81591   1.81876   1.82145
 Alpha virt. eigenvalues --    1.83138   1.83182   1.83305   1.83670   1.84009
 Alpha virt. eigenvalues --    1.84819   1.84855   1.85094   1.85516   1.85764
 Alpha virt. eigenvalues --    1.86281   1.87262   1.87948   1.88334   1.88404
 Alpha virt. eigenvalues --    1.88605   1.89201   1.89583   1.89796   1.89937
 Alpha virt. eigenvalues --    1.90446   1.90982   1.91474   1.92002   1.92506
 Alpha virt. eigenvalues --    1.92569   1.92882   1.93167   1.93318   1.93476
 Alpha virt. eigenvalues --    1.93738   1.94750   1.95662   1.96009   1.96482
 Alpha virt. eigenvalues --    1.96822   1.96860   1.97383   1.97606   1.97783
 Alpha virt. eigenvalues --    1.97829   1.98187   1.98943   1.99099   2.00387
 Alpha virt. eigenvalues --    2.00606   2.01024   2.01557   2.01885   2.02097
 Alpha virt. eigenvalues --    2.03213   2.03515   2.03857   2.04430   2.04596
 Alpha virt. eigenvalues --    2.04895   2.05322   2.05562   2.06084   2.06535
 Alpha virt. eigenvalues --    2.07448   2.07767   2.07859   2.09046   2.09535
 Alpha virt. eigenvalues --    2.09666   2.10026   2.10079   2.10518   2.10837
 Alpha virt. eigenvalues --    2.11308   2.11885   2.12018   2.12619   2.12871
 Alpha virt. eigenvalues --    2.13161   2.14073   2.14470   2.14677   2.15018
 Alpha virt. eigenvalues --    2.15298   2.15477   2.16347   2.16708   2.16985
 Alpha virt. eigenvalues --    2.17182   2.17281   2.17597   2.18196   2.18500
 Alpha virt. eigenvalues --    2.19123   2.19789   2.19924   2.20254   2.20658
 Alpha virt. eigenvalues --    2.21834   2.21912   2.22781   2.22996   2.23368
 Alpha virt. eigenvalues --    2.23887   2.23989   2.25130   2.25360   2.25683
 Alpha virt. eigenvalues --    2.26029   2.26995   2.27427   2.27600   2.27709
 Alpha virt. eigenvalues --    2.27768   2.28571   2.28621   2.30124   2.30754
 Alpha virt. eigenvalues --    2.30939   2.31160   2.31696   2.32175   2.32655
 Alpha virt. eigenvalues --    2.33029   2.33297   2.34087   2.34893   2.35423
 Alpha virt. eigenvalues --    2.36388   2.37258   2.37526   2.37548   2.38556
 Alpha virt. eigenvalues --    2.39717   2.40046   2.40143   2.40759   2.40918
 Alpha virt. eigenvalues --    2.41549   2.41701   2.42405   2.42924   2.43340
 Alpha virt. eigenvalues --    2.44330   2.44726   2.44830   2.44985   2.45156
 Alpha virt. eigenvalues --    2.45532   2.45884   2.46060   2.46428   2.47357
 Alpha virt. eigenvalues --    2.48252   2.48963   2.49013   2.49203   2.49795
 Alpha virt. eigenvalues --    2.50196   2.50291   2.50941   2.51557   2.51838
 Alpha virt. eigenvalues --    2.52822   2.53762   2.54382   2.55007   2.55289
 Alpha virt. eigenvalues --    2.55556   2.55872   2.56318   2.57049   2.57255
 Alpha virt. eigenvalues --    2.57750   2.57944   2.59369   2.59799   2.60218
 Alpha virt. eigenvalues --    2.61048   2.61582   2.61613   2.61928   2.62006
 Alpha virt. eigenvalues --    2.62742   2.63667   2.64224   2.64583   2.64797
 Alpha virt. eigenvalues --    2.64884   2.65355   2.65524   2.65653   2.66106
 Alpha virt. eigenvalues --    2.66471   2.66610   2.67110   2.67284   2.67551
 Alpha virt. eigenvalues --    2.68649   2.68743   2.69515   2.69645   2.70431
 Alpha virt. eigenvalues --    2.70794   2.71193   2.71733   2.71776   2.72072
 Alpha virt. eigenvalues --    2.72625   2.72744   2.73711   2.73824   2.74349
 Alpha virt. eigenvalues --    2.74731   2.75804   2.76148   2.77413   2.77953
 Alpha virt. eigenvalues --    2.78316   2.78511   2.79043   2.79800   2.80033
 Alpha virt. eigenvalues --    2.80375   2.80903   2.81936   2.82187   2.82514
 Alpha virt. eigenvalues --    2.83190   2.83555   2.84288   2.84756   2.84837
 Alpha virt. eigenvalues --    2.85422   2.85602   2.86176   2.86693   2.86775
 Alpha virt. eigenvalues --    2.86914   2.87799   2.88157   2.89167   2.89385
 Alpha virt. eigenvalues --    2.90121   2.90758   2.91037   2.91700   2.92199
 Alpha virt. eigenvalues --    2.93455   2.93759   2.94968   2.95371   2.95655
 Alpha virt. eigenvalues --    2.96481   2.96889   2.97115   2.97848   2.98159
 Alpha virt. eigenvalues --    2.98252   2.98698   2.99989   3.00522   3.01020
 Alpha virt. eigenvalues --    3.01972   3.02415   3.03168   3.03828   3.04228
 Alpha virt. eigenvalues --    3.05884   3.06087   3.07465   3.08210   3.09152
 Alpha virt. eigenvalues --    3.09642   3.09858   3.10228   3.11022   3.12010
 Alpha virt. eigenvalues --    3.12584   3.13293   3.13998   3.15316   3.15426
 Alpha virt. eigenvalues --    3.16003   3.18442   3.20441   3.21725   3.21918
 Alpha virt. eigenvalues --    3.21967   3.23204   3.23352   3.26313   3.26431
 Alpha virt. eigenvalues --    3.27528   3.30524   3.30549   3.32892   3.33868
 Alpha virt. eigenvalues --    3.35405   3.35892   3.38343   3.38599   3.39697
 Alpha virt. eigenvalues --    3.39907   3.40421   3.40807   3.41443   3.44068
 Alpha virt. eigenvalues --    3.45574   3.45750   3.47604   3.47698   3.48083
 Alpha virt. eigenvalues --    3.49495   3.49629   3.50530   3.50703   3.52652
 Alpha virt. eigenvalues --    3.53158   3.54911   3.55497   3.56191   3.56952
 Alpha virt. eigenvalues --    3.57469   3.58922   3.59692   3.60535   3.61722
 Alpha virt. eigenvalues --    3.65214   3.66099   3.66535   3.67720   3.67971
 Alpha virt. eigenvalues --    3.70916   3.73424   3.75141   3.77953   3.80431
 Alpha virt. eigenvalues --    3.86858   3.98956   4.03306   4.11847   4.17434
 Alpha virt. eigenvalues --    4.19411   4.20107   4.21440   4.22751   4.24479
 Alpha virt. eigenvalues --    4.25135   4.28135   4.31320   4.32940   4.34718
 Alpha virt. eigenvalues --    4.36647   4.39415   4.43206   4.43398   4.44644
 Alpha virt. eigenvalues --    4.47335   4.48176   4.49023   4.53620   4.54013
 Alpha virt. eigenvalues --    4.55578   4.56376   4.58530   4.59765   4.64293
 Alpha virt. eigenvalues --    4.65548   4.66156   4.68495   4.68802   4.72187
 Alpha virt. eigenvalues --    4.74688   4.76958   4.80277   4.81886   4.84167
 Alpha virt. eigenvalues --    4.87532   4.88026   4.90496   4.94502
          Condensed to atoms (all electrons):
 Mulliken charges:
               1
     1  O   -0.556106
     2  O   -0.535450
     3  C    0.023049
     4  C   -0.130194
     5  C   -0.155856
     6  C    0.134044
     7  C    0.105262
     8  C    0.031372
     9  C   -0.298997
    10  C   -0.315883
    11  C   -0.165411
    12  C   -0.108775
    13  C    0.108287
    14  C    0.047822
    15  C   -0.075910
    16  C   -0.218168
    17  C    0.064697
    18  C   -0.325192
    19  C   -0.295845
    20  C   -0.331475
    21  C   -0.096961
    22  C   -0.132121
    23  C   -0.349838
    24  C    0.122926
    25  C   -0.102133
    26  C   -0.382137
    27  C    0.078229
    28  C   -0.136300
    29  C   -0.379282
    30  C   -0.086001
    31  C   -0.046677
    32  C   -0.080503
    33  C   -0.149341
    34  C    0.108764
    35  C   -0.133391
    36  C    0.124743
    37  C   -0.398462
    38  C   -0.116655
    39  C   -0.102332
    40  C   -0.354509
    41  C   -0.040143
    42  C   -0.111578
    43  H    0.096138
    44  H    0.116903
    45  H    0.089708
    46  H    0.058628
    47  H    0.103158
    48  H    0.103461
    49  H    0.097304
    50  H    0.098579
    51  H    0.114029
    52  H    0.089037
    53  H    0.114874
    54  H    0.063460
    55  H    0.071161
    56  H    0.074490
    57  H    0.092397
    58  H    0.091083
    59  H    0.099615
    60  H    0.113607
    61  H    0.085238
    62  H    0.108129
    63  H    0.077204
    64  H    0.097931
    65  H    0.109188
    66  H    0.128406
    67  H    0.080995
    68  H    0.059522
    69  H    0.305271
    70  H    0.079607
    71  H    0.075121
    72  H    0.107835
    73  H    0.105202
    74  H    0.121757
    75  H    0.307272
    76  H    0.091368
    77  H    0.085743
    78  H    0.124875
    79  H    0.122409
    80  H    0.063291
    81  H    0.123048
    82  H    0.141017
    83  H    0.090821
    84  H    0.076757
    85  H    0.086462
    86  H    0.070414
    87  H    0.084020
    88  H    0.071144
    89  H    0.124210
    90  H    0.131978
    91  H    0.106552
    92  H    0.069154
    93  H    0.070149
    94  H    0.079952
    95  H    0.123046
    96  H    0.132782
    97  H    0.079429
    98  H    0.077501
 Sum of Mulliken charges =  -0.00000
 Mulliken charges with hydrogens summed into heavy atoms:
               1
     1  O   -0.250835
     2  O   -0.228178
     3  C    0.023049
     4  C   -0.034056
     5  C    0.050755
     6  C    0.192672
     7  C    0.105262
     8  C    0.031372
     9  C    0.004926
    10  C   -0.014238
    11  C    0.012924
    12  C   -0.037613
    13  C    0.182776
    14  C    0.047822
    15  C    0.016487
    16  C   -0.027470
    17  C    0.064697
    18  C   -0.018217
    19  C   -0.011523
    20  C   -0.062553
    21  C   -0.021840
    22  C   -0.052514
    23  C   -0.015045
    24  C    0.122926
    25  C   -0.010765
    26  C   -0.049111
    27  C    0.078229
    28  C   -0.073009
    29  C   -0.024396
    30  C   -0.009244
    31  C    0.039785
    32  C   -0.010089
    33  C   -0.065321
    34  C    0.108764
    35  C   -0.062246
    36  C    0.124743
    37  C   -0.035722
    38  C   -0.047501
    39  C   -0.032183
    40  C   -0.018729
    41  C    0.039285
    42  C   -0.034077
 Electronic spatial extent (au):  <R**2>=         104838.2566
 Charge=             -0.0000 electrons
 Dipole moment (field-independent basis, Debye):
    X=              0.2336    Y=             -0.9665    Z=              0.9005  Tot=              1.3415
 Quadrupole moment (field-independent basis, Debye-Ang):
   XX=           -269.8338   YY=           -243.0105   ZZ=           -264.4682
   XY=              7.3434   XZ=             38.2733   YZ=              1.1336
 Traceless Quadrupole moment (field-independent basis, Debye-Ang):
   XX=            -10.7296   YY=             16.0937   ZZ=             -5.3641
   XY=              7.3434   XZ=             38.2733   YZ=              1.1336
 Octapole moment (field-independent basis, Debye-Ang**2):
  XXX=           -271.3059  YYY=              0.7263  ZZZ=             17.7891  XYY=            -23.6952
  XXY=           -168.8668  XXZ=             81.4060  XZZ=             31.7827  YZZ=              1.5549
  YYZ=            -10.9658  XYZ=             23.9264
 Hexadecapole moment (field-independent basis, Debye-Ang**3):
 XXXX=        -141913.1710 YYYY=          -4292.1206 ZZZZ=          -2097.1290 XXXY=           1889.5433
 XXXZ=           8885.7010 YYYX=            115.1190 YYYZ=            -14.7602 ZZZX=            -75.3552
 ZZZY=            -10.3828 XXYY=         -22578.7594 XXZZ=         -22998.1792 YYZZ=          -1094.3137
 XXYZ=           1002.7413 YYXZ=            166.2348 ZZXY=            198.2174
 N-N= 4.006529975688D+03 E-N=-1.196728471357D+04  KE= 1.689244725791D+03
 1\1\GINC-PADAWAN\SP\RCAM-B3LYP TD-FC\6-31G(d,p)\C40H56O2\PADAWAN\15-Ju
 l-2019\0\\# td=(NStates=1) CAM-B3LYP/6-31G(d,p)\\TD\\0,1\O,0,-14.15046
 09213,-1.9939777795,0.362926548\O,0,14.8655583926,1.1123188185,-0.0087
 002741\C,0,-11.8499078504,0.0589319681,1.2945842784\C,0,-11.0076977323
 ,0.3973425053,-0.0350197892\C,0,-12.081983679,-1.4359280772,1.37401524
 28\C,0,-12.7690803015,-2.0679578606,0.166600811\C,0,-11.6409493838,-0.
 3745249308,-1.2444699369\C,0,11.0948328139,1.0099026328,1.028233103\C,
 0,-11.0711485881,0.5935510939,2.5083778885\C,0,-13.2160377662,0.706496
 2965,1.1470457814\C,0,12.5183990204,1.5422436509,0.6973871249\C,0,-12.
 3328642723,-1.4648443522,-1.1387766464\C,0,13.5805796789,0.5230099736,
 0.4004573646\C,0,10.6692363979,-0.0243418444,-0.04845126\C,0,-9.615340
 2979,0.0071878706,0.035093517\C,0,13.0738953671,-0.1212993493,-0.89035
 46218\C,0,11.6072238112,-0.5798430296,-0.9435694157\C,0,10.1069375794,
 2.2721165237,0.9942821416\C,0,11.0123920717,0.4141905945,2.4293734986\
 C,0,-11.1338878863,0.2160732488,-2.5477570339\C,0,-8.508266927,0.84790
 97734,-0.0203856611\C,0,9.2797129006,-0.5718249583,-0.0419341096\C,0,1
 1.3209620417,-1.5723301998,-2.034173022\C,0,-7.0875000729,0.5110083426
 ,-0.0175038397\C,0,8.8121576722,-1.8950192994,-0.0022553665\C,0,-6.820
 9235139,-0.9467234292,0.2186147501\C,0,7.3898174692,-2.2089037624,0.05
 29942371\C,0,-6.1689366697,1.4823318077,-0.1981916758\C,0,7.0413673309
 ,-3.6134450667,0.2677269909\C,0,6.4127385429,-1.2629665854,-0.19187152
 96\C,0,-4.7618201557,1.3875722964,-0.1584267561\C,0,5.0373345794,-1.57
 46153044,-0.2398017604\C,0,-3.9607074431,2.4968727135,-0.5410152905\C,
 0,-2.583188757,2.6257005277,-0.591971945\C,0,4.0233062961,-0.613331839
 3,-0.3912186383\C,0,2.6794649951,-0.8741318847,-0.1987748301\C,0,-1.94
 95935096,3.9393885215,-0.9422133687\C,0,-1.7232694124,1.5072834727,-0.
 3325292693\C,0,1.8473332783,0.2658081423,-0.4570042623\C,0,2.109024223
 5,-2.2369664839,0.08492086\C,0,-0.3734996089,1.4656478861,-0.479691328
 9\C,0,0.4071555464,0.3805597238,-0.3682400848\H,0,-11.3575524967,1.429
 9447798,-0.2452263678\H,0,-12.751908664,-1.6468346972,2.1357314678\H,0
 ,-11.3154692165,-1.9567248675,1.2524185245\H,0,-12.507444378,-3.193658
 4731,0.0915840205\H,0,-10.1894343447,0.0564573213,2.6695955835\H,0,-10
 .8852986965,1.665849662,2.5071954414\H,0,-11.5497925716,0.269320351,3.
 37462164\H,0,-13.7594371455,0.4395999623,0.1587723475\H,0,-13.88967473
 81,0.2328948969,1.7904030423\H,0,-13.2936280482,1.7898026021,1.0661370
 97\H,0,12.6100383705,2.1061355631,-0.2228344402\H,0,12.9900034274,1.97
 47415131,1.6547630775\H,0,-12.7473082094,-1.9990667032,-1.987302921\H,
 0,13.6491545003,-0.2789776436,1.2718275187\H,0,-9.4705494206,-1.063741
 2331,0.3087684368\H,0,13.8328884329,-1.0173447738,-1.0949946555\H,0,13
 .2406804855,0.8490634842,-1.6597959034\H,0,9.2099076884,2.4258126331,1
 .5986051079\H,0,9.8276246241,2.5534379462,-0.1491479993\H,0,10.7294766
 21,3.1491898907,1.2468708381\H,0,11.9019330346,-0.3746347121,2.5897453
 959\H,0,9.9557305437,-0.2173842794,2.5022933574\H,0,11.1110620053,1.09
 21670135,3.2939443374\H,0,-9.9637288709,0.0609460053,-2.8360309988\H,0
 ,-11.4099000463,1.4399899975,-2.7318502503\H,0,-12.0664944945,-0.03646
 23975,-3.4525330109\H,0,-14.7319564689,-2.3038593385,-0.4123494387\H,0
 ,8.4946285309,0.0951797432,0.152987945\H,0,-8.5696521341,1.9224338962,
 -0.2600413245\H,0,11.6766533998,-2.6027817742,-1.5849213436\H,0,10.074
 8203484,-1.4577518769,-2.238369771\H,0,11.8941387076,-1.3934724373,-2.
 9463205802\H,0,15.1017393542,1.4269307929,0.9354415131\H,0,9.647134489
 7,-2.5647295547,-0.1120176443\H,0,-5.7357780388,-1.2639135421,0.623979
 7948\H,0,-7.3240112992,-1.4324252157,1.0705493073\H,0,-7.0267889141,-1
 .5515736056,-0.7492831431\H,0,-6.5042327098,2.6517639715,-0.4682500267
 \H,0,6.4955531043,-3.8447078934,1.2144711428\H,0,6.506588004,-3.961581
 3459,-0.482247816\H,0,8.0680367011,-4.2464208267,0.2725442217\H,0,6.64
 56729942,-0.2686441038,-0.3569478167\H,0,-4.4728595176,0.3303026955,0.
 0648604284\H,0,4.818655469,-2.5385431073,-0.1024079016\H,0,-4.66888293
 4,3.3481127931,-0.6931989754\H,0,4.4514252187,0.5849958385,-0.28225744
 31\H,0,-1.2915389121,3.913302777,-1.8549337653\H,0,-1.428855724,4.3933
 864959,-0.1078027401\H,0,-2.6283623243,4.7927316887,-1.2202903227\H,0,
 -2.3077796584,0.5478814136,-0.0005447845\H,0,2.4188009222,1.043818371,
 -0.5689339085\H,0,2.3874972774,-2.5260990123,1.3142598045\H,0,0.993284
 3997,-2.2097202631,0.0581945344\H,0,2.5590086503,-2.9889966869,-0.4906
 233053\H,0,-0.0165557707,2.4255823979,-0.6260195935\H,0,-0.275190415,-
 0.3809182616,0.2134006851\\Version=ES64L-G16RevA.03\State=1-A\HF=-1706
 .9149509\RMSD=5.590e-09\PG=C01 [X(C40H56O2)]\\@


 IN THE LONG RUN, DIGGING FOR TRUTH HAS ALWAYS PROVED NOT ONLY 
 MORE INTERESTING BUT MORE PROFITABLE THAN DIGGING FOR GOLD.

                             -- GEORGE R. HARRISON
 Job cpu time:       0 days  2 hours 19 minutes 25.7 seconds.
 Elapsed time:       0 days  1 hours 32 minutes 48.4 seconds.
 File lengths (MBytes):  RWF=   3127 Int=      0 D2E=      0 Chk=     84 Scr=      1
 Normal termination of Gaussian 16 at Mon Jul 15 03:09:26 2019.
