 Entering Gaussian System, Link 0=g16
 Input=Geometria-99-.com
 Output=Geometria-99-.log
 Initial command:
 /usr/local/g16/l1.exe "/home/padawan/israel-mol/zeaxanthin/spectra/emi/Gau-114387.inp" -scrdir="/home/padawan/israel-mol/zeaxanthin/spectra/emi/"
 Entering Link 1 = /usr/local/g16/l1.exe PID=    114389.
  
 Copyright (c) 1988,1990,1992,1993,1995,1998,2003,2009,2016,
            Gaussian, Inc.  All Rights Reserved.
  
 This is part of the Gaussian(R) 16 program.  It is based on
 the Gaussian(R) 09 system (copyright 2009, Gaussian, Inc.),
 the Gaussian(R) 03 system (copyright 2003, Gaussian, Inc.),
 the Gaussian(R) 98 system (copyright 1998, Gaussian, Inc.),
 the Gaussian(R) 94 system (copyright 1995, Gaussian, Inc.),
 the Gaussian 92(TM) system (copyright 1992, Gaussian, Inc.),
 the Gaussian 90(TM) system (copyright 1990, Gaussian, Inc.),
 the Gaussian 88(TM) system (copyright 1988, Gaussian, Inc.),
 the Gaussian 86(TM) system (copyright 1986, Carnegie Mellon
 University), and the Gaussian 82(TM) system (copyright 1983,
 Carnegie Mellon University). Gaussian is a federally registered
 trademark of Gaussian, Inc.
  
 This software contains proprietary and confidential information,
 including trade secrets, belonging to Gaussian, Inc.
  
 This software is provided under written license and may be
 used, copied, transmitted, or stored only in accord with that
 written license.
  
 The following legend is applicable only to US Government
 contracts under FAR:
  
                    RESTRICTED RIGHTS LEGEND
  
 Use, reproduction and disclosure by the US Government is
 subject to restrictions as set forth in subparagraphs (a)
 and (c) of the Commercial Computer Software - Restricted
 Rights clause in FAR 52.227-19.
  
 Gaussian, Inc.
 340 Quinnipiac St., Bldg. 40, Wallingford CT 06492
  
  
 ---------------------------------------------------------------
 Warning -- This program may not be used in any manner that
 competes with the business of Gaussian, Inc. or will provide
 assistance to any competitor of Gaussian, Inc.  The licensee
 of this program is prohibited from giving any competitor of
 Gaussian, Inc. access to this program.  By using this program,
 the user acknowledges that Gaussian, Inc. is engaged in the
 business of creating and licensing software in the field of
 computational chemistry and represents and warrants to the
 licensee that it is not a competitor of Gaussian, Inc. and that
 it will not use this program in any manner prohibited above.
 ---------------------------------------------------------------
  

 Cite this work as:
 Gaussian 16, Revision A.03,
 M. J. Frisch, G. W. Trucks, H. B. Schlegel, G. E. Scuseria, 
 M. A. Robb, J. R. Cheeseman, G. Scalmani, V. Barone, 
 G. A. Petersson, H. Nakatsuji, X. Li, M. Caricato, A. V. Marenich, 
 J. Bloino, B. G. Janesko, R. Gomperts, B. Mennucci, H. P. Hratchian, 
 J. V. Ortiz, A. F. Izmaylov, J. L. Sonnenberg, D. Williams-Young, 
 F. Ding, F. Lipparini, F. Egidi, J. Goings, B. Peng, A. Petrone, 
 T. Henderson, D. Ranasinghe, V. G. Zakrzewski, J. Gao, N. Rega, 
 G. Zheng, W. Liang, M. Hada, M. Ehara, K. Toyota, R. Fukuda, 
 J. Hasegawa, M. Ishida, T. Nakajima, Y. Honda, O. Kitao, H. Nakai, 
 T. Vreven, K. Throssell, J. A. Montgomery, Jr., J. E. Peralta, 
 F. Ogliaro, M. J. Bearpark, J. J. Heyd, E. N. Brothers, K. N. Kudin, 
 V. N. Staroverov, T. A. Keith, R. Kobayashi, J. Normand, 
 K. Raghavachari, A. P. Rendell, J. C. Burant, S. S. Iyengar, 
 J. Tomasi, M. Cossi, J. M. Millam, M. Klene, C. Adamo, R. Cammi, 
 J. W. Ochterski, R. L. Martin, K. Morokuma, O. Farkas, 
 J. B. Foresman, and D. J. Fox, Gaussian, Inc., Wallingford CT, 2016.
 
 ******************************************
 Gaussian 16:  ES64L-G16RevA.03 25-Dec-2016
                11-Jul-2019 
 ******************************************
 %nproc=4
 Will use up to    4 processors via shared memory.
 %Mem=2GB
 -------------------------------------
 # td=(NStates=1) CAM-B3LYP/6-31G(d,p)
 -------------------------------------
 1/38=1,172=1/1;
 2/12=2,17=6,18=5,40=1/2;
 3/5=1,6=6,7=101,11=9,25=1,30=1,74=-40/1,2,3,8;
 4//1;
 5/5=2,38=5/2;
 8/6=1,10=2,108=1/1;
 9/41=1,42=1,70=2/14;
 6/7=2,8=2,9=2,10=2/1;
 99/5=1,9=1/99;
 --
 TD
 --
 Symbolic Z-matrix:
 Charge =  0 Multiplicity = 1
 8                     14.73414  -2.28951   0.03164 
 8                    -14.95415   1.60155   1.04695 
 6                     11.19613  -1.52992   1.00228 
 6                    -12.32472  -1.13859   0.68434 
 6                     12.6956  -1.96985   1.08435 
 6                    -13.7392  -0.4639    0.69008 
 6                     13.36229  -2.02847  -0.24734 
 6                    -13.7118   0.98563   0.9567 
 6                     10.94399  -0.40308   0.14073 
 6                    -11.22548  -0.18793  -0.11475 
 6                     13.29654  -0.58282  -0.8349 
 6                    -12.94749   1.6122   -0.25061 
 6                     11.91112   0.06822  -0.80785 
 6                    -11.62462   1.00348  -0.53543 
 6                     10.61796  -1.37424   2.42071 
 6                     10.46406  -2.82201   0.36919 
 6                    -11.88121  -1.4705    2.10069 
 6                    -12.56585  -2.61464   0.03395 
 6                     9.70152   0.31624   0.29576 
 6                    -10.07611  -0.97101  -0.47778 
 6                     11.71989   1.0571   -1.79463 
 6                    -10.7342   1.81493  -1.35439 
 6                     9.42971   1.62508   0.09771 
 6                    -8.73529  -0.41117  -0.35098 
 6                     8.15716   2.26061   0.14975 
 6                    -7.53397  -1.16006  -0.52525 
 6                     8.12818   3.64346   0.47555 
 6                    -7.68229  -2.63081  -0.7906 
 6                     6.95337   1.45069  -0.05513 
 6                    -6.37644  -0.43431  -0.37129 
 6                     5.66983   2.06712   0.03893 
 6                    -5.01424  -0.85879  -0.62621 
 6                     4.55582   1.38815  -0.19295 
 6                    -3.94856   0.04047  -0.38819 
 6                     3.17501   1.86668  -0.13432 
 6                    -2.60949  -0.39783  -0.65902 
 6                     2.79754   3.30065   0.41684 
 6                    -2.31067  -1.91157  -1.03585 
 6                     2.1719    0.97046  -0.34334 
 6                    -1.58927   0.55716  -0.47166 
 6                     0.73825   1.21128  -0.19351 
 6                    -0.24578   0.2564   -0.50894 
 1                     12.91851  -1.17609   1.84205 
 1                     12.67627  -2.71236   1.62151 
 1                    -14.44039  -1.04464   1.52259 
 1                    -14.05076  -0.56059  -0.23751 
 1                     13.00961  -2.9158   -0.95835 
 1                    -12.93899   1.09268   1.8736 
 1                     14.07254  -0.05101  -0.05628 
 1                     13.65069  -0.8343   -1.7758 
 1                    -13.63675   1.56837  -1.147 
 1                    -12.71895   2.63467  -0.066 
 1                     11.01509  -2.16      3.17492 
 1                     9.56238  -1.38713   2.46912 
 1                     11.33154  -0.52424   2.72958 
 1                     10.865   -2.8102   -0.82443 
 1                     10.90534  -3.8872    0.92439 
 1                     9.36424  -2.88668   0.7847 
 1                    -11.75888  -0.6355    2.7017 
 1                    -10.9471  -1.89507   2.0215 
 1                    -12.48403  -2.20102   2.78089 
 1                    -13.27461  -3.26521   0.59885 
 1                    -11.58771  -3.24505  -0.07206 
 1                    -12.90812  -2.37794  -1.12264 
 1                     8.81186  -0.18085   0.65931 
 1                    -10.07741  -2.17326  -0.62891 
 1                     10.81989   1.58997  -1.8273 
 1                     12.42159   1.89443  -1.59192 
 1                     11.94731   0.52115  -2.70804 
 1                    -11.14801   2.416    -1.9999 
 1                    -10.03136   0.97978  -1.78461 
 1                    -10.26832   2.38452  -0.78042 
 1                     14.787   -3.24768   0.10994 
 1                    -15.27392   1.43156   1.85588 
 1                     10.23217   2.1334   -0.07771 
 1                    -8.5633    0.54941   0.21199 
 1                     9.08837   4.01388   1.05841 
 1                     8.03744   4.52413  -0.42224 
 1                     7.35836   3.90742   1.38245 
 1                    -7.81794  -3.02943   0.11294 
 1                    -8.61729  -2.91571  -1.71207 
 1                    -6.7782   -3.04684  -1.15263 
 1                     6.92189   0.48235  -0.28262 
 1                    -6.45755   0.62582   0.02085 
 1                     5.61617   3.21388   0.10644 
 1                    -5.12201  -1.93901  -0.95415 
 1                     4.69707   0.27608  -0.34775 
 1                    -4.29148   0.96223  -0.20613 
 1                     2.98004   3.43436   1.41766 
 1                     1.7633    3.64099   0.13431 
 1                     3.41359   3.93337  -0.09092 
 1                    -2.96419  -2.52111  -0.42618 
 1                    -2.68606  -2.04318  -2.00213 
 1                    -1.2023   -1.97287  -0.89201 
 1                     2.32056  -0.21383  -0.53813 
 1                    -1.92234   1.53472  -0.35043 
 1                     0.31948   2.23141  -0.00235 
 1                     0.13207  -0.79598  -0.75075 
 
 Stoichiometry    C40H56O2
 Framework group  C1[X(C40H56O2)]
 Deg. of freedom   288
 Full point group                 C1      NOp   1
 Largest Abelian subgroup         C1      NOp   1
 Largest concise Abelian subgroup C1      NOp   1
                         Standard orientation:                         
 ---------------------------------------------------------------------
 Center     Atomic      Atomic             Coordinates (Angstroms)
 Number     Number       Type             X           Y           Z
 ---------------------------------------------------------------------
      1          8           0       14.735379   -2.271428   -0.105168
      2          8           0      -14.956220    1.527183    1.137913
      3          6           0       11.196515   -1.575633    0.909196
      4          6           0      -12.324546   -1.183469    0.608400
      5          6           0       12.696308   -2.018631    0.964556
      6          6           0      -13.739558   -0.511497    0.655147
      7          6           0       13.363407   -1.994775   -0.368007
      8          6           0      -13.713364    0.918926    1.010365
      9          6           0       10.943730   -0.398162    0.118462
     10          6           0      -11.225834   -0.184654   -0.130395
     11          6           0       13.296682   -0.515795   -0.865616
     12          6           0      -12.949212    1.619112   -0.155906
     13          6           0       11.910743    0.131287   -0.799051
     14          6           0      -11.625795    1.030053   -0.477172
     15          6           0       10.617839   -1.507883    2.334327
     16          6           0       10.465623   -2.826929    0.197653
     17          6           0      -11.881164   -1.601472    2.001806
     18          6           0      -12.564350   -2.616942   -0.131563
     19          6           0        9.700647    0.309317    0.317019
     20          6           0      -10.075757   -0.943060   -0.540505
     21          6           0       11.719008    1.178808   -1.723240
     22          6           0      -10.735786    1.890992   -1.244428
     23          6           0        9.427869    1.627647    0.199699
     24          6           0       -8.735412   -0.391052   -0.379106
     25          6           0        8.154816    2.257807    0.290297
     26          6           0       -7.533455   -1.126897   -0.598693
     27          6           0        8.124666    3.617995    0.700477
     28          6           0       -7.680548   -2.578668   -0.953990
     29          6           0        6.951706    1.461094    0.035643
     30          6           0       -6.376534   -0.411097   -0.400042
     31          6           0        5.667662    2.069593    0.167004
     32          6           0       -5.013933   -0.818065   -0.680139
     33          6           0        4.554253    1.405303   -0.106530
     34          6           0       -3.949018    0.065683   -0.386956
     35          6           0        3.173054    1.878276   -0.019036
     36          6           0       -2.609532   -0.354120   -0.683790
     37          6           0        2.794309    3.275364    0.619101
     38          6           0       -2.309429   -1.841611   -1.152857
     39          6           0        2.170693    0.995830   -0.283065
     40          6           0       -1.590115    0.588330   -0.437755
     41          6           0        0.736819    1.225895   -0.119177
     42          6           0       -0.246383    0.291452   -0.493023
     43          1           0       12.918388   -1.272780    1.769681
     44          1           0       12.677410   -2.792777    1.455051
     45          1           0      -14.440516   -1.142844    1.450164
     46          1           0      -14.050787   -0.551226   -0.276729
     47          1           0       13.011612   -2.836998   -1.132325
     48          1           0      -12.940891    0.970011    1.932356
     49          1           0       14.072055   -0.032263   -0.055537
     50          1           0       13.651285   -0.708697   -1.820086
     51          1           0      -13.638196    1.629934   -1.053509
     52          1           0      -12.721523    2.628469    0.091284
     53          1           0       11.015379   -2.338214    3.038946
     54          1           0        9.562258   -1.524526    2.381524
     55          1           0       11.330664   -0.677929    2.695089
     56          1           0       10.866884   -2.741463   -0.992856
     57          1           0       10.907588   -3.923891    0.686472
     58          1           0        9.365748   -2.917857    0.608045
     59          1           0      -11.759648   -0.804899    2.653048
     60          1           0      -10.946698   -2.019663    1.896967
     61          1           0      -12.483597   -2.372881    2.635627
     62          1           0      -13.272749   -3.301537    0.392048
     63          1           0      -11.585689   -3.238894   -0.275818
     64          1           0      -12.906486   -2.309853   -1.271526
     65          1           0        8.811285   -0.209862    0.649042
     66          1           0      -10.076075   -2.133753   -0.765246
     67          1           0       10.818606    1.711994   -1.723386
     68          1           0       12.419998    2.002631   -1.469225
     69          1           0       11.947095    0.700192   -2.667795
     70          1           0      -11.149888    2.530282   -1.851903
     71          1           0      -10.032173    1.084403   -1.724946
     72          1           0      -10.270507    2.424580   -0.636383
     73          1           0       14.788966   -3.232556   -0.085891
     74          1           0      -15.276078    1.307553    1.934755
     75          1           0       10.229981    2.146402    0.056115
     76          1           0       -8.564322    0.533241    0.241899
     77          1           0        9.084399    3.952623    1.305310
     78          1           0        8.033477    4.552108   -0.141513
     79          1           0        7.354384    3.825122    1.621634
     80          1           0       -7.816140   -3.032170   -0.076709
     81          1           0       -8.615074   -2.807102   -1.891533
     82          1           0       -6.776041   -2.970964   -1.340621
     83          1           0        6.921048    0.508542   -0.250945
     84          1           0       -6.458582    0.622865    0.056486
     85          1           0        5.613088    3.209990    0.304853
     86          1           0       -5.120772   -1.876166   -1.073893
     87          1           0        4.696413    0.304967   -0.329343
     88          1           0       -4.292712    0.974241   -0.148691
     89          1           0        2.976434    3.347441    1.626301
     90          1           0        1.759883    3.631634    0.357692
     91          1           0        3.409997    3.938571    0.151387
     92          1           0       -2.962636   -2.487972   -0.582011
     93          1           0       -2.684451   -1.913862   -2.125513
     94          1           0       -1.201051   -1.910790   -1.012696
     95          1           0        2.320339   -0.174137   -0.550239
     96          1           0       -1.923978    1.556334   -0.256771
     97          1           0        0.317201    2.232020    0.134191
     98          1           0        0.132365   -0.743784   -0.798936
 ---------------------------------------------------------------------
 Rotational constants (GHZ):           0.2434103           0.0092503           0.0090492
 Standard basis: 6-31G(d,p) (6D, 7F)
 There are   910 symmetry adapted cartesian basis functions of A   symmetry.
 There are   910 symmetry adapted basis functions of A   symmetry.
   910 basis functions,  1568 primitive gaussians,   910 cartesian basis functions
   156 alpha electrons      156 beta electrons
       nuclear repulsion energy      3973.5713056273 Hartrees.
 NAtoms=   98 NActive=   98 NUniq=   98 SFac= 1.00D+00 NAtFMM=   60 NAOKFM=T Big=T
 Integral buffers will be    131072 words long.
 Raffenetti 1 integral format.
 Two-electron integral symmetry is turned on.
 One-electron integrals computed using PRISM.
 NBasis=   910 RedAO= T EigKep=  9.81D-04  NBF=   910
 NBsUse=   910 1.00D-06 EigRej= -1.00D+00 NBFU=   910
 ExpMin= 1.61D-01 ExpMax= 5.48D+03 ExpMxC= 8.25D+02 IAcc=3 IRadAn=         5 AccDes= 0.00D+00
 Harris functional with IExCor=20419 and IRadAn=       5 diagonalized for initial guess.
 HarFok:  IExCor=20419 AccDes= 0.00D+00 IRadAn=         5 IDoV= 1 UseB2=F ITyADJ=14
 ICtDFT=  3500011 ScaDFX=  1.000000  1.000000  1.000000  1.000000
 FoFCou: FMM=F IPFlag=           0 FMFlag=      100000 FMFlg1=        2001
         NFxFlg=           0 DoJE=T BraDBF=F KetDBF=T FulRan=T
         wScrn=  0.000000 ICntrl=       500 IOpCl=  0 I1Cent=   200000004 NGrid=           0
         NMat0=    1 NMatS0=      1 NMatT0=    0 NMatD0=    1 NMtDS0=    0 NMtDT0=    0
 Petite list used in FoFCou.
 Requested convergence on RMS density matrix=1.00D-08 within 128 cycles.
 Requested convergence on MAX density matrix=1.00D-06.
 Requested convergence on             energy=1.00D-06.
 No special actions if energy rises.
 Integral accuracy reduced to 1.0D-05 until final iterations.
 Initial convergence to 1.0D-05 achieved.  Increase integral accuracy.
 SCF Done:  E(RCAM-B3LYP) =  -1706.83775890     A.U. after   15 cycles
            NFock= 15  Conv=0.48D-08     -V/T= 2.0095
 DoSCS=F DFT=T ScalE2(SS,OS)=  1.000000  1.000000
 ExpMin= 1.61D-01 ExpMax= 5.48D+03 ExpMxC= 8.25D+02 IAcc=3 IRadAn=         5 AccDes= 0.00D+00
 HarFok:  IExCor=  205 AccDes= 0.00D+00 IRadAn=         5 IDoV=-2 UseB2=F ITyADJ=14
 ICtDFT= 12500011 ScaDFX=  1.000000  1.000000  1.000000  1.000000
 GSVD:  LWork=       -2100 too small for GESVD, short by        9450 words or        9450 for optimal perf.
 Range of M.O.s used for correlation:    43   910
 NBasis=   910 NAE=   156 NBE=   156 NFC=    42 NFV=     0
 NROrb=    868 NOA=   114 NOB=   114 NVA=   754 NVB=   754
 Orbital symmetries:
       Occupied  (A) (A) (A) (A) (A) (A) (A) (A) (A) (A) (A) (A)
                 (A) (A) (A) (A) (A) (A) (A) (A) (A) (A) (A) (A)
                 (A) (A) (A) (A) (A) (A) (A) (A) (A) (A) (A) (A)
                 (A) (A) (A) (A) (A) (A) (A) (A) (A) (A) (A) (A)
                 (A) (A) (A) (A) (A) (A) (A) (A) (A) (A) (A) (A)
                 (A) (A) (A) (A) (A) (A) (A) (A) (A) (A) (A) (A)
                 (A) (A) (A) (A) (A) (A) (A) (A) (A) (A) (A) (A)
                 (A) (A) (A) (A) (A) (A) (A) (A) (A) (A) (A) (A)
                 (A) (A) (A) (A) (A) (A) (A) (A) (A) (A) (A) (A)
                 (A) (A) (A) (A) (A) (A) (A) (A) (A) (A) (A) (A)
                 (A) (A) (A) (A) (A) (A) (A) (A) (A) (A) (A) (A)
                 (A) (A) (A) (A) (A) (A) (A) (A) (A) (A) (A) (A)
                 (A) (A) (A) (A) (A) (A) (A) (A) (A) (A) (A) (A)
       Virtual   (A) (A) (A) (A) (A) (A) (A) (A) (A) (A) (A) (A)
                 (A) (A) (A) (A) (A) (A) (A) (A) (A) (A) (A) (A)
                 (A) (A) (A) (A) (A) (A) (A) (A) (A) (A) (A) (A)
                 (A) (A) (A) (A) (A) (A) (A) (A) (A) (A) (A) (A)
                 (A) (A) (A) (A) (A) (A) (A) (A) (A) (A) (A) (A)
                 (A) (A) (A) (A) (A) (A) (A) (A) (A) (A) (A) (A)
                 (A) (A) (A) (A) (A) (A) (A) (A) (A) (A) (A) (A)
                 (A) (A) (A) (A) (A) (A) (A) (A) (A) (A) (A) (A)
                 (A) (A) (A) (A) (A) (A) (A) (A) (A) (A) (A) (A)
                 (A) (A) (A) (A) (A) (A) (A) (A) (A) (A) (A) (A)
                 (A) (A) (A) (A) (A) (A) (A) (A) (A) (A) (A) (A)
                 (A) (A) (A) (A) (A) (A) (A) (A) (A) (A) (A) (A)
                 (A) (A) (A) (A) (A) (A) (A) (A) (A) (A) (A) (A)
                 (A) (A) (A) (A) (A) (A) (A) (A) (A) (A) (A) (A)
                 (A) (A) (A) (A) (A) (A) (A) (A) (A) (A) (A) (A)
                 (A) (A) (A) (A) (A) (A) (A) (A) (A) (A) (A) (A)
                 (A) (A) (A) (A) (A) (A) (A) (A) (A) (A) (A) (A)
                 (A) (A) (A) (A) (A) (A) (A) (A) (A) (A) (A) (A)
                 (A) (A) (A) (A) (A) (A) (A) (A) (A) (A) (A) (A)
                 (A) (A) (A) (A) (A) (A) (A) (A) (A) (A) (A) (A)
                 (A) (A) (A) (A) (A) (A) (A) (A) (A) (A) (A) (A)
                 (A) (A) (A) (A) (A) (A) (A) (A) (A) (A) (A) (A)
                 (A) (A) (A) (A) (A) (A) (A) (A) (A) (A) (A) (A)
                 (A) (A) (A) (A) (A) (A) (A) (A) (A) (A) (A) (A)
                 (A) (A) (A) (A) (A) (A) (A) (A) (A) (A) (A) (A)
                 (A) (A) (A) (A) (A) (A) (A) (A) (A) (A) (A) (A)
                 (A) (A) (A) (A) (A) (A) (A) (A) (A) (A) (A) (A)
                 (A) (A) (A) (A) (A) (A) (A) (A) (A) (A) (A) (A)
                 (A) (A) (A) (A) (A) (A) (A) (A) (A) (A) (A) (A)
                 (A) (A) (A) (A) (A) (A) (A) (A) (A) (A) (A) (A)
                 (A) (A) (A) (A) (A) (A) (A) (A) (A) (A) (A) (A)
                 (A) (A) (A) (A) (A) (A) (A) (A) (A) (A) (A) (A)
                 (A) (A) (A) (A) (A) (A) (A) (A) (A) (A) (A) (A)
                 (A) (A) (A) (A) (A) (A) (A) (A) (A) (A) (A) (A)
                 (A) (A) (A) (A) (A) (A) (A) (A) (A) (A) (A) (A)
                 (A) (A) (A) (A) (A) (A) (A) (A) (A) (A) (A) (A)
                 (A) (A) (A) (A) (A) (A) (A) (A) (A) (A) (A) (A)
                 (A) (A) (A) (A) (A) (A) (A) (A) (A) (A) (A) (A)
                 (A) (A) (A) (A) (A) (A) (A) (A) (A) (A) (A) (A)
                 (A) (A) (A) (A) (A) (A) (A) (A) (A) (A) (A) (A)
                 (A) (A) (A) (A) (A) (A) (A) (A) (A) (A) (A) (A)
                 (A) (A) (A) (A) (A) (A) (A) (A) (A) (A) (A) (A)
                 (A) (A) (A) (A) (A) (A) (A) (A) (A) (A) (A) (A)
                 (A) (A) (A) (A) (A) (A) (A) (A) (A) (A) (A) (A)
                 (A) (A) (A) (A) (A) (A) (A) (A) (A) (A) (A) (A)
                 (A) (A) (A) (A) (A) (A) (A) (A) (A) (A) (A) (A)
                 (A) (A) (A) (A) (A) (A) (A) (A) (A) (A) (A) (A)
                 (A) (A) (A) (A) (A) (A) (A) (A) (A) (A) (A) (A)
                 (A) (A) (A) (A) (A) (A) (A) (A) (A) (A) (A) (A)
                 (A) (A) (A) (A) (A) (A) (A) (A) (A) (A) (A) (A)
                 (A) (A) (A) (A) (A) (A) (A) (A) (A) (A) (A) (A)
                 (A) (A) (A) (A) (A) (A) (A) (A) (A) (A) (A) (A)
                 (A) (A) (A) (A) (A) (A) (A) (A) (A) (A) (A) (A)
                 (A) (A) (A) (A) (A) (A) (A) (A) (A) (A) (A) (A)
                 (A) (A) (A) (A) (A) (A) (A) (A) (A) (A) (A) (A)
                 (A) (A) (A) (A) (A) (A) (A) (A) (A) (A) (A) (A)
                 (A) (A) (A) (A) (A) (A) (A) (A) (A) (A) (A) (A)
                 (A) (A) (A) (A) (A) (A) (A) (A) (A) (A) (A) (A)
                 (A) (A) (A) (A) (A) (A) (A) (A) (A) (A) (A) (A)
                 (A) (A) (A) (A) (A) (A) (A) (A) (A) (A) (A) (A)
                 (A) (A) (A) (A) (A) (A) (A) (A) (A) (A) (A) (A)
                 (A) (A) (A) (A) (A) (A) (A) (A) (A) (A) (A) (A)
                 (A) (A) (A) (A) (A) (A) (A) (A) (A) (A)
     4 initial guesses have been made.
 Convergence on wavefunction:    0.001000000000000
 Iteration     1 Dimension     4 NMult     0 NNew      4
 CISAX will form     4 AO SS matrices at one time.
 Iteration     2 Dimension     6 NMult     4 NNew      2
 Iteration     3 Dimension     8 NMult     6 NNew      2
 Iteration     4 Dimension    10 NMult     8 NNew      2
 Iteration     5 Dimension    12 NMult    10 NNew      2
 Iteration     6 Dimension    14 NMult    12 NNew      2
 ***********************************************************************
 Excited states from <AA,BB:AA,BB> singles matrix:
 ***********************************************************************
 
 Ground to excited state transition densities written to RWF  633
 Ground to excited state transition electric dipole moments (Au):
       state          X           Y           Z        Dip. S.      Osc.
         1         8.4228      1.0560      0.3551     72.1844      3.8975
 Ground to excited state transition velocity dipole moments (Au):
       state          X           Y           Z        Dip. S.      Osc.
         1        -0.6542     -0.0804     -0.0289      0.4352      3.5826
 Ground to excited state transition magnetic dipole moments (Au):
       state          X           Y           Z
         1        -0.1898      0.4119      1.1985
 Ground to excited state transition velocity quadrupole moments (Au):
       state          XX          YY          ZZ          XY          XZ          YZ
         1         0.2055     -0.2571      0.0070     -0.0965      0.2156      0.0071
 <0|del|b> * <b|rxdel|0> + <0|del|b> * <b|delr+rdel|0>
 Rotatory Strengths (R) in cgs (10**-40 erg-esu-cm/Gauss)
       state          XX          YY          ZZ    R(velocity)    E-M Angle
         1      -207.8064    358.6453    341.8572    164.2320       86.17
 1/2[<0|r|b>*<b|rxdel|0> + (<0|rxdel|b>*<b|r|0>)*]
 Rotatory Strengths (R) in cgs (10**-40 erg-esu-cm/Gauss)
       state          XX          YY          ZZ     R(length)
         1      1130.4949   -307.5612   -300.9883    173.9818
  1/2[<0|del|b>*<b|r|0> + (<0|r|b>*<b|del|0>)*] (Au)
       state          X           Y           Z        Dip. S.   Osc.(frdel)
         1        -5.5098     -0.0849     -0.0103      5.6050      3.7367

 Excitation energies and oscillator strengths:
 
 Excited State   1:      Singlet-A      2.2038 eV  562.58 nm  f=3.8975  <S**2>=0.000
     155 ->158         0.18690
     156 ->157         0.67809
 This state for optimization and/or second-order correction.
 Total Energy, E(TD-HF/TD-DFT) =  -1706.75676906    
 Copying the excited state density for this state as the 1-particle RhoCI density.
 SavETr:  write IOETrn=   770 NScale= 10 NData=  16 NLR=1 NState=    1 LETran=      28.

 **********************************************************************

            Population analysis using the SCF density.

 **********************************************************************

 Orbital symmetries:
       Occupied  (A) (A) (A) (A) (A) (A) (A) (A) (A) (A) (A) (A)
                 (A) (A) (A) (A) (A) (A) (A) (A) (A) (A) (A) (A)
                 (A) (A) (A) (A) (A) (A) (A) (A) (A) (A) (A) (A)
                 (A) (A) (A) (A) (A) (A) (A) (A) (A) (A) (A) (A)
                 (A) (A) (A) (A) (A) (A) (A) (A) (A) (A) (A) (A)
                 (A) (A) (A) (A) (A) (A) (A) (A) (A) (A) (A) (A)
                 (A) (A) (A) (A) (A) (A) (A) (A) (A) (A) (A) (A)
                 (A) (A) (A) (A) (A) (A) (A) (A) (A) (A) (A) (A)
                 (A) (A) (A) (A) (A) (A) (A) (A) (A) (A) (A) (A)
                 (A) (A) (A) (A) (A) (A) (A) (A) (A) (A) (A) (A)
                 (A) (A) (A) (A) (A) (A) (A) (A) (A) (A) (A) (A)
                 (A) (A) (A) (A) (A) (A) (A) (A) (A) (A) (A) (A)
                 (A) (A) (A) (A) (A) (A) (A) (A) (A) (A) (A) (A)
       Virtual   (A) (A) (A) (A) (A) (A) (A) (A) (A) (A) (A) (A)
                 (A) (A) (A) (A) (A) (A) (A) (A) (A) (A) (A) (A)
                 (A) (A) (A) (A) (A) (A) (A) (A) (A) (A) (A) (A)
                 (A) (A) (A) (A) (A) (A) (A) (A) (A) (A) (A) (A)
                 (A) (A) (A) (A) (A) (A) (A) (A) (A) (A) (A) (A)
                 (A) (A) (A) (A) (A) (A) (A) (A) (A) (A) (A) (A)
                 (A) (A) (A) (A) (A) (A) (A) (A) (A) (A) (A) (A)
                 (A) (A) (A) (A) (A) (A) (A) (A) (A) (A) (A) (A)
                 (A) (A) (A) (A) (A) (A) (A) (A) (A) (A) (A) (A)
                 (A) (A) (A) (A) (A) (A) (A) (A) (A) (A) (A) (A)
                 (A) (A) (A) (A) (A) (A) (A) (A) (A) (A) (A) (A)
                 (A) (A) (A) (A) (A) (A) (A) (A) (A) (A) (A) (A)
                 (A) (A) (A) (A) (A) (A) (A) (A) (A) (A) (A) (A)
                 (A) (A) (A) (A) (A) (A) (A) (A) (A) (A) (A) (A)
                 (A) (A) (A) (A) (A) (A) (A) (A) (A) (A) (A) (A)
                 (A) (A) (A) (A) (A) (A) (A) (A) (A) (A) (A) (A)
                 (A) (A) (A) (A) (A) (A) (A) (A) (A) (A) (A) (A)
                 (A) (A) (A) (A) (A) (A) (A) (A) (A) (A) (A) (A)
                 (A) (A) (A) (A) (A) (A) (A) (A) (A) (A) (A) (A)
                 (A) (A) (A) (A) (A) (A) (A) (A) (A) (A) (A) (A)
                 (A) (A) (A) (A) (A) (A) (A) (A) (A) (A) (A) (A)
                 (A) (A) (A) (A) (A) (A) (A) (A) (A) (A) (A) (A)
                 (A) (A) (A) (A) (A) (A) (A) (A) (A) (A) (A) (A)
                 (A) (A) (A) (A) (A) (A) (A) (A) (A) (A) (A) (A)
                 (A) (A) (A) (A) (A) (A) (A) (A) (A) (A) (A) (A)
                 (A) (A) (A) (A) (A) (A) (A) (A) (A) (A) (A) (A)
                 (A) (A) (A) (A) (A) (A) (A) (A) (A) (A) (A) (A)
                 (A) (A) (A) (A) (A) (A) (A) (A) (A) (A) (A) (A)
                 (A) (A) (A) (A) (A) (A) (A) (A) (A) (A) (A) (A)
                 (A) (A) (A) (A) (A) (A) (A) (A) (A) (A) (A) (A)
                 (A) (A) (A) (A) (A) (A) (A) (A) (A) (A) (A) (A)
                 (A) (A) (A) (A) (A) (A) (A) (A) (A) (A) (A) (A)
                 (A) (A) (A) (A) (A) (A) (A) (A) (A) (A) (A) (A)
                 (A) (A) (A) (A) (A) (A) (A) (A) (A) (A) (A) (A)
                 (A) (A) (A) (A) (A) (A) (A) (A) (A) (A) (A) (A)
                 (A) (A) (A) (A) (A) (A) (A) (A) (A) (A) (A) (A)
                 (A) (A) (A) (A) (A) (A) (A) (A) (A) (A) (A) (A)
                 (A) (A) (A) (A) (A) (A) (A) (A) (A) (A) (A) (A)
                 (A) (A) (A) (A) (A) (A) (A) (A) (A) (A) (A) (A)
                 (A) (A) (A) (A) (A) (A) (A) (A) (A) (A) (A) (A)
                 (A) (A) (A) (A) (A) (A) (A) (A) (A) (A) (A) (A)
                 (A) (A) (A) (A) (A) (A) (A) (A) (A) (A) (A) (A)
                 (A) (A) (A) (A) (A) (A) (A) (A) (A) (A) (A) (A)
                 (A) (A) (A) (A) (A) (A) (A) (A) (A) (A) (A) (A)
                 (A) (A) (A) (A) (A) (A) (A) (A) (A) (A) (A) (A)
                 (A) (A) (A) (A) (A) (A) (A) (A) (A) (A) (A) (A)
                 (A) (A) (A) (A) (A) (A) (A) (A) (A) (A) (A) (A)
                 (A) (A) (A) (A) (A) (A) (A) (A) (A) (A) (A) (A)
                 (A) (A) (A) (A) (A) (A) (A) (A) (A) (A) (A) (A)
                 (A) (A) (A) (A) (A) (A) (A) (A) (A) (A) (A) (A)
                 (A) (A) (A) (A) (A) (A) (A) (A) (A) (A) (A) (A)
                 (A) (A) (A) (A) (A) (A) (A) (A) (A) (A) (A) (A)
                 (A) (A) (A) (A) (A) (A) (A) (A) (A) (A) (A) (A)
                 (A) (A) (A) (A) (A) (A) (A) (A) (A) (A) (A) (A)
                 (A) (A) (A) (A) (A) (A) (A) (A) (A) (A) (A) (A)
                 (A) (A) (A) (A) (A) (A) (A) (A) (A) (A) (A) (A)
                 (A) (A) (A) (A) (A) (A) (A) (A) (A) (A) (A) (A)
                 (A) (A) (A) (A) (A) (A) (A) (A) (A) (A) (A) (A)
                 (A) (A) (A) (A) (A) (A) (A) (A) (A) (A) (A) (A)
                 (A) (A) (A) (A) (A) (A) (A) (A) (A) (A) (A) (A)
                 (A) (A) (A) (A) (A) (A) (A) (A) (A) (A) (A) (A)
                 (A) (A) (A) (A) (A) (A) (A) (A) (A) (A) (A) (A)
                 (A) (A) (A) (A) (A) (A) (A) (A) (A) (A)
 The electronic state is 1-A.
 Alpha  occ. eigenvalues --  -19.21297 -19.21001 -10.31652 -10.30735 -10.28366
 Alpha  occ. eigenvalues --  -10.28275 -10.27937 -10.27922 -10.27745 -10.27562
 Alpha  occ. eigenvalues --  -10.27471 -10.27317 -10.27255 -10.27215 -10.27152
 Alpha  occ. eigenvalues --  -10.26949 -10.26848 -10.26786 -10.26786 -10.26754
 Alpha  occ. eigenvalues --  -10.26573 -10.26573 -10.26462 -10.26228 -10.26118
 Alpha  occ. eigenvalues --  -10.25993 -10.25828 -10.25811 -10.25693 -10.25657
 Alpha  occ. eigenvalues --  -10.25649 -10.25620 -10.25463 -10.25080 -10.24918
 Alpha  occ. eigenvalues --  -10.24867 -10.24248 -10.24023 -10.23741 -10.22999
 Alpha  occ. eigenvalues --  -10.22796 -10.21477  -1.12436  -1.09949  -0.94045
 Alpha  occ. eigenvalues --   -0.93187  -0.91764  -0.91392  -0.90569  -0.89595
 Alpha  occ. eigenvalues --   -0.87911  -0.87212  -0.86900  -0.85443  -0.84520
 Alpha  occ. eigenvalues --   -0.83644  -0.81903  -0.80645  -0.80035  -0.78254
 Alpha  occ. eigenvalues --   -0.77425  -0.77400  -0.76458  -0.76082  -0.75578
 Alpha  occ. eigenvalues --   -0.75507  -0.74046  -0.73339  -0.73042  -0.70479
 Alpha  occ. eigenvalues --   -0.68676  -0.67247  -0.65704  -0.65073  -0.63783
 Alpha  occ. eigenvalues --   -0.63359  -0.62092  -0.61345  -0.61249  -0.60762
 Alpha  occ. eigenvalues --   -0.59736  -0.59258  -0.58776  -0.57744  -0.56540
 Alpha  occ. eigenvalues --   -0.55833  -0.55240  -0.54664  -0.54523  -0.53808
 Alpha  occ. eigenvalues --   -0.53348  -0.52812  -0.51785  -0.51395  -0.50986
 Alpha  occ. eigenvalues --   -0.50773  -0.50552  -0.50022  -0.49721  -0.49453
 Alpha  occ. eigenvalues --   -0.49178  -0.48827  -0.48400  -0.48391  -0.48136
 Alpha  occ. eigenvalues --   -0.47959  -0.47599  -0.47249  -0.47198  -0.46839
 Alpha  occ. eigenvalues --   -0.46558  -0.45883  -0.45624  -0.45088  -0.44921
 Alpha  occ. eigenvalues --   -0.44721  -0.44282  -0.43918  -0.43844  -0.43241
 Alpha  occ. eigenvalues --   -0.43054  -0.42871  -0.42571  -0.42305  -0.41907
 Alpha  occ. eigenvalues --   -0.41660  -0.41215  -0.41042  -0.40891  -0.40757
 Alpha  occ. eigenvalues --   -0.40391  -0.40099  -0.39935  -0.39674  -0.39319
 Alpha  occ. eigenvalues --   -0.39019  -0.38489  -0.38387  -0.38030  -0.37596
 Alpha  occ. eigenvalues --   -0.37370  -0.36819  -0.36726  -0.36083  -0.35435
 Alpha  occ. eigenvalues --   -0.35146  -0.34133  -0.33512  -0.32685  -0.31773
 Alpha  occ. eigenvalues --   -0.31545  -0.29887  -0.27656  -0.25355  -0.22432
 Alpha  occ. eigenvalues --   -0.19258
 Alpha virt. eigenvalues --   -0.05505  -0.01784   0.01960   0.05157   0.07279
 Alpha virt. eigenvalues --    0.09509   0.10923   0.11309   0.11340   0.11763
 Alpha virt. eigenvalues --    0.12316   0.12781   0.13106   0.13755   0.13939
 Alpha virt. eigenvalues --    0.14250   0.14454   0.14662   0.14788   0.14893
 Alpha virt. eigenvalues --    0.15194   0.15696   0.15996   0.16333   0.16649
 Alpha virt. eigenvalues --    0.16672   0.17005   0.17149   0.17246   0.17484
 Alpha virt. eigenvalues --    0.17835   0.18077   0.18506   0.19234   0.19648
 Alpha virt. eigenvalues --    0.19715   0.19984   0.20123   0.20561   0.20825
 Alpha virt. eigenvalues --    0.21304   0.21771   0.21879   0.22260   0.22707
 Alpha virt. eigenvalues --    0.22908   0.23236   0.23299   0.23604   0.23643
 Alpha virt. eigenvalues --    0.23801   0.24357   0.24433   0.24561   0.24985
 Alpha virt. eigenvalues --    0.25215   0.25535   0.25821   0.26012   0.26134
 Alpha virt. eigenvalues --    0.26830   0.27044   0.27433   0.27704   0.28006
 Alpha virt. eigenvalues --    0.28103   0.28746   0.28806   0.29127   0.29804
 Alpha virt. eigenvalues --    0.29905   0.30379   0.30666   0.30870   0.31293
 Alpha virt. eigenvalues --    0.31459   0.32299   0.32545   0.32684   0.33052
 Alpha virt. eigenvalues --    0.33249   0.33726   0.34032   0.34394   0.35226
 Alpha virt. eigenvalues --    0.35938   0.36714   0.37282   0.37779   0.38558
 Alpha virt. eigenvalues --    0.39257   0.39694   0.40295   0.40969   0.41183
 Alpha virt. eigenvalues --    0.42658   0.43095   0.43679   0.44753   0.44896
 Alpha virt. eigenvalues --    0.45891   0.46393   0.47449   0.47944   0.48511
 Alpha virt. eigenvalues --    0.49773   0.50647   0.52447   0.53353   0.53754
 Alpha virt. eigenvalues --    0.55077   0.55443   0.56008   0.56051   0.56771
 Alpha virt. eigenvalues --    0.57022   0.57278   0.57613   0.57800   0.58434
 Alpha virt. eigenvalues --    0.59136   0.59464   0.59956   0.60107   0.60320
 Alpha virt. eigenvalues --    0.60491   0.61109   0.61349   0.61643   0.62295
 Alpha virt. eigenvalues --    0.62772   0.62910   0.63374   0.63513   0.63929
 Alpha virt. eigenvalues --    0.64359   0.64657   0.64900   0.65054   0.65300
 Alpha virt. eigenvalues --    0.65588   0.66003   0.66083   0.66526   0.66768
 Alpha virt. eigenvalues --    0.67008   0.67106   0.67440   0.67703   0.68545
 Alpha virt. eigenvalues --    0.68808   0.69067   0.69314   0.69590   0.70016
 Alpha virt. eigenvalues --    0.70386   0.70606   0.70840   0.71102   0.71342
 Alpha virt. eigenvalues --    0.71577   0.71865   0.72447   0.72925   0.73346
 Alpha virt. eigenvalues --    0.73629   0.73826   0.74363   0.74620   0.74852
 Alpha virt. eigenvalues --    0.75351   0.75691   0.76125   0.76403   0.76914
 Alpha virt. eigenvalues --    0.77046   0.77345   0.77998   0.78142   0.78458
 Alpha virt. eigenvalues --    0.79672   0.79708   0.80032   0.80235   0.80545
 Alpha virt. eigenvalues --    0.80887   0.81827   0.82317   0.82536   0.82773
 Alpha virt. eigenvalues --    0.83195   0.83502   0.83627   0.84296   0.84681
 Alpha virt. eigenvalues --    0.84905   0.85172   0.85203   0.85429   0.85817
 Alpha virt. eigenvalues --    0.86689   0.87059   0.87220   0.87248   0.87576
 Alpha virt. eigenvalues --    0.88074   0.88605   0.88800   0.89162   0.89292
 Alpha virt. eigenvalues --    0.89836   0.90027   0.90353   0.90544   0.90621
 Alpha virt. eigenvalues --    0.90776   0.91174   0.91357   0.92010   0.92113
 Alpha virt. eigenvalues --    0.92280   0.92782   0.93340   0.93611   0.93793
 Alpha virt. eigenvalues --    0.94085   0.94524   0.94779   0.94942   0.95007
 Alpha virt. eigenvalues --    0.95678   0.96033   0.96203   0.96282   0.96903
 Alpha virt. eigenvalues --    0.97244   0.97588   0.98261   0.98421   0.98711
 Alpha virt. eigenvalues --    0.99048   0.99121   0.99524   0.99819   1.00031
 Alpha virt. eigenvalues --    1.00326   1.01133   1.01529   1.01562   1.02227
 Alpha virt. eigenvalues --    1.02324   1.02780   1.03162   1.03505   1.04042
 Alpha virt. eigenvalues --    1.04266   1.04903   1.05127   1.05272   1.05569
 Alpha virt. eigenvalues --    1.05949   1.06484   1.07056   1.07940   1.08342
 Alpha virt. eigenvalues --    1.08447   1.08843   1.09767   1.10081   1.10583
 Alpha virt. eigenvalues --    1.11531   1.11773   1.12211   1.12575   1.12746
 Alpha virt. eigenvalues --    1.13169   1.13751   1.14572   1.15026   1.15494
 Alpha virt. eigenvalues --    1.15639   1.16295   1.16662   1.16918   1.17525
 Alpha virt. eigenvalues --    1.18434   1.18978   1.19730   1.20262   1.21469
 Alpha virt. eigenvalues --    1.21768   1.23304   1.23504   1.24074   1.24320
 Alpha virt. eigenvalues --    1.26106   1.27030   1.28120   1.28236   1.29105
 Alpha virt. eigenvalues --    1.29846   1.30497   1.30960   1.32465   1.33071
 Alpha virt. eigenvalues --    1.33134   1.34481   1.35291   1.35433   1.36060
 Alpha virt. eigenvalues --    1.36764   1.37864   1.38067   1.38566   1.39180
 Alpha virt. eigenvalues --    1.40302   1.41210   1.41324   1.42441   1.42617
 Alpha virt. eigenvalues --    1.43940   1.44466   1.44856   1.45677   1.45798
 Alpha virt. eigenvalues --    1.46050   1.46766   1.48157   1.49451   1.49565
 Alpha virt. eigenvalues --    1.50360   1.50689   1.53043   1.53219   1.53657
 Alpha virt. eigenvalues --    1.54030   1.54679   1.54986   1.55855   1.56619
 Alpha virt. eigenvalues --    1.57121   1.57386   1.58157   1.58803   1.58948
 Alpha virt. eigenvalues --    1.59181   1.59437   1.60736   1.61312   1.62201
 Alpha virt. eigenvalues --    1.62453   1.63282   1.63547   1.64667   1.65276
 Alpha virt. eigenvalues --    1.65572   1.67196   1.67564   1.68577   1.70294
 Alpha virt. eigenvalues --    1.70328   1.71492   1.71615   1.74824   1.75461
 Alpha virt. eigenvalues --    1.77482   1.78239   1.78444   1.78808   1.79091
 Alpha virt. eigenvalues --    1.79887   1.80697   1.81010   1.81510   1.81812
 Alpha virt. eigenvalues --    1.82199   1.82701   1.82787   1.83455   1.83742
 Alpha virt. eigenvalues --    1.84417   1.85331   1.85623   1.85715   1.86048
 Alpha virt. eigenvalues --    1.86305   1.86663   1.87673   1.88792   1.89159
 Alpha virt. eigenvalues --    1.89761   1.90055   1.90390   1.90540   1.90809
 Alpha virt. eigenvalues --    1.91327   1.92142   1.92468   1.92680   1.93013
 Alpha virt. eigenvalues --    1.93213   1.93892   1.94180   1.94650   1.94800
 Alpha virt. eigenvalues --    1.94873   1.94962   1.95650   1.95797   1.95897
 Alpha virt. eigenvalues --    1.96038   1.96964   1.97255   1.98133   1.98387
 Alpha virt. eigenvalues --    1.98773   1.98961   1.99655   1.99964   2.00682
 Alpha virt. eigenvalues --    2.01089   2.01516   2.01696   2.02208   2.02434
 Alpha virt. eigenvalues --    2.03053   2.03500   2.04181   2.04218   2.05264
 Alpha virt. eigenvalues --    2.05750   2.05951   2.06654   2.06657   2.07927
 Alpha virt. eigenvalues --    2.07983   2.09004   2.09073   2.09471   2.09911
 Alpha virt. eigenvalues --    2.10032   2.11482   2.11768   2.12444   2.12745
 Alpha virt. eigenvalues --    2.12845   2.13109   2.13733   2.13922   2.14474
 Alpha virt. eigenvalues --    2.14924   2.15207   2.15331   2.15388   2.15899
 Alpha virt. eigenvalues --    2.16081   2.16488   2.16973   2.17157   2.17406
 Alpha virt. eigenvalues --    2.17961   2.18290   2.18740   2.19739   2.19999
 Alpha virt. eigenvalues --    2.20494   2.20583   2.20964   2.21574   2.21711
 Alpha virt. eigenvalues --    2.22498   2.23064   2.23466   2.24136   2.25050
 Alpha virt. eigenvalues --    2.25601   2.26347   2.26664   2.27085   2.27310
 Alpha virt. eigenvalues --    2.27769   2.28119   2.28254   2.28529   2.28883
 Alpha virt. eigenvalues --    2.29957   2.30513   2.30580   2.31120   2.31783
 Alpha virt. eigenvalues --    2.32336   2.33085   2.34007   2.34492   2.35143
 Alpha virt. eigenvalues --    2.35617   2.36326   2.36960   2.37145   2.37529
 Alpha virt. eigenvalues --    2.38005   2.38213   2.38700   2.39483   2.39806
 Alpha virt. eigenvalues --    2.40232   2.40277   2.40968   2.41465   2.41971
 Alpha virt. eigenvalues --    2.42478   2.43188   2.44070   2.44388   2.45287
 Alpha virt. eigenvalues --    2.45670   2.46435   2.46719   2.47123   2.47895
 Alpha virt. eigenvalues --    2.48490   2.48656   2.48921   2.49297   2.49544
 Alpha virt. eigenvalues --    2.49783   2.50340   2.51185   2.51402   2.51849
 Alpha virt. eigenvalues --    2.52370   2.52672   2.52980   2.53024   2.53725
 Alpha virt. eigenvalues --    2.53847   2.54739   2.55131   2.55547   2.55692
 Alpha virt. eigenvalues --    2.55913   2.56464   2.57498   2.58289   2.58427
 Alpha virt. eigenvalues --    2.59079   2.59284   2.59455   2.59646   2.60319
 Alpha virt. eigenvalues --    2.60918   2.61728   2.61971   2.62045   2.62240
 Alpha virt. eigenvalues --    2.62357   2.63919   2.64007   2.64755   2.65040
 Alpha virt. eigenvalues --    2.66206   2.66329   2.66950   2.67216   2.67516
 Alpha virt. eigenvalues --    2.67741   2.68201   2.68892   2.69159   2.69404
 Alpha virt. eigenvalues --    2.70117   2.70618   2.70938   2.71296   2.71489
 Alpha virt. eigenvalues --    2.71671   2.72723   2.72820   2.73151   2.73785
 Alpha virt. eigenvalues --    2.73979   2.74614   2.75014   2.75681   2.75867
 Alpha virt. eigenvalues --    2.75981   2.76204   2.77308   2.77475   2.78295
 Alpha virt. eigenvalues --    2.78366   2.78752   2.79899   2.80080   2.80844
 Alpha virt. eigenvalues --    2.81391   2.81519   2.81803   2.82371   2.83333
 Alpha virt. eigenvalues --    2.84124   2.84258   2.85141   2.85588   2.86320
 Alpha virt. eigenvalues --    2.86392   2.87052   2.87394   2.87775   2.88717
 Alpha virt. eigenvalues --    2.88932   2.89296   2.91012   2.91512   2.92538
 Alpha virt. eigenvalues --    2.92760   2.93084   2.93680   2.95070   2.95594
 Alpha virt. eigenvalues --    2.96130   2.96262   2.97403   2.97770   2.97885
 Alpha virt. eigenvalues --    2.98634   2.99600   2.99741   3.00930   3.01234
 Alpha virt. eigenvalues --    3.01893   3.02313   3.02460   3.03287   3.03632
 Alpha virt. eigenvalues --    3.04428   3.05001   3.05076   3.05565   3.07263
 Alpha virt. eigenvalues --    3.07519   3.08523   3.09151   3.10015   3.10528
 Alpha virt. eigenvalues --    3.12192   3.12416   3.13181   3.13958   3.14946
 Alpha virt. eigenvalues --    3.16627   3.17047   3.17681   3.20574   3.21255
 Alpha virt. eigenvalues --    3.22371   3.22729   3.23430   3.25243   3.25726
 Alpha virt. eigenvalues --    3.25949   3.27143   3.29249   3.29802   3.32720
 Alpha virt. eigenvalues --    3.32785   3.34408   3.35106   3.35528   3.38580
 Alpha virt. eigenvalues --    3.38909   3.38959   3.39953   3.40623   3.41404
 Alpha virt. eigenvalues --    3.41618   3.42391   3.43703   3.43875   3.45723
 Alpha virt. eigenvalues --    3.46833   3.47890   3.48226   3.48980   3.50797
 Alpha virt. eigenvalues --    3.51441   3.54086   3.54800   3.55716   3.57421
 Alpha virt. eigenvalues --    3.58942   3.59487   3.60084   3.60514   3.61060
 Alpha virt. eigenvalues --    3.62054   3.62832   3.62864   3.65986   3.67478
 Alpha virt. eigenvalues --    3.68499   3.69229   3.70472   3.71593   3.73349
 Alpha virt. eigenvalues --    3.77984   3.80702   3.80888   3.82111   3.90976
 Alpha virt. eigenvalues --    3.97497   4.09393   4.11851   4.18397   4.18968
 Alpha virt. eigenvalues --    4.19598   4.20318   4.21330   4.22441   4.25825
 Alpha virt. eigenvalues --    4.26533   4.28566   4.30568   4.33844   4.34513
 Alpha virt. eigenvalues --    4.36726   4.38691   4.41500   4.44214   4.45903
 Alpha virt. eigenvalues --    4.47508   4.50025   4.50118   4.53241   4.53434
 Alpha virt. eigenvalues --    4.55686   4.56505   4.57684   4.58624   4.60616
 Alpha virt. eigenvalues --    4.62074   4.63938   4.68291   4.68610   4.71937
 Alpha virt. eigenvalues --    4.73073   4.75823   4.78270   4.79706   4.80917
 Alpha virt. eigenvalues --    4.83379   4.84942   4.87321   4.95931
          Condensed to atoms (all electrons):
 Mulliken charges:
               1
     1  O   -0.550424
     2  O   -0.524543
     3  C   -0.087110
     4  C   -0.033947
     5  C   -0.104201
     6  C   -0.133723
     7  C    0.121917
     8  C    0.153629
     9  C    0.125521
    10  C    0.063541
    11  C   -0.210563
    12  C   -0.229095
    13  C    0.038193
    14  C    0.051010
    15  C   -0.308385
    16  C   -0.267678
    17  C   -0.290120
    18  C   -0.294007
    19  C   -0.102576
    20  C   -0.170663
    21  C   -0.358706
    22  C   -0.346471
    23  C   -0.094698
    24  C   -0.111783
    25  C    0.103685
    26  C    0.107476
    27  C   -0.387173
    28  C   -0.359142
    29  C   -0.100539
    30  C   -0.142230
    31  C   -0.073554
    32  C   -0.082514
    33  C   -0.113560
    34  C   -0.102114
    35  C    0.066638
    36  C    0.054683
    37  C   -0.362541
    38  C   -0.347310
    39  C   -0.117196
    40  C   -0.096730
    41  C   -0.097133
    42  C   -0.086596
    43  H    0.082452
    44  H    0.076361
    45  H    0.051200
    46  H    0.100835
    47  H    0.074525
    48  H    0.051742
    49  H    0.122957
    50  H    0.109209
    51  H    0.117349
    52  H    0.106971
    53  H    0.089498
    54  H    0.116897
    55  H    0.101288
    56  H    0.084281
    57  H    0.051443
    58  H    0.092709
    59  H    0.099371
    60  H    0.106470
    61  H    0.080387
    62  H    0.109346
    63  H    0.082706
    64  H    0.077052
    65  H    0.068688
    66  H    0.095761
    67  H    0.124554
    68  H    0.116440
    69  H    0.116192
    70  H    0.103180
    71  H    0.112271
    72  H    0.127497
    73  H    0.304724
    74  H    0.295801
    75  H    0.063454
    76  H    0.094799
    77  H    0.105581
    78  H    0.098996
    79  H    0.108474
    80  H    0.152223
    81  H    0.085386
    82  H    0.109106
    83  H    0.080724
    84  H    0.072670
    85  H    0.083605
    86  H    0.076672
    87  H    0.077643
    88  H    0.088251
    89  H    0.137352
    90  H    0.107831
    91  H    0.123410
    92  H    0.123747
    93  H    0.137856
    94  H    0.106494
    95  H    0.072183
    96  H    0.083576
    97  H    0.078228
    98  H    0.082313
 Sum of Mulliken charges =  -0.00000
 Mulliken charges with hydrogens summed into heavy atoms:
               1
     1  O   -0.245701
     2  O   -0.228743
     3  C   -0.087110
     4  C   -0.033947
     5  C    0.054613
     6  C    0.018311
     7  C    0.196442
     8  C    0.205371
     9  C    0.125521
    10  C    0.063541
    11  C    0.021603
    12  C   -0.004775
    13  C    0.038193
    14  C    0.051010
    15  C   -0.000703
    16  C   -0.039244
    17  C   -0.003891
    18  C   -0.024904
    19  C   -0.033888
    20  C   -0.074901
    21  C   -0.001519
    22  C   -0.003523
    23  C   -0.031245
    24  C   -0.016984
    25  C    0.103685
    26  C    0.107476
    27  C   -0.074122
    28  C   -0.012427
    29  C   -0.019815
    30  C   -0.069560
    31  C    0.010051
    32  C   -0.005842
    33  C   -0.035918
    34  C   -0.013863
    35  C    0.066638
    36  C    0.054683
    37  C    0.006053
    38  C    0.020787
    39  C   -0.045013
    40  C   -0.013155
    41  C   -0.018904
    42  C   -0.004283
 Electronic spatial extent (au):  <R**2>=         111603.8067
 Charge=             -0.0000 electrons
 Dipole moment (field-independent basis, Debye):
    X=              0.8328    Y=             -1.2811    Z=              1.0888  Tot=              1.8762
 Quadrupole moment (field-independent basis, Debye-Ang):
   XX=           -287.3914   YY=           -239.6131   ZZ=           -260.6139
   XY=             -0.6177   XZ=            -18.8057   YZ=              4.1823
 Traceless Quadrupole moment (field-independent basis, Debye-Ang):
   XX=            -24.8519   YY=             22.9264   ZZ=              1.9256
   XY=             -0.6177   XZ=            -18.8057   YZ=              4.1823
 Octapole moment (field-independent basis, Debye-Ang**2):
  XXX=             35.3075  YYY=             -2.7761  ZZZ=             19.5969  XYY=            124.3222
  XXY=           -296.9704  XXZ=            197.9262  XZZ=            -40.2929  YZZ=             -5.5389
  YYZ=              7.6462  XYZ=             -0.9573
 Hexadecapole moment (field-independent basis, Debye-Ang**3):
 XXXX=        -159801.9023 YYYY=          -4813.9590 ZZZZ=          -1569.0760 XXXY=           -530.3468
 XXXZ=          -4778.4766 YYYX=           -490.0556 YYYZ=              7.2041 ZZZX=           -324.9563
 ZZZY=             32.2376 XXYY=         -23403.3799 XXZZ=         -23709.2598 YYZZ=          -1088.8649
 XXYZ=            111.0020 YYXZ=             26.9937 ZZXY=           -215.8646
 N-N= 3.973571305627D+03 E-N=-1.190235706643D+04  KE= 1.690736993966D+03
 1\1\GINC-RYZEN-SSD1\SP\RCAM-B3LYP TD-FC\6-31G(d,p)\C40H56O2\PADAWAN\11
 -Jul-2019\0\\# td=(NStates=1) CAM-B3LYP/6-31G(d,p)\\TD\\0,1\O,0,14.734
 1389389,-2.2895118843,0.0316362406\O,0,-14.954150479,1.6015454596,1.04
 69542264\C,0,11.1961319592,-1.5299155437,1.0022763886\C,0,-12.32471763
 58,-1.1385854764,0.6843420782\C,0,12.6956031263,-1.9698462807,1.084353
 3273\C,0,-13.7392006391,-0.4639044103,0.6900818202\C,0,13.3622942684,-
 2.0284651686,-0.2473382788\C,0,-13.711800473,0.9856272238,0.9566969207
 \C,0,10.9439937264,-0.4030779348,0.1407307801\C,0,-11.2254789119,-0.18
 79297999,-0.1147491509\C,0,13.296540145,-0.5828167668,-0.8348962436\C,
 0,-12.9474871867,1.6122042275,-0.2506144144\C,0,11.9111169807,0.068217
 2046,-0.8078534283\C,0,-11.6246230573,1.0034769768,-0.5354255386\C,0,1
 0.6179628373,-1.3742428653,2.4207054545\C,0,10.4640570257,-2.822009969
 ,0.369190309\C,0,-11.881209927,-1.4704967416,2.1006861996\C,0,-12.5658
 530803,-2.6146426862,0.0339546575\C,0,9.7015153925,0.3162405771,0.2957
 635364\C,0,-10.0761131833,-0.9710098429,-0.4777790629\C,0,11.719887868
 8,1.057100884,-1.7946314531\C,0,-10.7342017082,1.8149309702,-1.3543923
 292\C,0,9.4297068757,1.6250787509,0.0977064106\C,0,-8.7352949265,-0.41
 11730662,-0.3509802\C,0,8.1571648215,2.2606120442,0.1497457496\C,0,-7.
 5339714311,-1.1600643343,-0.5252486939\C,0,8.1281846025,3.6434632013,0
 .4755517392\C,0,-7.6822865257,-2.6308126582,-0.7905977448\C,0,6.953365
 3075,1.4506940104,-0.0551279978\C,0,-6.376440341,-0.4343116931,-0.3712
 860536\C,0,5.6698276968,2.0671209501,0.0389308621\C,0,-5.01423997,-0.8
 587929522,-0.6262094989\C,0,4.5558243684,1.3881450085,-0.1929513801\C,
 0,-3.9485561526,0.0404718232,-0.3881916342\C,0,3.1750149925,1.86668105
 91,-0.1343193159\C,0,-2.6094864046,-0.397829862,-0.6590242574\C,0,2.79
 75413211,3.3006477568,0.4168393419\C,0,-2.310669835,-1.9115746495,-1.0
 358548115\C,0,2.1718962786,0.9704591099,-0.3433350135\C,0,-1.589270887
 1,0.5571636054,-0.4716611171\C,0,0.7382506541,1.2112839424,-0.19350802
 28\C,0,-0.2457844484,0.2563980398,-0.5089418642\H,0,12.918510431,-1.17
 60910192,1.842049894\H,0,12.6762711261,-2.7123644505,1.621509835\H,0,-
 14.4403870117,-1.0446419061,1.5225931803\H,0,-14.0507585709,-0.5605939
 313,-0.2375056066\H,0,13.0096119682,-2.9158008872,-0.9583463926\H,0,-1
 2.9389943314,1.0926832504,1.8735950935\H,0,14.0725418412,-0.0510125234
 ,-0.0562808091\H,0,13.6506906261,-0.834298787,-1.775800311\H,0,-13.636
 7488839,1.5683718973,-1.1469974427\H,0,-12.7189478678,2.6346684869,-0.
 0659955636\H,0,11.0150941984,-2.1600044294,3.1749221882\H,0,9.56238456
 55,-1.3871285119,2.4691236674\H,0,11.3315368957,-0.5242412912,2.729576
 3436\H,0,10.8650027633,-2.8101957936,-0.8244291259\H,0,10.9053395369,-
 3.8871973627,0.9243918792\H,0,9.3642437414,-2.886679976,0.7846951905\H
 ,0,-11.7588775738,-0.6354960435,2.701700467\H,0,-10.9470975488,-1.8950
 720511,2.0214959336\H,0,-12.4840292959,-2.2010175217,2.7808886689\H,0,
 -13.2746079098,-3.2652052164,0.5988480158\H,0,-11.5877140064,-3.245051
 094,-0.0720643084\H,0,-12.9081186709,-2.3779369856,-1.1226350055\H,0,8
 .8118630893,-0.1808524962,0.6593130523\H,0,-10.0774125063,-2.173264390
 3,-0.6289066927\H,0,10.8198932813,1.5899736674,-1.8273047895\H,0,12.42
 15879878,1.8944303859,-1.5919248005\H,0,11.9473064006,0.5211529702,-2.
 7080434933\H,0,-11.1480092019,2.4159971638,-1.9999007111\H,0,-10.03135
 91139,0.9797819973,-1.7846144284\H,0,-10.2683210161,2.3845211062,-0.78
 04211981\H,0,14.7869978278,-3.2476800951,0.1099392739\H,0,-15.27392208
 52,1.4315604561,1.8558766837\H,0,10.2321691359,2.133400248,-0.07771094
 61\H,0,-8.5633010661,0.5494095421,0.2119905731\H,0,9.0883665237,4.0138
 847705,1.0584116822\H,0,8.037440131,4.5241272737,-0.4222385699\H,0,7.3
 583550955,3.9074218102,1.3824450825\H,0,-7.8179445885,-3.0294276007,0.
 1129360046\H,0,-8.6172860996,-2.9157115741,-1.7120730963\H,0,-6.778203
 5924,-3.0468392238,-1.1526306971\H,0,6.9218880438,0.4823514501,-0.2826
 161366\H,0,-6.4575527313,0.6258200771,0.0208469597\H,0,5.6161693219,3.
 2138770597,0.1064371527\H,0,-5.1220126723,-1.9390115792,-0.9541515652\
 H,0,4.6970729003,0.2760823542,-0.3477468427\H,0,-4.2914805521,0.962225
 5946,-0.2061293319\H,0,2.9800436324,3.4343553255,1.4176550065\H,0,1.76
 33045915,3.6409850805,0.1343080328\H,0,3.4135867387,3.933369962,-0.090
 9221502\H,0,-2.9641875338,-2.5211144034,-0.426180283\H,0,-2.6860573187
 ,-2.0431813801,-2.0021289549\H,0,-1.2023006151,-1.9728748375,-0.892007
 7438\H,0,2.3205634193,-0.2138346645,-0.538130025\H,0,-1.9223368567,1.5
 347217162,-0.3504289499\H,0,0.3194822472,2.2314085679,-0.0023482248\H,
 0,0.1320749925,-0.795979762,-0.7507467487\\Version=ES64L-G16RevA.03\St
 ate=1-A\HF=-1706.8377589\RMSD=4.849e-09\PG=C01 [X(C40H56O2)]\\@


 ACCORDING TO HEN3RY, LIFE IS MUCH LIKE A SEWER........
 YOU GET OUT OF IT JUST WHAT YOU PUT INTO IT...........
                         TOM LEHRER - (THE 3 IS SILENT)
 Job cpu time:       0 days  8 hours 45 minutes 38.6 seconds.
 Elapsed time:       0 days  2 hours 12 minutes 14.1 seconds.
 File lengths (MBytes):  RWF=   3127 Int=      0 D2E=      0 Chk=     84 Scr=      1
 Normal termination of Gaussian 16 at Thu Jul 11 08:43:01 2019.
