 Entering Gaussian System, Link 0=g16
 Input=Geometria-405-.com
 Output=Geometria-405-.log
 Initial command:
 /usr/local/g16/l1.exe "/home/padawan/israel-mol/zeaxanthin/spectra/emi/Gau-22581.inp" -scrdir="/home/padawan/israel-mol/zeaxanthin/spectra/emi/"
 Entering Link 1 = /usr/local/g16/l1.exe PID=     22583.
  
 Copyright (c) 1988,1990,1992,1993,1995,1998,2003,2009,2016,
            Gaussian, Inc.  All Rights Reserved.
  
 This is part of the Gaussian(R) 16 program.  It is based on
 the Gaussian(R) 09 system (copyright 2009, Gaussian, Inc.),
 the Gaussian(R) 03 system (copyright 2003, Gaussian, Inc.),
 the Gaussian(R) 98 system (copyright 1998, Gaussian, Inc.),
 the Gaussian(R) 94 system (copyright 1995, Gaussian, Inc.),
 the Gaussian 92(TM) system (copyright 1992, Gaussian, Inc.),
 the Gaussian 90(TM) system (copyright 1990, Gaussian, Inc.),
 the Gaussian 88(TM) system (copyright 1988, Gaussian, Inc.),
 the Gaussian 86(TM) system (copyright 1986, Carnegie Mellon
 University), and the Gaussian 82(TM) system (copyright 1983,
 Carnegie Mellon University). Gaussian is a federally registered
 trademark of Gaussian, Inc.
  
 This software contains proprietary and confidential information,
 including trade secrets, belonging to Gaussian, Inc.
  
 This software is provided under written license and may be
 used, copied, transmitted, or stored only in accord with that
 written license.
  
 The following legend is applicable only to US Government
 contracts under FAR:
  
                    RESTRICTED RIGHTS LEGEND
  
 Use, reproduction and disclosure by the US Government is
 subject to restrictions as set forth in subparagraphs (a)
 and (c) of the Commercial Computer Software - Restricted
 Rights clause in FAR 52.227-19.
  
 Gaussian, Inc.
 340 Quinnipiac St., Bldg. 40, Wallingford CT 06492
  
  
 ---------------------------------------------------------------
 Warning -- This program may not be used in any manner that
 competes with the business of Gaussian, Inc. or will provide
 assistance to any competitor of Gaussian, Inc.  The licensee
 of this program is prohibited from giving any competitor of
 Gaussian, Inc. access to this program.  By using this program,
 the user acknowledges that Gaussian, Inc. is engaged in the
 business of creating and licensing software in the field of
 computational chemistry and represents and warrants to the
 licensee that it is not a competitor of Gaussian, Inc. and that
 it will not use this program in any manner prohibited above.
 ---------------------------------------------------------------
  

 Cite this work as:
 Gaussian 16, Revision A.03,
 M. J. Frisch, G. W. Trucks, H. B. Schlegel, G. E. Scuseria, 
 M. A. Robb, J. R. Cheeseman, G. Scalmani, V. Barone, 
 G. A. Petersson, H. Nakatsuji, X. Li, M. Caricato, A. V. Marenich, 
 J. Bloino, B. G. Janesko, R. Gomperts, B. Mennucci, H. P. Hratchian, 
 J. V. Ortiz, A. F. Izmaylov, J. L. Sonnenberg, D. Williams-Young, 
 F. Ding, F. Lipparini, F. Egidi, J. Goings, B. Peng, A. Petrone, 
 T. Henderson, D. Ranasinghe, V. G. Zakrzewski, J. Gao, N. Rega, 
 G. Zheng, W. Liang, M. Hada, M. Ehara, K. Toyota, R. Fukuda, 
 J. Hasegawa, M. Ishida, T. Nakajima, Y. Honda, O. Kitao, H. Nakai, 
 T. Vreven, K. Throssell, J. A. Montgomery, Jr., J. E. Peralta, 
 F. Ogliaro, M. J. Bearpark, J. J. Heyd, E. N. Brothers, K. N. Kudin, 
 V. N. Staroverov, T. A. Keith, R. Kobayashi, J. Normand, 
 K. Raghavachari, A. P. Rendell, J. C. Burant, S. S. Iyengar, 
 J. Tomasi, M. Cossi, J. M. Millam, M. Klene, C. Adamo, R. Cammi, 
 J. W. Ochterski, R. L. Martin, K. Morokuma, O. Farkas, 
 J. B. Foresman, and D. J. Fox, Gaussian, Inc., Wallingford CT, 2016.
 
 ******************************************
 Gaussian 16:  ES64L-G16RevA.03 25-Dec-2016
                18-Jul-2019 
 ******************************************
 %nproc=4
 Will use up to    4 processors via shared memory.
 %Mem=2GB
 -------------------------------------
 # td=(NStates=1) CAM-B3LYP/6-31G(d,p)
 -------------------------------------
 1/38=1,172=1/1;
 2/12=2,17=6,18=5,40=1/2;
 3/5=1,6=6,7=101,11=9,25=1,30=1,74=-40/1,2,3,8;
 4//1;
 5/5=2,38=5/2;
 8/6=1,10=2,108=1/1;
 9/41=1,42=1,70=2/14;
 6/7=2,8=2,9=2,10=2/1;
 99/5=1,9=1/99;
 --
 TD
 --
 Symbolic Z-matrix:
 Charge =  0 Multiplicity = 1
 8                     14.64192  -2.25855  -0.16764 
 8                    -14.76618   1.83976   1.08906 
 6                     11.14774  -1.59057   1.01863 
 6                    -12.33102  -1.07002   0.54536 
 6                     12.64204  -1.92315   1.00581 
 6                    -13.72515  -0.322     0.68903 
 6                     13.31521  -1.83051  -0.30079 
 6                    -13.54323   1.12747   0.95315 
 6                     10.93494  -0.24489   0.04088 
 6                    -11.25463  -0.23579  -0.0849 
 6                     13.33173  -0.45886  -0.78938 
 6                    -12.70191   1.83228  -0.06285 
 6                     11.95133   0.09841  -0.8747 
 6                    -11.48091   1.01829  -0.50349 
 6                     10.7374  -1.14257   2.45322 
 6                     10.27971  -2.69009   0.56298 
 6                    -11.82039  -1.47951   1.99756 
 6                    -12.7283  -2.46156  -0.16983 
 6                     9.68077   0.34803   0.12212 
 6                    -10.05888  -0.99628  -0.45775 
 6                     11.77857   1.21824  -1.8883 
 6                    -10.58853   1.86765  -1.4199 
 6                     9.38366   1.60535   0.10951 
 6                    -8.75321  -0.45159  -0.4377 
 6                     8.04435   2.22219   0.16573 
 6                    -7.56155  -1.24004  -0.62719 
 6                     8.02464   3.70537   0.50197 
 6                    -7.71142  -2.61569  -0.99069 
 6                     6.83639   1.52914  -0.10645 
 6                    -6.36919  -0.51454  -0.46642 
 6                     5.63676   2.08134   0.04902 
 6                    -5.09596  -1.02434  -0.60422 
 6                     4.44622   1.32516  -0.17557 
 6                    -3.90923  -0.28863  -0.47763 
 6                     3.18449   1.74309   0.00199 
 6                    -2.62381  -0.79178  -0.55937 
 6                     2.82666   3.16784   0.27377 
 6                    -2.44907  -2.19557  -0.73715 
 6                     2.10881   0.82935  -0.03939 
 6                    -1.55136   0.182    -0.3325 
 6                     0.72382   1.07248  -0.02965 
 6                    -0.17626   0.01495  -0.17608 
 1                     13.2593  -1.17871   1.76871 
 1                     12.61048  -2.85219   1.52817 
 1                    -14.22333  -0.87179   1.5247 
 1                    -14.48552  -0.2933   -0.20624 
 1                     12.73653  -2.55166  -0.97243 
 1                    -12.8215   1.31981   1.96827 
 1                     14.01313   0.10578  -0.0468 
 1                     13.91762  -0.38398  -1.75708 
 1                    -13.25237   1.90058  -1.14302 
 1                    -12.55929   2.95028   0.30657 
 1                     11.03929  -1.79974   3.08284 
 1                     9.59507  -1.141     2.59013 
 1                     11.17374  -0.27196   2.70869 
 1                     10.63083  -2.91968  -0.53987 
 1                     10.40216  -3.43927   1.41192 
 1                     9.33525  -2.40907   0.50948 
 1                    -11.50794  -0.46644   2.68817 
 1                    -10.93892  -2.07707   1.70802 
 1                    -12.58661  -2.23397   2.45963 
 1                    -13.66658  -2.88496   0.33473 
 1                    -11.71051  -3.01534  -0.14236 
 1                    -13.18015  -2.21013  -1.20479 
 1                     8.74557  -0.37335   0.07242 
 1                    -10.08753  -2.0849   -0.4505 
 1                     10.78469   1.58192  -2.2609 
 1                     12.13644   2.11625  -1.27524 
 1                     12.42762   0.88792  -2.89045 
 1                    -11.18944   2.64963  -2.15291 
 1                    -9.90345   1.24652  -2.00278 
 1                    -10.02226   2.49038  -0.73513 
 1                     14.71375  -3.10803   0.55703 
 1                    -15.12932   1.72123   2.07389 
 1                     10.12602   2.28898   0.01847 
 1                    -8.7026    0.56982  -0.32042 
 1                     9.05515   4.2559    0.42524 
 1                     7.41141   4.63498  -0.09366 
 1                     7.70076   3.77215   1.60888 
 1                    -8.0898   -3.43992  -0.20629 
 1                    -8.37143  -2.65312  -1.77073 
 1                    -6.85167  -2.9479   -1.40726 
 1                     7.04241   0.5133   -0.37183 
 1                    -6.37014   0.61551  -0.42046 
 1                     5.3922    3.05779   0.28537 
 1                    -4.96787  -2.07085  -0.88287 
 1                     4.68323   0.34894  -0.54908 
 1                    -4.1077    0.66685  -0.1104 
 1                     3.23257   3.47435   1.32665 
 1                     1.77224   3.83172   0.16732 
 1                     3.55315   3.81955  -0.25707 
 1                    -3.04447  -2.73413  -0.07015 
 1                    -2.67424  -2.51329  -1.80913 
 1                    -1.18763  -2.25091  -0.75351 
 1                     2.54475  -0.17322  -0.09733 
 1                    -1.8535    1.24127  -0.39343 
 1                     0.26656   2.06909   0.1572 
 1                     0.36692  -1.0101   -0.45141 
 
 Stoichiometry    C40H56O2
 Framework group  C1[X(C40H56O2)]
 Deg. of freedom   288
 Full point group                 C1      NOp   1
 Largest Abelian subgroup         C1      NOp   1
 Largest concise Abelian subgroup C1      NOp   1
                         Standard orientation:                         
 ---------------------------------------------------------------------
 Center     Atomic      Atomic             Coordinates (Angstroms)
 Number     Number       Type             X           Y           Z
 ---------------------------------------------------------------------
      1          8           0       14.640928   -2.268283   -0.238982
      2          8           0      -14.763442    1.815131    1.146886
      3          6           0       11.147408   -1.634373    0.967760
      4          6           0      -12.330901   -1.078517    0.512860
      5          6           0       12.641411   -1.967721    0.944487
      6          6           0      -13.724358   -0.334084    0.679816
      7          6           0       13.314591   -1.835132   -0.358660
      8          6           0      -13.541137    1.106322    0.988812
      9          6           0       10.935757   -0.258783    0.032302
     10          6           0      -11.253808   -0.226074   -0.091268
     11          6           0       13.332309   -0.448991   -0.804408
     12          6           0      -12.699246    1.841598   -0.004868
     13          6           0       11.952399    0.111890   -0.872259
     14          6           0      -11.478992    1.040606   -0.470689
     15          6           0       10.737556   -1.230784    2.415608
     16          6           0       10.278375   -2.718433    0.478251
     17          6           0      -11.820560   -1.533370    1.951595
     18          6           0      -12.729462   -2.446815   -0.245169
     19          6           0        9.682120    0.332447    0.132021
     20          6           0      -10.058756   -0.975675   -0.487662
     21          6           0       11.780581    1.262814   -1.850572
     22          6           0      -10.585906    1.917227   -1.360345
     23          6           0        9.386128    1.589808    0.158498
     24          6           0       -8.752596   -0.433026   -0.450813
     25          6           0        8.047372    2.205795    0.233963
     26          6           0       -7.561657   -1.216273   -0.664803
     27          6           0        8.029003    3.677833    0.616120
     28          6           0       -7.712767   -2.579833   -1.070844
     29          6           0        6.838780    1.522611   -0.059512
     30          6           0       -6.368637   -0.497173   -0.481672
     31          6           0        5.639652    2.070781    0.113141
     32          6           0       -5.095868   -1.003577   -0.635350
     33          6           0        4.448426    1.322996   -0.134730
     34          6           0       -3.908481   -0.273210   -0.486071
     35          6           0        3.187071    1.736329    0.055836
     36          6           0       -2.623509   -0.774718   -0.583512
     37          6           0        2.830533    3.152273    0.371761
     38          6           0       -2.450035   -2.172467   -0.804826
     39          6           0        2.110579    0.825278   -0.013825
     40          6           0       -1.550179    0.190587   -0.326587
     41          6           0        0.725806    1.069213    0.003581
     42          6           0       -0.175220    0.017545   -0.175548
     43          1           0       13.259384   -1.247886    1.730098
     44          1           0       12.609060   -2.912507    1.437745
     45          1           0      -14.222976   -0.909128    1.498049
     46          1           0      -14.484755   -0.276910   -0.214070
     47          1           0       12.735237   -2.534566   -1.052322
     48          1           0      -12.819177    1.266391    2.009364
     49          1           0       14.014246    0.091712   -0.044703
     50          1           0       13.918205   -0.344609   -1.769361
     51          1           0      -13.249703    1.943905   -1.082350
     52          1           0      -12.555609    2.947461    0.399087
     53          1           0       11.038888   -1.907461    3.024490
     54          1           0        9.595228   -1.232457    2.552594
     55          1           0       11.174681   -0.368914    2.697967
     56          1           0       10.629229   -2.913967   -0.631228
     57          1           0       10.400206   -3.493735    1.303501
     58          1           0        9.334165   -2.435053    0.433583
     59          1           0      -11.507168   -0.542520    2.673316
     60          1           0      -10.939631   -2.122433    1.643567
     61          1           0      -12.587421   -2.301141    2.390072
     62          1           0      -13.668087   -2.884850    0.246072
     63          1           0      -11.712160   -3.002086   -0.235005
     64          1           0      -13.181142   -2.162960   -1.271790
     65          1           0        8.746269   -0.386216    0.060024
     66          1           0      -10.088377   -2.063963   -0.514229
     67          1           0       10.787001    1.638781   -2.211609
     68          1           0       12.139281    2.141035   -1.209946
     69          1           0       12.429281    0.963209   -2.862554
     70          1           0      -11.186167    2.722136   -2.068658
     71          1           0       -9.901411    1.313896   -1.962292
     72          1           0      -10.019042    2.517888   -0.656607
     73          1           0       14.712043   -3.139924    0.458953
     74          1           0      -15.126628    1.666390    2.127590
     75          1           0       10.129088    2.275276    0.088675
     76          1           0       -8.701078    0.584202   -0.301871
     77          1           0        9.059997    4.229565    0.556435
     78          1           0        7.416560    4.626039    0.049705
     79          1           0        7.705240    3.710484    1.724591
     80          1           0       -8.091839   -3.427691   -0.312392
     81          1           0       -8.372856   -2.592423   -1.851616
     82          1           0       -6.853338   -2.899705   -1.497603
     83          1           0        7.043877    0.515324   -0.356327
     84          1           0       -6.368583    0.630903   -0.400634
     85          1           0        5.395968    3.039634    0.379722
     86          1           0       -4.968725   -2.041045   -0.946390
     87          1           0        4.684543    0.358640   -0.538401
     88          1           0       -4.106079    0.670575   -0.089322
     89          1           0        3.236770    3.425565    1.433621
     90          1           0        1.776690    3.820075    0.286079
     91          1           0        3.557570    3.819506   -0.138634
     92          1           0       -3.045869   -2.730949   -0.154826
     93          1           0       -2.675541   -2.456531   -1.886134
     94          1           0       -1.188641   -2.228392   -0.823002
     95          1           0        2.545619   -0.175401   -0.102907
     96          1           0       -1.851382    1.251513   -0.354565
     97          1           0        0.269442    2.059946    0.221336
     98          1           0        0.367028   -0.998945   -0.482630
 ---------------------------------------------------------------------
 Rotational constants (GHZ):           0.2443496           0.0093222           0.0091190
 Standard basis: 6-31G(d,p) (6D, 7F)
 There are   910 symmetry adapted cartesian basis functions of A   symmetry.
 There are   910 symmetry adapted basis functions of A   symmetry.
   910 basis functions,  1568 primitive gaussians,   910 cartesian basis functions
   156 alpha electrons      156 beta electrons
       nuclear repulsion energy      3977.1642989096 Hartrees.
 NAtoms=   98 NActive=   98 NUniq=   98 SFac= 1.00D+00 NAtFMM=   60 NAOKFM=T Big=T
 Integral buffers will be    131072 words long.
 Raffenetti 1 integral format.
 Two-electron integral symmetry is turned on.
 One-electron integrals computed using PRISM.
 NBasis=   910 RedAO= T EigKep=  8.09D-04  NBF=   910
 NBsUse=   910 1.00D-06 EigRej= -1.00D+00 NBFU=   910
 ExpMin= 1.61D-01 ExpMax= 5.48D+03 ExpMxC= 8.25D+02 IAcc=3 IRadAn=         5 AccDes= 0.00D+00
 Harris functional with IExCor=20419 and IRadAn=       5 diagonalized for initial guess.
 HarFok:  IExCor=20419 AccDes= 0.00D+00 IRadAn=         5 IDoV= 1 UseB2=F ITyADJ=14
 ICtDFT=  3500011 ScaDFX=  1.000000  1.000000  1.000000  1.000000
 FoFCou: FMM=F IPFlag=           0 FMFlag=      100000 FMFlg1=        2001
         NFxFlg=           0 DoJE=T BraDBF=F KetDBF=T FulRan=T
         wScrn=  0.000000 ICntrl=       500 IOpCl=  0 I1Cent=   200000004 NGrid=           0
         NMat0=    1 NMatS0=      1 NMatT0=    0 NMatD0=    1 NMtDS0=    0 NMtDT0=    0
 Petite list used in FoFCou.
 Requested convergence on RMS density matrix=1.00D-08 within 128 cycles.
 Requested convergence on MAX density matrix=1.00D-06.
 Requested convergence on             energy=1.00D-06.
 No special actions if energy rises.
 Integral accuracy reduced to 1.0D-05 until final iterations.
 Initial convergence to 1.0D-05 achieved.  Increase integral accuracy.
 SCF Done:  E(RCAM-B3LYP) =  -1706.92764622     A.U. after   16 cycles
            NFock= 16  Conv=0.98D-08     -V/T= 2.0103
 DoSCS=F DFT=T ScalE2(SS,OS)=  1.000000  1.000000
 ExpMin= 1.61D-01 ExpMax= 5.48D+03 ExpMxC= 8.25D+02 IAcc=3 IRadAn=         5 AccDes= 0.00D+00
 HarFok:  IExCor=  205 AccDes= 0.00D+00 IRadAn=         5 IDoV=-2 UseB2=F ITyADJ=14
 ICtDFT= 12500011 ScaDFX=  1.000000  1.000000  1.000000  1.000000
 GSVD:  LWork=       -2100 too small for GESVD, short by        9450 words or        9450 for optimal perf.
 Range of M.O.s used for correlation:    43   910
 NBasis=   910 NAE=   156 NBE=   156 NFC=    42 NFV=     0
 NROrb=    868 NOA=   114 NOB=   114 NVA=   754 NVB=   754
 Orbital symmetries:
       Occupied  (A) (A) (A) (A) (A) (A) (A) (A) (A) (A) (A) (A)
                 (A) (A) (A) (A) (A) (A) (A) (A) (A) (A) (A) (A)
                 (A) (A) (A) (A) (A) (A) (A) (A) (A) (A) (A) (A)
                 (A) (A) (A) (A) (A) (A) (A) (A) (A) (A) (A) (A)
                 (A) (A) (A) (A) (A) (A) (A) (A) (A) (A) (A) (A)
                 (A) (A) (A) (A) (A) (A) (A) (A) (A) (A) (A) (A)
                 (A) (A) (A) (A) (A) (A) (A) (A) (A) (A) (A) (A)
                 (A) (A) (A) (A) (A) (A) (A) (A) (A) (A) (A) (A)
                 (A) (A) (A) (A) (A) (A) (A) (A) (A) (A) (A) (A)
                 (A) (A) (A) (A) (A) (A) (A) (A) (A) (A) (A) (A)
                 (A) (A) (A) (A) (A) (A) (A) (A) (A) (A) (A) (A)
                 (A) (A) (A) (A) (A) (A) (A) (A) (A) (A) (A) (A)
                 (A) (A) (A) (A) (A) (A) (A) (A) (A) (A) (A) (A)
       Virtual   (A) (A) (A) (A) (A) (A) (A) (A) (A) (A) (A) (A)
                 (A) (A) (A) (A) (A) (A) (A) (A) (A) (A) (A) (A)
                 (A) (A) (A) (A) (A) (A) (A) (A) (A) (A) (A) (A)
                 (A) (A) (A) (A) (A) (A) (A) (A) (A) (A) (A) (A)
                 (A) (A) (A) (A) (A) (A) (A) (A) (A) (A) (A) (A)
                 (A) (A) (A) (A) (A) (A) (A) (A) (A) (A) (A) (A)
                 (A) (A) (A) (A) (A) (A) (A) (A) (A) (A) (A) (A)
                 (A) (A) (A) (A) (A) (A) (A) (A) (A) (A) (A) (A)
                 (A) (A) (A) (A) (A) (A) (A) (A) (A) (A) (A) (A)
                 (A) (A) (A) (A) (A) (A) (A) (A) (A) (A) (A) (A)
                 (A) (A) (A) (A) (A) (A) (A) (A) (A) (A) (A) (A)
                 (A) (A) (A) (A) (A) (A) (A) (A) (A) (A) (A) (A)
                 (A) (A) (A) (A) (A) (A) (A) (A) (A) (A) (A) (A)
                 (A) (A) (A) (A) (A) (A) (A) (A) (A) (A) (A) (A)
                 (A) (A) (A) (A) (A) (A) (A) (A) (A) (A) (A) (A)
                 (A) (A) (A) (A) (A) (A) (A) (A) (A) (A) (A) (A)
                 (A) (A) (A) (A) (A) (A) (A) (A) (A) (A) (A) (A)
                 (A) (A) (A) (A) (A) (A) (A) (A) (A) (A) (A) (A)
                 (A) (A) (A) (A) (A) (A) (A) (A) (A) (A) (A) (A)
                 (A) (A) (A) (A) (A) (A) (A) (A) (A) (A) (A) (A)
                 (A) (A) (A) (A) (A) (A) (A) (A) (A) (A) (A) (A)
                 (A) (A) (A) (A) (A) (A) (A) (A) (A) (A) (A) (A)
                 (A) (A) (A) (A) (A) (A) (A) (A) (A) (A) (A) (A)
                 (A) (A) (A) (A) (A) (A) (A) (A) (A) (A) (A) (A)
                 (A) (A) (A) (A) (A) (A) (A) (A) (A) (A) (A) (A)
                 (A) (A) (A) (A) (A) (A) (A) (A) (A) (A) (A) (A)
                 (A) (A) (A) (A) (A) (A) (A) (A) (A) (A) (A) (A)
                 (A) (A) (A) (A) (A) (A) (A) (A) (A) (A) (A) (A)
                 (A) (A) (A) (A) (A) (A) (A) (A) (A) (A) (A) (A)
                 (A) (A) (A) (A) (A) (A) (A) (A) (A) (A) (A) (A)
                 (A) (A) (A) (A) (A) (A) (A) (A) (A) (A) (A) (A)
                 (A) (A) (A) (A) (A) (A) (A) (A) (A) (A) (A) (A)
                 (A) (A) (A) (A) (A) (A) (A) (A) (A) (A) (A) (A)
                 (A) (A) (A) (A) (A) (A) (A) (A) (A) (A) (A) (A)
                 (A) (A) (A) (A) (A) (A) (A) (A) (A) (A) (A) (A)
                 (A) (A) (A) (A) (A) (A) (A) (A) (A) (A) (A) (A)
                 (A) (A) (A) (A) (A) (A) (A) (A) (A) (A) (A) (A)
                 (A) (A) (A) (A) (A) (A) (A) (A) (A) (A) (A) (A)
                 (A) (A) (A) (A) (A) (A) (A) (A) (A) (A) (A) (A)
                 (A) (A) (A) (A) (A) (A) (A) (A) (A) (A) (A) (A)
                 (A) (A) (A) (A) (A) (A) (A) (A) (A) (A) (A) (A)
                 (A) (A) (A) (A) (A) (A) (A) (A) (A) (A) (A) (A)
                 (A) (A) (A) (A) (A) (A) (A) (A) (A) (A) (A) (A)
                 (A) (A) (A) (A) (A) (A) (A) (A) (A) (A) (A) (A)
                 (A) (A) (A) (A) (A) (A) (A) (A) (A) (A) (A) (A)
                 (A) (A) (A) (A) (A) (A) (A) (A) (A) (A) (A) (A)
                 (A) (A) (A) (A) (A) (A) (A) (A) (A) (A) (A) (A)
                 (A) (A) (A) (A) (A) (A) (A) (A) (A) (A) (A) (A)
                 (A) (A) (A) (A) (A) (A) (A) (A) (A) (A) (A) (A)
                 (A) (A) (A) (A) (A) (A) (A) (A) (A) (A) (A) (A)
                 (A) (A) (A) (A) (A) (A) (A) (A) (A) (A) (A) (A)
                 (A) (A) (A) (A) (A) (A) (A) (A) (A) (A) (A) (A)
                 (A) (A) (A) (A) (A) (A) (A) (A) (A) (A) (A) (A)
                 (A) (A) (A) (A) (A) (A) (A) (A) (A) (A) (A) (A)
                 (A) (A) (A) (A) (A) (A) (A) (A) (A) (A) (A) (A)
                 (A) (A) (A) (A) (A) (A) (A) (A) (A) (A) (A) (A)
                 (A) (A) (A) (A) (A) (A) (A) (A) (A) (A) (A) (A)
                 (A) (A) (A) (A) (A) (A) (A) (A) (A) (A) (A) (A)
                 (A) (A) (A) (A) (A) (A) (A) (A) (A) (A) (A) (A)
                 (A) (A) (A) (A) (A) (A) (A) (A) (A) (A) (A) (A)
                 (A) (A) (A) (A) (A) (A) (A) (A) (A) (A) (A) (A)
                 (A) (A) (A) (A) (A) (A) (A) (A) (A) (A) (A) (A)
                 (A) (A) (A) (A) (A) (A) (A) (A) (A) (A)
     4 initial guesses have been made.
 Convergence on wavefunction:    0.001000000000000
 Iteration     1 Dimension     4 NMult     0 NNew      4
 CISAX will form     4 AO SS matrices at one time.
 Iteration     2 Dimension     6 NMult     4 NNew      2
 Iteration     3 Dimension     8 NMult     6 NNew      2
 Iteration     4 Dimension    10 NMult     8 NNew      2
 Iteration     5 Dimension    12 NMult    10 NNew      2
 Iteration     6 Dimension    14 NMult    12 NNew      2
 ***********************************************************************
 Excited states from <AA,BB:AA,BB> singles matrix:
 ***********************************************************************
 
 Ground to excited state transition densities written to RWF  633
 Ground to excited state transition electric dipole moments (Au):
       state          X           Y           Z        Dip. S.      Osc.
         1        -9.4600     -1.3175     -0.3714     91.3654      3.9113
 Ground to excited state transition velocity dipole moments (Au):
       state          X           Y           Z        Dip. S.      Osc.
         1         0.5846      0.0776      0.0233      0.3483      3.6162
 Ground to excited state transition magnetic dipole moments (Au):
       state          X           Y           Z
         1         0.0878     -0.3180     -0.6566
 Ground to excited state transition velocity quadrupole moments (Au):
       state          XX          YY          ZZ          XY          XZ          YZ
         1         0.0729      0.1991     -0.0037      0.2586     -0.1697     -0.0150
 <0|del|b> * <b|rxdel|0> + <0|del|b> * <b|delr+rdel|0>
 Rotatory Strengths (R) in cgs (10**-40 erg-esu-cm/Gauss)
       state          XX          YY          ZZ    R(velocity)    E-M Angle
         1      -114.4155    116.9890    122.5021     41.6919       88.50
 1/2[<0|r|b>*<b|rxdel|0> + (<0|rxdel|b>*<b|r|0>)*]
 Rotatory Strengths (R) in cgs (10**-40 erg-esu-cm/Gauss)
       state          XX          YY          ZZ     R(length)
         1       587.3952   -296.3137   -172.4625     39.5397
  1/2[<0|del|b>*<b|r|0> + (<0|r|b>*<b|del|0>)*] (Au)
       state          X           Y           Z        Dip. S.   Osc.(frdel)
         1        -5.5303     -0.1023     -0.0086      5.6412      3.7608

 Excitation energies and oscillator strengths:
 
 Excited State   1:      Singlet-A      1.7474 eV  709.55 nm  f=3.9113  <S**2>=0.000
     155 ->158        -0.13472
     156 ->157         0.70117
     156 <-157        -0.12220
 This state for optimization and/or second-order correction.
 Total Energy, E(TD-HF/TD-DFT) =  -1706.86343216    
 Copying the excited state density for this state as the 1-particle RhoCI density.
 SavETr:  write IOETrn=   770 NScale= 10 NData=  16 NLR=1 NState=    1 LETran=      28.

 **********************************************************************

            Population analysis using the SCF density.

 **********************************************************************

 Orbital symmetries:
       Occupied  (A) (A) (A) (A) (A) (A) (A) (A) (A) (A) (A) (A)
                 (A) (A) (A) (A) (A) (A) (A) (A) (A) (A) (A) (A)
                 (A) (A) (A) (A) (A) (A) (A) (A) (A) (A) (A) (A)
                 (A) (A) (A) (A) (A) (A) (A) (A) (A) (A) (A) (A)
                 (A) (A) (A) (A) (A) (A) (A) (A) (A) (A) (A) (A)
                 (A) (A) (A) (A) (A) (A) (A) (A) (A) (A) (A) (A)
                 (A) (A) (A) (A) (A) (A) (A) (A) (A) (A) (A) (A)
                 (A) (A) (A) (A) (A) (A) (A) (A) (A) (A) (A) (A)
                 (A) (A) (A) (A) (A) (A) (A) (A) (A) (A) (A) (A)
                 (A) (A) (A) (A) (A) (A) (A) (A) (A) (A) (A) (A)
                 (A) (A) (A) (A) (A) (A) (A) (A) (A) (A) (A) (A)
                 (A) (A) (A) (A) (A) (A) (A) (A) (A) (A) (A) (A)
                 (A) (A) (A) (A) (A) (A) (A) (A) (A) (A) (A) (A)
       Virtual   (A) (A) (A) (A) (A) (A) (A) (A) (A) (A) (A) (A)
                 (A) (A) (A) (A) (A) (A) (A) (A) (A) (A) (A) (A)
                 (A) (A) (A) (A) (A) (A) (A) (A) (A) (A) (A) (A)
                 (A) (A) (A) (A) (A) (A) (A) (A) (A) (A) (A) (A)
                 (A) (A) (A) (A) (A) (A) (A) (A) (A) (A) (A) (A)
                 (A) (A) (A) (A) (A) (A) (A) (A) (A) (A) (A) (A)
                 (A) (A) (A) (A) (A) (A) (A) (A) (A) (A) (A) (A)
                 (A) (A) (A) (A) (A) (A) (A) (A) (A) (A) (A) (A)
                 (A) (A) (A) (A) (A) (A) (A) (A) (A) (A) (A) (A)
                 (A) (A) (A) (A) (A) (A) (A) (A) (A) (A) (A) (A)
                 (A) (A) (A) (A) (A) (A) (A) (A) (A) (A) (A) (A)
                 (A) (A) (A) (A) (A) (A) (A) (A) (A) (A) (A) (A)
                 (A) (A) (A) (A) (A) (A) (A) (A) (A) (A) (A) (A)
                 (A) (A) (A) (A) (A) (A) (A) (A) (A) (A) (A) (A)
                 (A) (A) (A) (A) (A) (A) (A) (A) (A) (A) (A) (A)
                 (A) (A) (A) (A) (A) (A) (A) (A) (A) (A) (A) (A)
                 (A) (A) (A) (A) (A) (A) (A) (A) (A) (A) (A) (A)
                 (A) (A) (A) (A) (A) (A) (A) (A) (A) (A) (A) (A)
                 (A) (A) (A) (A) (A) (A) (A) (A) (A) (A) (A) (A)
                 (A) (A) (A) (A) (A) (A) (A) (A) (A) (A) (A) (A)
                 (A) (A) (A) (A) (A) (A) (A) (A) (A) (A) (A) (A)
                 (A) (A) (A) (A) (A) (A) (A) (A) (A) (A) (A) (A)
                 (A) (A) (A) (A) (A) (A) (A) (A) (A) (A) (A) (A)
                 (A) (A) (A) (A) (A) (A) (A) (A) (A) (A) (A) (A)
                 (A) (A) (A) (A) (A) (A) (A) (A) (A) (A) (A) (A)
                 (A) (A) (A) (A) (A) (A) (A) (A) (A) (A) (A) (A)
                 (A) (A) (A) (A) (A) (A) (A) (A) (A) (A) (A) (A)
                 (A) (A) (A) (A) (A) (A) (A) (A) (A) (A) (A) (A)
                 (A) (A) (A) (A) (A) (A) (A) (A) (A) (A) (A) (A)
                 (A) (A) (A) (A) (A) (A) (A) (A) (A) (A) (A) (A)
                 (A) (A) (A) (A) (A) (A) (A) (A) (A) (A) (A) (A)
                 (A) (A) (A) (A) (A) (A) (A) (A) (A) (A) (A) (A)
                 (A) (A) (A) (A) (A) (A) (A) (A) (A) (A) (A) (A)
                 (A) (A) (A) (A) (A) (A) (A) (A) (A) (A) (A) (A)
                 (A) (A) (A) (A) (A) (A) (A) (A) (A) (A) (A) (A)
                 (A) (A) (A) (A) (A) (A) (A) (A) (A) (A) (A) (A)
                 (A) (A) (A) (A) (A) (A) (A) (A) (A) (A) (A) (A)
                 (A) (A) (A) (A) (A) (A) (A) (A) (A) (A) (A) (A)
                 (A) (A) (A) (A) (A) (A) (A) (A) (A) (A) (A) (A)
                 (A) (A) (A) (A) (A) (A) (A) (A) (A) (A) (A) (A)
                 (A) (A) (A) (A) (A) (A) (A) (A) (A) (A) (A) (A)
                 (A) (A) (A) (A) (A) (A) (A) (A) (A) (A) (A) (A)
                 (A) (A) (A) (A) (A) (A) (A) (A) (A) (A) (A) (A)
                 (A) (A) (A) (A) (A) (A) (A) (A) (A) (A) (A) (A)
                 (A) (A) (A) (A) (A) (A) (A) (A) (A) (A) (A) (A)
                 (A) (A) (A) (A) (A) (A) (A) (A) (A) (A) (A) (A)
                 (A) (A) (A) (A) (A) (A) (A) (A) (A) (A) (A) (A)
                 (A) (A) (A) (A) (A) (A) (A) (A) (A) (A) (A) (A)
                 (A) (A) (A) (A) (A) (A) (A) (A) (A) (A) (A) (A)
                 (A) (A) (A) (A) (A) (A) (A) (A) (A) (A) (A) (A)
                 (A) (A) (A) (A) (A) (A) (A) (A) (A) (A) (A) (A)
                 (A) (A) (A) (A) (A) (A) (A) (A) (A) (A) (A) (A)
                 (A) (A) (A) (A) (A) (A) (A) (A) (A) (A) (A) (A)
                 (A) (A) (A) (A) (A) (A) (A) (A) (A) (A) (A) (A)
                 (A) (A) (A) (A) (A) (A) (A) (A) (A) (A) (A) (A)
                 (A) (A) (A) (A) (A) (A) (A) (A) (A) (A) (A) (A)
                 (A) (A) (A) (A) (A) (A) (A) (A) (A) (A) (A) (A)
                 (A) (A) (A) (A) (A) (A) (A) (A) (A) (A) (A) (A)
                 (A) (A) (A) (A) (A) (A) (A) (A) (A) (A) (A) (A)
                 (A) (A) (A) (A) (A) (A) (A) (A) (A) (A) (A) (A)
                 (A) (A) (A) (A) (A) (A) (A) (A) (A) (A) (A) (A)
                 (A) (A) (A) (A) (A) (A) (A) (A) (A) (A) (A) (A)
                 (A) (A) (A) (A) (A) (A) (A) (A) (A) (A)
 The electronic state is 1-A.
 Alpha  occ. eigenvalues --  -19.21881 -19.21676 -10.30986 -10.30156 -10.28242
 Alpha  occ. eigenvalues --  -10.28054 -10.27865 -10.27732 -10.27517 -10.27500
 Alpha  occ. eigenvalues --  -10.27343 -10.27333 -10.27278 -10.27222 -10.27122
 Alpha  occ. eigenvalues --  -10.27073 -10.26984 -10.26966 -10.26834 -10.26806
 Alpha  occ. eigenvalues --  -10.26747 -10.26488 -10.26479 -10.26234 -10.26161
 Alpha  occ. eigenvalues --  -10.26069 -10.26016 -10.25945 -10.25793 -10.25767
 Alpha  occ. eigenvalues --  -10.25704 -10.25614 -10.25549 -10.25481 -10.25459
 Alpha  occ. eigenvalues --  -10.25404 -10.25375 -10.25109 -10.24966 -10.24814
 Alpha  occ. eigenvalues --  -10.24724 -10.22755  -1.08226  -1.07786  -0.93584
 Alpha  occ. eigenvalues --   -0.93163  -0.92611  -0.92230  -0.90889  -0.90403
 Alpha  occ. eigenvalues --   -0.88168  -0.87586  -0.86258  -0.85732  -0.84832
 Alpha  occ. eigenvalues --   -0.83248  -0.82477  -0.80290  -0.79490  -0.78457
 Alpha  occ. eigenvalues --   -0.77801  -0.77174  -0.76231  -0.75935  -0.75771
 Alpha  occ. eigenvalues --   -0.75073  -0.74303  -0.73728  -0.73008  -0.70693
 Alpha  occ. eigenvalues --   -0.68446  -0.67040  -0.65132  -0.64447  -0.63098
 Alpha  occ. eigenvalues --   -0.62940  -0.62582  -0.61149  -0.61049  -0.60727
 Alpha  occ. eigenvalues --   -0.60055  -0.58757  -0.58292  -0.57194  -0.56635
 Alpha  occ. eigenvalues --   -0.56252  -0.55517  -0.54769  -0.54495  -0.53732
 Alpha  occ. eigenvalues --   -0.53285  -0.52496  -0.51978  -0.51861  -0.51662
 Alpha  occ. eigenvalues --   -0.50848  -0.50214  -0.49828  -0.49407  -0.49272
 Alpha  occ. eigenvalues --   -0.48721  -0.48488  -0.48212  -0.47884  -0.47721
 Alpha  occ. eigenvalues --   -0.47339  -0.47219  -0.46628  -0.46281  -0.46265
 Alpha  occ. eigenvalues --   -0.46079  -0.45529  -0.45299  -0.45078  -0.44756
 Alpha  occ. eigenvalues --   -0.44683  -0.44605  -0.43914  -0.43555  -0.43261
 Alpha  occ. eigenvalues --   -0.43061  -0.42941  -0.42501  -0.42086  -0.41518
 Alpha  occ. eigenvalues --   -0.41455  -0.41129  -0.41039  -0.40863  -0.40789
 Alpha  occ. eigenvalues --   -0.40380  -0.40213  -0.40085  -0.39920  -0.39279
 Alpha  occ. eigenvalues --   -0.38782  -0.38713  -0.38534  -0.38313  -0.38245
 Alpha  occ. eigenvalues --   -0.37929  -0.37746  -0.36579  -0.36192  -0.35871
 Alpha  occ. eigenvalues --   -0.34951  -0.34713  -0.33759  -0.32370  -0.31820
 Alpha  occ. eigenvalues --   -0.31485  -0.29903  -0.27704  -0.25984  -0.22633
 Alpha  occ. eigenvalues --   -0.17873
 Alpha virt. eigenvalues --   -0.07280  -0.01757   0.02332   0.05065   0.07535
 Alpha virt. eigenvalues --    0.09375   0.09564   0.09953   0.11314   0.11619
 Alpha virt. eigenvalues --    0.11897   0.12164   0.12333   0.12644   0.13098
 Alpha virt. eigenvalues --    0.13531   0.14075   0.14472   0.14505   0.14818
 Alpha virt. eigenvalues --    0.15021   0.15327   0.15558   0.15685   0.15937
 Alpha virt. eigenvalues --    0.16050   0.16149   0.16467   0.17294   0.17700
 Alpha virt. eigenvalues --    0.18331   0.18351   0.18852   0.19261   0.19349
 Alpha virt. eigenvalues --    0.19906   0.19962   0.20207   0.20438   0.20620
 Alpha virt. eigenvalues --    0.20917   0.21174   0.21287   0.21610   0.21961
 Alpha virt. eigenvalues --    0.22173   0.22317   0.22966   0.23098   0.23396
 Alpha virt. eigenvalues --    0.23615   0.23740   0.23950   0.24168   0.24656
 Alpha virt. eigenvalues --    0.24940   0.25050   0.25152   0.25648   0.25854
 Alpha virt. eigenvalues --    0.26071   0.26205   0.26701   0.27216   0.27745
 Alpha virt. eigenvalues --    0.28155   0.28463   0.28799   0.29438   0.29711
 Alpha virt. eigenvalues --    0.29881   0.30366   0.30791   0.30984   0.31436
 Alpha virt. eigenvalues --    0.31544   0.32307   0.32389   0.32641   0.32824
 Alpha virt. eigenvalues --    0.33459   0.33783   0.34311   0.34900   0.35699
 Alpha virt. eigenvalues --    0.36168   0.36341   0.37212   0.38200   0.38510
 Alpha virt. eigenvalues --    0.39381   0.40073   0.40787   0.42063   0.42443
 Alpha virt. eigenvalues --    0.43541   0.44144   0.44413   0.45254   0.45818
 Alpha virt. eigenvalues --    0.46163   0.47598   0.47638   0.49068   0.49699
 Alpha virt. eigenvalues --    0.50339   0.50684   0.52393   0.53448   0.53780
 Alpha virt. eigenvalues --    0.54611   0.55548   0.56118   0.56524   0.56995
 Alpha virt. eigenvalues --    0.57247   0.57565   0.57997   0.58364   0.58825
 Alpha virt. eigenvalues --    0.59264   0.59599   0.59837   0.60042   0.60423
 Alpha virt. eigenvalues --    0.60560   0.61187   0.61449   0.61570   0.61914
 Alpha virt. eigenvalues --    0.62269   0.63107   0.63196   0.63416   0.63842
 Alpha virt. eigenvalues --    0.64083   0.64561   0.64717   0.65014   0.65175
 Alpha virt. eigenvalues --    0.65644   0.65878   0.66031   0.66146   0.66618
 Alpha virt. eigenvalues --    0.66995   0.67112   0.67354   0.67630   0.68238
 Alpha virt. eigenvalues --    0.68511   0.68641   0.69028   0.69188   0.69550
 Alpha virt. eigenvalues --    0.69778   0.69884   0.70586   0.71648   0.71710
 Alpha virt. eigenvalues --    0.72259   0.72772   0.73108   0.73537   0.73901
 Alpha virt. eigenvalues --    0.74093   0.74452   0.74758   0.75043   0.75661
 Alpha virt. eigenvalues --    0.75846   0.76192   0.76854   0.77396   0.77509
 Alpha virt. eigenvalues --    0.78076   0.78373   0.78691   0.78907   0.79416
 Alpha virt. eigenvalues --    0.79720   0.79806   0.80352   0.80525   0.80854
 Alpha virt. eigenvalues --    0.81272   0.81516   0.82042   0.82553   0.82673
 Alpha virt. eigenvalues --    0.82970   0.83293   0.83409   0.84064   0.84553
 Alpha virt. eigenvalues --    0.84680   0.85088   0.85247   0.85469   0.85493
 Alpha virt. eigenvalues --    0.86077   0.86230   0.86425   0.86902   0.87056
 Alpha virt. eigenvalues --    0.87159   0.87253   0.87493   0.88210   0.88444
 Alpha virt. eigenvalues --    0.88681   0.88950   0.89199   0.89480   0.90182
 Alpha virt. eigenvalues --    0.90547   0.90623   0.90950   0.91052   0.91135
 Alpha virt. eigenvalues --    0.91476   0.91713   0.91960   0.92121   0.92539
 Alpha virt. eigenvalues --    0.92601   0.93245   0.93376   0.93615   0.94010
 Alpha virt. eigenvalues --    0.94435   0.94654   0.94795   0.95026   0.95654
 Alpha virt. eigenvalues --    0.95788   0.96336   0.96715   0.96762   0.97009
 Alpha virt. eigenvalues --    0.97181   0.97538   0.98201   0.98802   0.98952
 Alpha virt. eigenvalues --    0.99168   0.99920   0.99933   1.00911   1.00976
 Alpha virt. eigenvalues --    1.01604   1.01910   1.02100   1.02370   1.02580
 Alpha virt. eigenvalues --    1.03156   1.03672   1.04421   1.04622   1.05033
 Alpha virt. eigenvalues --    1.05183   1.05885   1.06232   1.06894   1.08057
 Alpha virt. eigenvalues --    1.08414   1.08947   1.09531   1.09985   1.10228
 Alpha virt. eigenvalues --    1.10434   1.11046   1.12024   1.12264   1.12358
 Alpha virt. eigenvalues --    1.13172   1.13518   1.13750   1.14248   1.14569
 Alpha virt. eigenvalues --    1.15039   1.16007   1.16497   1.16892   1.17742
 Alpha virt. eigenvalues --    1.18198   1.18564   1.19962   1.20275   1.20728
 Alpha virt. eigenvalues --    1.21978   1.22411   1.23079   1.24057   1.24537
 Alpha virt. eigenvalues --    1.26793   1.27491   1.28285   1.28303   1.29294
 Alpha virt. eigenvalues --    1.30271   1.31162   1.31572   1.32221   1.33614
 Alpha virt. eigenvalues --    1.34170   1.34469   1.34943   1.35856   1.36174
 Alpha virt. eigenvalues --    1.36603   1.37604   1.38152   1.38636   1.39861
 Alpha virt. eigenvalues --    1.40287   1.40611   1.41336   1.41778   1.42058
 Alpha virt. eigenvalues --    1.42448   1.42948   1.43081   1.45284   1.45375
 Alpha virt. eigenvalues --    1.46110   1.46976   1.47453   1.48289   1.49183
 Alpha virt. eigenvalues --    1.51077   1.51356   1.51534   1.52285   1.52522
 Alpha virt. eigenvalues --    1.53861   1.54783   1.55413   1.56161   1.56388
 Alpha virt. eigenvalues --    1.56733   1.57580   1.58767   1.58995   1.59646
 Alpha virt. eigenvalues --    1.60191   1.60510   1.61862   1.62080   1.62648
 Alpha virt. eigenvalues --    1.63012   1.63370   1.64904   1.66061   1.66504
 Alpha virt. eigenvalues --    1.66544   1.67577   1.68346   1.68819   1.69834
 Alpha virt. eigenvalues --    1.71771   1.72003   1.73467   1.74805   1.75179
 Alpha virt. eigenvalues --    1.77434   1.77861   1.78247   1.79089   1.79613
 Alpha virt. eigenvalues --    1.79847   1.80260   1.81201   1.81485   1.81720
 Alpha virt. eigenvalues --    1.82893   1.83356   1.83610   1.84937   1.84955
 Alpha virt. eigenvalues --    1.85107   1.85727   1.85979   1.86608   1.87168
 Alpha virt. eigenvalues --    1.87294   1.87609   1.87724   1.87980   1.88524
 Alpha virt. eigenvalues --    1.88737   1.89794   1.90187   1.90351   1.91543
 Alpha virt. eigenvalues --    1.91872   1.92109   1.93257   1.93394   1.93774
 Alpha virt. eigenvalues --    1.94057   1.94570   1.94750   1.95226   1.95462
 Alpha virt. eigenvalues --    1.95859   1.96114   1.96590   1.96626   1.97480
 Alpha virt. eigenvalues --    1.97933   1.98295   1.98752   1.98857   1.99337
 Alpha virt. eigenvalues --    1.99680   1.99771   2.00241   2.00576   2.00631
 Alpha virt. eigenvalues --    2.01108   2.01254   2.02069   2.02765   2.03052
 Alpha virt. eigenvalues --    2.03431   2.03724   2.04009   2.04459   2.05563
 Alpha virt. eigenvalues --    2.05681   2.06075   2.06667   2.07099   2.07724
 Alpha virt. eigenvalues --    2.07870   2.08215   2.08580   2.09105   2.09803
 Alpha virt. eigenvalues --    2.10026   2.10120   2.10646   2.10922   2.11192
 Alpha virt. eigenvalues --    2.11941   2.12239   2.12448   2.12717   2.13042
 Alpha virt. eigenvalues --    2.13915   2.13995   2.14433   2.15013   2.15073
 Alpha virt. eigenvalues --    2.15307   2.15774   2.15938   2.16313   2.16538
 Alpha virt. eigenvalues --    2.17156   2.17276   2.17504   2.17963   2.18286
 Alpha virt. eigenvalues --    2.18519   2.18997   2.19603   2.20272   2.20954
 Alpha virt. eigenvalues --    2.21094   2.21533   2.22074   2.22467   2.22778
 Alpha virt. eigenvalues --    2.23248   2.23511   2.23722   2.24130   2.24621
 Alpha virt. eigenvalues --    2.25460   2.25826   2.26265   2.26348   2.27220
 Alpha virt. eigenvalues --    2.27630   2.28584   2.28768   2.29937   2.30441
 Alpha virt. eigenvalues --    2.31236   2.31602   2.32316   2.32930   2.33095
 Alpha virt. eigenvalues --    2.33975   2.34128   2.35177   2.35553   2.36073
 Alpha virt. eigenvalues --    2.36698   2.37201   2.37660   2.38020   2.38041
 Alpha virt. eigenvalues --    2.38609   2.38943   2.39578   2.39832   2.40266
 Alpha virt. eigenvalues --    2.41028   2.41292   2.42256   2.42618   2.42846
 Alpha virt. eigenvalues --    2.43895   2.44618   2.45239   2.45416   2.45620
 Alpha virt. eigenvalues --    2.46339   2.46569   2.46774   2.46875   2.46966
 Alpha virt. eigenvalues --    2.47441   2.48327   2.48691   2.48953   2.49195
 Alpha virt. eigenvalues --    2.49763   2.50037   2.50721   2.51505   2.51650
 Alpha virt. eigenvalues --    2.52676   2.52989   2.53429   2.53816   2.55065
 Alpha virt. eigenvalues --    2.55650   2.55988   2.56943   2.57234   2.57642
 Alpha virt. eigenvalues --    2.57737   2.58252   2.58327   2.59667   2.60307
 Alpha virt. eigenvalues --    2.60483   2.60693   2.61090   2.61265   2.61805
 Alpha virt. eigenvalues --    2.61991   2.63015   2.63484   2.63903   2.64494
 Alpha virt. eigenvalues --    2.64771   2.65420   2.66118   2.66650   2.67319
 Alpha virt. eigenvalues --    2.67661   2.67880   2.68102   2.68819   2.69081
 Alpha virt. eigenvalues --    2.69172   2.69479   2.70055   2.70584   2.70685
 Alpha virt. eigenvalues --    2.71566   2.71862   2.72149   2.72321   2.72778
 Alpha virt. eigenvalues --    2.73222   2.73617   2.73952   2.74536   2.74841
 Alpha virt. eigenvalues --    2.75079   2.75680   2.75961   2.76197   2.76622
 Alpha virt. eigenvalues --    2.77285   2.78121   2.78539   2.79105   2.79452
 Alpha virt. eigenvalues --    2.79943   2.80361   2.80738   2.81350   2.81638
 Alpha virt. eigenvalues --    2.82233   2.82380   2.83016   2.84031   2.84253
 Alpha virt. eigenvalues --    2.84795   2.85090   2.85475   2.86034   2.86769
 Alpha virt. eigenvalues --    2.87654   2.87787   2.87803   2.88647   2.89141
 Alpha virt. eigenvalues --    2.89900   2.90795   2.91108   2.91756   2.92307
 Alpha virt. eigenvalues --    2.93032   2.93729   2.94621   2.95029   2.95407
 Alpha virt. eigenvalues --    2.95735   2.96814   2.97062   2.98395   2.99140
 Alpha virt. eigenvalues --    2.99459   2.99546   3.00568   3.01854   3.02243
 Alpha virt. eigenvalues --    3.02315   3.02924   3.03361   3.04165   3.04645
 Alpha virt. eigenvalues --    3.06726   3.07366   3.07796   3.09833   3.10639
 Alpha virt. eigenvalues --    3.10974   3.11476   3.12394   3.12678   3.13845
 Alpha virt. eigenvalues --    3.15311   3.15774   3.17305   3.17614   3.18074
 Alpha virt. eigenvalues --    3.18862   3.19489   3.20496   3.21985   3.23727
 Alpha virt. eigenvalues --    3.24452   3.25416   3.26135   3.26776   3.26935
 Alpha virt. eigenvalues --    3.28454   3.29089   3.31730   3.32048   3.32697
 Alpha virt. eigenvalues --    3.34147   3.34435   3.35942   3.38048   3.38950
 Alpha virt. eigenvalues --    3.39196   3.39545   3.39993   3.40771   3.42415
 Alpha virt. eigenvalues --    3.43271   3.43418   3.43572   3.45420   3.46211
 Alpha virt. eigenvalues --    3.46778   3.48161   3.49605   3.51219   3.51758
 Alpha virt. eigenvalues --    3.52006   3.53212   3.54253   3.55046   3.55756
 Alpha virt. eigenvalues --    3.55973   3.57029   3.57433   3.60922   3.62114
 Alpha virt. eigenvalues --    3.62226   3.64180   3.65450   3.68493   3.69110
 Alpha virt. eigenvalues --    3.73077   3.74594   3.77343   3.78218   3.78357
 Alpha virt. eigenvalues --    3.88646   3.89257   4.11097   4.12831   4.18805
 Alpha virt. eigenvalues --    4.20363   4.20410   4.21071   4.23607   4.24806
 Alpha virt. eigenvalues --    4.27648   4.28344   4.28727   4.31373   4.34811
 Alpha virt. eigenvalues --    4.37795   4.39546   4.40449   4.42360   4.44551
 Alpha virt. eigenvalues --    4.46336   4.46697   4.49120   4.52432   4.53559
 Alpha virt. eigenvalues --    4.54938   4.56068   4.56825   4.58569   4.60731
 Alpha virt. eigenvalues --    4.62363   4.64191   4.66174   4.68221   4.69712
 Alpha virt. eigenvalues --    4.72722   4.76639   4.78594   4.79726   4.83621
 Alpha virt. eigenvalues --    4.85718   4.88006   4.89317   4.90497
          Condensed to atoms (all electrons):
 Mulliken charges:
               1
     1  O   -0.579850
     2  O   -0.565114
     3  C   -0.021043
     4  C   -0.072380
     5  C   -0.195346
     6  C   -0.163168
     7  C    0.222068
     8  C    0.172904
     9  C    0.016066
    10  C    0.129147
    11  C   -0.208070
    12  C   -0.196466
    13  C    0.044545
    14  C    0.031784
    15  C   -0.295496
    16  C   -0.274865
    17  C   -0.273320
    18  C   -0.285768
    19  C   -0.084252
    20  C   -0.160630
    21  C   -0.352720
    22  C   -0.358431
    23  C   -0.081947
    24  C   -0.085228
    25  C    0.060682
    26  C    0.108117
    27  C   -0.372146
    28  C   -0.377375
    29  C   -0.092817
    30  C   -0.122762
    31  C   -0.056388
    32  C   -0.099530
    33  C   -0.144902
    34  C   -0.102581
    35  C    0.159176
    36  C    0.118687
    37  C   -0.401410
    38  C   -0.371453
    39  C   -0.138892
    40  C   -0.136624
    41  C   -0.077170
    42  C   -0.078527
    43  H    0.069873
    44  H    0.079399
    45  H    0.082745
    46  H    0.090147
    47  H    0.067839
    48  H    0.032352
    49  H    0.114791
    50  H    0.107388
    51  H    0.088594
    52  H    0.105672
    53  H    0.101890
    54  H    0.088024
    55  H    0.116635
    56  H    0.093684
    57  H    0.091089
    58  H    0.117827
    59  H    0.086656
    60  H    0.102040
    61  H    0.087429
    62  H    0.104829
    63  H    0.090335
    64  H    0.105414
    65  H    0.070428
    66  H    0.074470
    67  H    0.124363
    68  H    0.119336
    69  H    0.085748
    70  H    0.089416
    71  H    0.123057
    72  H    0.125183
    73  H    0.306227
    74  H    0.312792
    75  H    0.070432
    76  H    0.078390
    77  H    0.099761
    78  H    0.091856
    79  H    0.123497
    80  H    0.105185
    81  H    0.138700
    82  H    0.115197
    83  H    0.077873
    84  H    0.085387
    85  H    0.079823
    86  H    0.072624
    87  H    0.081013
    88  H    0.074022
    89  H    0.111469
    90  H    0.109918
    91  H    0.114080
    92  H    0.135878
    93  H    0.123779
    94  H    0.082833
    95  H    0.077312
    96  H    0.085621
    97  H    0.092495
    98  H    0.080681
 Sum of Mulliken charges =  -0.00000
 Mulliken charges with hydrogens summed into heavy atoms:
               1
     1  O   -0.273623
     2  O   -0.252322
     3  C   -0.021043
     4  C   -0.072380
     5  C   -0.046074
     6  C    0.009724
     7  C    0.289907
     8  C    0.205256
     9  C    0.016066
    10  C    0.129147
    11  C    0.014109
    12  C   -0.002201
    13  C    0.044545
    14  C    0.031784
    15  C    0.011053
    16  C    0.027735
    17  C    0.002806
    18  C    0.014809
    19  C   -0.013824
    20  C   -0.086161
    21  C   -0.023272
    22  C   -0.020776
    23  C   -0.011515
    24  C   -0.006838
    25  C    0.060682
    26  C    0.108117
    27  C   -0.057033
    28  C   -0.018292
    29  C   -0.014943
    30  C   -0.037375
    31  C    0.023435
    32  C   -0.026907
    33  C   -0.063889
    34  C   -0.028559
    35  C    0.159176
    36  C    0.118687
    37  C   -0.065943
    38  C   -0.028964
    39  C   -0.061579
    40  C   -0.051003
    41  C    0.015325
    42  C    0.002155
 Electronic spatial extent (au):  <R**2>=         110798.5545
 Charge=             -0.0000 electrons
 Dipole moment (field-independent basis, Debye):
    X=              0.8562    Y=             -1.0585    Z=              1.6460  Tot=              2.1361
 Quadrupole moment (field-independent basis, Debye-Ang):
   XX=           -281.6911   YY=           -242.9810   ZZ=           -261.4894
   XY=              7.8281   XZ=              0.8151   YZ=              1.1780
 Traceless Quadrupole moment (field-independent basis, Debye-Ang):
   XX=            -19.6373   YY=             19.0729   ZZ=              0.5644
   XY=              7.8281   XZ=              0.8151   YZ=              1.1780
 Octapole moment (field-independent basis, Debye-Ang**2):
  XXX=           -107.9881  YYY=              0.7546  ZZZ=             16.8559  XYY=            103.7455
  XXY=           -272.1609  XXZ=            455.3193  XZZ=            -36.4091  YZZ=             -2.6859
  YYZ=             18.9862  XYZ=            -76.5268
 Hexadecapole moment (field-independent basis, Debye-Ang**3):
 XXXX=        -157394.8419 YYYY=          -4837.9255 ZZZZ=          -1565.6982 XXXY=           1865.8075
 XXXZ=           -955.7403 YYYX=           -328.3496 YYYZ=             -9.6088 ZZZX=           -240.7276
 ZZZY=             45.0928 XXYY=         -24000.8094 XXZZ=         -23601.7982 YYZZ=          -1095.6600
 XXYZ=           -463.7124 YYXZ=            216.5343 ZZXY=           -304.2478
 N-N= 3.977164298910D+03 E-N=-1.190873905325D+04  KE= 1.689587861845D+03
 1\1\GINC-RYZEN-SSD1\SP\RCAM-B3LYP TD-FC\6-31G(d,p)\C40H56O2\PADAWAN\18
 -Jul-2019\0\\# td=(NStates=1) CAM-B3LYP/6-31G(d,p)\\TD\\0,1\O,0,14.641
 919717,-2.258548788,-0.1676436874\O,0,-14.7661816822,1.839759281,1.089
 0584368\C,0,11.1477371197,-1.5905716093,1.0186280238\C,0,-12.331018265
 8,-1.0700186198,0.5453581798\C,0,12.6420377698,-1.9231516113,1.0058054
 725\C,0,-13.7251492339,-0.3220002199,0.6890317152\C,0,13.31520956,-1.8
 305053726,-0.3007936244\C,0,-13.5432336164,1.1274714082,0.9531465657\C
 ,0,10.9349428213,-0.2448921162,0.0408807951\C,0,-11.2546318272,-0.2357
 945864,-0.0848961656\C,0,13.3317336644,-0.4588643715,-0.7893816922\C,0
 ,-12.7019126293,1.8322762347,-0.0628456376\C,0,11.9513310021,0.0984102
 239,-0.874700113\C,0,-11.4809086859,1.0182884579,-0.5034923452\C,0,10.
 7374047815,-1.142569698,2.4532187059\C,0,10.2797085909,-2.6900867767,0
 .562979688\C,0,-11.8203938454,-1.4795076427,1.9975558866\C,0,-12.72829
 93249,-2.4615573776,-0.1698257206\C,0,9.6807733183,0.3480337564,0.1221
 161716\C,0,-10.0588814601,-0.9962823701,-0.4577470597\C,0,11.778573737
 4,1.2182369976,-1.8883008201\C,0,-10.5885271407,1.8676462417,-1.419898
 8799\C,0,9.3836622712,1.6053467777,0.1095075908\C,0,-8.7532067177,-0.4
 515871076,-0.4376988719\C,0,8.0443535404,2.2221882018,0.1657273477\C,0
 ,-7.5615541894,-1.2400423321,-0.6271888879\C,0,8.0246442484,3.70536939
 19,0.5019743814\C,0,-7.7114194389,-2.615691146,-0.9906877538\C,0,6.836
 3936104,1.5291418552,-0.1064531303\C,0,-6.369189616,-0.5145397159,-0.4
 664155666\C,0,5.6367643904,2.0813423722,0.0490218712\C,0,-5.0959581418
 ,-1.0243395069,-0.6042172997\C,0,4.4462234083,1.3251587099,-0.17556964
 2\C,0,-3.9092322202,-0.2886310871,-0.4776305781\C,0,3.1844859396,1.743
 0886999,0.0019943154\C,0,-2.6238078368,-0.7917792569,-0.5593742924\C,0
 ,2.8266642334,3.1678444764,0.2737650345\C,0,-2.4490736754,-2.195573049
 3,-0.7371549415\C,0,2.10880997,0.8293549995,-0.0393946195\C,0,-1.55135
 70957,0.1819960886,-0.3324972007\C,0,0.7238192109,1.072480062,-0.02965
 16372\C,0,-0.1762574957,0.0149538954,-0.1760785779\H,0,13.2593045105,-
 1.1787112812,1.7687125603\H,0,12.6104845475,-2.8521884329,1.5281705011
 \H,0,-14.2233253055,-0.8717946214,1.5247033913\H,0,-14.4855220472,-0.2
 932972016,-0.2062424802\H,0,12.7365346605,-2.5516644735,-0.9724278008\
 H,0,-12.8215025823,1.3198059627,1.9682745615\H,0,14.0131258996,0.10578
 31562,-0.046799861\H,0,13.9176173187,-0.3839837555,-1.7570784388\H,0,-
 13.252370446,1.9005751176,-1.1430170447\H,0,-12.5592919022,2.950280048
 1,0.3065716932\H,0,11.0392866177,-1.7997384028,3.0828429803\H,0,9.5950
 678338,-1.1410038994,2.5901257676\H,0,11.1737411161,-0.2719560627,2.70
 86942554\H,0,10.6308293459,-2.9196767417,-0.5398706701\H,0,10.40215921
 88,-3.4392725703,1.4119206321\H,0,9.3352508421,-2.4090722152,0.5094776
 688\H,0,-11.5079424802,-0.4664391378,2.6881691139\H,0,-10.9389167307,-
 2.0770702509,1.7080245865\H,0,-12.586609554,-2.233970817,2.4596265427\
 H,0,-13.6665771067,-2.8849571916,0.3347316042\H,0,-11.7105062856,-3.01
 53381227,-0.1423613381\H,0,-13.1801458736,-2.2101302049,-1.2047932213\
 H,0,8.7455664596,-0.3733517462,0.0724243634\H,0,-10.0875335184,-2.0848
 955535,-0.4504988519\H,0,10.784689761,1.5819228623,-2.2608981488\H,0,1
 2.1364394729,2.1162525682,-1.2752431323\H,0,12.4276244324,0.8879196469
 ,-2.8904517342\H,0,-11.1894433453,2.6496305272,-2.1529060116\H,0,-9.90
 34463226,1.246518671,-2.0027762446\H,0,-10.0222564096,2.4903816923,-0.
 7351266687\H,0,14.7137505031,-3.1080261297,0.5570339834\H,0,-15.129317
 6248,1.721229423,2.0738884848\H,0,10.1260185209,2.2889758056,0.0184686
 719\H,0,-8.7026049965,0.5698215833,-0.3204226683\H,0,9.0551532023,4.25
 58989719,0.4252383648\H,0,7.4114075278,4.6349783588,-0.0936557116\H,0,
 7.7007593359,3.7721482828,1.6088777258\H,0,-8.0898017742,-3.4399186498
 ,-0.2062859176\H,0,-8.3714315142,-2.6531153144,-1.7707289619\H,0,-6.85
 16709391,-2.9478993298,-1.4072561596\H,0,7.042410096,0.5133045455,-0.3
 718250575\H,0,-6.3701439904,0.615509046,-0.4204571707\H,0,5.3921969247
 ,3.0577914511,0.2853650455\H,0,-4.9678672577,-2.0708547635,-0.88287443
 74\H,0,4.6832315162,0.34893964,-0.5490769757\H,0,-4.1077021742,0.66684
 60566,-0.110399759\H,0,3.2325688849,3.4743493249,1.3266459056\H,0,1.77
 22354845,3.8317241544,0.1673213341\H,0,3.5531506951,3.8195485799,-0.25
 70687649\H,0,-3.0444655616,-2.7341257046,-0.0701546805\H,0,-2.67423613
 66,-2.5132883908,-1.809129655\H,0,-1.1876291479,-2.2509126413,-0.75351
 38944\H,0,2.5447458376,-0.1732206031,-0.0973259446\H,0,-1.853499973,1.
 2412723712,-0.3934332503\H,0,0.2665569547,2.0690923362,0.1571977298\H,
 0,0.3669184768,-1.0101011741,-0.4514068147\\Version=ES64L-G16RevA.03\S
 tate=1-A\HF=-1706.9276462\RMSD=9.782e-09\PG=C01 [X(C40H56O2)]\\@


 WOMEN HOLD UP HALF THE SKY. -- MAO TSE TUNG
 Job cpu time:       0 days  8 hours 15 minutes  2.4 seconds.
 Elapsed time:       0 days  2 hours  4 minutes 34.3 seconds.
 File lengths (MBytes):  RWF=   3127 Int=      0 D2E=      0 Chk=     84 Scr=      1
 Normal termination of Gaussian 16 at Thu Jul 18 05:57:59 2019.
