 Entering Gaussian System, Link 0=g16
 Input=Geometria-30-.com
 Output=Geometria-30-.log
 Initial command:
 /usr/local/g16/l1.exe "/home/padawan/israel-mol/zeaxanthin/spectra/emi/Gau-102324.inp" -scrdir="/home/padawan/israel-mol/zeaxanthin/spectra/emi/"
 Entering Link 1 = /usr/local/g16/l1.exe PID=    102326.
  
 Copyright (c) 1988,1990,1992,1993,1995,1998,2003,2009,2016,
            Gaussian, Inc.  All Rights Reserved.
  
 This is part of the Gaussian(R) 16 program.  It is based on
 the Gaussian(R) 09 system (copyright 2009, Gaussian, Inc.),
 the Gaussian(R) 03 system (copyright 2003, Gaussian, Inc.),
 the Gaussian(R) 98 system (copyright 1998, Gaussian, Inc.),
 the Gaussian(R) 94 system (copyright 1995, Gaussian, Inc.),
 the Gaussian 92(TM) system (copyright 1992, Gaussian, Inc.),
 the Gaussian 90(TM) system (copyright 1990, Gaussian, Inc.),
 the Gaussian 88(TM) system (copyright 1988, Gaussian, Inc.),
 the Gaussian 86(TM) system (copyright 1986, Carnegie Mellon
 University), and the Gaussian 82(TM) system (copyright 1983,
 Carnegie Mellon University). Gaussian is a federally registered
 trademark of Gaussian, Inc.
  
 This software contains proprietary and confidential information,
 including trade secrets, belonging to Gaussian, Inc.
  
 This software is provided under written license and may be
 used, copied, transmitted, or stored only in accord with that
 written license.
  
 The following legend is applicable only to US Government
 contracts under FAR:
  
                    RESTRICTED RIGHTS LEGEND
  
 Use, reproduction and disclosure by the US Government is
 subject to restrictions as set forth in subparagraphs (a)
 and (c) of the Commercial Computer Software - Restricted
 Rights clause in FAR 52.227-19.
  
 Gaussian, Inc.
 340 Quinnipiac St., Bldg. 40, Wallingford CT 06492
  
  
 ---------------------------------------------------------------
 Warning -- This program may not be used in any manner that
 competes with the business of Gaussian, Inc. or will provide
 assistance to any competitor of Gaussian, Inc.  The licensee
 of this program is prohibited from giving any competitor of
 Gaussian, Inc. access to this program.  By using this program,
 the user acknowledges that Gaussian, Inc. is engaged in the
 business of creating and licensing software in the field of
 computational chemistry and represents and warrants to the
 licensee that it is not a competitor of Gaussian, Inc. and that
 it will not use this program in any manner prohibited above.
 ---------------------------------------------------------------
  

 Cite this work as:
 Gaussian 16, Revision A.03,
 M. J. Frisch, G. W. Trucks, H. B. Schlegel, G. E. Scuseria, 
 M. A. Robb, J. R. Cheeseman, G. Scalmani, V. Barone, 
 G. A. Petersson, H. Nakatsuji, X. Li, M. Caricato, A. V. Marenich, 
 J. Bloino, B. G. Janesko, R. Gomperts, B. Mennucci, H. P. Hratchian, 
 J. V. Ortiz, A. F. Izmaylov, J. L. Sonnenberg, D. Williams-Young, 
 F. Ding, F. Lipparini, F. Egidi, J. Goings, B. Peng, A. Petrone, 
 T. Henderson, D. Ranasinghe, V. G. Zakrzewski, J. Gao, N. Rega, 
 G. Zheng, W. Liang, M. Hada, M. Ehara, K. Toyota, R. Fukuda, 
 J. Hasegawa, M. Ishida, T. Nakajima, Y. Honda, O. Kitao, H. Nakai, 
 T. Vreven, K. Throssell, J. A. Montgomery, Jr., J. E. Peralta, 
 F. Ogliaro, M. J. Bearpark, J. J. Heyd, E. N. Brothers, K. N. Kudin, 
 V. N. Staroverov, T. A. Keith, R. Kobayashi, J. Normand, 
 K. Raghavachari, A. P. Rendell, J. C. Burant, S. S. Iyengar, 
 J. Tomasi, M. Cossi, J. M. Millam, M. Klene, C. Adamo, R. Cammi, 
 J. W. Ochterski, R. L. Martin, K. Morokuma, O. Farkas, 
 J. B. Foresman, and D. J. Fox, Gaussian, Inc., Wallingford CT, 2016.
 
 ******************************************
 Gaussian 16:  ES64L-G16RevA.03 25-Dec-2016
                 9-Jul-2019 
 ******************************************
 %nproc=4
 Will use up to    4 processors via shared memory.
 %Mem=2GB
 -------------------------------------
 # td=(NStates=1) CAM-B3LYP/6-31G(d,p)
 -------------------------------------
 1/38=1,172=1/1;
 2/12=2,17=6,18=5,40=1/2;
 3/5=1,6=6,7=101,11=9,25=1,30=1,74=-40/1,2,3,8;
 4//1;
 5/5=2,38=5/2;
 8/6=1,10=2,108=1/1;
 9/41=1,42=1,70=2/14;
 6/7=2,8=2,9=2,10=2/1;
 99/5=1,9=1/99;
 --
 TD
 --
 Symbolic Z-matrix:
 Charge =  0 Multiplicity = 1
 8                     14.65192  -2.27185  -0.2595 
 8                    -14.71302   1.88888   1.13831 
 6                     11.15603  -1.33631   1.10587 
 6                    -12.37886  -1.03993   0.52648 
 6                     12.67833  -1.78105   1.06728 
 6                    -13.65267  -0.2954    0.55024 
 6                     13.19837  -1.98978  -0.33274 
 6                    -13.40541   1.12757   0.95179 
 6                     10.9705  -0.24285   0.00687 
 6                    -11.21358  -0.166    -0.21623 
 6                     13.16473  -0.69249  -1.06714 
 6                    -12.65173   1.90898  -0.18804 
 6                     11.82724   0.0306   -1.00899 
 6                    -11.40702   1.07144  -0.66477 
 6                     10.81412  -0.94007   2.58303 
 6                     10.34598  -2.5476    0.66269 
 6                    -11.85617  -1.35185   1.93241 
 6                    -12.62324  -2.37344  -0.24882 
 6                     9.64094   0.52552   0.0961 
 6                    -9.91296  -0.9405   -0.46923 
 6                     11.45855   1.12952  -2.03733 
 6                    -10.52588   1.91869  -1.41045 
 6                     9.41048   1.72575  -0.05365 
 6                    -8.65975  -0.53457  -0.37467 
 6                     8.01175   2.29822   0.12096 
 6                    -7.55682  -1.2951   -0.62035 
 6                     7.9434    3.85347   0.36052 
 6                    -7.68627  -2.71061  -1.02821 
 6                     6.97364   1.50453  -0.0063 
 6                    -6.44671  -0.62334  -0.32834 
 6                     5.6133    2.01259   0.1935 
 6                    -5.12743  -1.12997  -0.44567 
 6                     4.48548   1.24507   0.06903 
 6                    -3.92641  -0.29165  -0.40042 
 6                     3.17908   1.66926   0.2215 
 6                    -2.63147  -0.76657  -0.46478 
 6                     2.82521   3.07692   0.77302 
 6                    -2.39622  -2.15834  -0.96035 
 6                     2.04797   0.73685  -0.0207 
 6                    -1.58874   0.07741  -0.27344 
 6                     0.79025   0.93908  -0.03745 
 6                    -0.1806   -0.1114   -0.33062 
 1                     13.22811  -0.93803   1.53303 
 1                     12.89402  -2.65593   1.60696 
 1                    -14.32776  -0.77655   1.14639 
 1                    -14.12354  -0.39924  -0.48979 
 1                     12.61342  -2.69749  -1.05022 
 1                    -12.81543   1.19891   1.86539 
 1                     13.82105   0.22247  -0.59633 
 1                     13.37975  -0.87429  -2.21862 
 1                    -13.36957   2.08106  -1.09462 
 1                    -12.50701   2.87113   0.50446 
 1                     11.04849  -1.68038   3.36447 
 1                     9.67106  -0.73533   2.43976 
 1                     11.24461   0.02018   2.85612 
 1                     10.04483  -2.55285  -0.49315 
 1                     10.92169  -3.63758   1.10396 
 1                     9.22164  -2.56152   1.24566 
 1                    -11.55137  -0.48697   2.62306 
 1                    -10.92815  -1.98061   1.74885 
 1                    -12.73854  -1.8693    2.39766 
 1                    -13.45031  -3.10755   0.13793 
 1                    -11.72944  -3.0799   -0.45554 
 1                    -12.87449  -2.10528  -1.37135 
 1                     8.86489  -0.11676   0.59857 
 1                    -10.23111  -2.00871  -0.69215 
 1                     10.29369   1.4031   -2.13088 
 1                     12.02834   1.92154  -1.82247 
 1                     11.60453   0.95809  -3.2426 
 1                    -11.16683   2.52076  -2.07413 
 1                    -9.89789   1.35629  -2.01271 
 1                    -9.8203    2.43522  -0.54264 
 1                     14.63881  -3.15132   0.39442 
 1                    -15.11924   1.45921   1.98005 
 1                     10.27972   2.39121  -0.3472 
 1                    -8.65998   0.52364   0.24583 
 1                     8.89802   4.31447   0.39948 
 1                     7.04305   4.09391  -0.29019 
 1                     7.46622   4.04678   1.35403 
 1                    -8.39731  -3.14732  -0.22826 
 1                    -8.17649  -2.60471  -2.04017 
 1                    -6.63404  -3.01508  -1.23103 
 1                     7.03654   0.59126  -0.41423 
 1                    -6.6955    0.48099   0.27881 
 1                     5.54769   3.00321   0.56041 
 1                    -4.98495  -2.29478  -0.86225 
 1                     4.75387   0.2738   -0.2735 
 1                    -3.99952   0.58779   0.2595 
 1                     3.08206   3.10523   1.83373 
 1                     1.84271   3.29354   0.82648 
 1                     3.45413   3.85274   0.3097 
 1                    -2.77349  -2.78423  -0.10128 
 1                    -3.00501  -2.37669  -1.83907 
 1                    -1.22006  -2.33961  -0.99802 
 1                     2.41936  -0.34182  -0.07675 
 1                    -1.94688   1.17006  -0.21154 
 1                     0.39325   1.94779   0.20474 
 1                     0.3834   -1.16597  -0.44178 
 
 Stoichiometry    C40H56O2
 Framework group  C1[X(C40H56O2)]
 Deg. of freedom   288
 Full point group                 C1      NOp   1
 Largest Abelian subgroup         C1      NOp   1
 Largest concise Abelian subgroup C1      NOp   1
                         Standard orientation:                         
 ---------------------------------------------------------------------
 Center     Atomic      Atomic             Coordinates (Angstroms)
 Number     Number       Type             X           Y           Z
 ---------------------------------------------------------------------
      1          8           0       14.654371   -2.288914   -0.221841
      2          8           0      -14.707095    1.919378    1.104717
      3          6           0       11.159839   -1.322792    1.125600
      4          6           0      -12.375173   -1.023092    0.552855
      5          6           0       12.681833   -1.769242    1.095480
      6          6           0      -13.648487   -0.277393    0.561766
      7          6           0       13.200960   -2.007479   -0.300159
      8          6           0      -13.400084    1.153481    0.933408
      9          6           0       10.974406   -0.252381    0.004129
     10          6           0      -11.209734   -0.165614   -0.208550
     11          6           0       13.167751   -0.725766   -1.061448
     12          6           0      -12.646528    1.910449   -0.222877
     13          6           0       11.830762   -0.000740   -1.017678
     14          6           0      -11.402626    1.062328   -0.682703
     15          6           0       10.819007   -0.895600    2.594362
     16          6           0       10.348759   -2.542537    0.708227
     17          6           0      -11.851901   -1.305966    1.964707
     18          6           0      -12.620839   -2.372328   -0.194325
     19          6           0        9.645395    0.518561    0.078033
     20          6           0       -9.909754   -0.946078   -0.446038
     21          6           0       11.462216    1.076724   -2.068513
     22          6           0      -10.521352    1.893255   -1.446371
     23          6           0        9.415633    1.715554   -0.096601
     24          6           0       -8.656230   -0.539086   -0.360648
     25          6           0        8.017365    2.292459    0.066784
     26          6           0       -7.553934   -1.305303   -0.590999
     27          6           0        7.950148    3.852421    0.273881
     28          6           0       -7.684518   -2.728931   -0.969173
     29          6           0        6.978670    1.496973   -0.043336
     30          6           0       -6.443223   -0.628330   -0.313670
     31          6           0        5.618774    2.009981    0.146555
     32          6           0       -5.124339   -1.138164   -0.421117
     33          6           0        4.490385    1.240778    0.038741
     34          6           0       -3.922756   -0.299873   -0.394015
     35          6           0        3.184342    1.668915    0.183025
     36          6           0       -2.628154   -0.776879   -0.449154
     37          6           0        2.831695    3.088001    0.705258
     38          6           0       -2.394077   -2.178842   -0.915700
     39          6           0        2.052504    0.732394   -0.039058
     40          6           0       -1.584775    0.070216   -0.276022
     41          6           0        0.794898    0.935058   -0.059345
     42          6           0       -0.176786   -0.120666   -0.330013
     43          1           0       13.232415   -0.917050    1.543242
     44          1           0       12.897258   -2.632816    1.653175
     45          1           0      -14.323551   -0.745555    1.168186
     46          1           0      -14.119993   -0.402598   -0.475616
     47          1           0       12.615161   -2.729615   -1.002402
     48          1           0      -12.809554    1.243479    1.845010
     49          1           0       13.824922    0.198387   -0.610188
     50          1           0       13.382023   -0.931695   -2.209006
     51          1           0      -13.364762    2.064050   -1.132466
     52          1           0      -12.500802    2.886739    0.449321
     53          1           0       11.053326   -1.619598    3.390949
     54          1           0        9.675993   -0.693146    2.447468
     55          1           0       11.250264    0.069857    2.847124
     56          1           0       10.046972   -2.571698   -0.447085
     57          1           0       10.924015   -3.623452    1.171830
     58          1           0        9.224737   -2.543548    1.291969
     59          1           0      -11.546159   -0.427063    2.637002
     60          1           0      -10.924387   -1.939025    1.793802
     61          1           0      -12.734355   -1.813017    2.441128
     62          1           0      -13.448165   -3.097666    0.208108
     63          1           0      -11.727609   -3.083540   -0.386743
     64          1           0      -12.872533   -2.127480   -1.322065
     65          1           0        8.869207   -0.112584    0.594205
     66          1           0      -10.228718   -2.018497   -0.646458
     67          1           0       10.297481    1.349066   -2.167121
     68          1           0       12.032634    1.872685   -1.870533
     69          1           0       11.607419    0.880090   -3.270024
     70          1           0      -11.162280    2.481766   -2.122121
     71          1           0       -9.894053    1.317999   -2.037105
     72          1           0       -9.814953    2.427308   -0.589906
     73          1           0       14.641057   -3.154542    0.450291
     74          1           0      -15.113127    1.507628    1.955453
     75          1           0       10.285139    2.374171   -0.404439
     76          1           0       -8.655437    0.531831    0.237647
     77          1           0        8.905089    4.313506    0.302695
     78          1           0        7.049599    4.079826   -0.381214
     79          1           0        7.473643    4.066720    1.263401
     80          1           0       -8.395402   -3.148389   -0.159900
     81          1           0       -8.175234   -2.643843   -1.982852
     82          1           0       -6.632599   -3.038253   -1.166162
     83          1           0        7.040756    0.575353   -0.432154
     84          1           0       -6.690963    0.488586    0.270448
     85          1           0        5.554007    3.008083    0.492761
     86          1           0       -4.982840   -2.311502   -0.813383
     87          1           0        4.757959    0.262399   -0.283600
     88          1           0       -3.994930    0.593190    0.247454
     89          1           0        3.089150    3.138271    1.765000
     90          1           0        1.849363    3.306340    0.754710
     91          1           0        3.460856    3.853580    0.225507
     92          1           0       -2.771276   -2.786427   -0.043557
     93          1           0       -3.003494   -2.415081   -1.789351
     94          1           0       -1.218059   -2.361633   -0.950216
     95          1           0        2.423166   -0.347448   -0.072795
     96          1           0       -1.942173    1.164154   -0.236731
     97          1           0        0.398687    1.948865    0.161968
     98          1           0        0.386469   -1.177694   -0.419445
 ---------------------------------------------------------------------
 Rotational constants (GHZ):           0.2420270           0.0093899           0.0091951
 Standard basis: 6-31G(d,p) (6D, 7F)
 There are   910 symmetry adapted cartesian basis functions of A   symmetry.
 There are   910 symmetry adapted basis functions of A   symmetry.
   910 basis functions,  1568 primitive gaussians,   910 cartesian basis functions
   156 alpha electrons      156 beta electrons
       nuclear repulsion energy      3978.6862495438 Hartrees.
 NAtoms=   98 NActive=   98 NUniq=   98 SFac= 1.00D+00 NAtFMM=   60 NAOKFM=T Big=T
 Integral buffers will be    131072 words long.
 Raffenetti 1 integral format.
 Two-electron integral symmetry is turned on.
 One-electron integrals computed using PRISM.
 NBasis=   910 RedAO= T EigKep=  7.71D-04  NBF=   910
 NBsUse=   910 1.00D-06 EigRej= -1.00D+00 NBFU=   910
 ExpMin= 1.61D-01 ExpMax= 5.48D+03 ExpMxC= 8.25D+02 IAcc=3 IRadAn=         5 AccDes= 0.00D+00
 Harris functional with IExCor=20419 and IRadAn=       5 diagonalized for initial guess.
 HarFok:  IExCor=20419 AccDes= 0.00D+00 IRadAn=         5 IDoV= 1 UseB2=F ITyADJ=14
 ICtDFT=  3500011 ScaDFX=  1.000000  1.000000  1.000000  1.000000
 FoFCou: FMM=F IPFlag=           0 FMFlag=      100000 FMFlg1=        2001
         NFxFlg=           0 DoJE=T BraDBF=F KetDBF=T FulRan=T
         wScrn=  0.000000 ICntrl=       500 IOpCl=  0 I1Cent=   200000004 NGrid=           0
         NMat0=    1 NMatS0=      1 NMatT0=    0 NMatD0=    1 NMtDS0=    0 NMtDT0=    0
 Petite list used in FoFCou.
 Requested convergence on RMS density matrix=1.00D-08 within 128 cycles.
 Requested convergence on MAX density matrix=1.00D-06.
 Requested convergence on             energy=1.00D-06.
 No special actions if energy rises.
 Integral accuracy reduced to 1.0D-05 until final iterations.
 Initial convergence to 1.0D-05 achieved.  Increase integral accuracy.
 SCF Done:  E(RCAM-B3LYP) =  -1706.88874975     A.U. after   15 cycles
            NFock= 15  Conv=0.77D-08     -V/T= 2.0106
 DoSCS=F DFT=T ScalE2(SS,OS)=  1.000000  1.000000
 ExpMin= 1.61D-01 ExpMax= 5.48D+03 ExpMxC= 8.25D+02 IAcc=3 IRadAn=         5 AccDes= 0.00D+00
 HarFok:  IExCor=  205 AccDes= 0.00D+00 IRadAn=         5 IDoV=-2 UseB2=F ITyADJ=14
 ICtDFT= 12500011 ScaDFX=  1.000000  1.000000  1.000000  1.000000
 GSVD:  LWork=       -2100 too small for GESVD, short by        9450 words or        9450 for optimal perf.
 Range of M.O.s used for correlation:    43   910
 NBasis=   910 NAE=   156 NBE=   156 NFC=    42 NFV=     0
 NROrb=    868 NOA=   114 NOB=   114 NVA=   754 NVB=   754
 Orbital symmetries:
       Occupied  (A) (A) (A) (A) (A) (A) (A) (A) (A) (A) (A) (A)
                 (A) (A) (A) (A) (A) (A) (A) (A) (A) (A) (A) (A)
                 (A) (A) (A) (A) (A) (A) (A) (A) (A) (A) (A) (A)
                 (A) (A) (A) (A) (A) (A) (A) (A) (A) (A) (A) (A)
                 (A) (A) (A) (A) (A) (A) (A) (A) (A) (A) (A) (A)
                 (A) (A) (A) (A) (A) (A) (A) (A) (A) (A) (A) (A)
                 (A) (A) (A) (A) (A) (A) (A) (A) (A) (A) (A) (A)
                 (A) (A) (A) (A) (A) (A) (A) (A) (A) (A) (A) (A)
                 (A) (A) (A) (A) (A) (A) (A) (A) (A) (A) (A) (A)
                 (A) (A) (A) (A) (A) (A) (A) (A) (A) (A) (A) (A)
                 (A) (A) (A) (A) (A) (A) (A) (A) (A) (A) (A) (A)
                 (A) (A) (A) (A) (A) (A) (A) (A) (A) (A) (A) (A)
                 (A) (A) (A) (A) (A) (A) (A) (A) (A) (A) (A) (A)
       Virtual   (A) (A) (A) (A) (A) (A) (A) (A) (A) (A) (A) (A)
                 (A) (A) (A) (A) (A) (A) (A) (A) (A) (A) (A) (A)
                 (A) (A) (A) (A) (A) (A) (A) (A) (A) (A) (A) (A)
                 (A) (A) (A) (A) (A) (A) (A) (A) (A) (A) (A) (A)
                 (A) (A) (A) (A) (A) (A) (A) (A) (A) (A) (A) (A)
                 (A) (A) (A) (A) (A) (A) (A) (A) (A) (A) (A) (A)
                 (A) (A) (A) (A) (A) (A) (A) (A) (A) (A) (A) (A)
                 (A) (A) (A) (A) (A) (A) (A) (A) (A) (A) (A) (A)
                 (A) (A) (A) (A) (A) (A) (A) (A) (A) (A) (A) (A)
                 (A) (A) (A) (A) (A) (A) (A) (A) (A) (A) (A) (A)
                 (A) (A) (A) (A) (A) (A) (A) (A) (A) (A) (A) (A)
                 (A) (A) (A) (A) (A) (A) (A) (A) (A) (A) (A) (A)
                 (A) (A) (A) (A) (A) (A) (A) (A) (A) (A) (A) (A)
                 (A) (A) (A) (A) (A) (A) (A) (A) (A) (A) (A) (A)
                 (A) (A) (A) (A) (A) (A) (A) (A) (A) (A) (A) (A)
                 (A) (A) (A) (A) (A) (A) (A) (A) (A) (A) (A) (A)
                 (A) (A) (A) (A) (A) (A) (A) (A) (A) (A) (A) (A)
                 (A) (A) (A) (A) (A) (A) (A) (A) (A) (A) (A) (A)
                 (A) (A) (A) (A) (A) (A) (A) (A) (A) (A) (A) (A)
                 (A) (A) (A) (A) (A) (A) (A) (A) (A) (A) (A) (A)
                 (A) (A) (A) (A) (A) (A) (A) (A) (A) (A) (A) (A)
                 (A) (A) (A) (A) (A) (A) (A) (A) (A) (A) (A) (A)
                 (A) (A) (A) (A) (A) (A) (A) (A) (A) (A) (A) (A)
                 (A) (A) (A) (A) (A) (A) (A) (A) (A) (A) (A) (A)
                 (A) (A) (A) (A) (A) (A) (A) (A) (A) (A) (A) (A)
                 (A) (A) (A) (A) (A) (A) (A) (A) (A) (A) (A) (A)
                 (A) (A) (A) (A) (A) (A) (A) (A) (A) (A) (A) (A)
                 (A) (A) (A) (A) (A) (A) (A) (A) (A) (A) (A) (A)
                 (A) (A) (A) (A) (A) (A) (A) (A) (A) (A) (A) (A)
                 (A) (A) (A) (A) (A) (A) (A) (A) (A) (A) (A) (A)
                 (A) (A) (A) (A) (A) (A) (A) (A) (A) (A) (A) (A)
                 (A) (A) (A) (A) (A) (A) (A) (A) (A) (A) (A) (A)
                 (A) (A) (A) (A) (A) (A) (A) (A) (A) (A) (A) (A)
                 (A) (A) (A) (A) (A) (A) (A) (A) (A) (A) (A) (A)
                 (A) (A) (A) (A) (A) (A) (A) (A) (A) (A) (A) (A)
                 (A) (A) (A) (A) (A) (A) (A) (A) (A) (A) (A) (A)
                 (A) (A) (A) (A) (A) (A) (A) (A) (A) (A) (A) (A)
                 (A) (A) (A) (A) (A) (A) (A) (A) (A) (A) (A) (A)
                 (A) (A) (A) (A) (A) (A) (A) (A) (A) (A) (A) (A)
                 (A) (A) (A) (A) (A) (A) (A) (A) (A) (A) (A) (A)
                 (A) (A) (A) (A) (A) (A) (A) (A) (A) (A) (A) (A)
                 (A) (A) (A) (A) (A) (A) (A) (A) (A) (A) (A) (A)
                 (A) (A) (A) (A) (A) (A) (A) (A) (A) (A) (A) (A)
                 (A) (A) (A) (A) (A) (A) (A) (A) (A) (A) (A) (A)
                 (A) (A) (A) (A) (A) (A) (A) (A) (A) (A) (A) (A)
                 (A) (A) (A) (A) (A) (A) (A) (A) (A) (A) (A) (A)
                 (A) (A) (A) (A) (A) (A) (A) (A) (A) (A) (A) (A)
                 (A) (A) (A) (A) (A) (A) (A) (A) (A) (A) (A) (A)
                 (A) (A) (A) (A) (A) (A) (A) (A) (A) (A) (A) (A)
                 (A) (A) (A) (A) (A) (A) (A) (A) (A) (A) (A) (A)
                 (A) (A) (A) (A) (A) (A) (A) (A) (A) (A) (A) (A)
                 (A) (A) (A) (A) (A) (A) (A) (A) (A) (A) (A) (A)
                 (A) (A) (A) (A) (A) (A) (A) (A) (A) (A) (A) (A)
                 (A) (A) (A) (A) (A) (A) (A) (A) (A) (A) (A) (A)
                 (A) (A) (A) (A) (A) (A) (A) (A) (A) (A) (A) (A)
                 (A) (A) (A) (A) (A) (A) (A) (A) (A) (A) (A) (A)
                 (A) (A) (A) (A) (A) (A) (A) (A) (A) (A) (A) (A)
                 (A) (A) (A) (A) (A) (A) (A) (A) (A) (A) (A) (A)
                 (A) (A) (A) (A) (A) (A) (A) (A) (A) (A) (A) (A)
                 (A) (A) (A) (A) (A) (A) (A) (A) (A) (A) (A) (A)
                 (A) (A) (A) (A) (A) (A) (A) (A) (A) (A) (A) (A)
                 (A) (A) (A) (A) (A) (A) (A) (A) (A) (A) (A) (A)
                 (A) (A) (A) (A) (A) (A) (A) (A) (A) (A)
     4 initial guesses have been made.
 Convergence on wavefunction:    0.001000000000000
 Iteration     1 Dimension     4 NMult     0 NNew      4
 CISAX will form     4 AO SS matrices at one time.
 Iteration     2 Dimension     6 NMult     4 NNew      2
 Iteration     3 Dimension     8 NMult     6 NNew      2
 Iteration     4 Dimension    10 NMult     8 NNew      2
 Iteration     5 Dimension    12 NMult    10 NNew      2
 Iteration     6 Dimension    14 NMult    12 NNew      2
 ***********************************************************************
 Excited states from <AA,BB:AA,BB> singles matrix:
 ***********************************************************************
 
 Ground to excited state transition densities written to RWF  633
 Ground to excited state transition electric dipole moments (Au):
       state          X           Y           Z        Dip. S.      Osc.
         1        -8.5202     -1.6072     -0.3302     75.2861      3.5839
 Ground to excited state transition velocity dipole moments (Au):
       state          X           Y           Z        Dip. S.      Osc.
         1         0.5841      0.1085      0.0226      0.3535      3.3003
 Ground to excited state transition magnetic dipole moments (Au):
       state          X           Y           Z
         1         0.0506     -0.2500     -0.3051
 Ground to excited state transition velocity quadrupole moments (Au):
       state          XX          YY          ZZ          XY          XZ          YZ
         1        -0.9313      0.2256      0.0063      0.3393     -0.1494     -0.0108
 <0|del|b> * <b|rxdel|0> + <0|del|b> * <b|delr+rdel|0>
 Rotatory Strengths (R) in cgs (10**-40 erg-esu-cm/Gauss)
       state          XX          YY          ZZ    R(velocity)    E-M Angle
         1       -50.2103     42.8517    -36.9154    -14.7580       91.08
 1/2[<0|r|b>*<b|rxdel|0> + (<0|rxdel|b>*<b|r|0>)*]
 Rotatory Strengths (R) in cgs (10**-40 erg-esu-cm/Gauss)
       state          XX          YY          ZZ     R(length)
         1       304.6552   -284.1463    -71.2501    -16.9138
  1/2[<0|del|b>*<b|r|0> + (<0|r|b>*<b|del|0>)*] (Au)
       state          X           Y           Z        Dip. S.   Osc.(frdel)
         1        -4.9770     -0.1743     -0.0075      5.1588      3.4392

 Excitation energies and oscillator strengths:
 
 Excited State   1:      Singlet-A      1.9431 eV  638.08 nm  f=3.5839  <S**2>=0.000
     155 ->158         0.11251
     156 ->157         0.70758
     156 <-157        -0.13612
 This state for optimization and/or second-order correction.
 Total Energy, E(TD-HF/TD-DFT) =  -1706.81734335    
 Copying the excited state density for this state as the 1-particle RhoCI density.
 SavETr:  write IOETrn=   770 NScale= 10 NData=  16 NLR=1 NState=    1 LETran=      28.

 **********************************************************************

            Population analysis using the SCF density.

 **********************************************************************

 Orbital symmetries:
       Occupied  (A) (A) (A) (A) (A) (A) (A) (A) (A) (A) (A) (A)
                 (A) (A) (A) (A) (A) (A) (A) (A) (A) (A) (A) (A)
                 (A) (A) (A) (A) (A) (A) (A) (A) (A) (A) (A) (A)
                 (A) (A) (A) (A) (A) (A) (A) (A) (A) (A) (A) (A)
                 (A) (A) (A) (A) (A) (A) (A) (A) (A) (A) (A) (A)
                 (A) (A) (A) (A) (A) (A) (A) (A) (A) (A) (A) (A)
                 (A) (A) (A) (A) (A) (A) (A) (A) (A) (A) (A) (A)
                 (A) (A) (A) (A) (A) (A) (A) (A) (A) (A) (A) (A)
                 (A) (A) (A) (A) (A) (A) (A) (A) (A) (A) (A) (A)
                 (A) (A) (A) (A) (A) (A) (A) (A) (A) (A) (A) (A)
                 (A) (A) (A) (A) (A) (A) (A) (A) (A) (A) (A) (A)
                 (A) (A) (A) (A) (A) (A) (A) (A) (A) (A) (A) (A)
                 (A) (A) (A) (A) (A) (A) (A) (A) (A) (A) (A) (A)
       Virtual   (A) (A) (A) (A) (A) (A) (A) (A) (A) (A) (A) (A)
                 (A) (A) (A) (A) (A) (A) (A) (A) (A) (A) (A) (A)
                 (A) (A) (A) (A) (A) (A) (A) (A) (A) (A) (A) (A)
                 (A) (A) (A) (A) (A) (A) (A) (A) (A) (A) (A) (A)
                 (A) (A) (A) (A) (A) (A) (A) (A) (A) (A) (A) (A)
                 (A) (A) (A) (A) (A) (A) (A) (A) (A) (A) (A) (A)
                 (A) (A) (A) (A) (A) (A) (A) (A) (A) (A) (A) (A)
                 (A) (A) (A) (A) (A) (A) (A) (A) (A) (A) (A) (A)
                 (A) (A) (A) (A) (A) (A) (A) (A) (A) (A) (A) (A)
                 (A) (A) (A) (A) (A) (A) (A) (A) (A) (A) (A) (A)
                 (A) (A) (A) (A) (A) (A) (A) (A) (A) (A) (A) (A)
                 (A) (A) (A) (A) (A) (A) (A) (A) (A) (A) (A) (A)
                 (A) (A) (A) (A) (A) (A) (A) (A) (A) (A) (A) (A)
                 (A) (A) (A) (A) (A) (A) (A) (A) (A) (A) (A) (A)
                 (A) (A) (A) (A) (A) (A) (A) (A) (A) (A) (A) (A)
                 (A) (A) (A) (A) (A) (A) (A) (A) (A) (A) (A) (A)
                 (A) (A) (A) (A) (A) (A) (A) (A) (A) (A) (A) (A)
                 (A) (A) (A) (A) (A) (A) (A) (A) (A) (A) (A) (A)
                 (A) (A) (A) (A) (A) (A) (A) (A) (A) (A) (A) (A)
                 (A) (A) (A) (A) (A) (A) (A) (A) (A) (A) (A) (A)
                 (A) (A) (A) (A) (A) (A) (A) (A) (A) (A) (A) (A)
                 (A) (A) (A) (A) (A) (A) (A) (A) (A) (A) (A) (A)
                 (A) (A) (A) (A) (A) (A) (A) (A) (A) (A) (A) (A)
                 (A) (A) (A) (A) (A) (A) (A) (A) (A) (A) (A) (A)
                 (A) (A) (A) (A) (A) (A) (A) (A) (A) (A) (A) (A)
                 (A) (A) (A) (A) (A) (A) (A) (A) (A) (A) (A) (A)
                 (A) (A) (A) (A) (A) (A) (A) (A) (A) (A) (A) (A)
                 (A) (A) (A) (A) (A) (A) (A) (A) (A) (A) (A) (A)
                 (A) (A) (A) (A) (A) (A) (A) (A) (A) (A) (A) (A)
                 (A) (A) (A) (A) (A) (A) (A) (A) (A) (A) (A) (A)
                 (A) (A) (A) (A) (A) (A) (A) (A) (A) (A) (A) (A)
                 (A) (A) (A) (A) (A) (A) (A) (A) (A) (A) (A) (A)
                 (A) (A) (A) (A) (A) (A) (A) (A) (A) (A) (A) (A)
                 (A) (A) (A) (A) (A) (A) (A) (A) (A) (A) (A) (A)
                 (A) (A) (A) (A) (A) (A) (A) (A) (A) (A) (A) (A)
                 (A) (A) (A) (A) (A) (A) (A) (A) (A) (A) (A) (A)
                 (A) (A) (A) (A) (A) (A) (A) (A) (A) (A) (A) (A)
                 (A) (A) (A) (A) (A) (A) (A) (A) (A) (A) (A) (A)
                 (A) (A) (A) (A) (A) (A) (A) (A) (A) (A) (A) (A)
                 (A) (A) (A) (A) (A) (A) (A) (A) (A) (A) (A) (A)
                 (A) (A) (A) (A) (A) (A) (A) (A) (A) (A) (A) (A)
                 (A) (A) (A) (A) (A) (A) (A) (A) (A) (A) (A) (A)
                 (A) (A) (A) (A) (A) (A) (A) (A) (A) (A) (A) (A)
                 (A) (A) (A) (A) (A) (A) (A) (A) (A) (A) (A) (A)
                 (A) (A) (A) (A) (A) (A) (A) (A) (A) (A) (A) (A)
                 (A) (A) (A) (A) (A) (A) (A) (A) (A) (A) (A) (A)
                 (A) (A) (A) (A) (A) (A) (A) (A) (A) (A) (A) (A)
                 (A) (A) (A) (A) (A) (A) (A) (A) (A) (A) (A) (A)
                 (A) (A) (A) (A) (A) (A) (A) (A) (A) (A) (A) (A)
                 (A) (A) (A) (A) (A) (A) (A) (A) (A) (A) (A) (A)
                 (A) (A) (A) (A) (A) (A) (A) (A) (A) (A) (A) (A)
                 (A) (A) (A) (A) (A) (A) (A) (A) (A) (A) (A) (A)
                 (A) (A) (A) (A) (A) (A) (A) (A) (A) (A) (A) (A)
                 (A) (A) (A) (A) (A) (A) (A) (A) (A) (A) (A) (A)
                 (A) (A) (A) (A) (A) (A) (A) (A) (A) (A) (A) (A)
                 (A) (A) (A) (A) (A) (A) (A) (A) (A) (A) (A) (A)
                 (A) (A) (A) (A) (A) (A) (A) (A) (A) (A) (A) (A)
                 (A) (A) (A) (A) (A) (A) (A) (A) (A) (A) (A) (A)
                 (A) (A) (A) (A) (A) (A) (A) (A) (A) (A) (A) (A)
                 (A) (A) (A) (A) (A) (A) (A) (A) (A) (A) (A) (A)
                 (A) (A) (A) (A) (A) (A) (A) (A) (A) (A) (A) (A)
                 (A) (A) (A) (A) (A) (A) (A) (A) (A) (A) (A) (A)
                 (A) (A) (A) (A) (A) (A) (A) (A) (A) (A)
 The electronic state is 1-A.
 Alpha  occ. eigenvalues --  -19.22378 -19.20872 -10.31275 -10.30264 -10.29191
 Alpha  occ. eigenvalues --  -10.28706 -10.28582 -10.28564 -10.28302 -10.28084
 Alpha  occ. eigenvalues --  -10.27493 -10.27406 -10.27264 -10.27199 -10.27120
 Alpha  occ. eigenvalues --  -10.27107 -10.26824 -10.26622 -10.26547 -10.26515
 Alpha  occ. eigenvalues --  -10.26417 -10.26391 -10.26276 -10.26199 -10.26156
 Alpha  occ. eigenvalues --  -10.26131 -10.26129 -10.26063 -10.26051 -10.26011
 Alpha  occ. eigenvalues --  -10.25971 -10.25945 -10.25805 -10.25803 -10.25688
 Alpha  occ. eigenvalues --  -10.25423 -10.25259 -10.25118 -10.24896 -10.24880
 Alpha  occ. eigenvalues --  -10.24372 -10.24079  -1.06416  -1.04999  -0.93796
 Alpha  occ. eigenvalues --   -0.93462  -0.92645  -0.92107  -0.91507  -0.90489
 Alpha  occ. eigenvalues --   -0.87807  -0.87658  -0.86481  -0.85262  -0.84553
 Alpha  occ. eigenvalues --   -0.82456  -0.81661  -0.80507  -0.79951  -0.78592
 Alpha  occ. eigenvalues --   -0.77163  -0.76877  -0.76125  -0.75838  -0.75711
 Alpha  occ. eigenvalues --   -0.75437  -0.74589  -0.74011  -0.73241  -0.71360
 Alpha  occ. eigenvalues --   -0.68054  -0.66738  -0.65295  -0.63822  -0.63347
 Alpha  occ. eigenvalues --   -0.62949  -0.62479  -0.61349  -0.60749  -0.59482
 Alpha  occ. eigenvalues --   -0.57774  -0.57264  -0.57039  -0.56597  -0.55833
 Alpha  occ. eigenvalues --   -0.55292  -0.54711  -0.54257  -0.54012  -0.53610
 Alpha  occ. eigenvalues --   -0.52724  -0.52179  -0.51858  -0.51694  -0.50422
 Alpha  occ. eigenvalues --   -0.49960  -0.49771  -0.49677  -0.49413  -0.49182
 Alpha  occ. eigenvalues --   -0.48982  -0.48517  -0.48419  -0.48252  -0.48030
 Alpha  occ. eigenvalues --   -0.47909  -0.47773  -0.47330  -0.46640  -0.46294
 Alpha  occ. eigenvalues --   -0.45866  -0.45458  -0.45335  -0.45278  -0.45003
 Alpha  occ. eigenvalues --   -0.44860  -0.44619  -0.43751  -0.43558  -0.43291
 Alpha  occ. eigenvalues --   -0.42919  -0.42745  -0.42314  -0.41972  -0.41496
 Alpha  occ. eigenvalues --   -0.41428  -0.40849  -0.40668  -0.40505  -0.40424
 Alpha  occ. eigenvalues --   -0.39980  -0.39668  -0.39364  -0.39237  -0.39158
 Alpha  occ. eigenvalues --   -0.39103  -0.38723  -0.38504  -0.38132  -0.37948
 Alpha  occ. eigenvalues --   -0.37724  -0.37470  -0.37159  -0.36118  -0.35875
 Alpha  occ. eigenvalues --   -0.35428  -0.34454  -0.34215  -0.32804  -0.32329
 Alpha  occ. eigenvalues --   -0.32132  -0.30279  -0.28480  -0.26830  -0.24235
 Alpha  occ. eigenvalues --   -0.18331
 Alpha virt. eigenvalues --   -0.07000  -0.00356   0.03220   0.06043   0.08051
 Alpha virt. eigenvalues --    0.09472   0.09810   0.10037   0.10802   0.11444
 Alpha virt. eigenvalues --    0.11758   0.11997   0.12345   0.12833   0.13464
 Alpha virt. eigenvalues --    0.13746   0.14154   0.14254   0.14608   0.14908
 Alpha virt. eigenvalues --    0.15354   0.15447   0.15656   0.15782   0.16075
 Alpha virt. eigenvalues --    0.16346   0.16480   0.16548   0.16694   0.17046
 Alpha virt. eigenvalues --    0.17295   0.17473   0.18062   0.18209   0.18651
 Alpha virt. eigenvalues --    0.19139   0.19354   0.19610   0.20077   0.20156
 Alpha virt. eigenvalues --    0.20391   0.20551   0.21050   0.21219   0.21562
 Alpha virt. eigenvalues --    0.21788   0.22029   0.22127   0.22261   0.22890
 Alpha virt. eigenvalues --    0.23083   0.23624   0.23797   0.24045   0.24270
 Alpha virt. eigenvalues --    0.24381   0.24455   0.24685   0.24893   0.25472
 Alpha virt. eigenvalues --    0.25662   0.25819   0.26195   0.26878   0.27069
 Alpha virt. eigenvalues --    0.27225   0.27449   0.27777   0.28062   0.28232
 Alpha virt. eigenvalues --    0.28380   0.29091   0.29249   0.29600   0.30052
 Alpha virt. eigenvalues --    0.30468   0.30819   0.31219   0.31549   0.32217
 Alpha virt. eigenvalues --    0.32295   0.32941   0.33232   0.33887   0.34188
 Alpha virt. eigenvalues --    0.34426   0.34821   0.35181   0.35885   0.37007
 Alpha virt. eigenvalues --    0.38005   0.38441   0.39900   0.41365   0.42215
 Alpha virt. eigenvalues --    0.42471   0.43133   0.43757   0.44934   0.45309
 Alpha virt. eigenvalues --    0.45589   0.47302   0.48376   0.49016   0.49457
 Alpha virt. eigenvalues --    0.49997   0.50492   0.52521   0.54026   0.54227
 Alpha virt. eigenvalues --    0.54687   0.54911   0.55553   0.56431   0.56609
 Alpha virt. eigenvalues --    0.56627   0.56946   0.57758   0.58128   0.58214
 Alpha virt. eigenvalues --    0.58302   0.58727   0.59144   0.59781   0.60033
 Alpha virt. eigenvalues --    0.60231   0.61156   0.61734   0.61853   0.62019
 Alpha virt. eigenvalues --    0.62439   0.62699   0.62907   0.63079   0.63451
 Alpha virt. eigenvalues --    0.63974   0.64218   0.64593   0.65049   0.65374
 Alpha virt. eigenvalues --    0.65917   0.65932   0.66491   0.66519   0.67205
 Alpha virt. eigenvalues --    0.67642   0.67824   0.68076   0.68430   0.68627
 Alpha virt. eigenvalues --    0.68720   0.68981   0.69346   0.69479   0.69729
 Alpha virt. eigenvalues --    0.70072   0.70365   0.71241   0.71544   0.71813
 Alpha virt. eigenvalues --    0.71987   0.72233   0.72483   0.72718   0.72981
 Alpha virt. eigenvalues --    0.73438   0.73880   0.74145   0.74538   0.75104
 Alpha virt. eigenvalues --    0.75482   0.76264   0.76643   0.77402   0.77465
 Alpha virt. eigenvalues --    0.77717   0.77943   0.78324   0.78995   0.79246
 Alpha virt. eigenvalues --    0.79608   0.79805   0.79847   0.80498   0.80892
 Alpha virt. eigenvalues --    0.81142   0.81685   0.82064   0.82229   0.82391
 Alpha virt. eigenvalues --    0.82675   0.82899   0.83282   0.83368   0.83905
 Alpha virt. eigenvalues --    0.84188   0.84214   0.84440   0.84661   0.84942
 Alpha virt. eigenvalues --    0.85222   0.85456   0.85488   0.86098   0.86875
 Alpha virt. eigenvalues --    0.86926   0.87366   0.87715   0.87862   0.87888
 Alpha virt. eigenvalues --    0.88356   0.88536   0.89234   0.89398   0.89712
 Alpha virt. eigenvalues --    0.90070   0.90253   0.90412   0.90635   0.91131
 Alpha virt. eigenvalues --    0.91450   0.91659   0.92023   0.92230   0.92310
 Alpha virt. eigenvalues --    0.92687   0.92839   0.93196   0.93368   0.93612
 Alpha virt. eigenvalues --    0.94228   0.94255   0.94385   0.94728   0.95071
 Alpha virt. eigenvalues --    0.95328   0.95627   0.95982   0.96426   0.96723
 Alpha virt. eigenvalues --    0.97197   0.97219   0.97564   0.98388   0.98557
 Alpha virt. eigenvalues --    0.99280   0.99676   0.99828   1.00025   1.00299
 Alpha virt. eigenvalues --    1.00976   1.01141   1.01508   1.01964   1.02313
 Alpha virt. eigenvalues --    1.02810   1.02905   1.03636   1.04178   1.04248
 Alpha virt. eigenvalues --    1.04814   1.05288   1.05668   1.05837   1.06391
 Alpha virt. eigenvalues --    1.07214   1.07974   1.08471   1.08831   1.09400
 Alpha virt. eigenvalues --    1.09617   1.09936   1.11131   1.11535   1.11775
 Alpha virt. eigenvalues --    1.12971   1.13171   1.13458   1.13591   1.14195
 Alpha virt. eigenvalues --    1.15381   1.16346   1.16518   1.17040   1.17217
 Alpha virt. eigenvalues --    1.18261   1.18546   1.20137   1.20670   1.21330
 Alpha virt. eigenvalues --    1.22304   1.22577   1.23153   1.23762   1.24057
 Alpha virt. eigenvalues --    1.24774   1.25851   1.26570   1.27735   1.28284
 Alpha virt. eigenvalues --    1.28955   1.29572   1.30275   1.31167   1.31363
 Alpha virt. eigenvalues --    1.31552   1.33487   1.34221   1.34698   1.35443
 Alpha virt. eigenvalues --    1.36472   1.36953   1.37211   1.38025   1.39338
 Alpha virt. eigenvalues --    1.39730   1.40580   1.41579   1.42161   1.42368
 Alpha virt. eigenvalues --    1.43159   1.44865   1.44964   1.45315   1.45594
 Alpha virt. eigenvalues --    1.46202   1.46863   1.47804   1.49551   1.49780
 Alpha virt. eigenvalues --    1.50606   1.51795   1.52264   1.52951   1.54424
 Alpha virt. eigenvalues --    1.54931   1.55480   1.55650   1.56606   1.56744
 Alpha virt. eigenvalues --    1.57374   1.58175   1.58444   1.59208   1.60313
 Alpha virt. eigenvalues --    1.60655   1.61602   1.62090   1.62295   1.63405
 Alpha virt. eigenvalues --    1.63676   1.64198   1.64451   1.65642   1.66068
 Alpha virt. eigenvalues --    1.67266   1.67971   1.68086   1.68523   1.69667
 Alpha virt. eigenvalues --    1.70399   1.72069   1.73590   1.74694   1.75102
 Alpha virt. eigenvalues --    1.76060   1.76703   1.77553   1.78426   1.78909
 Alpha virt. eigenvalues --    1.79919   1.80270   1.80868   1.81567   1.81600
 Alpha virt. eigenvalues --    1.81980   1.82107   1.82760   1.82922   1.83534
 Alpha virt. eigenvalues --    1.84066   1.84530   1.84954   1.85451   1.85918
 Alpha virt. eigenvalues --    1.86090   1.86885   1.87210   1.87372   1.87835
 Alpha virt. eigenvalues --    1.89107   1.89263   1.89382   1.89932   1.90437
 Alpha virt. eigenvalues --    1.91034   1.91167   1.91230   1.91938   1.92085
 Alpha virt. eigenvalues --    1.92396   1.92620   1.93082   1.93326   1.93940
 Alpha virt. eigenvalues --    1.94461   1.94607   1.95089   1.95384   1.95841
 Alpha virt. eigenvalues --    1.95887   1.96444   1.97040   1.97872   1.97939
 Alpha virt. eigenvalues --    1.98394   1.98926   1.99400   1.99908   2.00554
 Alpha virt. eigenvalues --    2.01234   2.01602   2.01875   2.02385   2.02730
 Alpha virt. eigenvalues --    2.02925   2.03323   2.04189   2.04335   2.04488
 Alpha virt. eigenvalues --    2.04834   2.05295   2.05628   2.06009   2.06323
 Alpha virt. eigenvalues --    2.06835   2.07040   2.07562   2.07671   2.08428
 Alpha virt. eigenvalues --    2.08908   2.09029   2.09305   2.10134   2.10313
 Alpha virt. eigenvalues --    2.11217   2.11561   2.11664   2.12197   2.12523
 Alpha virt. eigenvalues --    2.12571   2.12935   2.13508   2.13734   2.14504
 Alpha virt. eigenvalues --    2.15091   2.15163   2.15674   2.16205   2.16372
 Alpha virt. eigenvalues --    2.16959   2.17255   2.17793   2.18113   2.18248
 Alpha virt. eigenvalues --    2.18301   2.18664   2.19018   2.19962   2.19984
 Alpha virt. eigenvalues --    2.20079   2.20799   2.21542   2.21702   2.22161
 Alpha virt. eigenvalues --    2.22947   2.23627   2.24347   2.24969   2.25169
 Alpha virt. eigenvalues --    2.25431   2.25620   2.26160   2.26721   2.27295
 Alpha virt. eigenvalues --    2.27465   2.28236   2.29019   2.29468   2.30025
 Alpha virt. eigenvalues --    2.30258   2.30660   2.31545   2.31951   2.32448
 Alpha virt. eigenvalues --    2.32897   2.33002   2.33416   2.34318   2.34971
 Alpha virt. eigenvalues --    2.35032   2.35633   2.36544   2.36774   2.37230
 Alpha virt. eigenvalues --    2.37379   2.38032   2.38718   2.39292   2.39491
 Alpha virt. eigenvalues --    2.39795   2.40857   2.41172   2.41218   2.41701
 Alpha virt. eigenvalues --    2.42145   2.42683   2.42880   2.43376   2.44806
 Alpha virt. eigenvalues --    2.44833   2.45297   2.46055   2.46224   2.46698
 Alpha virt. eigenvalues --    2.46800   2.47855   2.48149   2.48877   2.49351
 Alpha virt. eigenvalues --    2.49423   2.50332   2.51331   2.51774   2.51948
 Alpha virt. eigenvalues --    2.52176   2.52629   2.52687   2.53218   2.53558
 Alpha virt. eigenvalues --    2.54747   2.55163   2.56022   2.56346   2.56418
 Alpha virt. eigenvalues --    2.56551   2.57388   2.58169   2.58313   2.59085
 Alpha virt. eigenvalues --    2.59182   2.59495   2.59782   2.61138   2.61270
 Alpha virt. eigenvalues --    2.61792   2.62188   2.62801   2.63287   2.63599
 Alpha virt. eigenvalues --    2.64266   2.64616   2.65289   2.65362   2.65761
 Alpha virt. eigenvalues --    2.65867   2.66469   2.66809   2.67027   2.67535
 Alpha virt. eigenvalues --    2.67763   2.68686   2.68859   2.69724   2.70020
 Alpha virt. eigenvalues --    2.70244   2.71095   2.71512   2.71829   2.71878
 Alpha virt. eigenvalues --    2.72266   2.72833   2.73453   2.73884   2.74158
 Alpha virt. eigenvalues --    2.74989   2.75408   2.75893   2.75984   2.76438
 Alpha virt. eigenvalues --    2.76611   2.77134   2.77550   2.78042   2.78451
 Alpha virt. eigenvalues --    2.79130   2.79598   2.79919   2.80238   2.80797
 Alpha virt. eigenvalues --    2.81690   2.81904   2.82242   2.82464   2.82904
 Alpha virt. eigenvalues --    2.83097   2.83345   2.84113   2.84992   2.85673
 Alpha virt. eigenvalues --    2.86040   2.86354   2.86461   2.87709   2.88078
 Alpha virt. eigenvalues --    2.88748   2.89498   2.90348   2.90619   2.91368
 Alpha virt. eigenvalues --    2.91774   2.92625   2.93023   2.93669   2.94419
 Alpha virt. eigenvalues --    2.94804   2.95087   2.96321   2.96998   2.97402
 Alpha virt. eigenvalues --    2.98660   2.98926   2.99321   2.99719   3.00283
 Alpha virt. eigenvalues --    3.00926   3.01048   3.01278   3.02583   3.02855
 Alpha virt. eigenvalues --    3.03986   3.05237   3.05425   3.06988   3.07547
 Alpha virt. eigenvalues --    3.09745   3.10194   3.10613   3.11070   3.12202
 Alpha virt. eigenvalues --    3.13007   3.13649   3.14857   3.15547   3.16780
 Alpha virt. eigenvalues --    3.18404   3.20538   3.21333   3.23358   3.23476
 Alpha virt. eigenvalues --    3.24356   3.24384   3.25240   3.26461   3.27256
 Alpha virt. eigenvalues --    3.27714   3.30125   3.30610   3.31685   3.34427
 Alpha virt. eigenvalues --    3.34722   3.35078   3.36905   3.37136   3.37217
 Alpha virt. eigenvalues --    3.39137   3.40051   3.40812   3.41080   3.41300
 Alpha virt. eigenvalues --    3.41847   3.42509   3.43088   3.43500   3.44263
 Alpha virt. eigenvalues --    3.45062   3.45980   3.47407   3.47810   3.47927
 Alpha virt. eigenvalues --    3.48537   3.50003   3.51156   3.51539   3.51629
 Alpha virt. eigenvalues --    3.52810   3.53482   3.54422   3.55592   3.59073
 Alpha virt. eigenvalues --    3.59399   3.60430   3.62065   3.62768   3.63373
 Alpha virt. eigenvalues --    3.66390   3.66494   3.71344   3.71447   3.71937
 Alpha virt. eigenvalues --    3.74832   3.84663   4.03890   4.04247   4.18782
 Alpha virt. eigenvalues --    4.19871   4.20885   4.22057   4.24608   4.25954
 Alpha virt. eigenvalues --    4.26232   4.28077   4.29747   4.32736   4.34850
 Alpha virt. eigenvalues --    4.36246   4.38965   4.41797   4.44194   4.45399
 Alpha virt. eigenvalues --    4.47319   4.48294   4.50277   4.53340   4.54051
 Alpha virt. eigenvalues --    4.54516   4.55453   4.56628   4.58272   4.60022
 Alpha virt. eigenvalues --    4.60863   4.62732   4.66097   4.69931   4.70666
 Alpha virt. eigenvalues --    4.71166   4.75380   4.79086   4.80188   4.81363
 Alpha virt. eigenvalues --    4.84462   4.85679   4.88527   4.89003
          Condensed to atoms (all electrons):
 Mulliken charges:
               1
     1  O   -0.555364
     2  O   -0.578242
     3  C   -0.005825
     4  C   -0.012408
     5  C   -0.186330
     6  C   -0.157332
     7  C    0.162562
     8  C    0.126215
     9  C    0.029769
    10  C    0.047090
    11  C   -0.198832
    12  C   -0.207250
    13  C    0.041295
    14  C    0.030181
    15  C   -0.297025
    16  C   -0.267291
    17  C   -0.281150
    18  C   -0.316485
    19  C   -0.087226
    20  C   -0.169041
    21  C   -0.371627
    22  C   -0.331498
    23  C   -0.115213
    24  C   -0.073445
    25  C    0.063753
    26  C    0.134726
    27  C   -0.374246
    28  C   -0.342124
    29  C   -0.097036
    30  C   -0.099753
    31  C   -0.100187
    32  C   -0.144377
    33  C   -0.104241
    34  C   -0.140627
    35  C    0.077506
    36  C    0.143939
    37  C   -0.369117
    38  C   -0.365703
    39  C   -0.114209
    40  C   -0.135276
    41  C   -0.059291
    42  C   -0.115810
    43  H    0.109376
    44  H    0.076339
    45  H    0.084047
    46  H    0.095149
    47  H    0.091930
    48  H    0.093374
    49  H    0.104949
    50  H    0.098400
    51  H    0.110344
    52  H    0.108576
    53  H    0.112324
    54  H    0.091972
    55  H    0.114050
    56  H    0.111652
    57  H    0.063751
    58  H    0.067036
    59  H    0.098311
    60  H    0.102391
    61  H    0.090190
    62  H    0.097264
    63  H    0.094699
    64  H    0.099615
    65  H    0.079045
    66  H    0.065324
    67  H    0.126095
    68  H    0.134217
    69  H    0.077249
    70  H    0.109560
    71  H    0.123096
    72  H    0.098029
    73  H    0.294328
    74  H    0.298955
    75  H    0.092985
    76  H    0.076104
    77  H    0.122261
    78  H    0.129432
    79  H    0.122673
    80  H    0.130042
    81  H    0.126811
    82  H    0.106349
    83  H    0.083857
    84  H    0.071006
    85  H    0.070201
    86  H    0.074171
    87  H    0.079700
    88  H    0.090021
    89  H    0.127095
    90  H    0.118266
    91  H    0.114337
    92  H    0.116578
    93  H    0.128881
    94  H    0.095187
    95  H    0.073591
    96  H    0.079992
    97  H    0.084370
    98  H    0.081000
 Sum of Mulliken charges =  -0.00000
 Mulliken charges with hydrogens summed into heavy atoms:
               1
     1  O   -0.261036
     2  O   -0.279287
     3  C   -0.005825
     4  C   -0.012408
     5  C   -0.000614
     6  C    0.021864
     7  C    0.254491
     8  C    0.219589
     9  C    0.029769
    10  C    0.047090
    11  C    0.004517
    12  C    0.011670
    13  C    0.041295
    14  C    0.030181
    15  C    0.021320
    16  C   -0.024853
    17  C    0.009741
    18  C   -0.024907
    19  C   -0.008181
    20  C   -0.103717
    21  C   -0.034067
    22  C   -0.000812
    23  C   -0.022228
    24  C    0.002658
    25  C    0.063753
    26  C    0.134726
    27  C    0.000121
    28  C    0.021078
    29  C   -0.013178
    30  C   -0.028748
    31  C   -0.029987
    32  C   -0.070206
    33  C   -0.024541
    34  C   -0.050606
    35  C    0.077506
    36  C    0.143939
    37  C   -0.009418
    38  C   -0.025058
    39  C   -0.040618
    40  C   -0.055283
    41  C    0.025079
    42  C   -0.034810
 Electronic spatial extent (au):  <R**2>=         109933.0459
 Charge=             -0.0000 electrons
 Dipole moment (field-independent basis, Debye):
    X=              0.9902    Y=             -1.4970    Z=              2.3019  Tot=              2.9189
 Quadrupole moment (field-independent basis, Debye-Ang):
   XX=           -294.9168   YY=           -248.2498   ZZ=           -259.0682
   XY=             24.6163   XZ=              1.7730   YZ=              1.8894
 Traceless Quadrupole moment (field-independent basis, Debye-Ang):
   XX=            -27.5052   YY=             19.1618   ZZ=              8.3434
   XY=             24.6163   XZ=              1.7730   YZ=              1.8894
 Octapole moment (field-independent basis, Debye-Ang**2):
  XXX=           -211.3399  YYY=             -8.4762  ZZZ=             15.2198  XYY=            152.7939
  XXY=           -369.4554  XXZ=            425.9089  XZZ=            -40.0959  YZZ=              1.9856
  YYZ=             16.0001  XYZ=            -59.6573
 Hexadecapole moment (field-independent basis, Debye-Ang**3):
 XXXX=        -163125.2957 YYYY=          -4861.2050 ZZZZ=          -1678.6688 XXXY=           5088.8431
 XXXZ=             22.4221 YYYX=           -185.4553 YYYZ=             16.8943 ZZZX=           -185.4858
 ZZZY=             31.2260 XXYY=         -24291.7304 XXZZ=         -23225.1778 YYZZ=          -1100.2776
 XXYZ=           -630.7178 YYXZ=            228.3156 ZZXY=           -256.9108
 N-N= 3.978686249544D+03 E-N=-1.191141294878D+04  KE= 1.689019802287D+03
 1\1\GINC-RYZEN-SSD1\SP\RCAM-B3LYP TD-FC\6-31G(d,p)\C40H56O2\PADAWAN\09
 -Jul-2019\0\\# td=(NStates=1) CAM-B3LYP/6-31G(d,p)\\TD\\0,1\O,0,14.651
 9207171,-2.2718501181,-0.2595028733\O,0,-14.7130163656,1.8888841935,1.
 1383133623\C,0,11.1560279488,-1.3363061827,1.1058667477\C,0,-12.378863
 0503,-1.0399256105,0.5264762916\C,0,12.6783313991,-1.7810474008,1.0672
 816202\C,0,-13.6526719862,-0.2953975597,0.5502378358\C,0,13.1983678758
 ,-1.9897813002,-0.3327368187\C,0,-13.405409834,1.1275714182,0.95178642
 96\C,0,10.9704963766,-0.2428519122,0.0068673937\C,0,-11.2135777218,-0.
 1659976067,-0.2162292989\C,0,13.1647269637,-0.6924877339,-1.0671394679
 \C,0,-12.6517276108,1.9089839055,-0.1880381568\C,0,11.8272385929,0.030
 6034432,-1.0089935424\C,0,-11.4070212971,1.0714437735,-0.6647684728\C,
 0,10.8141224532,-0.9400694479,2.5830316872\C,0,10.3459752175,-2.547602
 5283,0.662689659\C,0,-11.8561674227,-1.3518548774,1.9324093719\C,0,-12
 .6232388189,-2.3734385658,-0.2488236204\C,0,9.6409393349,0.5255215052,
 0.0961035704\C,0,-9.9129568677,-0.9404967916,-0.4692282078\C,0,11.4585
 517352,1.1295181257,-2.0373257226\C,0,-10.5258808761,1.9186913462,-1.4
 104479348\C,0,9.4104849535,1.7257488179,-0.0536487249\C,0,-8.659747371
 7,-0.5345654054,-0.3746725693\C,0,8.01175028,2.2982158046,0.1209628713
 \C,0,-7.5568237164,-1.2950978377,-0.6203482038\C,0,7.9433961236,3.8534
 742024,0.360520236\C,0,-7.6862669237,-2.710610638,-1.0282115062\C,0,6.
 9736373347,1.5045293939,-0.0063031153\C,0,-6.4467073677,-0.623340596,-
 0.3283417592\C,0,5.6133020442,2.0125854965,0.1934963186\C,0,-5.1274312
 891,-1.1299700699,-0.4456714451\C,0,4.4854773337,1.2450707011,0.069034
 8185\C,0,-3.9264139384,-0.2916513891,-0.4004228573\C,0,3.1790753985,1.
 6692613171,0.2214962656\C,0,-2.6314686029,-0.7665667357,-0.4647848335\
 C,0,2.8252140884,3.0769153835,0.7730249605\C,0,-2.3962183898,-2.158339
 3259,-0.9603472607\C,0,2.0479738864,0.7368457486,-0.0207027503\C,0,-1.
 5887408341,0.0774056296,-0.2734412951\C,0,0.7902458536,0.9390767217,-0
 .0374524172\C,0,-0.1805979298,-0.1113987399,-0.3306240324\H,0,13.22811
 13911,-0.9380272128,1.5330289919\H,0,12.8940229013,-2.655928807,1.6069
 583798\H,0,-14.3277557486,-0.7765450964,1.1463855596\H,0,-14.123535848
 6,-0.3992377957,-0.4897908351\H,0,12.6134223492,-2.697489056,-1.050215
 5796\H,0,-12.8154319752,1.1989138735,1.8653942734\H,0,13.8210466917,0.
 2224748254,-0.5963348145\H,0,13.3797535324,-0.8742927864,-2.2186245935
 \H,0,-13.3695721662,2.0810631664,-1.0946222052\H,0,-12.5070066737,2.87
 11321333,0.5044614821\H,0,11.0484875378,-1.6803764666,3.3644711431\H,0
 ,9.6710554325,-0.7353333323,2.4397607311\H,0,11.2446082028,0.020183151
 2,2.8561189979\H,0,10.0448307461,-2.552850059,-0.4931459976\H,0,10.921
 691172,-3.6375824012,1.103959836\H,0,9.2216394809,-2.5615174597,1.2456
 612871\H,0,-11.5513668227,-0.486971191,2.6230626033\H,0,-10.9281456536
 ,-1.980610605,1.7488486689\H,0,-12.7385447475,-1.8693043503,2.39766034
 6\H,0,-13.4503054795,-3.1075494508,0.1379319242\H,0,-11.7294381788,-3.
 0799045794,-0.4555426563\H,0,-12.8744853075,-2.1052797199,-1.371349877
 \H,0,8.8648883918,-0.1167560866,0.5985669777\H,0,-10.2311078758,-2.008
 7079347,-0.6921530173\H,0,10.2936906611,1.4031049805,-2.1308751465\H,0
 ,12.0283386629,1.9215430972,-1.8224678548\H,0,11.6045321232,0.95808666
 36,-3.2425969487\H,0,-11.1668310841,2.5207576399,-2.0741281338\H,0,-9.
 8978857666,1.3562896481,-2.0127072377\H,0,-9.8202962136,2.4352161757,-
 0.5426374197\H,0,14.6388130093,-3.1513204591,0.3944177218\H,0,-15.1192
 366167,1.4592132214,1.9800491009\H,0,10.2797238914,2.3912060286,-0.347
 1978948\H,0,-8.6599807341,0.5236369648,0.2458339574\H,0,8.8980174887,4
 .3144748295,0.3994757886\H,0,7.0430506921,4.0939142524,-0.2901853645\H
 ,0,7.4662158816,4.0467757456,1.3540322412\H,0,-8.3973125253,-3.1473193
 898,-0.2282581148\H,0,-8.1764920202,-2.6047104739,-2.0401659056\H,0,-6
 .6340391759,-3.0150760475,-1.2310285369\H,0,7.036539509,0.5912623412,-
 0.4142292979\H,0,-6.6954965257,0.4809855937,0.2788127563\H,0,5.5476924
 742,3.0032059926,0.5604125503\H,0,-4.9849489659,-2.2947771557,-0.86225
 23752\H,0,4.7538685799,0.2738021262,-0.2734994179\H,0,-3.9995213561,0.
 5877881508,0.2594972307\H,0,3.0820638344,3.1052324132,1.8337266137\H,0
 ,1.8427125323,3.293540336,0.8264772497\H,0,3.4541307931,3.8527418992,0
 .3096979118\H,0,-2.7734884638,-2.7842307151,-0.1012777928\H,0,-3.00500
 92139,-2.3766947315,-1.8390726493\H,0,-1.2200623912,-2.3396115112,-0.9
 980183448\H,0,2.4193632993,-0.3418174627,-0.0767538874\H,0,-1.94687931
 09,1.1700552495,-0.2115350605\H,0,0.393249624,1.947790206,0.2047424842
 \H,0,0.383400125,-1.1659667607,-0.4417758516\\Version=ES64L-G16RevA.03
 \State=1-A\HF=-1706.8887498\RMSD=7.735e-09\PG=C01 [X(C40H56O2)]\\@


 HE THAT FOLLOWS NATURE IS NEVER LOST.

                             -- BACON
 Job cpu time:       0 days  8 hours 48 minutes  8.7 seconds.
 Elapsed time:       0 days  2 hours 12 minutes 48.9 seconds.
 File lengths (MBytes):  RWF=   3127 Int=      0 D2E=      0 Chk=     84 Scr=      1
 Normal termination of Gaussian 16 at Tue Jul  9 09:25:44 2019.
