 Entering Gaussian System, Link 0=g16
 Input=Geometria-60-.com
 Output=Geometria-60-.log
 Initial command:
 /usr/local/g16/l1.exe "/home/padawan/israel-mol/zeaxanthin/spectra/emi/Gau-109108.inp" -scrdir="/home/padawan/israel-mol/zeaxanthin/spectra/emi/"
 Entering Link 1 = /usr/local/g16/l1.exe PID=    109110.
  
 Copyright (c) 1988,1990,1992,1993,1995,1998,2003,2009,2016,
            Gaussian, Inc.  All Rights Reserved.
  
 This is part of the Gaussian(R) 16 program.  It is based on
 the Gaussian(R) 09 system (copyright 2009, Gaussian, Inc.),
 the Gaussian(R) 03 system (copyright 2003, Gaussian, Inc.),
 the Gaussian(R) 98 system (copyright 1998, Gaussian, Inc.),
 the Gaussian(R) 94 system (copyright 1995, Gaussian, Inc.),
 the Gaussian 92(TM) system (copyright 1992, Gaussian, Inc.),
 the Gaussian 90(TM) system (copyright 1990, Gaussian, Inc.),
 the Gaussian 88(TM) system (copyright 1988, Gaussian, Inc.),
 the Gaussian 86(TM) system (copyright 1986, Carnegie Mellon
 University), and the Gaussian 82(TM) system (copyright 1983,
 Carnegie Mellon University). Gaussian is a federally registered
 trademark of Gaussian, Inc.
  
 This software contains proprietary and confidential information,
 including trade secrets, belonging to Gaussian, Inc.
  
 This software is provided under written license and may be
 used, copied, transmitted, or stored only in accord with that
 written license.
  
 The following legend is applicable only to US Government
 contracts under FAR:
  
                    RESTRICTED RIGHTS LEGEND
  
 Use, reproduction and disclosure by the US Government is
 subject to restrictions as set forth in subparagraphs (a)
 and (c) of the Commercial Computer Software - Restricted
 Rights clause in FAR 52.227-19.
  
 Gaussian, Inc.
 340 Quinnipiac St., Bldg. 40, Wallingford CT 06492
  
  
 ---------------------------------------------------------------
 Warning -- This program may not be used in any manner that
 competes with the business of Gaussian, Inc. or will provide
 assistance to any competitor of Gaussian, Inc.  The licensee
 of this program is prohibited from giving any competitor of
 Gaussian, Inc. access to this program.  By using this program,
 the user acknowledges that Gaussian, Inc. is engaged in the
 business of creating and licensing software in the field of
 computational chemistry and represents and warrants to the
 licensee that it is not a competitor of Gaussian, Inc. and that
 it will not use this program in any manner prohibited above.
 ---------------------------------------------------------------
  

 Cite this work as:
 Gaussian 16, Revision A.03,
 M. J. Frisch, G. W. Trucks, H. B. Schlegel, G. E. Scuseria, 
 M. A. Robb, J. R. Cheeseman, G. Scalmani, V. Barone, 
 G. A. Petersson, H. Nakatsuji, X. Li, M. Caricato, A. V. Marenich, 
 J. Bloino, B. G. Janesko, R. Gomperts, B. Mennucci, H. P. Hratchian, 
 J. V. Ortiz, A. F. Izmaylov, J. L. Sonnenberg, D. Williams-Young, 
 F. Ding, F. Lipparini, F. Egidi, J. Goings, B. Peng, A. Petrone, 
 T. Henderson, D. Ranasinghe, V. G. Zakrzewski, J. Gao, N. Rega, 
 G. Zheng, W. Liang, M. Hada, M. Ehara, K. Toyota, R. Fukuda, 
 J. Hasegawa, M. Ishida, T. Nakajima, Y. Honda, O. Kitao, H. Nakai, 
 T. Vreven, K. Throssell, J. A. Montgomery, Jr., J. E. Peralta, 
 F. Ogliaro, M. J. Bearpark, J. J. Heyd, E. N. Brothers, K. N. Kudin, 
 V. N. Staroverov, T. A. Keith, R. Kobayashi, J. Normand, 
 K. Raghavachari, A. P. Rendell, J. C. Burant, S. S. Iyengar, 
 J. Tomasi, M. Cossi, J. M. Millam, M. Klene, C. Adamo, R. Cammi, 
 J. W. Ochterski, R. L. Martin, K. Morokuma, O. Farkas, 
 J. B. Foresman, and D. J. Fox, Gaussian, Inc., Wallingford CT, 2016.
 
 ******************************************
 Gaussian 16:  ES64L-G16RevA.03 25-Dec-2016
                10-Jul-2019 
 ******************************************
 %nproc=4
 Will use up to    4 processors via shared memory.
 %Mem=2GB
 -------------------------------------
 # td=(NStates=1) CAM-B3LYP/6-31G(d,p)
 -------------------------------------
 1/38=1,172=1/1;
 2/12=2,17=6,18=5,40=1/2;
 3/5=1,6=6,7=101,11=9,25=1,30=1,74=-40/1,2,3,8;
 4//1;
 5/5=2,38=5/2;
 8/6=1,10=2,108=1/1;
 9/41=1,42=1,70=2/14;
 6/7=2,8=2,9=2,10=2/1;
 99/5=1,9=1/99;
 --
 TD
 --
 Symbolic Z-matrix:
 Charge =  0 Multiplicity = 1
 8                     14.69287  -2.23569  -0.35018 
 8                    -14.75895   1.91545   0.8361 
 6                     11.14621  -1.5803    0.84421 
 6                    -12.31276  -1.02014   0.60626 
 6                     12.60995  -1.95689   0.98247 
 6                    -13.653   -0.28866   0.75439 
 6                     13.2807  -1.88481  -0.43114 
 6                    -13.51374   1.23622   0.78862 
 6                     10.90969  -0.26829   0.02395 
 6                    -11.32067  -0.2456   -0.26015 
 6                     13.16458  -0.48379  -0.94633 
 6                    -12.76975   1.7504   -0.44659 
 6                     11.87019   0.12839  -0.89452 
 6                    -11.52774   0.99197  -0.76825 
 6                     10.65266  -1.32257   2.37641 
 6                     10.1898  -2.63332   0.28372 
 6                    -11.74515  -1.24193   2.06195 
 6                    -12.57059  -2.46464   0.11862 
 6                     9.66747   0.44836   0.15265 
 6                    -10.12622  -0.91386  -0.48385 
 6                     11.8181   1.41591  -1.73633 
 6                    -10.572    1.61566  -1.64685 
 6                     9.40945   1.73055   0.13057 
 6                    -8.80228  -0.45231  -0.41449 
 6                     8.10514   2.3683    0.14169 
 6                    -7.60832  -1.16765  -0.47532 
 6                     8.13306   3.82703   0.41297 
 6                    -7.73796  -2.63352  -0.75053 
 6                     6.93385   1.64191  -0.03794 
 6                    -6.42775  -0.49127  -0.33329 
 6                     5.58536   2.16627   0.17348 
 6                    -5.09079  -1.03051  -0.51246 
 6                     4.57129   1.32041   0.0044 
 6                    -3.96967  -0.22597  -0.37192 
 6                     3.15763   1.61777   0.27786 
 6                    -2.5783   -0.70976  -0.47012 
 6                     2.81222   3.03663   0.58785 
 6                    -2.32981  -2.14292  -0.89428 
 6                     2.15758   0.6118    0.08348 
 6                    -1.62279   0.10024  -0.0934 
 6                     0.79623   0.81428   0.17783 
 6                    -0.15069  -0.1407   -0.1618 
 1                     13.46111  -1.40744   1.5788 
 1                     12.72209  -2.97385   1.28855 
 1                    -14.16618  -0.69301   1.73864 
 1                    -14.34229  -0.47665  -0.08784 
 1                     12.75386  -2.63234  -1.19176 
 1                    -12.72537   1.49273   1.67173 
 1                     13.94668  -0.02907  -0.24581 
 1                     13.56827  -0.41889  -1.97907 
 1                    -13.44234   1.92498  -1.32946 
 1                    -12.40741   2.81611  -0.18414 
 1                     11.05574  -2.02074   3.00794 
 1                     9.5773   -1.10999   2.33625 
 1                     11.14514  -0.5125    2.77913 
 1                     10.04849  -2.9626   -0.81213 
 1                     10.53321  -3.52732   0.68639 
 1                     9.20915  -2.29006   0.60542 
 1                    -11.54306  -0.17808   2.37671 
 1                    -10.92462  -1.86439   1.91496 
 1                    -12.66381  -1.6645    2.66726 
 1                    -13.05863  -3.28286   0.90965 
 1                    -11.64036  -2.96408  -0.07858 
 1                    -13.30137  -2.28739  -0.87292 
 1                     8.67706  -0.04673   0.67658 
 1                    -10.20453  -1.99252  -0.80592 
 1                     10.88315   1.64971  -1.99681 
 1                     12.11852   2.20956  -1.14131 
 1                     12.49875   1.41787  -2.71476 
 1                    -11.20808   2.39617  -2.25634 
 1                    -10.17852   0.81177  -2.28244 
 1                    -9.57128   2.13454  -1.15724 
 1                     14.53725  -2.93318   0.32901 
 1                    -15.21202   1.43595   1.4488 
 1                     10.28888   2.38924   0.13887 
 1                    -8.65114   0.64892  -0.37062 
 1                     9.1863    3.95704   0.28355 
 1                     7.44917   4.30289  -0.20999 
 1                     7.7703    4.1506    1.50656 
 1                    -8.12516  -3.16288  -0.03865 
 1                    -8.15287  -2.94627  -1.74475 
 1                    -6.69227  -3.30765  -0.72206 
 1                     7.08086   0.60262  -0.32254 
 1                    -6.64378   0.69415  -0.1994 
 1                     5.56438   3.09858   0.74977 
 1                    -5.09638  -2.07108  -0.96282 
 1                     4.70511   0.31236  -0.28415 
 1                    -4.04094   0.6988   -0.20787 
 1                     3.15432   3.13769   1.77136 
 1                     1.65887   3.09448   0.56192 
 1                     3.25103   3.59948  -0.19905 
 1                    -2.44285  -2.90366  -0.04502 
 1                    -3.14158  -2.62207  -1.64446 
 1                    -1.21673  -2.28971  -1.46095 
 1                     2.4612   -0.37667  -0.50613 
 1                    -1.89228   1.07272   0.17638 
 1                     0.486     1.84515   0.409 
 1                     0.04071  -1.13137  -0.59132 
 
 Stoichiometry    C40H56O2
 Framework group  C1[X(C40H56O2)]
 Deg. of freedom   288
 Full point group                 C1      NOp   1
 Largest Abelian subgroup         C1      NOp   1
 Largest concise Abelian subgroup C1      NOp   1
                         Standard orientation:                         
 ---------------------------------------------------------------------
 Center     Atomic      Atomic             Coordinates (Angstroms)
 Number     Number       Type             X           Y           Z
 ---------------------------------------------------------------------
      1          8           0       14.690621   -2.244296   -0.392599
      2          8           0      -14.756186    1.919084    0.872715
      3          6           0       11.144797   -1.606982    0.814016
      4          6           0      -12.313496   -1.014638    0.588241
      5          6           0       12.608103   -1.987817    0.945156
      6          6           0      -13.652863   -0.284436    0.750017
      7          6           0       13.278857   -1.890301   -0.466922
      8          6           0      -13.511787    1.239379    0.812539
      9          6           0       10.909798   -0.279695    0.018268
     10          6           0      -11.320533   -0.225319   -0.263723
     11          6           0       13.164377   -0.479817   -0.956008
     12          6           0      -12.767249    1.775512   -0.412972
     13          6           0       11.870724    0.132833   -0.892752
     14          6           0      -11.526162    1.021706   -0.748742
     15          6           0       10.651632   -1.377150    2.350773
     16          6           0       10.187109   -2.648280    0.234147
     17          6           0      -11.746075   -1.264087    2.039519
     18          6           0      -12.573076   -2.449524    0.073888
     19          6           0        9.668439    0.435925    0.160341
     20          6           0      -10.126889   -0.890738   -0.499874
     21          6           0       11.820116    1.435812   -1.710506
     22          6           0      -10.569719    1.660468   -1.615686
     23          6           0        9.411946    1.718605    0.162086
     24          6           0       -8.802401   -0.432121   -0.422053
     25          6           0        8.108391    2.357592    0.185145
     26          6           0       -7.609293   -1.147625   -0.496246
     27          6           0        8.138055    3.810999    0.483445
     28          6           0       -7.740694   -2.607986   -0.798611
     29          6           0        6.936232    1.636053   -0.007853
     30          6           0       -6.427909   -0.475403   -0.341771
     31          6           0        5.588373    2.157998    0.213364
     32          6           0       -5.091603   -1.012815   -0.531015
     33          6           0        4.573286    1.316625    0.028680
     34          6           0       -3.969520   -0.212359   -0.375649
     35          6           0        3.160002    1.610534    0.307721
     36          6           0       -2.578736   -0.695892   -0.482910
     37          6           0        2.816295    3.023810    0.644016
     38          6           0       -2.331971   -2.121222   -0.933625
     39          6           0        2.158748    0.609542    0.094770
     40          6           0       -1.622245    0.105839   -0.091298
     41          6           0        0.797637    0.811853    0.192965
     42          6           0       -0.150437   -0.135538   -0.164261
     43          1           0       13.459947   -1.450542    1.551520
     44          1           0       12.719041   -3.010411    1.232290
     45          1           0      -14.166470   -0.706377    1.726636
     46          1           0      -14.342416   -0.455938   -0.095506
     47          1           0       12.751089   -2.622957   -1.241252
     48          1           0      -12.723069    1.478515    1.700205
     49          1           0       13.947055   -0.039113   -0.247227
     50          1           0       13.568096   -0.396237   -1.987398
     51          1           0      -13.439676    1.967249   -1.292391
     52          1           0      -12.403626    2.835733   -0.130805
     53          1           0       11.053917   -2.087404    2.969199
     54          1           0        9.576524   -1.162587    2.314645
     55          1           0       11.145098   -0.575284    2.768425
     56          1           0       10.045353   -2.956992   -0.867616
     57          1           0       10.529479   -3.550008    0.620123
     58          1           0        9.206883   -2.309885    0.562231
     59          1           0      -11.542703   -0.206500    2.373954
     60          1           0      -10.926292   -1.884680    1.880932
     61          1           0      -12.665206   -1.696729    2.636943
     62          1           0      -13.062040   -3.281706    0.849625
     63          1           0      -11.643446   -2.946327   -0.132626
     64          1           0      -13.303690   -2.253030   -0.914140
     65          1           0        8.677466   -0.067631    0.675069
     66          1           0      -10.206496   -1.963132   -0.841911
     67          1           0       10.885433    1.675521   -1.966538
     68          1           0       12.121511    2.217927   -1.100882
     69          1           0       12.500721    1.455132   -2.688790
     70          1           0      -11.204902    2.452907   -2.210530
     71          1           0      -10.177236    0.868043   -2.266121
     72          1           0       -9.568363    2.168976   -1.116600
     73          1           0       14.534205   -2.954091    0.273541
     74          1           0      -15.209789    1.428835    1.476434
     75          1           0       10.292159    2.375979    0.182548
     76          1           0       -8.649948    0.667921   -0.357760
     77          1           0        9.191443    3.942135    0.356392
     78          1           0        7.454705    4.299147   -0.130516
     79          1           0        7.775737    4.114638    1.582882
     80          1           0       -8.128479   -3.150007   -0.096647
     81          1           0       -8.156024   -2.901735   -1.798427
     82          1           0       -6.695807   -3.283763   -0.782731
     83          1           0        7.081992    0.602052   -0.311711
     84          1           0       -6.642528    0.707577   -0.185876
     85          1           0        5.568537    3.079468    0.806860
     86          1           0       -5.098456   -2.044842   -1.000617
     87          1           0        4.705900    0.313944   -0.278541
     88          1           0       -4.039679    0.709294   -0.194454
     89          1           0        3.158575    3.102470    1.829177
     90          1           0        1.663015    3.083500    0.619254
     91          1           0        3.255731    3.600644   -0.132332
     92          1           0       -2.445865   -2.897466   -0.098626
     93          1           0       -3.144350   -2.585400   -1.692513
     94          1           0       -1.219096   -2.258788   -1.503008
     95          1           0        2.461155   -0.368177   -0.513104
     96          1           0       -1.890565    1.073460    0.196515
     97          1           0        0.488647    1.838618    0.443258
     98          1           0        0.039763   -1.118292   -0.612115
 ---------------------------------------------------------------------
 Rotational constants (GHZ):           0.2474191           0.0093415           0.0091382
 Standard basis: 6-31G(d,p) (6D, 7F)
 There are   910 symmetry adapted cartesian basis functions of A   symmetry.
 There are   910 symmetry adapted basis functions of A   symmetry.
   910 basis functions,  1568 primitive gaussians,   910 cartesian basis functions
   156 alpha electrons      156 beta electrons
       nuclear repulsion energy      3985.2268979664 Hartrees.
 NAtoms=   98 NActive=   98 NUniq=   98 SFac= 1.00D+00 NAtFMM=   60 NAOKFM=T Big=T
 Integral buffers will be    131072 words long.
 Raffenetti 1 integral format.
 Two-electron integral symmetry is turned on.
 One-electron integrals computed using PRISM.
 NBasis=   910 RedAO= T EigKep=  8.86D-04  NBF=   910
 NBsUse=   910 1.00D-06 EigRej= -1.00D+00 NBFU=   910
 ExpMin= 1.61D-01 ExpMax= 5.48D+03 ExpMxC= 8.25D+02 IAcc=3 IRadAn=         5 AccDes= 0.00D+00
 Harris functional with IExCor=20419 and IRadAn=       5 diagonalized for initial guess.
 HarFok:  IExCor=20419 AccDes= 0.00D+00 IRadAn=         5 IDoV= 1 UseB2=F ITyADJ=14
 ICtDFT=  3500011 ScaDFX=  1.000000  1.000000  1.000000  1.000000
 FoFCou: FMM=F IPFlag=           0 FMFlag=      100000 FMFlg1=        2001
         NFxFlg=           0 DoJE=T BraDBF=F KetDBF=T FulRan=T
         wScrn=  0.000000 ICntrl=       500 IOpCl=  0 I1Cent=   200000004 NGrid=           0
         NMat0=    1 NMatS0=      1 NMatT0=    0 NMatD0=    1 NMtDS0=    0 NMtDT0=    0
 Petite list used in FoFCou.
 Requested convergence on RMS density matrix=1.00D-08 within 128 cycles.
 Requested convergence on MAX density matrix=1.00D-06.
 Requested convergence on             energy=1.00D-06.
 No special actions if energy rises.
 Integral accuracy reduced to 1.0D-05 until final iterations.
 Initial convergence to 1.0D-05 achieved.  Increase integral accuracy.
 SCF Done:  E(RCAM-B3LYP) =  -1706.97568575     A.U. after   14 cycles
            NFock= 14  Conv=0.89D-08     -V/T= 2.0099
 DoSCS=F DFT=T ScalE2(SS,OS)=  1.000000  1.000000
 ExpMin= 1.61D-01 ExpMax= 5.48D+03 ExpMxC= 8.25D+02 IAcc=3 IRadAn=         5 AccDes= 0.00D+00
 HarFok:  IExCor=  205 AccDes= 0.00D+00 IRadAn=         5 IDoV=-2 UseB2=F ITyADJ=14
 ICtDFT= 12500011 ScaDFX=  1.000000  1.000000  1.000000  1.000000
 GSVD:  LWork=       -2100 too small for GESVD, short by        9450 words or        9450 for optimal perf.
 Range of M.O.s used for correlation:    43   910
 NBasis=   910 NAE=   156 NBE=   156 NFC=    42 NFV=     0
 NROrb=    868 NOA=   114 NOB=   114 NVA=   754 NVB=   754
 Orbital symmetries:
       Occupied  (A) (A) (A) (A) (A) (A) (A) (A) (A) (A) (A) (A)
                 (A) (A) (A) (A) (A) (A) (A) (A) (A) (A) (A) (A)
                 (A) (A) (A) (A) (A) (A) (A) (A) (A) (A) (A) (A)
                 (A) (A) (A) (A) (A) (A) (A) (A) (A) (A) (A) (A)
                 (A) (A) (A) (A) (A) (A) (A) (A) (A) (A) (A) (A)
                 (A) (A) (A) (A) (A) (A) (A) (A) (A) (A) (A) (A)
                 (A) (A) (A) (A) (A) (A) (A) (A) (A) (A) (A) (A)
                 (A) (A) (A) (A) (A) (A) (A) (A) (A) (A) (A) (A)
                 (A) (A) (A) (A) (A) (A) (A) (A) (A) (A) (A) (A)
                 (A) (A) (A) (A) (A) (A) (A) (A) (A) (A) (A) (A)
                 (A) (A) (A) (A) (A) (A) (A) (A) (A) (A) (A) (A)
                 (A) (A) (A) (A) (A) (A) (A) (A) (A) (A) (A) (A)
                 (A) (A) (A) (A) (A) (A) (A) (A) (A) (A) (A) (A)
       Virtual   (A) (A) (A) (A) (A) (A) (A) (A) (A) (A) (A) (A)
                 (A) (A) (A) (A) (A) (A) (A) (A) (A) (A) (A) (A)
                 (A) (A) (A) (A) (A) (A) (A) (A) (A) (A) (A) (A)
                 (A) (A) (A) (A) (A) (A) (A) (A) (A) (A) (A) (A)
                 (A) (A) (A) (A) (A) (A) (A) (A) (A) (A) (A) (A)
                 (A) (A) (A) (A) (A) (A) (A) (A) (A) (A) (A) (A)
                 (A) (A) (A) (A) (A) (A) (A) (A) (A) (A) (A) (A)
                 (A) (A) (A) (A) (A) (A) (A) (A) (A) (A) (A) (A)
                 (A) (A) (A) (A) (A) (A) (A) (A) (A) (A) (A) (A)
                 (A) (A) (A) (A) (A) (A) (A) (A) (A) (A) (A) (A)
                 (A) (A) (A) (A) (A) (A) (A) (A) (A) (A) (A) (A)
                 (A) (A) (A) (A) (A) (A) (A) (A) (A) (A) (A) (A)
                 (A) (A) (A) (A) (A) (A) (A) (A) (A) (A) (A) (A)
                 (A) (A) (A) (A) (A) (A) (A) (A) (A) (A) (A) (A)
                 (A) (A) (A) (A) (A) (A) (A) (A) (A) (A) (A) (A)
                 (A) (A) (A) (A) (A) (A) (A) (A) (A) (A) (A) (A)
                 (A) (A) (A) (A) (A) (A) (A) (A) (A) (A) (A) (A)
                 (A) (A) (A) (A) (A) (A) (A) (A) (A) (A) (A) (A)
                 (A) (A) (A) (A) (A) (A) (A) (A) (A) (A) (A) (A)
                 (A) (A) (A) (A) (A) (A) (A) (A) (A) (A) (A) (A)
                 (A) (A) (A) (A) (A) (A) (A) (A) (A) (A) (A) (A)
                 (A) (A) (A) (A) (A) (A) (A) (A) (A) (A) (A) (A)
                 (A) (A) (A) (A) (A) (A) (A) (A) (A) (A) (A) (A)
                 (A) (A) (A) (A) (A) (A) (A) (A) (A) (A) (A) (A)
                 (A) (A) (A) (A) (A) (A) (A) (A) (A) (A) (A) (A)
                 (A) (A) (A) (A) (A) (A) (A) (A) (A) (A) (A) (A)
                 (A) (A) (A) (A) (A) (A) (A) (A) (A) (A) (A) (A)
                 (A) (A) (A) (A) (A) (A) (A) (A) (A) (A) (A) (A)
                 (A) (A) (A) (A) (A) (A) (A) (A) (A) (A) (A) (A)
                 (A) (A) (A) (A) (A) (A) (A) (A) (A) (A) (A) (A)
                 (A) (A) (A) (A) (A) (A) (A) (A) (A) (A) (A) (A)
                 (A) (A) (A) (A) (A) (A) (A) (A) (A) (A) (A) (A)
                 (A) (A) (A) (A) (A) (A) (A) (A) (A) (A) (A) (A)
                 (A) (A) (A) (A) (A) (A) (A) (A) (A) (A) (A) (A)
                 (A) (A) (A) (A) (A) (A) (A) (A) (A) (A) (A) (A)
                 (A) (A) (A) (A) (A) (A) (A) (A) (A) (A) (A) (A)
                 (A) (A) (A) (A) (A) (A) (A) (A) (A) (A) (A) (A)
                 (A) (A) (A) (A) (A) (A) (A) (A) (A) (A) (A) (A)
                 (A) (A) (A) (A) (A) (A) (A) (A) (A) (A) (A) (A)
                 (A) (A) (A) (A) (A) (A) (A) (A) (A) (A) (A) (A)
                 (A) (A) (A) (A) (A) (A) (A) (A) (A) (A) (A) (A)
                 (A) (A) (A) (A) (A) (A) (A) (A) (A) (A) (A) (A)
                 (A) (A) (A) (A) (A) (A) (A) (A) (A) (A) (A) (A)
                 (A) (A) (A) (A) (A) (A) (A) (A) (A) (A) (A) (A)
                 (A) (A) (A) (A) (A) (A) (A) (A) (A) (A) (A) (A)
                 (A) (A) (A) (A) (A) (A) (A) (A) (A) (A) (A) (A)
                 (A) (A) (A) (A) (A) (A) (A) (A) (A) (A) (A) (A)
                 (A) (A) (A) (A) (A) (A) (A) (A) (A) (A) (A) (A)
                 (A) (A) (A) (A) (A) (A) (A) (A) (A) (A) (A) (A)
                 (A) (A) (A) (A) (A) (A) (A) (A) (A) (A) (A) (A)
                 (A) (A) (A) (A) (A) (A) (A) (A) (A) (A) (A) (A)
                 (A) (A) (A) (A) (A) (A) (A) (A) (A) (A) (A) (A)
                 (A) (A) (A) (A) (A) (A) (A) (A) (A) (A) (A) (A)
                 (A) (A) (A) (A) (A) (A) (A) (A) (A) (A) (A) (A)
                 (A) (A) (A) (A) (A) (A) (A) (A) (A) (A) (A) (A)
                 (A) (A) (A) (A) (A) (A) (A) (A) (A) (A) (A) (A)
                 (A) (A) (A) (A) (A) (A) (A) (A) (A) (A) (A) (A)
                 (A) (A) (A) (A) (A) (A) (A) (A) (A) (A) (A) (A)
                 (A) (A) (A) (A) (A) (A) (A) (A) (A) (A) (A) (A)
                 (A) (A) (A) (A) (A) (A) (A) (A) (A) (A) (A) (A)
                 (A) (A) (A) (A) (A) (A) (A) (A) (A) (A) (A) (A)
                 (A) (A) (A) (A) (A) (A) (A) (A) (A) (A) (A) (A)
                 (A) (A) (A) (A) (A) (A) (A) (A) (A) (A)
     4 initial guesses have been made.
 Convergence on wavefunction:    0.001000000000000
 Iteration     1 Dimension     4 NMult     0 NNew      4
 CISAX will form     4 AO SS matrices at one time.
 Iteration     2 Dimension     6 NMult     4 NNew      2
 Iteration     3 Dimension     8 NMult     6 NNew      2
 Iteration     4 Dimension    10 NMult     8 NNew      2
 Iteration     5 Dimension    12 NMult    10 NNew      2
 Iteration     6 Dimension    14 NMult    12 NNew      2
 ***********************************************************************
 Excited states from <AA,BB:AA,BB> singles matrix:
 ***********************************************************************
 
 Ground to excited state transition densities written to RWF  633
 Ground to excited state transition electric dipole moments (Au):
       state          X           Y           Z        Dip. S.      Osc.
         1        -7.6838     -1.0110     -0.3144     60.1611      3.6688
 Ground to excited state transition velocity dipole moments (Au):
       state          X           Y           Z        Dip. S.      Osc.
         1         0.6759      0.0896      0.0306      0.4658      3.3948
 Ground to excited state transition magnetic dipole moments (Au):
       state          X           Y           Z
         1         0.0605     -0.0247     -0.7012
 Ground to excited state transition velocity quadrupole moments (Au):
       state          XX          YY          ZZ          XY          XZ          YZ
         1         0.6300      0.2366      0.0115      0.3534     -0.2952      0.0415
 <0|del|b> * <b|rxdel|0> + <0|del|b> * <b|delr+rdel|0>
 Rotatory Strengths (R) in cgs (10**-40 erg-esu-cm/Gauss)
       state          XX          YY          ZZ    R(velocity)    E-M Angle
         1        52.4676    141.3806    -61.1894     44.2196       87.95
 1/2[<0|r|b>*<b|rxdel|0> + (<0|rxdel|b>*<b|r|0>)*]
 Rotatory Strengths (R) in cgs (10**-40 erg-esu-cm/Gauss)
       state          XX          YY          ZZ     R(length)
         1       328.5321    -17.6836   -155.9099     51.6462
  1/2[<0|del|b>*<b|r|0> + (<0|r|b>*<b|del|0>)*] (Au)
       state          X           Y           Z        Dip. S.   Osc.(frdel)
         1        -5.1934     -0.0906     -0.0096      5.2937      3.5291

 Excitation energies and oscillator strengths:
 
 Excited State   1:      Singlet-A      2.4892 eV  498.10 nm  f=3.6688  <S**2>=0.000
     155 ->158         0.20129
     156 ->157         0.66984
 This state for optimization and/or second-order correction.
 Total Energy, E(TD-HF/TD-DFT) =  -1706.88421096    
 Copying the excited state density for this state as the 1-particle RhoCI density.
 SavETr:  write IOETrn=   770 NScale= 10 NData=  16 NLR=1 NState=    1 LETran=      28.

 **********************************************************************

            Population analysis using the SCF density.

 **********************************************************************

 Orbital symmetries:
       Occupied  (A) (A) (A) (A) (A) (A) (A) (A) (A) (A) (A) (A)
                 (A) (A) (A) (A) (A) (A) (A) (A) (A) (A) (A) (A)
                 (A) (A) (A) (A) (A) (A) (A) (A) (A) (A) (A) (A)
                 (A) (A) (A) (A) (A) (A) (A) (A) (A) (A) (A) (A)
                 (A) (A) (A) (A) (A) (A) (A) (A) (A) (A) (A) (A)
                 (A) (A) (A) (A) (A) (A) (A) (A) (A) (A) (A) (A)
                 (A) (A) (A) (A) (A) (A) (A) (A) (A) (A) (A) (A)
                 (A) (A) (A) (A) (A) (A) (A) (A) (A) (A) (A) (A)
                 (A) (A) (A) (A) (A) (A) (A) (A) (A) (A) (A) (A)
                 (A) (A) (A) (A) (A) (A) (A) (A) (A) (A) (A) (A)
                 (A) (A) (A) (A) (A) (A) (A) (A) (A) (A) (A) (A)
                 (A) (A) (A) (A) (A) (A) (A) (A) (A) (A) (A) (A)
                 (A) (A) (A) (A) (A) (A) (A) (A) (A) (A) (A) (A)
       Virtual   (A) (A) (A) (A) (A) (A) (A) (A) (A) (A) (A) (A)
                 (A) (A) (A) (A) (A) (A) (A) (A) (A) (A) (A) (A)
                 (A) (A) (A) (A) (A) (A) (A) (A) (A) (A) (A) (A)
                 (A) (A) (A) (A) (A) (A) (A) (A) (A) (A) (A) (A)
                 (A) (A) (A) (A) (A) (A) (A) (A) (A) (A) (A) (A)
                 (A) (A) (A) (A) (A) (A) (A) (A) (A) (A) (A) (A)
                 (A) (A) (A) (A) (A) (A) (A) (A) (A) (A) (A) (A)
                 (A) (A) (A) (A) (A) (A) (A) (A) (A) (A) (A) (A)
                 (A) (A) (A) (A) (A) (A) (A) (A) (A) (A) (A) (A)
                 (A) (A) (A) (A) (A) (A) (A) (A) (A) (A) (A) (A)
                 (A) (A) (A) (A) (A) (A) (A) (A) (A) (A) (A) (A)
                 (A) (A) (A) (A) (A) (A) (A) (A) (A) (A) (A) (A)
                 (A) (A) (A) (A) (A) (A) (A) (A) (A) (A) (A) (A)
                 (A) (A) (A) (A) (A) (A) (A) (A) (A) (A) (A) (A)
                 (A) (A) (A) (A) (A) (A) (A) (A) (A) (A) (A) (A)
                 (A) (A) (A) (A) (A) (A) (A) (A) (A) (A) (A) (A)
                 (A) (A) (A) (A) (A) (A) (A) (A) (A) (A) (A) (A)
                 (A) (A) (A) (A) (A) (A) (A) (A) (A) (A) (A) (A)
                 (A) (A) (A) (A) (A) (A) (A) (A) (A) (A) (A) (A)
                 (A) (A) (A) (A) (A) (A) (A) (A) (A) (A) (A) (A)
                 (A) (A) (A) (A) (A) (A) (A) (A) (A) (A) (A) (A)
                 (A) (A) (A) (A) (A) (A) (A) (A) (A) (A) (A) (A)
                 (A) (A) (A) (A) (A) (A) (A) (A) (A) (A) (A) (A)
                 (A) (A) (A) (A) (A) (A) (A) (A) (A) (A) (A) (A)
                 (A) (A) (A) (A) (A) (A) (A) (A) (A) (A) (A) (A)
                 (A) (A) (A) (A) (A) (A) (A) (A) (A) (A) (A) (A)
                 (A) (A) (A) (A) (A) (A) (A) (A) (A) (A) (A) (A)
                 (A) (A) (A) (A) (A) (A) (A) (A) (A) (A) (A) (A)
                 (A) (A) (A) (A) (A) (A) (A) (A) (A) (A) (A) (A)
                 (A) (A) (A) (A) (A) (A) (A) (A) (A) (A) (A) (A)
                 (A) (A) (A) (A) (A) (A) (A) (A) (A) (A) (A) (A)
                 (A) (A) (A) (A) (A) (A) (A) (A) (A) (A) (A) (A)
                 (A) (A) (A) (A) (A) (A) (A) (A) (A) (A) (A) (A)
                 (A) (A) (A) (A) (A) (A) (A) (A) (A) (A) (A) (A)
                 (A) (A) (A) (A) (A) (A) (A) (A) (A) (A) (A) (A)
                 (A) (A) (A) (A) (A) (A) (A) (A) (A) (A) (A) (A)
                 (A) (A) (A) (A) (A) (A) (A) (A) (A) (A) (A) (A)
                 (A) (A) (A) (A) (A) (A) (A) (A) (A) (A) (A) (A)
                 (A) (A) (A) (A) (A) (A) (A) (A) (A) (A) (A) (A)
                 (A) (A) (A) (A) (A) (A) (A) (A) (A) (A) (A) (A)
                 (A) (A) (A) (A) (A) (A) (A) (A) (A) (A) (A) (A)
                 (A) (A) (A) (A) (A) (A) (A) (A) (A) (A) (A) (A)
                 (A) (A) (A) (A) (A) (A) (A) (A) (A) (A) (A) (A)
                 (A) (A) (A) (A) (A) (A) (A) (A) (A) (A) (A) (A)
                 (A) (A) (A) (A) (A) (A) (A) (A) (A) (A) (A) (A)
                 (A) (A) (A) (A) (A) (A) (A) (A) (A) (A) (A) (A)
                 (A) (A) (A) (A) (A) (A) (A) (A) (A) (A) (A) (A)
                 (A) (A) (A) (A) (A) (A) (A) (A) (A) (A) (A) (A)
                 (A) (A) (A) (A) (A) (A) (A) (A) (A) (A) (A) (A)
                 (A) (A) (A) (A) (A) (A) (A) (A) (A) (A) (A) (A)
                 (A) (A) (A) (A) (A) (A) (A) (A) (A) (A) (A) (A)
                 (A) (A) (A) (A) (A) (A) (A) (A) (A) (A) (A) (A)
                 (A) (A) (A) (A) (A) (A) (A) (A) (A) (A) (A) (A)
                 (A) (A) (A) (A) (A) (A) (A) (A) (A) (A) (A) (A)
                 (A) (A) (A) (A) (A) (A) (A) (A) (A) (A) (A) (A)
                 (A) (A) (A) (A) (A) (A) (A) (A) (A) (A) (A) (A)
                 (A) (A) (A) (A) (A) (A) (A) (A) (A) (A) (A) (A)
                 (A) (A) (A) (A) (A) (A) (A) (A) (A) (A) (A) (A)
                 (A) (A) (A) (A) (A) (A) (A) (A) (A) (A) (A) (A)
                 (A) (A) (A) (A) (A) (A) (A) (A) (A) (A) (A) (A)
                 (A) (A) (A) (A) (A) (A) (A) (A) (A) (A) (A) (A)
                 (A) (A) (A) (A) (A) (A) (A) (A) (A) (A) (A) (A)
                 (A) (A) (A) (A) (A) (A) (A) (A) (A) (A)
 The electronic state is 1-A.
 Alpha  occ. eigenvalues --  -19.21760 -19.21490 -10.31532 -10.30917 -10.28937
 Alpha  occ. eigenvalues --  -10.28634 -10.28019 -10.27587 -10.27451 -10.27354
 Alpha  occ. eigenvalues --  -10.27332 -10.27242 -10.27164 -10.27103 -10.27079
 Alpha  occ. eigenvalues --  -10.27021 -10.26923 -10.26857 -10.26782 -10.26678
 Alpha  occ. eigenvalues --  -10.26623 -10.26567 -10.26557 -10.26334 -10.26158
 Alpha  occ. eigenvalues --  -10.26053 -10.26032 -10.26031 -10.25986 -10.25861
 Alpha  occ. eigenvalues --  -10.25806 -10.25734 -10.25644 -10.25506 -10.25457
 Alpha  occ. eigenvalues --  -10.25320 -10.25212 -10.25078 -10.24951 -10.24873
 Alpha  occ. eigenvalues --  -10.24489 -10.23816  -1.11658  -1.09203  -0.94336
 Alpha  occ. eigenvalues --   -0.93883  -0.92206  -0.91796  -0.90996  -0.90371
 Alpha  occ. eigenvalues --   -0.87768  -0.87687  -0.87321  -0.85685  -0.85001
 Alpha  occ. eigenvalues --   -0.83679  -0.82137  -0.80730  -0.79577  -0.77782
 Alpha  occ. eigenvalues --   -0.77367  -0.76967  -0.76848  -0.76412  -0.75753
 Alpha  occ. eigenvalues --   -0.75622  -0.75425  -0.74502  -0.73571  -0.70612
 Alpha  occ. eigenvalues --   -0.68923  -0.67458  -0.65897  -0.64906  -0.63946
 Alpha  occ. eigenvalues --   -0.63463  -0.62695  -0.62036  -0.60654  -0.59940
 Alpha  occ. eigenvalues --   -0.59450  -0.58518  -0.58148  -0.57566  -0.56412
 Alpha  occ. eigenvalues --   -0.56109  -0.55676  -0.55548  -0.54160  -0.53869
 Alpha  occ. eigenvalues --   -0.53646  -0.52874  -0.52370  -0.52022  -0.50796
 Alpha  occ. eigenvalues --   -0.50266  -0.50127  -0.49998  -0.49878  -0.49667
 Alpha  occ. eigenvalues --   -0.49336  -0.49083  -0.48538  -0.48101  -0.47742
 Alpha  occ. eigenvalues --   -0.47657  -0.47281  -0.47089  -0.46913  -0.46554
 Alpha  occ. eigenvalues --   -0.46341  -0.46056  -0.45883  -0.45463  -0.45412
 Alpha  occ. eigenvalues --   -0.45372  -0.44683  -0.44664  -0.44090  -0.43766
 Alpha  occ. eigenvalues --   -0.43066  -0.42806  -0.42674  -0.42633  -0.42151
 Alpha  occ. eigenvalues --   -0.41765  -0.41714  -0.41344  -0.41169  -0.40948
 Alpha  occ. eigenvalues --   -0.40499  -0.40355  -0.39909  -0.39686  -0.39579
 Alpha  occ. eigenvalues --   -0.39524  -0.39128  -0.39108  -0.38462  -0.38349
 Alpha  occ. eigenvalues --   -0.38043  -0.37592  -0.37414  -0.37049  -0.35649
 Alpha  occ. eigenvalues --   -0.35402  -0.34903  -0.34612  -0.32515  -0.32158
 Alpha  occ. eigenvalues --   -0.32003  -0.29684  -0.28378  -0.25698  -0.23161
 Alpha  occ. eigenvalues --   -0.20509
 Alpha virt. eigenvalues --   -0.05078  -0.01747   0.01349   0.05221   0.07309
 Alpha virt. eigenvalues --    0.09167   0.10741   0.11082   0.11479   0.11907
 Alpha virt. eigenvalues --    0.12040   0.12906   0.13071   0.13761   0.13872
 Alpha virt. eigenvalues --    0.13992   0.14339   0.14536   0.14778   0.14996
 Alpha virt. eigenvalues --    0.15187   0.15199   0.15456   0.15789   0.15876
 Alpha virt. eigenvalues --    0.16225   0.16376   0.16903   0.17264   0.17437
 Alpha virt. eigenvalues --    0.17559   0.17867   0.18094   0.18873   0.19089
 Alpha virt. eigenvalues --    0.19500   0.20301   0.20582   0.20719   0.21152
 Alpha virt. eigenvalues --    0.21556   0.21585   0.21855   0.21920   0.22057
 Alpha virt. eigenvalues --    0.22339   0.22585   0.22984   0.23175   0.23855
 Alpha virt. eigenvalues --    0.23968   0.24204   0.24446   0.24490   0.24756
 Alpha virt. eigenvalues --    0.24818   0.25161   0.25734   0.26114   0.26452
 Alpha virt. eigenvalues --    0.27036   0.27364   0.27759   0.27852   0.28405
 Alpha virt. eigenvalues --    0.28436   0.28855   0.29149   0.29441   0.29779
 Alpha virt. eigenvalues --    0.29915   0.30138   0.30368   0.31102   0.31336
 Alpha virt. eigenvalues --    0.31521   0.31848   0.32003   0.32398   0.32687
 Alpha virt. eigenvalues --    0.33007   0.33071   0.33959   0.34065   0.34715
 Alpha virt. eigenvalues --    0.35185   0.35455   0.36238   0.37028   0.37714
 Alpha virt. eigenvalues --    0.38294   0.38903   0.40557   0.41387   0.42350
 Alpha virt. eigenvalues --    0.43022   0.43940   0.44493   0.44927   0.45194
 Alpha virt. eigenvalues --    0.46076   0.47612   0.47987   0.48557   0.49824
 Alpha virt. eigenvalues --    0.50580   0.51419   0.52006   0.52961   0.53806
 Alpha virt. eigenvalues --    0.53876   0.55219   0.55727   0.56410   0.57069
 Alpha virt. eigenvalues --    0.57226   0.57355   0.57863   0.58084   0.58540
 Alpha virt. eigenvalues --    0.58965   0.59418   0.59818   0.60169   0.60274
 Alpha virt. eigenvalues --    0.60773   0.61180   0.61259   0.61523   0.62118
 Alpha virt. eigenvalues --    0.62222   0.62552   0.62738   0.63025   0.63336
 Alpha virt. eigenvalues --    0.63475   0.63974   0.64621   0.64687   0.64758
 Alpha virt. eigenvalues --    0.65156   0.65393   0.65653   0.66097   0.66240
 Alpha virt. eigenvalues --    0.66658   0.67038   0.67263   0.67452   0.67890
 Alpha virt. eigenvalues --    0.68522   0.68834   0.69016   0.69241   0.69402
 Alpha virt. eigenvalues --    0.69657   0.69973   0.70593   0.71393   0.71510
 Alpha virt. eigenvalues --    0.71588   0.71846   0.72398   0.72543   0.73105
 Alpha virt. eigenvalues --    0.73423   0.73915   0.74624   0.74866   0.75377
 Alpha virt. eigenvalues --    0.75796   0.76188   0.76477   0.76774   0.77307
 Alpha virt. eigenvalues --    0.77874   0.78159   0.78256   0.78721   0.79033
 Alpha virt. eigenvalues --    0.79495   0.79760   0.80216   0.80320   0.80993
 Alpha virt. eigenvalues --    0.81397   0.81916   0.82136   0.82897   0.82927
 Alpha virt. eigenvalues --    0.82998   0.83219   0.83361   0.83853   0.84111
 Alpha virt. eigenvalues --    0.84510   0.84927   0.85172   0.85362   0.85878
 Alpha virt. eigenvalues --    0.86035   0.86752   0.87272   0.87713   0.87750
 Alpha virt. eigenvalues --    0.87954   0.88231   0.88244   0.88477   0.88844
 Alpha virt. eigenvalues --    0.89039   0.89546   0.89757   0.90063   0.90309
 Alpha virt. eigenvalues --    0.90360   0.90462   0.90554   0.91058   0.91516
 Alpha virt. eigenvalues --    0.91612   0.91826   0.92121   0.92475   0.92561
 Alpha virt. eigenvalues --    0.92864   0.92992   0.93268   0.94014   0.94443
 Alpha virt. eigenvalues --    0.94546   0.94770   0.95270   0.95610   0.95688
 Alpha virt. eigenvalues --    0.96703   0.97155   0.97213   0.97511   0.97920
 Alpha virt. eigenvalues --    0.98080   0.98667   0.98729   0.99165   1.00094
 Alpha virt. eigenvalues --    1.00290   1.00537   1.00766   1.01141   1.01206
 Alpha virt. eigenvalues --    1.01788   1.01977   1.02477   1.03152   1.03468
 Alpha virt. eigenvalues --    1.03720   1.03838   1.04778   1.05215   1.05267
 Alpha virt. eigenvalues --    1.05833   1.06258   1.06685   1.07016   1.07270
 Alpha virt. eigenvalues --    1.07908   1.08603   1.09110   1.09534   1.09735
 Alpha virt. eigenvalues --    1.10131   1.10468   1.11144   1.11214   1.11974
 Alpha virt. eigenvalues --    1.12294   1.12488   1.13297   1.13877   1.14817
 Alpha virt. eigenvalues --    1.14932   1.15141   1.15590   1.16179   1.17324
 Alpha virt. eigenvalues --    1.18051   1.18599   1.18809   1.19552   1.20696
 Alpha virt. eigenvalues --    1.21272   1.22126   1.22926   1.23409   1.23820
 Alpha virt. eigenvalues --    1.24674   1.24975   1.26404   1.27827   1.28407
 Alpha virt. eigenvalues --    1.28657   1.28983   1.30371   1.30844   1.31446
 Alpha virt. eigenvalues --    1.32081   1.33030   1.33818   1.35079   1.35503
 Alpha virt. eigenvalues --    1.35726   1.36460   1.37481   1.37885   1.38051
 Alpha virt. eigenvalues --    1.39158   1.39956   1.41443   1.41721   1.42122
 Alpha virt. eigenvalues --    1.42875   1.43402   1.43783   1.44523   1.45259
 Alpha virt. eigenvalues --    1.46050   1.46268   1.46597   1.47104   1.48722
 Alpha virt. eigenvalues --    1.49655   1.50108   1.51152   1.51844   1.52617
 Alpha virt. eigenvalues --    1.54094   1.54763   1.55069   1.55912   1.56949
 Alpha virt. eigenvalues --    1.57617   1.57819   1.58692   1.59150   1.59330
 Alpha virt. eigenvalues --    1.59728   1.60682   1.61558   1.64013   1.64891
 Alpha virt. eigenvalues --    1.64950   1.65386   1.66174   1.66490   1.66913
 Alpha virt. eigenvalues --    1.67360   1.68116   1.68388   1.68803   1.70718
 Alpha virt. eigenvalues --    1.72106   1.73853   1.74995   1.76139   1.77246
 Alpha virt. eigenvalues --    1.78083   1.79068   1.79637   1.80381   1.81018
 Alpha virt. eigenvalues --    1.81279   1.81807   1.82270   1.82599   1.82671
 Alpha virt. eigenvalues --    1.83552   1.83671   1.83742   1.84346   1.84997
 Alpha virt. eigenvalues --    1.85203   1.85498   1.85607   1.86844   1.87307
 Alpha virt. eigenvalues --    1.87811   1.87917   1.88135   1.89017   1.89270
 Alpha virt. eigenvalues --    1.89433   1.89839   1.89954   1.90253   1.90574
 Alpha virt. eigenvalues --    1.91029   1.91260   1.91706   1.92013   1.92503
 Alpha virt. eigenvalues --    1.92768   1.92970   1.93513   1.94180   1.94433
 Alpha virt. eigenvalues --    1.95039   1.95381   1.96232   1.96287   1.96860
 Alpha virt. eigenvalues --    1.97060   1.97438   1.97870   1.98124   1.98528
 Alpha virt. eigenvalues --    1.98626   1.99133   1.99239   1.99800   2.00157
 Alpha virt. eigenvalues --    2.00432   2.01281   2.01369   2.02029   2.02799
 Alpha virt. eigenvalues --    2.03070   2.03149   2.03893   2.04185   2.04319
 Alpha virt. eigenvalues --    2.04499   2.05948   2.06686   2.06808   2.07049
 Alpha virt. eigenvalues --    2.07488   2.07880   2.08129   2.08524   2.08753
 Alpha virt. eigenvalues --    2.09231   2.09820   2.10103   2.10392   2.10762
 Alpha virt. eigenvalues --    2.10997   2.11524   2.11812   2.12195   2.12401
 Alpha virt. eigenvalues --    2.12431   2.12593   2.13831   2.14341   2.14678
 Alpha virt. eigenvalues --    2.15116   2.15323   2.15952   2.16070   2.16432
 Alpha virt. eigenvalues --    2.17195   2.17485   2.18221   2.18432   2.18783
 Alpha virt. eigenvalues --    2.19046   2.19637   2.20231   2.21152   2.21325
 Alpha virt. eigenvalues --    2.21469   2.21860   2.22316   2.23220   2.23326
 Alpha virt. eigenvalues --    2.23607   2.24316   2.24401   2.25263   2.26651
 Alpha virt. eigenvalues --    2.26773   2.27136   2.27371   2.28394   2.28781
 Alpha virt. eigenvalues --    2.29221   2.29599   2.29987   2.30441   2.32053
 Alpha virt. eigenvalues --    2.32156   2.33678   2.33874   2.34511   2.34730
 Alpha virt. eigenvalues --    2.35498   2.35797   2.35953   2.36103   2.36897
 Alpha virt. eigenvalues --    2.37592   2.37717   2.38235   2.38791   2.38977
 Alpha virt. eigenvalues --    2.39721   2.40101   2.40952   2.41180   2.41498
 Alpha virt. eigenvalues --    2.41921   2.42877   2.42977   2.43646   2.43821
 Alpha virt. eigenvalues --    2.44685   2.44914   2.45744   2.46009   2.46750
 Alpha virt. eigenvalues --    2.46919   2.46966   2.48027   2.48115   2.48558
 Alpha virt. eigenvalues --    2.48606   2.49088   2.49743   2.50245   2.50994
 Alpha virt. eigenvalues --    2.51451   2.51846   2.52512   2.52933   2.54354
 Alpha virt. eigenvalues --    2.54655   2.54926   2.55147   2.55400   2.55516
 Alpha virt. eigenvalues --    2.56066   2.56657   2.57724   2.58165   2.58634
 Alpha virt. eigenvalues --    2.58824   2.59248   2.59636   2.59985   2.60565
 Alpha virt. eigenvalues --    2.61018   2.61575   2.61854   2.62346   2.62522
 Alpha virt. eigenvalues --    2.62930   2.63375   2.64050   2.64674   2.64998
 Alpha virt. eigenvalues --    2.65165   2.65426   2.66079   2.66391   2.66756
 Alpha virt. eigenvalues --    2.67211   2.67741   2.68431   2.68638   2.69238
 Alpha virt. eigenvalues --    2.69896   2.70174   2.70267   2.70994   2.71475
 Alpha virt. eigenvalues --    2.71832   2.72235   2.72371   2.73615   2.73697
 Alpha virt. eigenvalues --    2.74402   2.74734   2.75146   2.75747   2.75846
 Alpha virt. eigenvalues --    2.76336   2.76560   2.77001   2.77675   2.78556
 Alpha virt. eigenvalues --    2.78861   2.79248   2.80002   2.80541   2.80655
 Alpha virt. eigenvalues --    2.81379   2.81994   2.82290   2.82719   2.83066
 Alpha virt. eigenvalues --    2.83682   2.84015   2.84035   2.84432   2.85260
 Alpha virt. eigenvalues --    2.85725   2.86068   2.87261   2.87392   2.87636
 Alpha virt. eigenvalues --    2.87672   2.88686   2.88876   2.89125   2.90395
 Alpha virt. eigenvalues --    2.90571   2.90855   2.91275   2.91902   2.92229
 Alpha virt. eigenvalues --    2.92642   2.92971   2.93530   2.94154   2.94826
 Alpha virt. eigenvalues --    2.95905   2.96806   2.97504   2.98366   2.98620
 Alpha virt. eigenvalues --    2.99178   3.00150   3.00599   3.01186   3.01572
 Alpha virt. eigenvalues --    3.01711   3.03451   3.03668   3.05271   3.05760
 Alpha virt. eigenvalues --    3.06374   3.07373   3.08079   3.08583   3.10076
 Alpha virt. eigenvalues --    3.10518   3.11125   3.12379   3.13278   3.14166
 Alpha virt. eigenvalues --    3.15658   3.15702   3.16803   3.17469   3.19304
 Alpha virt. eigenvalues --    3.20183   3.21446   3.23173   3.24724   3.25688
 Alpha virt. eigenvalues --    3.25901   3.26035   3.26059   3.28312   3.29088
 Alpha virt. eigenvalues --    3.29388   3.29835   3.30711   3.33353   3.35206
 Alpha virt. eigenvalues --    3.35714   3.36089   3.37715   3.40654   3.40996
 Alpha virt. eigenvalues --    3.41618   3.42161   3.43642   3.44788   3.45896
 Alpha virt. eigenvalues --    3.46151   3.47104   3.48451   3.48971   3.50237
 Alpha virt. eigenvalues --    3.51085   3.52744   3.52820   3.53468   3.53639
 Alpha virt. eigenvalues --    3.53988   3.54224   3.55136   3.56391   3.56742
 Alpha virt. eigenvalues --    3.57821   3.58671   3.59596   3.60247   3.61009
 Alpha virt. eigenvalues --    3.61958   3.62872   3.64730   3.64774   3.66849
 Alpha virt. eigenvalues --    3.66906   3.73764   3.74927   3.75356   3.77423
 Alpha virt. eigenvalues --    3.82256   3.96408   4.07678   4.17068   4.18592
 Alpha virt. eigenvalues --    4.19488   4.20562   4.21055   4.22436   4.25979
 Alpha virt. eigenvalues --    4.27297   4.27654   4.30193   4.30572   4.34904
 Alpha virt. eigenvalues --    4.37026   4.38620   4.40730   4.43476   4.44458
 Alpha virt. eigenvalues --    4.45856   4.46981   4.48029   4.52804   4.53863
 Alpha virt. eigenvalues --    4.54904   4.55516   4.56720   4.58102   4.60008
 Alpha virt. eigenvalues --    4.62674   4.64264   4.67027   4.67731   4.71444
 Alpha virt. eigenvalues --    4.72003   4.74868   4.79155   4.80465   4.81937
 Alpha virt. eigenvalues --    4.82916   4.84772   4.88991   4.91419
          Condensed to atoms (all electrons):
 Mulliken charges:
               1
     1  O   -0.550309
     2  O   -0.530332
     3  C   -0.038858
     4  C   -0.041813
     5  C   -0.228169
     6  C   -0.193193
     7  C    0.124641
     8  C    0.163938
     9  C    0.076075
    10  C    0.118749
    11  C   -0.202089
    12  C   -0.233105
    13  C    0.053090
    14  C    0.090388
    15  C   -0.304317
    16  C   -0.285362
    17  C   -0.270784
    18  C   -0.281635
    19  C   -0.127575
    20  C   -0.201594
    21  C   -0.361379
    22  C   -0.369915
    23  C   -0.110180
    24  C   -0.093011
    25  C    0.079241
    26  C    0.155417
    27  C   -0.359277
    28  C   -0.379059
    29  C   -0.130984
    30  C   -0.139171
    31  C   -0.095731
    32  C   -0.102891
    33  C   -0.080276
    34  C   -0.070344
    35  C    0.055762
    36  C    0.138656
    37  C   -0.345899
    38  C   -0.370923
    39  C   -0.117486
    40  C   -0.126581
    41  C   -0.075377
    42  C   -0.094461
    43  H    0.107008
    44  H    0.090073
    45  H    0.067634
    46  H    0.099007
    47  H    0.068506
    48  H    0.054987
    49  H    0.114799
    50  H    0.106323
    51  H    0.116168
    52  H    0.106890
    53  H    0.105589
    54  H    0.101905
    55  H    0.114074
    56  H    0.099860
    57  H    0.105138
    58  H    0.110517
    59  H    0.098152
    60  H    0.112795
    61  H    0.086920
    62  H    0.079234
    63  H    0.108497
    64  H    0.076533
    65  H    0.069212
    66  H    0.085577
    67  H    0.131257
    68  H    0.133109
    69  H    0.087412
    70  H    0.089598
    71  H    0.133999
    72  H    0.098358
    73  H    0.305756
    74  H    0.298390
    75  H    0.080066
    76  H    0.065178
    77  H    0.109526
    78  H    0.130982
    79  H    0.100195
    80  H    0.141867
    81  H    0.124731
    82  H    0.065621
    83  H    0.081294
    84  H    0.072766
    85  H    0.100799
    86  H    0.095065
    87  H    0.084449
    88  H    0.063555
    89  H    0.108673
    90  H    0.096171
    91  H    0.139943
    92  H    0.127151
    93  H    0.098369
    94  H    0.089944
    95  H    0.079065
    96  H    0.073950
    97  H    0.085172
    98  H    0.078314
 Sum of Mulliken charges =  -0.00000
 Mulliken charges with hydrogens summed into heavy atoms:
               1
     1  O   -0.244553
     2  O   -0.231942
     3  C   -0.038858
     4  C   -0.041813
     5  C   -0.031088
     6  C   -0.026551
     7  C    0.193147
     8  C    0.218925
     9  C    0.076075
    10  C    0.118749
    11  C    0.019033
    12  C   -0.010046
    13  C    0.053090
    14  C    0.090388
    15  C    0.017250
    16  C    0.030153
    17  C    0.027082
    18  C   -0.017372
    19  C   -0.058363
    20  C   -0.116017
    21  C   -0.009601
    22  C   -0.047959
    23  C   -0.030115
    24  C   -0.027833
    25  C    0.079241
    26  C    0.155417
    27  C   -0.018575
    28  C   -0.046840
    29  C   -0.049690
    30  C   -0.066405
    31  C    0.005068
    32  C   -0.007826
    33  C    0.004174
    34  C   -0.006788
    35  C    0.055762
    36  C    0.138656
    37  C   -0.001112
    38  C   -0.055459
    39  C   -0.038420
    40  C   -0.052631
    41  C    0.009794
    42  C   -0.016147
 Electronic spatial extent (au):  <R**2>=         110513.0141
 Charge=             -0.0000 electrons
 Dipole moment (field-independent basis, Debye):
    X=             -0.0153    Y=             -1.4838    Z=              1.3422  Tot=              2.0008
 Quadrupole moment (field-independent basis, Debye-Ang):
   XX=           -298.4927   YY=           -247.6161   ZZ=           -263.1984
   XY=             19.0542   XZ=             10.7995   YZ=             -0.3997
 Traceless Quadrupole moment (field-independent basis, Debye-Ang):
   XX=            -28.7236   YY=             22.1529   ZZ=              6.5707
   XY=             19.0542   XZ=             10.7995   YZ=             -0.3997
 Octapole moment (field-independent basis, Debye-Ang**2):
  XXX=           -430.5280  YYY=            -33.0388  ZZZ=              6.9532  XYY=            110.5595
  XXY=           -289.5913  XXZ=            387.4785  XZZ=             -0.0560  YZZ=             -0.0706
  YYZ=              7.1880  XYZ=            -40.3586
 Hexadecapole moment (field-independent basis, Debye-Ang**3):
 XXXX=        -160649.4693 YYYY=          -4875.7685 ZZZZ=          -1567.8494 XXXY=           4062.2996
 XXXZ=           1198.2235 YYYX=           -236.0681 YYYZ=            -20.4834 ZZZX=           -126.5231
 ZZZY=             24.1418 XXYY=         -24765.6822 XXZZ=         -24010.3699 YYZZ=          -1085.2966
 XXYZ=           -930.6351 YYXZ=            179.0208 ZZXY=           -142.5141
 N-N= 3.985226897966D+03 E-N=-1.192473432248D+04  KE= 1.690198306422D+03
 1\1\GINC-RYZEN-SSD1\SP\RCAM-B3LYP TD-FC\6-31G(d,p)\C40H56O2\PADAWAN\10
 -Jul-2019\0\\# td=(NStates=1) CAM-B3LYP/6-31G(d,p)\\TD\\0,1\O,0,14.692
 8748125,-2.2356865018,-0.3501819412\O,0,-14.7589509591,1.9154468498,0.
 8361031413\C,0,11.1462069667,-1.5803005822,0.8442105821\C,0,-12.312756
 4396,-1.0201436323,0.6062642704\C,0,12.6099545615,-1.9568949856,0.9824
 731393\C,0,-13.6530020192,-0.2886568856,0.7543882508\C,0,13.2806961086
 ,-1.8848108032,-0.4311366587\C,0,-13.5137406671,1.2362222833,0.7886201
 13\C,0,10.909690296,-0.2682944564,0.0239491019\C,0,-11.3206684308,-0.2
 455955665,-0.2601536914\C,0,13.1645769487,-0.4837868638,-0.9463273867\
 C,0,-12.7697494129,1.7503980469,-0.4465940124\C,0,11.8701928883,0.1283
 932222,-0.8945220952\C,0,-11.5277433693,0.9919658257,-0.7682488209\C,0
 ,10.6526563066,-1.3225676978,2.3764110251\C,0,10.1897996,-2.6333211001
 ,0.2837217622\C,0,-11.7451463206,-1.2419338853,2.0619523262\C,0,-12.57
 05935544,-2.4646376857,0.1186231243\C,0,9.6674719882,0.4483637894,0.15
 26492249\C,0,-10.1262181938,-0.9138641283,-0.48384967\C,0,11.818097689
 8,1.4159067646,-1.7363256226\C,0,-10.5719954875,1.6156610432,-1.646851
 5752\C,0,9.4094548505,1.7305492979,0.130569697\C,0,-8.8022816252,-0.45
 23071796,-0.4144865507\C,0,8.105139619,2.3683028133,0.1416949445\C,0,-
 7.6083188659,-1.1676450924,-0.4753237014\C,0,8.1330550895,3.8270315582
 ,0.4129654805\C,0,-7.7379620932,-2.6335229292,-0.7505337384\C,0,6.9338
 533563,1.6419131323,-0.0379362786\C,0,-6.4277454715,-0.4912673886,-0.3
 332922542\C,0,5.5853592499,2.1662708651,0.1734843174\C,0,-5.0907876248
 ,-1.0305101239,-0.5124581238\C,0,4.5712859146,1.3204082348,0.004398354
 8\C,0,-3.9696682638,-0.2259748215,-0.371920007\C,0,3.1576332543,1.6177
 661676,0.2778619022\C,0,-2.5783032863,-0.7097610551,-0.4701153665\C,0,
 2.8122227893,3.0366313551,0.5878464426\C,0,-2.3298117492,-2.1429177838
 ,-0.8942806541\C,0,2.1575848475,0.6118032443,0.0834776678\C,0,-1.62279
 42394,0.1002379128,-0.0934032913\C,0,0.7962264516,0.8142842424,0.17782
 91109\C,0,-0.1506949395,-0.1407016702,-0.1617971497\H,0,13.4611146915,
 -1.4074441545,1.5788035694\H,0,12.7220857076,-2.9738505992,1.288546538
 7\H,0,-14.166179591,-0.6930067426,1.7386447855\H,0,-14.3422877238,-0.4
 766455365,-0.0878406401\H,0,12.7538563926,-2.6323425414,-1.191759734\H
 ,0,-12.7253729693,1.4927332554,1.6717349075\H,0,13.9466792549,-0.02907
 03291,-0.245809762\H,0,13.5682723842,-0.4188872458,-1.9790706381\H,0,-
 13.4423394429,1.9249775579,-1.3294556886\H,0,-12.4074067137,2.81610663
 08,-0.1841373777\H,0,11.0557382628,-2.0207405031,3.0079354895\H,0,9.57
 72960566,-1.1099907981,2.33625038\H,0,11.1451382558,-0.5125001171,2.77
 91312991\H,0,10.0484911121,-2.9626010341,-0.8121278958\H,0,10.53321232
 41,-3.5273213751,0.6863880788\H,0,9.2091482318,-2.290060314,0.60541726
 27\H,0,-11.5430559916,-0.1780803019,2.3767079678\H,0,-10.9246153005,-1
 .8643889828,1.9149552795\H,0,-12.6638072737,-1.6645038703,2.6672573057
 \H,0,-13.0586263116,-3.2828569816,0.9096490959\H,0,-11.6403592709,-2.9
 640829972,-0.0785849605\H,0,-13.3013679958,-2.2873879307,-0.872920034\
 H,0,8.677059609,-0.0467290839,0.6765847795\H,0,-10.2045252175,-1.99251
 63155,-0.8059243944\H,0,10.883149607,1.649709641,-1.9968117402\H,0,12.
 1185176808,2.2095618991,-1.141309739\H,0,12.4987515452,1.4178726422,-2
 .7147641654\H,0,-11.2080752085,2.3961651806,-2.2563363546\H,0,-10.1785
 238304,0.8117651956,-2.2824442114\H,0,-9.5712813121,2.1345361077,-1.15
 72388799\H,0,14.5372528533,-2.933178645,0.3290111811\H,0,-15.212015894
 6,1.4359508952,1.4487959756\H,0,10.2888848075,2.3892358316,0.138870712
 1\H,0,-8.65113985,0.648919493,-0.3706176878\H,0,9.1862963166,3.9570390
 859,0.2835541964\H,0,7.4491713041,4.3028851495,-0.2099873447\H,0,7.770
 2962896,4.1505961276,1.5065574937\H,0,-8.1251553095,-3.162880946,-0.03
 86491539\H,0,-8.152869658,-2.9462746304,-1.7447463636\H,0,-6.692274999
 5,-3.3076453044,-0.7220576398\H,0,7.0808639414,0.6026234773,-0.3225401
 29\H,0,-6.6437813541,0.6941469098,-0.1993950645\H,0,5.5643841434,3.098
 5755296,0.7497714861\H,0,-5.096380109,-2.0710847865,-0.9628224322\H,0,
 4.7051137044,0.3123559816,-0.284150483\H,0,-4.0409354975,0.6987992519,
 -0.207869506\H,0,3.1543210601,3.1376856586,1.771360377\H,0,1.658874148
 4,3.09448043,0.5619207941\H,0,3.251030483,3.5994765727,-0.1990529633\H
 ,0,-2.4428453995,-2.9036626583,-0.0450221672\H,0,-3.1415828713,-2.6220
 692689,-1.6444631883\H,0,-1.2167320582,-2.2897065207,-1.4609546385\H,0
 ,2.4611974827,-0.3766709481,-0.5061268247\H,0,-1.8922838514,1.07271551
 56,0.1763837314\H,0,0.4859988989,1.845149942,0.4090029103\H,0,0.040705
 8556,-1.1313733013,-0.5913208061\\Version=ES64L-G16RevA.03\State=1-A\H
 F=-1706.9756857\RMSD=8.880e-09\PG=C01 [X(C40H56O2)]\\@


 I KNOW YOU BELIEVE YOU UNDERSTAND WHAT YOU THINK I SAID,
 BUT I AM NOT SURE YOU REALIZE THAT WHAT YOU HEARD IS NOT WHAT I MEANT.
 Job cpu time:       0 days  8 hours 18 minutes 52.7 seconds.
 Elapsed time:       0 days  2 hours  5 minutes 37.5 seconds.
 File lengths (MBytes):  RWF=   3127 Int=      0 D2E=      0 Chk=     84 Scr=      1
 Normal termination of Gaussian 16 at Wed Jul 10 07:38:02 2019.
