 Entering Gaussian System, Link 0=g16
 Input=Geometria-173-.com
 Output=Geometria-173-.log
 Initial command:
 /usr/local/g16/l1.exe "/home/padawan/israel-mol/zeaxanthin/spectra/emi/Gau-123642.inp" -scrdir="/home/padawan/israel-mol/zeaxanthin/spectra/emi/"
 Entering Link 1 = /usr/local/g16/l1.exe PID=    123644.
  
 Copyright (c) 1988,1990,1992,1993,1995,1998,2003,2009,2016,
            Gaussian, Inc.  All Rights Reserved.
  
 This is part of the Gaussian(R) 16 program.  It is based on
 the Gaussian(R) 09 system (copyright 2009, Gaussian, Inc.),
 the Gaussian(R) 03 system (copyright 2003, Gaussian, Inc.),
 the Gaussian(R) 98 system (copyright 1998, Gaussian, Inc.),
 the Gaussian(R) 94 system (copyright 1995, Gaussian, Inc.),
 the Gaussian 92(TM) system (copyright 1992, Gaussian, Inc.),
 the Gaussian 90(TM) system (copyright 1990, Gaussian, Inc.),
 the Gaussian 88(TM) system (copyright 1988, Gaussian, Inc.),
 the Gaussian 86(TM) system (copyright 1986, Carnegie Mellon
 University), and the Gaussian 82(TM) system (copyright 1983,
 Carnegie Mellon University). Gaussian is a federally registered
 trademark of Gaussian, Inc.
  
 This software contains proprietary and confidential information,
 including trade secrets, belonging to Gaussian, Inc.
  
 This software is provided under written license and may be
 used, copied, transmitted, or stored only in accord with that
 written license.
  
 The following legend is applicable only to US Government
 contracts under FAR:
  
                    RESTRICTED RIGHTS LEGEND
  
 Use, reproduction and disclosure by the US Government is
 subject to restrictions as set forth in subparagraphs (a)
 and (c) of the Commercial Computer Software - Restricted
 Rights clause in FAR 52.227-19.
  
 Gaussian, Inc.
 340 Quinnipiac St., Bldg. 40, Wallingford CT 06492
  
  
 ---------------------------------------------------------------
 Warning -- This program may not be used in any manner that
 competes with the business of Gaussian, Inc. or will provide
 assistance to any competitor of Gaussian, Inc.  The licensee
 of this program is prohibited from giving any competitor of
 Gaussian, Inc. access to this program.  By using this program,
 the user acknowledges that Gaussian, Inc. is engaged in the
 business of creating and licensing software in the field of
 computational chemistry and represents and warrants to the
 licensee that it is not a competitor of Gaussian, Inc. and that
 it will not use this program in any manner prohibited above.
 ---------------------------------------------------------------
  

 Cite this work as:
 Gaussian 16, Revision A.03,
 M. J. Frisch, G. W. Trucks, H. B. Schlegel, G. E. Scuseria, 
 M. A. Robb, J. R. Cheeseman, G. Scalmani, V. Barone, 
 G. A. Petersson, H. Nakatsuji, X. Li, M. Caricato, A. V. Marenich, 
 J. Bloino, B. G. Janesko, R. Gomperts, B. Mennucci, H. P. Hratchian, 
 J. V. Ortiz, A. F. Izmaylov, J. L. Sonnenberg, D. Williams-Young, 
 F. Ding, F. Lipparini, F. Egidi, J. Goings, B. Peng, A. Petrone, 
 T. Henderson, D. Ranasinghe, V. G. Zakrzewski, J. Gao, N. Rega, 
 G. Zheng, W. Liang, M. Hada, M. Ehara, K. Toyota, R. Fukuda, 
 J. Hasegawa, M. Ishida, T. Nakajima, Y. Honda, O. Kitao, H. Nakai, 
 T. Vreven, K. Throssell, J. A. Montgomery, Jr., J. E. Peralta, 
 F. Ogliaro, M. J. Bearpark, J. J. Heyd, E. N. Brothers, K. N. Kudin, 
 V. N. Staroverov, T. A. Keith, R. Kobayashi, J. Normand, 
 K. Raghavachari, A. P. Rendell, J. C. Burant, S. S. Iyengar, 
 J. Tomasi, M. Cossi, J. M. Millam, M. Klene, C. Adamo, R. Cammi, 
 J. W. Ochterski, R. L. Martin, K. Morokuma, O. Farkas, 
 J. B. Foresman, and D. J. Fox, Gaussian, Inc., Wallingford CT, 2016.
 
 ******************************************
 Gaussian 16:  ES64L-G16RevA.03 25-Dec-2016
                12-Jul-2019 
 ******************************************
 %nproc=4
 Will use up to    4 processors via shared memory.
 %Mem=2GB
 -------------------------------------
 # td=(NStates=1) CAM-B3LYP/6-31G(d,p)
 -------------------------------------
 1/38=1,172=1/1;
 2/12=2,17=6,18=5,40=1/2;
 3/5=1,6=6,7=101,11=9,25=1,30=1,74=-40/1,2,3,8;
 4//1;
 5/5=2,38=5/2;
 8/6=1,10=2,108=1/1;
 9/41=1,42=1,70=2/14;
 6/7=2,8=2,9=2,10=2/1;
 99/5=1,9=1/99;
 --
 TD
 --
 Symbolic Z-matrix:
 Charge =  0 Multiplicity = 1
 8                     14.77341  -2.00444  -0.08244 
 8                    -14.71871   1.9036    1.11931 
 6                     11.167   -1.47031   0.97785 
 6                    -12.30874  -0.97859   0.55334 
 6                     12.71849  -1.83681   1.15424 
 6                    -13.53226  -0.28809   0.65787 
 6                     13.34347  -1.88434  -0.22877 
 6                    -13.49069   1.20423   1.07354 
 6                     10.88372  -0.33174   0.05964 
 6                    -11.30915  -0.16957  -0.1981 
 6                     13.21273  -0.61443  -0.91552 
 6                    -12.62845   1.97464  -0.03354 
 6                     11.84602   0.1339   -0.93246 
 6                    -11.48908   1.09756  -0.53847 
 6                     10.85925  -0.99178   2.41313 
 6                     10.35026  -2.81345   0.65228 
 6                    -11.70519  -1.28466   1.99082 
 6                    -12.55515  -2.30957  -0.04127 
 6                     9.69526   0.38048   0.20612 
 6                    -10.09731  -0.94575  -0.72585 
 6                     11.76589   1.25846  -1.86535 
 6                    -10.5305   1.99606  -1.20623 
 6                     9.39087   1.65396   0.01893 
 6                    -8.81514  -0.55709  -0.41434 
 6                     8.06431   2.26488   0.17427 
 6                    -7.64031  -1.26353  -0.69077 
 6                     7.96394   3.70461   0.47518 
 6                    -7.70282  -2.60441  -1.1979 
 6                     6.89852   1.59117  -0.0287 
 6                    -6.42001  -0.62405  -0.46412 
 6                     5.56558   2.15318  -0.04279 
 6                    -5.09244  -1.2776   -0.51319 
 6                     4.38034   1.36475  -0.20205 
 6                    -3.97869  -0.46939  -0.3654 
 6                     3.06919   1.6711   -0.05985 
 6                    -2.65845  -0.93457  -0.44113 
 6                     2.59778   3.09088   0.53058 
 6                    -2.42297  -2.27361  -0.95118 
 6                     1.99117   0.73481  -0.24273 
 6                    -1.56611  -0.01104  -0.18112 
 6                     0.68748   0.87731  -0.10679 
 6                    -0.21863  -0.13506  -0.38723 
 1                     13.31287  -1.20664   1.74897 
 1                     12.89907  -2.91694   1.62208 
 1                    -14.33069  -0.81793   1.33217 
 1                    -14.03485  -0.27452  -0.48848 
 1                     12.99807  -2.7301   -0.68967 
 1                    -12.89345   1.32169   2.16454 
 1                     13.9394   0.17424  -0.52333 
 1                     13.67105  -0.57488  -1.94389 
 1                    -13.34991   2.19813  -0.85072 
 1                    -12.02186   2.87942   0.31402 
 1                     11.1418  -1.57129   3.45931 
 1                     9.85457  -0.87015   2.24661 
 1                     11.28887  -0.02671   2.43139 
 1                     10.45923  -3.15564  -0.41722 
 1                     10.60317  -3.66747   1.41333 
 1                     9.21369  -2.56571   0.87888 
 1                    -11.22597  -0.35511   2.55896 
 1                    -10.79741  -2.04257   1.77779 
 1                    -12.67927  -1.60367   2.57776 
 1                    -13.3781  -2.83653   0.49095 
 1                    -11.66612  -2.88461   0.0404 
 1                    -12.89422  -2.45371  -0.92612 
 1                     8.88783  -0.33284   0.77427 
 1                    -10.1616  -1.95901  -1.14148 
 1                     10.82056   1.51976  -2.09233 
 1                     12.14574   2.31121  -1.24759 
 1                     12.20764   1.17501  -2.91696 
 1                    -11.16353   2.48515  -1.72001 
 1                    -9.77098   1.4706   -1.75511 
 1                    -9.96576   2.79262  -0.51913 
 1                     15.03301  -2.91477   0.37034 
 1                    -15.07364   1.59918   2.01869 
 1                     10.19275   2.32301   0.05023 
 1                    -8.55024   0.4024    0.06753 
 1                     8.87983   4.33801   0.76212 
 1                     7.45423   4.18969  -0.25052 
 1                     7.26592   3.65203   1.34299 
 1                    -8.04559  -3.39685  -0.47897 
 1                    -8.2775   -2.60289  -2.19307 
 1                    -6.53412  -2.94895  -1.84364 
 1                     7.10237   0.63493  -0.38883 
 1                    -6.37115   0.38557  -0.12887 
 1                     5.44094   3.32309   0.29246 
 1                    -5.06355  -2.35454  -0.7899 
 1                     4.53741   0.32356  -0.63477 
 1                    -4.18073   0.5417   -0.00916 
 1                     3.13514   3.22736   1.63431 
 1                     1.689     3.24933   0.28847 
 1                     3.03947   3.80054  -0.12578 
 1                    -2.94454  -3.08642  -0.34549 
 1                    -2.71254  -2.26007  -2.12388 
 1                    -1.47135  -2.62109  -0.7029 
 1                     2.46637  -0.20514  -0.64958 
 1                    -2.07146   0.91678  -0.19564 
 1                     0.23492   1.81846  -0.04782 
 1                     0.15805  -1.18757  -0.62051 
 
 Stoichiometry    C40H56O2
 Framework group  C1[X(C40H56O2)]
 Deg. of freedom   288
 Full point group                 C1      NOp   1
 Largest Abelian subgroup         C1      NOp   1
 Largest concise Abelian subgroup C1      NOp   1
                         Standard orientation:                         
 ---------------------------------------------------------------------
 Center     Atomic      Atomic             Coordinates (Angstroms)
 Number     Number       Type             X           Y           Z
 ---------------------------------------------------------------------
      1          8           0       14.772744   -1.995706   -0.085296
      2          8           0      -14.721293    1.895922    1.122633
      3          6           0       11.166605   -1.460881    0.975579
      4          6           0      -12.309708   -0.986292    0.563729
      5          6           0       12.718445   -1.825812    1.152114
      6          6           0      -13.533637   -0.296311    0.666954
      7          6           0       13.342635   -1.877003   -0.231122
      8          6           0      -13.492828    1.197254    1.078188
      9          6           0       10.882002   -0.325222    0.054179
     10          6           0      -11.311118   -0.178819   -0.190695
     11          6           0       13.210622   -0.609216   -0.921549
     12          6           0      -12.631771    1.964974   -0.031682
     13          6           0       11.843394    0.138140   -0.939870
     14          6           0      -11.492114    1.087172   -0.534697
     15          6           0       10.859389   -0.978325    2.409624
     16          6           0       10.350578   -2.805528    0.654464
     17          6           0      -11.705096   -1.287704    2.001740
     18          6           0      -12.555578   -2.319192   -0.026800
     19          6           0        9.693154    0.386622    0.199270
     20          6           0      -10.099067   -0.955734   -0.716885
     21          6           0       11.761944    1.259882   -1.876032
     22          6           0      -10.534545    1.984346   -1.205687
     23          6           0        9.387787    1.659342    0.008496
     24          6           0       -8.816982   -0.565289   -0.407288
     25          6           0        8.060899    2.269822    0.162828
     26          6           0       -7.641838   -1.271755   -0.682335
     27          6           0        7.959736    3.710363    0.459547
     28          6           0       -7.703740   -2.614165   -1.185467
     29          6           0        6.895449    1.594722   -0.037444
     30          6           0       -6.421839   -0.630779   -0.458309
     31          6           0        5.562117    2.155788   -0.052394
     32          6           0       -5.093849   -1.283578   -0.506249
     33          6           0        4.377317    1.366093   -0.208617
     34          6           0       -3.980560   -0.474176   -0.361518
     35          6           0        3.066052    1.671974   -0.066534
     36          6           0       -2.660053   -0.938689   -0.436671
     37          6           0        2.594031    3.093168    0.519986
     38          6           0       -2.423971   -2.279068   -0.942898
     39          6           0        1.988552    0.734413   -0.246002
     40          6           0       -1.568181   -0.013656   -0.180047
     41          6           0        0.684844    0.876437   -0.109694
     42          6           0       -0.220744   -0.137371   -0.386597
     43          1           0       13.312759   -1.193487    1.744623
     44          1           0       12.900046   -2.904435    1.623034
     45          1           0      -14.331299   -0.824699    1.343302
     46          1           0      -14.036920   -0.286467   -0.479128
     47          1           0       12.997531   -2.724356   -0.689316
     48          1           0      -12.895016    1.318338    2.168483
     49          1           0       13.936989    0.181101   -0.532121
     50          1           0       13.668300   -0.572397   -1.950300
     51          1           0      -13.353877    2.185565   -0.849080
     52          1           0      -12.025589    2.871189    0.312843
     53          1           0       11.142959   -1.554541    3.457338
     54          1           0        9.854534   -0.857859    2.243347
     55          1           0       11.288371   -0.012912    2.424767
     56          1           0       10.459145   -3.150804   -0.414083
     57          1           0       10.604527   -3.657121    1.417884
     58          1           0        9.213979   -2.557887    0.881020
     59          1           0      -11.226167   -0.356156    2.566844
     60          1           0      -10.796930   -2.045625    1.790410
     61          1           0      -12.678604   -1.605637    2.590208
     62          1           0      -13.377847   -2.845134    0.507469
     63          1           0      -11.666109   -2.893380    0.056033
     64          1           0      -12.895075   -2.466178   -0.911009
     65          1           0        8.886545   -0.325557    0.770010
     66          1           0      -10.162925   -1.970267   -1.129475
     67          1           0       10.816303    1.519866   -2.103217
     68          1           0       12.141449    2.314710   -1.261615
     69          1           0       12.203121    1.173621   -2.927662
     70          1           0      -11.168214    2.471493   -1.720534
     71          1           0       -9.775000    1.457782   -1.753473
     72          1           0       -9.969933    2.783317   -0.521280
     73          1           0       15.033232   -2.904512    0.370006
     74          1           0      -15.075482    1.593922    2.023123
     75          1           0       10.189224    2.329021    0.037341
     76          1           0       -8.552441    0.395802    0.071578
     77          1           0        8.875365    4.345225    0.744064
     78          1           0        7.449266    4.192957   -0.267279
     79          1           0        7.262270    3.659872    1.327928
     80          1           0       -8.045540   -3.404713   -0.463998
     81          1           0       -8.279020   -2.615974   -2.180294
     82          1           0       -6.535194   -2.959820   -1.830890
     83          1           0        7.099728    0.637559   -0.394871
     84          1           0       -6.373462    0.379856   -0.126075
     85          1           0        5.436890    3.326598    0.279466
     86          1           0       -5.064394   -2.361309   -0.779791
     87          1           0        4.534833    0.323730   -0.638346
     88          1           0       -4.183073    0.537828   -0.008146
     89          1           0        3.131957    3.233280    1.622980
     90          1           0        1.684994    3.250287    0.277958
     91          1           0        3.034844    3.801184   -0.138730
     92          1           0       -2.944621   -3.090437   -0.334502
     93          1           0       -2.714251   -2.269191   -2.115463
     94          1           0       -1.471963   -2.625168   -0.694167
     95          1           0        2.464145   -0.206413   -0.650355
     96          1           0       -2.074172    0.913778   -0.197005
     97          1           0        0.231690    1.817448   -0.053236
     98          1           0        0.156509   -1.190309   -0.616997
 ---------------------------------------------------------------------
 Rotational constants (GHZ):           0.2425421           0.0093503           0.0091497
 Standard basis: 6-31G(d,p) (6D, 7F)
 There are   910 symmetry adapted cartesian basis functions of A   symmetry.
 There are   910 symmetry adapted basis functions of A   symmetry.
   910 basis functions,  1568 primitive gaussians,   910 cartesian basis functions
   156 alpha electrons      156 beta electrons
       nuclear repulsion energy      3982.2906367455 Hartrees.
 NAtoms=   98 NActive=   98 NUniq=   98 SFac= 1.00D+00 NAtFMM=   60 NAOKFM=T Big=T
 Integral buffers will be    131072 words long.
 Raffenetti 1 integral format.
 Two-electron integral symmetry is turned on.
 One-electron integrals computed using PRISM.
 NBasis=   910 RedAO= T EigKep=  8.65D-04  NBF=   910
 NBsUse=   910 1.00D-06 EigRej= -1.00D+00 NBFU=   910
 ExpMin= 1.61D-01 ExpMax= 5.48D+03 ExpMxC= 8.25D+02 IAcc=3 IRadAn=         5 AccDes= 0.00D+00
 Harris functional with IExCor=20419 and IRadAn=       5 diagonalized for initial guess.
 HarFok:  IExCor=20419 AccDes= 0.00D+00 IRadAn=         5 IDoV= 1 UseB2=F ITyADJ=14
 ICtDFT=  3500011 ScaDFX=  1.000000  1.000000  1.000000  1.000000
 FoFCou: FMM=F IPFlag=           0 FMFlag=      100000 FMFlg1=        2001
         NFxFlg=           0 DoJE=T BraDBF=F KetDBF=T FulRan=T
         wScrn=  0.000000 ICntrl=       500 IOpCl=  0 I1Cent=   200000004 NGrid=           0
         NMat0=    1 NMatS0=      1 NMatT0=    0 NMatD0=    1 NMtDS0=    0 NMtDT0=    0
 Petite list used in FoFCou.
 Requested convergence on RMS density matrix=1.00D-08 within 128 cycles.
 Requested convergence on MAX density matrix=1.00D-06.
 Requested convergence on             energy=1.00D-06.
 No special actions if energy rises.
 Integral accuracy reduced to 1.0D-05 until final iterations.
 Initial convergence to 1.0D-05 achieved.  Increase integral accuracy.
 SCF Done:  E(RCAM-B3LYP) =  -1706.87737879     A.U. after   17 cycles
            NFock= 17  Conv=0.27D-08     -V/T= 2.0098
 DoSCS=F DFT=T ScalE2(SS,OS)=  1.000000  1.000000
 ExpMin= 1.61D-01 ExpMax= 5.48D+03 ExpMxC= 8.25D+02 IAcc=3 IRadAn=         5 AccDes= 0.00D+00
 HarFok:  IExCor=  205 AccDes= 0.00D+00 IRadAn=         5 IDoV=-2 UseB2=F ITyADJ=14
 ICtDFT= 12500011 ScaDFX=  1.000000  1.000000  1.000000  1.000000
 GSVD:  LWork=       -2100 too small for GESVD, short by        9450 words or        9450 for optimal perf.
 Range of M.O.s used for correlation:    43   910
 NBasis=   910 NAE=   156 NBE=   156 NFC=    42 NFV=     0
 NROrb=    868 NOA=   114 NOB=   114 NVA=   754 NVB=   754
 Orbital symmetries:
       Occupied  (A) (A) (A) (A) (A) (A) (A) (A) (A) (A) (A) (A)
                 (A) (A) (A) (A) (A) (A) (A) (A) (A) (A) (A) (A)
                 (A) (A) (A) (A) (A) (A) (A) (A) (A) (A) (A) (A)
                 (A) (A) (A) (A) (A) (A) (A) (A) (A) (A) (A) (A)
                 (A) (A) (A) (A) (A) (A) (A) (A) (A) (A) (A) (A)
                 (A) (A) (A) (A) (A) (A) (A) (A) (A) (A) (A) (A)
                 (A) (A) (A) (A) (A) (A) (A) (A) (A) (A) (A) (A)
                 (A) (A) (A) (A) (A) (A) (A) (A) (A) (A) (A) (A)
                 (A) (A) (A) (A) (A) (A) (A) (A) (A) (A) (A) (A)
                 (A) (A) (A) (A) (A) (A) (A) (A) (A) (A) (A) (A)
                 (A) (A) (A) (A) (A) (A) (A) (A) (A) (A) (A) (A)
                 (A) (A) (A) (A) (A) (A) (A) (A) (A) (A) (A) (A)
                 (A) (A) (A) (A) (A) (A) (A) (A) (A) (A) (A) (A)
       Virtual   (A) (A) (A) (A) (A) (A) (A) (A) (A) (A) (A) (A)
                 (A) (A) (A) (A) (A) (A) (A) (A) (A) (A) (A) (A)
                 (A) (A) (A) (A) (A) (A) (A) (A) (A) (A) (A) (A)
                 (A) (A) (A) (A) (A) (A) (A) (A) (A) (A) (A) (A)
                 (A) (A) (A) (A) (A) (A) (A) (A) (A) (A) (A) (A)
                 (A) (A) (A) (A) (A) (A) (A) (A) (A) (A) (A) (A)
                 (A) (A) (A) (A) (A) (A) (A) (A) (A) (A) (A) (A)
                 (A) (A) (A) (A) (A) (A) (A) (A) (A) (A) (A) (A)
                 (A) (A) (A) (A) (A) (A) (A) (A) (A) (A) (A) (A)
                 (A) (A) (A) (A) (A) (A) (A) (A) (A) (A) (A) (A)
                 (A) (A) (A) (A) (A) (A) (A) (A) (A) (A) (A) (A)
                 (A) (A) (A) (A) (A) (A) (A) (A) (A) (A) (A) (A)
                 (A) (A) (A) (A) (A) (A) (A) (A) (A) (A) (A) (A)
                 (A) (A) (A) (A) (A) (A) (A) (A) (A) (A) (A) (A)
                 (A) (A) (A) (A) (A) (A) (A) (A) (A) (A) (A) (A)
                 (A) (A) (A) (A) (A) (A) (A) (A) (A) (A) (A) (A)
                 (A) (A) (A) (A) (A) (A) (A) (A) (A) (A) (A) (A)
                 (A) (A) (A) (A) (A) (A) (A) (A) (A) (A) (A) (A)
                 (A) (A) (A) (A) (A) (A) (A) (A) (A) (A) (A) (A)
                 (A) (A) (A) (A) (A) (A) (A) (A) (A) (A) (A) (A)
                 (A) (A) (A) (A) (A) (A) (A) (A) (A) (A) (A) (A)
                 (A) (A) (A) (A) (A) (A) (A) (A) (A) (A) (A) (A)
                 (A) (A) (A) (A) (A) (A) (A) (A) (A) (A) (A) (A)
                 (A) (A) (A) (A) (A) (A) (A) (A) (A) (A) (A) (A)
                 (A) (A) (A) (A) (A) (A) (A) (A) (A) (A) (A) (A)
                 (A) (A) (A) (A) (A) (A) (A) (A) (A) (A) (A) (A)
                 (A) (A) (A) (A) (A) (A) (A) (A) (A) (A) (A) (A)
                 (A) (A) (A) (A) (A) (A) (A) (A) (A) (A) (A) (A)
                 (A) (A) (A) (A) (A) (A) (A) (A) (A) (A) (A) (A)
                 (A) (A) (A) (A) (A) (A) (A) (A) (A) (A) (A) (A)
                 (A) (A) (A) (A) (A) (A) (A) (A) (A) (A) (A) (A)
                 (A) (A) (A) (A) (A) (A) (A) (A) (A) (A) (A) (A)
                 (A) (A) (A) (A) (A) (A) (A) (A) (A) (A) (A) (A)
                 (A) (A) (A) (A) (A) (A) (A) (A) (A) (A) (A) (A)
                 (A) (A) (A) (A) (A) (A) (A) (A) (A) (A) (A) (A)
                 (A) (A) (A) (A) (A) (A) (A) (A) (A) (A) (A) (A)
                 (A) (A) (A) (A) (A) (A) (A) (A) (A) (A) (A) (A)
                 (A) (A) (A) (A) (A) (A) (A) (A) (A) (A) (A) (A)
                 (A) (A) (A) (A) (A) (A) (A) (A) (A) (A) (A) (A)
                 (A) (A) (A) (A) (A) (A) (A) (A) (A) (A) (A) (A)
                 (A) (A) (A) (A) (A) (A) (A) (A) (A) (A) (A) (A)
                 (A) (A) (A) (A) (A) (A) (A) (A) (A) (A) (A) (A)
                 (A) (A) (A) (A) (A) (A) (A) (A) (A) (A) (A) (A)
                 (A) (A) (A) (A) (A) (A) (A) (A) (A) (A) (A) (A)
                 (A) (A) (A) (A) (A) (A) (A) (A) (A) (A) (A) (A)
                 (A) (A) (A) (A) (A) (A) (A) (A) (A) (A) (A) (A)
                 (A) (A) (A) (A) (A) (A) (A) (A) (A) (A) (A) (A)
                 (A) (A) (A) (A) (A) (A) (A) (A) (A) (A) (A) (A)
                 (A) (A) (A) (A) (A) (A) (A) (A) (A) (A) (A) (A)
                 (A) (A) (A) (A) (A) (A) (A) (A) (A) (A) (A) (A)
                 (A) (A) (A) (A) (A) (A) (A) (A) (A) (A) (A) (A)
                 (A) (A) (A) (A) (A) (A) (A) (A) (A) (A) (A) (A)
                 (A) (A) (A) (A) (A) (A) (A) (A) (A) (A) (A) (A)
                 (A) (A) (A) (A) (A) (A) (A) (A) (A) (A) (A) (A)
                 (A) (A) (A) (A) (A) (A) (A) (A) (A) (A) (A) (A)
                 (A) (A) (A) (A) (A) (A) (A) (A) (A) (A) (A) (A)
                 (A) (A) (A) (A) (A) (A) (A) (A) (A) (A) (A) (A)
                 (A) (A) (A) (A) (A) (A) (A) (A) (A) (A) (A) (A)
                 (A) (A) (A) (A) (A) (A) (A) (A) (A) (A) (A) (A)
                 (A) (A) (A) (A) (A) (A) (A) (A) (A) (A) (A) (A)
                 (A) (A) (A) (A) (A) (A) (A) (A) (A) (A) (A) (A)
                 (A) (A) (A) (A) (A) (A) (A) (A) (A) (A) (A) (A)
                 (A) (A) (A) (A) (A) (A) (A) (A) (A) (A)
     4 initial guesses have been made.
 Convergence on wavefunction:    0.001000000000000
 Iteration     1 Dimension     4 NMult     0 NNew      4
 CISAX will form     4 AO SS matrices at one time.
 Iteration     2 Dimension     6 NMult     4 NNew      2
 Iteration     3 Dimension     8 NMult     6 NNew      2
 Iteration     4 Dimension    10 NMult     8 NNew      2
 Iteration     5 Dimension    12 NMult    10 NNew      2
 Iteration     6 Dimension    14 NMult    12 NNew      2
 ***********************************************************************
 Excited states from <AA,BB:AA,BB> singles matrix:
 ***********************************************************************
 
 Ground to excited state transition densities written to RWF  633
 Ground to excited state transition electric dipole moments (Au):
       state          X           Y           Z        Dip. S.      Osc.
         1        -9.0680     -1.4024     -0.3361     84.3080      3.7541
 Ground to excited state transition velocity dipole moments (Au):
       state          X           Y           Z        Dip. S.      Osc.
         1         0.5844      0.0885      0.0224      0.3498      3.4916
 Ground to excited state transition magnetic dipole moments (Au):
       state          X           Y           Z
         1         0.1364     -0.2536     -0.7968
 Ground to excited state transition velocity quadrupole moments (Au):
       state          XX          YY          ZZ          XY          XZ          YZ
         1         1.6955      0.1825      0.0116      0.1346     -0.2826     -0.0807
 <0|del|b> * <b|rxdel|0> + <0|del|b> * <b|delr+rdel|0>
 Rotatory Strengths (R) in cgs (10**-40 erg-esu-cm/Gauss)
       state          XX          YY          ZZ    R(velocity)    E-M Angle
         1       -64.8549     62.2129    420.2200    139.1927       85.49
 1/2[<0|r|b>*<b|rxdel|0> + (<0|rxdel|b>*<b|r|0>)*]
 Rotatory Strengths (R) in cgs (10**-40 erg-esu-cm/Gauss)
       state          XX          YY          ZZ     R(length)
         1       874.8166   -251.5086   -189.3760    144.6440
  1/2[<0|del|b>*<b|r|0> + (<0|r|b>*<b|del|0>)*] (Au)
       state          X           Y           Z        Dip. S.   Osc.(frdel)
         1        -5.2990     -0.1242     -0.0075      5.4306      3.6204

 Excitation energies and oscillator strengths:
 
 Excited State   1:      Singlet-A      1.8175 eV  682.16 nm  f=3.7541  <S**2>=0.000
     155 ->158         0.13161
     156 ->157         0.70108
     156 <-157        -0.12439
 This state for optimization and/or second-order correction.
 Total Energy, E(TD-HF/TD-DFT) =  -1706.81058640    
 Copying the excited state density for this state as the 1-particle RhoCI density.
 SavETr:  write IOETrn=   770 NScale= 10 NData=  16 NLR=1 NState=    1 LETran=      28.

 **********************************************************************

            Population analysis using the SCF density.

 **********************************************************************

 Orbital symmetries:
       Occupied  (A) (A) (A) (A) (A) (A) (A) (A) (A) (A) (A) (A)
                 (A) (A) (A) (A) (A) (A) (A) (A) (A) (A) (A) (A)
                 (A) (A) (A) (A) (A) (A) (A) (A) (A) (A) (A) (A)
                 (A) (A) (A) (A) (A) (A) (A) (A) (A) (A) (A) (A)
                 (A) (A) (A) (A) (A) (A) (A) (A) (A) (A) (A) (A)
                 (A) (A) (A) (A) (A) (A) (A) (A) (A) (A) (A) (A)
                 (A) (A) (A) (A) (A) (A) (A) (A) (A) (A) (A) (A)
                 (A) (A) (A) (A) (A) (A) (A) (A) (A) (A) (A) (A)
                 (A) (A) (A) (A) (A) (A) (A) (A) (A) (A) (A) (A)
                 (A) (A) (A) (A) (A) (A) (A) (A) (A) (A) (A) (A)
                 (A) (A) (A) (A) (A) (A) (A) (A) (A) (A) (A) (A)
                 (A) (A) (A) (A) (A) (A) (A) (A) (A) (A) (A) (A)
                 (A) (A) (A) (A) (A) (A) (A) (A) (A) (A) (A) (A)
       Virtual   (A) (A) (A) (A) (A) (A) (A) (A) (A) (A) (A) (A)
                 (A) (A) (A) (A) (A) (A) (A) (A) (A) (A) (A) (A)
                 (A) (A) (A) (A) (A) (A) (A) (A) (A) (A) (A) (A)
                 (A) (A) (A) (A) (A) (A) (A) (A) (A) (A) (A) (A)
                 (A) (A) (A) (A) (A) (A) (A) (A) (A) (A) (A) (A)
                 (A) (A) (A) (A) (A) (A) (A) (A) (A) (A) (A) (A)
                 (A) (A) (A) (A) (A) (A) (A) (A) (A) (A) (A) (A)
                 (A) (A) (A) (A) (A) (A) (A) (A) (A) (A) (A) (A)
                 (A) (A) (A) (A) (A) (A) (A) (A) (A) (A) (A) (A)
                 (A) (A) (A) (A) (A) (A) (A) (A) (A) (A) (A) (A)
                 (A) (A) (A) (A) (A) (A) (A) (A) (A) (A) (A) (A)
                 (A) (A) (A) (A) (A) (A) (A) (A) (A) (A) (A) (A)
                 (A) (A) (A) (A) (A) (A) (A) (A) (A) (A) (A) (A)
                 (A) (A) (A) (A) (A) (A) (A) (A) (A) (A) (A) (A)
                 (A) (A) (A) (A) (A) (A) (A) (A) (A) (A) (A) (A)
                 (A) (A) (A) (A) (A) (A) (A) (A) (A) (A) (A) (A)
                 (A) (A) (A) (A) (A) (A) (A) (A) (A) (A) (A) (A)
                 (A) (A) (A) (A) (A) (A) (A) (A) (A) (A) (A) (A)
                 (A) (A) (A) (A) (A) (A) (A) (A) (A) (A) (A) (A)
                 (A) (A) (A) (A) (A) (A) (A) (A) (A) (A) (A) (A)
                 (A) (A) (A) (A) (A) (A) (A) (A) (A) (A) (A) (A)
                 (A) (A) (A) (A) (A) (A) (A) (A) (A) (A) (A) (A)
                 (A) (A) (A) (A) (A) (A) (A) (A) (A) (A) (A) (A)
                 (A) (A) (A) (A) (A) (A) (A) (A) (A) (A) (A) (A)
                 (A) (A) (A) (A) (A) (A) (A) (A) (A) (A) (A) (A)
                 (A) (A) (A) (A) (A) (A) (A) (A) (A) (A) (A) (A)
                 (A) (A) (A) (A) (A) (A) (A) (A) (A) (A) (A) (A)
                 (A) (A) (A) (A) (A) (A) (A) (A) (A) (A) (A) (A)
                 (A) (A) (A) (A) (A) (A) (A) (A) (A) (A) (A) (A)
                 (A) (A) (A) (A) (A) (A) (A) (A) (A) (A) (A) (A)
                 (A) (A) (A) (A) (A) (A) (A) (A) (A) (A) (A) (A)
                 (A) (A) (A) (A) (A) (A) (A) (A) (A) (A) (A) (A)
                 (A) (A) (A) (A) (A) (A) (A) (A) (A) (A) (A) (A)
                 (A) (A) (A) (A) (A) (A) (A) (A) (A) (A) (A) (A)
                 (A) (A) (A) (A) (A) (A) (A) (A) (A) (A) (A) (A)
                 (A) (A) (A) (A) (A) (A) (A) (A) (A) (A) (A) (A)
                 (A) (A) (A) (A) (A) (A) (A) (A) (A) (A) (A) (A)
                 (A) (A) (A) (A) (A) (A) (A) (A) (A) (A) (A) (A)
                 (A) (A) (A) (A) (A) (A) (A) (A) (A) (A) (A) (A)
                 (A) (A) (A) (A) (A) (A) (A) (A) (A) (A) (A) (A)
                 (A) (A) (A) (A) (A) (A) (A) (A) (A) (A) (A) (A)
                 (A) (A) (A) (A) (A) (A) (A) (A) (A) (A) (A) (A)
                 (A) (A) (A) (A) (A) (A) (A) (A) (A) (A) (A) (A)
                 (A) (A) (A) (A) (A) (A) (A) (A) (A) (A) (A) (A)
                 (A) (A) (A) (A) (A) (A) (A) (A) (A) (A) (A) (A)
                 (A) (A) (A) (A) (A) (A) (A) (A) (A) (A) (A) (A)
                 (A) (A) (A) (A) (A) (A) (A) (A) (A) (A) (A) (A)
                 (A) (A) (A) (A) (A) (A) (A) (A) (A) (A) (A) (A)
                 (A) (A) (A) (A) (A) (A) (A) (A) (A) (A) (A) (A)
                 (A) (A) (A) (A) (A) (A) (A) (A) (A) (A) (A) (A)
                 (A) (A) (A) (A) (A) (A) (A) (A) (A) (A) (A) (A)
                 (A) (A) (A) (A) (A) (A) (A) (A) (A) (A) (A) (A)
                 (A) (A) (A) (A) (A) (A) (A) (A) (A) (A) (A) (A)
                 (A) (A) (A) (A) (A) (A) (A) (A) (A) (A) (A) (A)
                 (A) (A) (A) (A) (A) (A) (A) (A) (A) (A) (A) (A)
                 (A) (A) (A) (A) (A) (A) (A) (A) (A) (A) (A) (A)
                 (A) (A) (A) (A) (A) (A) (A) (A) (A) (A) (A) (A)
                 (A) (A) (A) (A) (A) (A) (A) (A) (A) (A) (A) (A)
                 (A) (A) (A) (A) (A) (A) (A) (A) (A) (A) (A) (A)
                 (A) (A) (A) (A) (A) (A) (A) (A) (A) (A) (A) (A)
                 (A) (A) (A) (A) (A) (A) (A) (A) (A) (A) (A) (A)
                 (A) (A) (A) (A) (A) (A) (A) (A) (A) (A) (A) (A)
                 (A) (A) (A) (A) (A) (A) (A) (A) (A) (A)
 The electronic state is 1-A.
 Alpha  occ. eigenvalues --  -19.22350 -19.20855 -10.32185 -10.29044 -10.28979
 Alpha  occ. eigenvalues --  -10.28380 -10.28355 -10.28206 -10.27354 -10.27317
 Alpha  occ. eigenvalues --  -10.27246 -10.27179 -10.27116 -10.26891 -10.26774
 Alpha  occ. eigenvalues --  -10.26697 -10.26636 -10.26589 -10.26534 -10.26524
 Alpha  occ. eigenvalues --  -10.26447 -10.26317 -10.26295 -10.26240 -10.26005
 Alpha  occ. eigenvalues --  -10.25965 -10.25901 -10.25675 -10.25662 -10.25658
 Alpha  occ. eigenvalues --  -10.25622 -10.25384 -10.25376 -10.25287 -10.25269
 Alpha  occ. eigenvalues --  -10.25079 -10.24950 -10.24671 -10.24623 -10.24256
 Alpha  occ. eigenvalues --  -10.23252 -10.22629  -1.09504  -1.07262  -0.94756
 Alpha  occ. eigenvalues --   -0.93858  -0.92308  -0.91578  -0.91041  -0.90232
 Alpha  occ. eigenvalues --   -0.88347  -0.87430  -0.86905  -0.85864  -0.84322
 Alpha  occ. eigenvalues --   -0.82506  -0.81692  -0.80741  -0.79890  -0.78660
 Alpha  occ. eigenvalues --   -0.77091  -0.76680  -0.76637  -0.75970  -0.75613
 Alpha  occ. eigenvalues --   -0.75548  -0.75078  -0.74056  -0.73087  -0.70988
 Alpha  occ. eigenvalues --   -0.68951  -0.67512  -0.65796  -0.64964  -0.63998
 Alpha  occ. eigenvalues --   -0.63661  -0.62811  -0.61489  -0.60582  -0.59171
 Alpha  occ. eigenvalues --   -0.58897  -0.58291  -0.57885  -0.57373  -0.55770
 Alpha  occ. eigenvalues --   -0.55457  -0.55245  -0.54687  -0.54250  -0.54029
 Alpha  occ. eigenvalues --   -0.53708  -0.53417  -0.52264  -0.51224  -0.50996
 Alpha  occ. eigenvalues --   -0.50677  -0.50526  -0.49943  -0.49736  -0.49485
 Alpha  occ. eigenvalues --   -0.49275  -0.48734  -0.48447  -0.48241  -0.48072
 Alpha  occ. eigenvalues --   -0.47802  -0.47712  -0.47067  -0.46794  -0.45984
 Alpha  occ. eigenvalues --   -0.45833  -0.45601  -0.45124  -0.44893  -0.44715
 Alpha  occ. eigenvalues --   -0.44374  -0.44273  -0.44147  -0.43691  -0.43540
 Alpha  occ. eigenvalues --   -0.42820  -0.42090  -0.41998  -0.41856  -0.41575
 Alpha  occ. eigenvalues --   -0.41496  -0.41308  -0.41128  -0.41046  -0.40702
 Alpha  occ. eigenvalues --   -0.40598  -0.40426  -0.39667  -0.39580  -0.39100
 Alpha  occ. eigenvalues --   -0.38931  -0.38431  -0.38399  -0.38157  -0.37877
 Alpha  occ. eigenvalues --   -0.37527  -0.37144  -0.36930  -0.36420  -0.35947
 Alpha  occ. eigenvalues --   -0.35385  -0.35067  -0.34098  -0.32457  -0.31973
 Alpha  occ. eigenvalues --   -0.30548  -0.29598  -0.27998  -0.25602  -0.23278
 Alpha  occ. eigenvalues --   -0.18046
 Alpha virt. eigenvalues --   -0.07129  -0.01217   0.01509   0.05085   0.07848
 Alpha virt. eigenvalues --    0.09073   0.10520   0.10801   0.10865   0.11213
 Alpha virt. eigenvalues --    0.12191   0.12486   0.12767   0.12821   0.13470
 Alpha virt. eigenvalues --    0.13945   0.14709   0.14828   0.15001   0.15338
 Alpha virt. eigenvalues --    0.15616   0.15742   0.15820   0.16270   0.16446
 Alpha virt. eigenvalues --    0.17007   0.17230   0.17491   0.17700   0.17928
 Alpha virt. eigenvalues --    0.17995   0.18476   0.18666   0.18816   0.19420
 Alpha virt. eigenvalues --    0.19764   0.20261   0.20327   0.20673   0.20987
 Alpha virt. eigenvalues --    0.21246   0.21346   0.21688   0.21879   0.22500
 Alpha virt. eigenvalues --    0.22598   0.22732   0.22841   0.23010   0.23134
 Alpha virt. eigenvalues --    0.23463   0.23527   0.23866   0.24180   0.24328
 Alpha virt. eigenvalues --    0.24754   0.25093   0.25266   0.25616   0.25936
 Alpha virt. eigenvalues --    0.26302   0.26389   0.26876   0.26962   0.27166
 Alpha virt. eigenvalues --    0.27297   0.27378   0.27902   0.28359   0.28975
 Alpha virt. eigenvalues --    0.29848   0.30110   0.30245   0.31099   0.31491
 Alpha virt. eigenvalues --    0.31604   0.31725   0.32471   0.32682   0.33186
 Alpha virt. eigenvalues --    0.33895   0.34021   0.34857   0.35166   0.35272
 Alpha virt. eigenvalues --    0.35342   0.35796   0.36366   0.37774   0.38741
 Alpha virt. eigenvalues --    0.39133   0.40096   0.40951   0.41408   0.42182
 Alpha virt. eigenvalues --    0.42617   0.43003   0.43951   0.44539   0.44729
 Alpha virt. eigenvalues --    0.45516   0.46625   0.47609   0.48171   0.48890
 Alpha virt. eigenvalues --    0.50470   0.50702   0.51995   0.52256   0.53818
 Alpha virt. eigenvalues --    0.54894   0.55172   0.56468   0.56739   0.57013
 Alpha virt. eigenvalues --    0.57485   0.57584   0.57968   0.58058   0.58233
 Alpha virt. eigenvalues --    0.58964   0.59338   0.59657   0.60203   0.60358
 Alpha virt. eigenvalues --    0.61142   0.61523   0.61908   0.62096   0.62411
 Alpha virt. eigenvalues --    0.62627   0.62973   0.63253   0.63723   0.63883
 Alpha virt. eigenvalues --    0.64300   0.64462   0.64782   0.65084   0.65380
 Alpha virt. eigenvalues --    0.66051   0.66206   0.66305   0.66565   0.66643
 Alpha virt. eigenvalues --    0.67174   0.67691   0.67902   0.68175   0.68415
 Alpha virt. eigenvalues --    0.68475   0.68918   0.69286   0.69410   0.70045
 Alpha virt. eigenvalues --    0.70313   0.70643   0.70993   0.71897   0.72152
 Alpha virt. eigenvalues --    0.72627   0.72636   0.73104   0.73265   0.73609
 Alpha virt. eigenvalues --    0.73897   0.74057   0.74749   0.74976   0.75737
 Alpha virt. eigenvalues --    0.76153   0.76268   0.76784   0.76863   0.77302
 Alpha virt. eigenvalues --    0.77593   0.77901   0.78164   0.78785   0.79355
 Alpha virt. eigenvalues --    0.79524   0.80091   0.80459   0.80870   0.81044
 Alpha virt. eigenvalues --    0.81501   0.81917   0.82207   0.82790   0.82969
 Alpha virt. eigenvalues --    0.83467   0.83570   0.83826   0.83873   0.84263
 Alpha virt. eigenvalues --    0.84447   0.84700   0.84831   0.85419   0.85962
 Alpha virt. eigenvalues --    0.86179   0.86313   0.86649   0.87017   0.87398
 Alpha virt. eigenvalues --    0.87595   0.87812   0.87968   0.88177   0.88350
 Alpha virt. eigenvalues --    0.88430   0.88813   0.89242   0.89611   0.90264
 Alpha virt. eigenvalues --    0.90349   0.91200   0.91373   0.91666   0.91771
 Alpha virt. eigenvalues --    0.92054   0.92114   0.92481   0.92712   0.92778
 Alpha virt. eigenvalues --    0.93054   0.93172   0.93564   0.93829   0.94677
 Alpha virt. eigenvalues --    0.94925   0.94977   0.95075   0.95384   0.95774
 Alpha virt. eigenvalues --    0.96180   0.96396   0.96794   0.97196   0.97461
 Alpha virt. eigenvalues --    0.97886   0.97965   0.98433   0.98712   0.99356
 Alpha virt. eigenvalues --    0.99615   0.99798   0.99907   1.01036   1.01399
 Alpha virt. eigenvalues --    1.01658   1.01734   1.02106   1.02682   1.02955
 Alpha virt. eigenvalues --    1.03542   1.04024   1.04174   1.04425   1.04667
 Alpha virt. eigenvalues --    1.05102   1.05563   1.05843   1.06227   1.07059
 Alpha virt. eigenvalues --    1.07814   1.08184   1.09180   1.09445   1.10150
 Alpha virt. eigenvalues --    1.10544   1.10746   1.11143   1.11613   1.12100
 Alpha virt. eigenvalues --    1.12872   1.13152   1.13698   1.13910   1.14458
 Alpha virt. eigenvalues --    1.14569   1.15318   1.15435   1.15547   1.16840
 Alpha virt. eigenvalues --    1.17507   1.17610   1.18299   1.19860   1.20207
 Alpha virt. eigenvalues --    1.20757   1.22624   1.23886   1.24510   1.24941
 Alpha virt. eigenvalues --    1.26103   1.26513   1.27937   1.28318   1.29234
 Alpha virt. eigenvalues --    1.29649   1.30677   1.31503   1.32092   1.33294
 Alpha virt. eigenvalues --    1.34364   1.34959   1.35352   1.36109   1.36450
 Alpha virt. eigenvalues --    1.37117   1.37656   1.38215   1.39742   1.40041
 Alpha virt. eigenvalues --    1.40416   1.40642   1.41800   1.42118   1.42321
 Alpha virt. eigenvalues --    1.43822   1.44414   1.44816   1.45061   1.45474
 Alpha virt. eigenvalues --    1.46770   1.47733   1.48108   1.49493   1.49736
 Alpha virt. eigenvalues --    1.50328   1.50446   1.51331   1.51517   1.51922
 Alpha virt. eigenvalues --    1.53517   1.54325   1.55559   1.56436   1.57063
 Alpha virt. eigenvalues --    1.57473   1.58244   1.58436   1.59173   1.59295
 Alpha virt. eigenvalues --    1.60042   1.60245   1.61825   1.62402   1.62540
 Alpha virt. eigenvalues --    1.63620   1.64316   1.65439   1.65974   1.66446
 Alpha virt. eigenvalues --    1.67992   1.68172   1.68356   1.68431   1.70309
 Alpha virt. eigenvalues --    1.70432   1.70755   1.72390   1.76409   1.76633
 Alpha virt. eigenvalues --    1.78249   1.78587   1.79793   1.80350   1.80353
 Alpha virt. eigenvalues --    1.80987   1.81833   1.82400   1.82686   1.82694
 Alpha virt. eigenvalues --    1.83530   1.83796   1.84210   1.84921   1.85058
 Alpha virt. eigenvalues --    1.85468   1.85479   1.85920   1.86585   1.86855
 Alpha virt. eigenvalues --    1.87651   1.88129   1.88368   1.88686   1.88984
 Alpha virt. eigenvalues --    1.89498   1.89865   1.90161   1.90382   1.90739
 Alpha virt. eigenvalues --    1.90810   1.91384   1.91487   1.92264   1.92870
 Alpha virt. eigenvalues --    1.93158   1.93378   1.94161   1.94578   1.94656
 Alpha virt. eigenvalues --    1.95223   1.95820   1.95977   1.96514   1.96832
 Alpha virt. eigenvalues --    1.97217   1.97660   1.97855   1.98115   1.98276
 Alpha virt. eigenvalues --    1.98489   1.99040   1.99816   2.00410   2.00770
 Alpha virt. eigenvalues --    2.01175   2.01489   2.02242   2.03063   2.03688
 Alpha virt. eigenvalues --    2.04092   2.04798   2.05080   2.05926   2.06262
 Alpha virt. eigenvalues --    2.06621   2.07021   2.07122   2.07229   2.07497
 Alpha virt. eigenvalues --    2.08793   2.08882   2.08932   2.09647   2.10383
 Alpha virt. eigenvalues --    2.10491   2.10712   2.11169   2.11550   2.11760
 Alpha virt. eigenvalues --    2.11889   2.12108   2.12788   2.13119   2.13545
 Alpha virt. eigenvalues --    2.13908   2.14026   2.14445   2.14683   2.15196
 Alpha virt. eigenvalues --    2.15275   2.15929   2.16750   2.17410   2.17729
 Alpha virt. eigenvalues --    2.17828   2.18244   2.18384   2.18485   2.19188
 Alpha virt. eigenvalues --    2.19599   2.20512   2.21041   2.21831   2.22381
 Alpha virt. eigenvalues --    2.22743   2.23341   2.23754   2.24104   2.24283
 Alpha virt. eigenvalues --    2.24919   2.25136   2.25283   2.26054   2.26537
 Alpha virt. eigenvalues --    2.27138   2.27509   2.27898   2.28574   2.29260
 Alpha virt. eigenvalues --    2.29784   2.29967   2.30849   2.31392   2.31700
 Alpha virt. eigenvalues --    2.32305   2.32986   2.33387   2.34411   2.34606
 Alpha virt. eigenvalues --    2.35127   2.35752   2.36124   2.36560   2.36976
 Alpha virt. eigenvalues --    2.37248   2.37622   2.39026   2.40036   2.40265
 Alpha virt. eigenvalues --    2.40559   2.40981   2.41233   2.41453   2.41722
 Alpha virt. eigenvalues --    2.42285   2.42673   2.43027   2.43439   2.43905
 Alpha virt. eigenvalues --    2.44089   2.45140   2.45454   2.45727   2.45756
 Alpha virt. eigenvalues --    2.46252   2.46528   2.46997   2.47429   2.47750
 Alpha virt. eigenvalues --    2.48306   2.48756   2.49497   2.49940   2.50824
 Alpha virt. eigenvalues --    2.51452   2.51641   2.52145   2.52362   2.52859
 Alpha virt. eigenvalues --    2.53548   2.53991   2.54839   2.55144   2.55453
 Alpha virt. eigenvalues --    2.55732   2.56192   2.57252   2.57437   2.57804
 Alpha virt. eigenvalues --    2.58378   2.59004   2.59157   2.59394   2.60534
 Alpha virt. eigenvalues --    2.60598   2.61444   2.61876   2.62283   2.63001
 Alpha virt. eigenvalues --    2.63124   2.63327   2.63629   2.64043   2.64830
 Alpha virt. eigenvalues --    2.64997   2.65147   2.65796   2.66092   2.66331
 Alpha virt. eigenvalues --    2.66804   2.67696   2.67908   2.68223   2.68724
 Alpha virt. eigenvalues --    2.68970   2.69257   2.69380   2.69784   2.70232
 Alpha virt. eigenvalues --    2.70923   2.71431   2.72100   2.72482   2.73163
 Alpha virt. eigenvalues --    2.73918   2.73941   2.74354   2.74582   2.74846
 Alpha virt. eigenvalues --    2.75379   2.75747   2.75933   2.76719   2.77312
 Alpha virt. eigenvalues --    2.77644   2.78361   2.78667   2.79192   2.79522
 Alpha virt. eigenvalues --    2.80095   2.80273   2.80765   2.81811   2.83035
 Alpha virt. eigenvalues --    2.83223   2.83363   2.83949   2.84375   2.84534
 Alpha virt. eigenvalues --    2.85213   2.85981   2.86414   2.86907   2.87247
 Alpha virt. eigenvalues --    2.87444   2.88604   2.89272   2.90487   2.90567
 Alpha virt. eigenvalues --    2.91174   2.91416   2.92820   2.93844   2.94340
 Alpha virt. eigenvalues --    2.94740   2.95470   2.96344   2.97452   2.98140
 Alpha virt. eigenvalues --    2.98269   2.98481   2.99079   2.99587   3.00497
 Alpha virt. eigenvalues --    3.00597   3.01216   3.01449   3.02317   3.02709
 Alpha virt. eigenvalues --    3.02949   3.03748   3.04067   3.05791   3.05888
 Alpha virt. eigenvalues --    3.07202   3.07636   3.08524   3.09350   3.09697
 Alpha virt. eigenvalues --    3.09814   3.12202   3.12663   3.13409   3.13883
 Alpha virt. eigenvalues --    3.15079   3.15662   3.17357   3.18503   3.19094
 Alpha virt. eigenvalues --    3.20191   3.21665   3.22038   3.22377   3.23237
 Alpha virt. eigenvalues --    3.26753   3.27066   3.28288   3.28940   3.29396
 Alpha virt. eigenvalues --    3.29848   3.30344   3.32146   3.33614   3.34316
 Alpha virt. eigenvalues --    3.36851   3.37671   3.39463   3.39900   3.40328
 Alpha virt. eigenvalues --    3.40422   3.41196   3.42349   3.44308   3.44435
 Alpha virt. eigenvalues --    3.44743   3.45169   3.45291   3.47739   3.48057
 Alpha virt. eigenvalues --    3.48956   3.50086   3.50707   3.50870   3.53203
 Alpha virt. eigenvalues --    3.53606   3.54734   3.56026   3.56424   3.57762
 Alpha virt. eigenvalues --    3.58531   3.60289   3.61153   3.62745   3.64096
 Alpha virt. eigenvalues --    3.65215   3.67245   3.67862   3.68542   3.71791
 Alpha virt. eigenvalues --    3.73425   3.73648   3.74923   3.78128   3.89974
 Alpha virt. eigenvalues --    3.90928   3.92545   4.06260   4.08776   4.19398
 Alpha virt. eigenvalues --    4.19785   4.20665   4.22381   4.23186   4.24747
 Alpha virt. eigenvalues --    4.25756   4.28173   4.31857   4.33017   4.35670
 Alpha virt. eigenvalues --    4.38351   4.40463   4.42573   4.42903   4.44723
 Alpha virt. eigenvalues --    4.46381   4.49120   4.50796   4.52582   4.52831
 Alpha virt. eigenvalues --    4.54347   4.56427   4.56675   4.58076   4.62447
 Alpha virt. eigenvalues --    4.62704   4.63886   4.65883   4.68739   4.72430
 Alpha virt. eigenvalues --    4.72832   4.75349   4.79672   4.80725   4.81829
 Alpha virt. eigenvalues --    4.83656   4.86927   4.90759   4.93484
          Condensed to atoms (all electrons):
 Mulliken charges:
               1
     1  O   -0.581364
     2  O   -0.539786
     3  C   -0.066249
     4  C   -0.004700
     5  C   -0.172110
     6  C   -0.185909
     7  C    0.179751
     8  C    0.158094
     9  C    0.084377
    10  C    0.092136
    11  C   -0.221810
    12  C   -0.229210
    13  C    0.072217
    14  C    0.039202
    15  C   -0.276870
    16  C   -0.296726
    17  C   -0.275613
    18  C   -0.280527
    19  C   -0.106860
    20  C   -0.196820
    21  C   -0.367800
    22  C   -0.343314
    23  C   -0.130317
    24  C   -0.065520
    25  C    0.084499
    26  C    0.151830
    27  C   -0.385272
    28  C   -0.382257
    29  C   -0.106473
    30  C   -0.139044
    31  C   -0.115821
    32  C   -0.082990
    33  C   -0.122875
    34  C   -0.115937
    35  C    0.080191
    36  C    0.091261
    37  C   -0.339458
    38  C   -0.367458
    39  C   -0.106158
    40  C   -0.115344
    41  C   -0.068659
    42  C   -0.089278
    43  H    0.111211
    44  H    0.057505
    45  H    0.065257
    46  H    0.071376
    47  H    0.092255
    48  H    0.044739
    49  H    0.125424
    50  H    0.101974
    51  H    0.124137
    52  H    0.106786
    53  H    0.086947
    54  H    0.094083
    55  H    0.115722
    56  H    0.109316
    57  H    0.100018
    58  H    0.087143
    59  H    0.093501
    60  H    0.097144
    61  H    0.087797
    62  H    0.087034
    63  H    0.095000
    64  H    0.112980
    65  H    0.073586
    66  H    0.092438
    67  H    0.145230
    68  H    0.093444
    69  H    0.112982
    70  H    0.123497
    71  H    0.113558
    72  H    0.089020
    73  H    0.297620
    74  H    0.310854
    75  H    0.087451
    76  H    0.084559
    77  H    0.097278
    78  H    0.139337
    79  H    0.126452
    80  H    0.129017
    81  H    0.123892
    82  H    0.054048
    83  H    0.079570
    84  H    0.078999
    85  H    0.079134
    86  H    0.094998
    87  H    0.076259
    88  H    0.084356
    89  H    0.110145
    90  H    0.108448
    91  H    0.113434
    92  H    0.105679
    93  H    0.118531
    94  H    0.113296
    95  H    0.069907
    96  H    0.075878
    97  H    0.091267
    98  H    0.083460
 Sum of Mulliken charges =  -0.00000
 Mulliken charges with hydrogens summed into heavy atoms:
               1
     1  O   -0.283743
     2  O   -0.228932
     3  C   -0.066249
     4  C   -0.004700
     5  C   -0.003393
     6  C   -0.049276
     7  C    0.272006
     8  C    0.202833
     9  C    0.084377
    10  C    0.092136
    11  C    0.005588
    12  C    0.001713
    13  C    0.072217
    14  C    0.039202
    15  C    0.019882
    16  C   -0.000248
    17  C    0.002829
    18  C    0.014486
    19  C   -0.033274
    20  C   -0.104382
    21  C   -0.016144
    22  C   -0.017239
    23  C   -0.042866
    24  C    0.019039
    25  C    0.084499
    26  C    0.151830
    27  C   -0.022205
    28  C   -0.075301
    29  C   -0.026903
    30  C   -0.060045
    31  C   -0.036686
    32  C    0.012008
    33  C   -0.046616
    34  C   -0.031582
    35  C    0.080191
    36  C    0.091261
    37  C   -0.007432
    38  C   -0.029952
    39  C   -0.036251
    40  C   -0.039466
    41  C    0.022608
    42  C   -0.005817
 Electronic spatial extent (au):  <R**2>=         110408.9934
 Charge=             -0.0000 electrons
 Dipole moment (field-independent basis, Debye):
    X=              0.9800    Y=             -1.6202    Z=              0.6764  Tot=              2.0108
 Quadrupole moment (field-independent basis, Debye-Ang):
   XX=           -263.6027   YY=           -243.4517   ZZ=           -259.6395
   XY=              8.6159   XZ=             -9.5345   YZ=              1.2671
 Traceless Quadrupole moment (field-independent basis, Debye-Ang):
   XX=             -8.0380   YY=             12.1129   ZZ=             -4.0749
   XY=              8.6159   XZ=             -9.5345   YZ=              1.2671
 Octapole moment (field-independent basis, Debye-Ang**2):
  XXX=             30.5368  YYY=            -19.1001  ZZZ=              9.3409  XYY=            153.5839
  XXY=           -379.0817  XXZ=            304.0387  XZZ=            -30.3363  YZZ=              1.3404
  YYZ=              2.4261  XYZ=            -67.1881
 Hexadecapole moment (field-independent basis, Debye-Ang**3):
 XXXX=        -152133.2734 YYYY=          -4849.0229 ZZZZ=          -1606.0752 XXXY=           1376.3114
 XXXZ=          -2323.0287 YYYX=           -356.7544 YYYZ=            -10.0106 ZZZX=           -273.1867
 ZZZY=             32.9909 XXYY=         -23607.7661 XXZZ=         -23323.0191 YYZZ=          -1110.6461
 XXYZ=           -261.8878 YYXZ=            178.3606 ZZXY=           -223.0227
 N-N= 3.982290636746D+03 E-N=-1.191965485630D+04  KE= 1.690353989128D+03
 1\1\GINC-RYZEN-SSD1\SP\RCAM-B3LYP TD-FC\6-31G(d,p)\C40H56O2\PADAWAN\13
 -Jul-2019\0\\# td=(NStates=1) CAM-B3LYP/6-31G(d,p)\\TD\\0,1\O,0,14.773
 4128663,-2.0044433774,-0.0824351665\O,0,-14.7187069347,1.9035956647,1.
 1193114621\C,0,11.1669990459,-1.4703095831,0.9778539464\C,0,-12.308736
 0376,-0.9785894768,0.5533389779\C,0,12.7184854145,-1.8368129774,1.1542
 40316\C,0,-13.532259945,-0.2880868286,0.6578685989\C,0,13.3434723862,-
 1.8843407562,-0.2287664216\C,0,-13.4906883618,1.204229084,1.0735386049
 \C,0,10.8837176988,-0.3317408011,0.0596426713\C,0,-11.3091472787,-0.16
 95679637,-0.1980974857\C,0,13.2127317642,-0.6144299281,-0.9155243064\C
 ,0,-12.6284452825,1.9746404711,-0.0335427073\C,0,11.846020471,0.133903
 7733,-0.9324558886\C,0,-11.489079503,1.0975563847,-0.5384658426\C,0,10
 .8592469657,-0.9917846195,2.4131346975\C,0,10.3502556456,-2.8134491129
 ,0.6522786179\C,0,-11.7051923252,-1.2846581577,1.9908152125\C,0,-12.55
 51520102,-2.3095721791,-0.0412728653\C,0,9.6952647675,0.3804770007,0.2
 061245725\C,0,-10.0973053025,-0.9457473166,-0.7258538704\C,0,11.765892
 4692,1.25846102,-1.8653485249\C,0,-10.5305013381,1.996059083,-1.206227
 5128\C,0,9.3908729923,1.6539616392,0.0189285329\C,0,-8.8151429113,-0.5
 570876577,-0.4143365357\C,0,8.0643055356,2.2648824712,0.1742682018\C,0
 ,-7.6403120652,-1.2635346814,-0.6907652455\C,0,7.9639381778,3.70460931
 59,0.4751817022\C,0,-7.7028185789,-2.6044100179,-1.1978984748\C,0,6.89
 8519823,1.5911680578,-0.0286953545\C,0,-6.4200146985,-0.624050667,-0.4
 641153365\C,0,5.5655772717,2.153179556,-0.0427873097\C,0,-5.0924377898
 ,-1.2776048334,-0.5131881968\C,0,4.3803368197,1.3647526693,-0.20205229
 02\C,0,-3.9786891659,-0.4693891629,-0.3653993549\C,0,3.0691944104,1.67
 11015012,-0.0598518692\C,0,-2.6584513011,-0.9345735364,-0.4411324682\C
 ,0,2.5977813451,3.0908767797,0.5305807161\C,0,-2.4229710651,-2.2736108
 531,-0.9511763436\C,0,1.9911682058,0.7348055446,-0.2427349535\C,0,-1.5
 661085709,-0.0110432153,-0.1811220632\C,0,0.6874755766,0.8773105451,-0
 .1067893509\C,0,-0.2186317332,-0.1350611061,-0.387229693\H,0,13.312869
 867,-1.2066440745,1.7489705861\H,0,12.8990734063,-2.9169449086,1.62207
 9892\H,0,-14.3306860416,-0.8179292348,1.3321741384\H,0,-14.0348469797,
 -0.2745153234,-0.4884807041\H,0,12.9980708141,-2.7301023173,-0.6896695
 25\H,0,-12.893449777,1.3216861507,2.1645441884\H,0,13.9393985269,0.174
 2400019,-0.5233275138\H,0,13.6710526623,-0.5748828454,-1.9438871197\H,
 0,-13.3499102,2.1981348736,-0.8507178148\H,0,-12.0218581588,2.87942296
 24,0.3140224382\H,0,11.1417968687,-1.5712855576,3.4593106271\H,0,9.854
 5737844,-0.8701468137,2.2466114161\H,0,11.2888726293,-0.0267115383,2.4
 313865247\H,0,10.4592321862,-3.155640338,-0.4172184048\H,0,10.60316931
 98,-3.6674653895,1.4133307731\H,0,9.2136886859,-2.5657078788,0.8788846
 095\H,0,-11.2259742834,-0.3551080047,2.5589561926\H,0,-10.7974125803,-
 2.0425668006,1.7777915632\H,0,-12.6792688199,-1.6036677867,2.577758355
 8\H,0,-13.3780982588,-2.8365323491,0.4909472257\H,0,-11.6661218472,-2.
 8846050494,0.0403969377\H,0,-12.8942172807,-2.4537145634,-0.9261153535
 \H,0,8.8878306861,-0.3328376948,0.7742745485\H,0,-10.1616009251,-1.959
 0129652,-1.1414779498\H,0,10.8205633483,1.5197566457,-2.0923312921\H,0
 ,12.145740403,2.3112120641,-1.247590367\H,0,12.2076424342,1.1750083557
 ,-2.9169643854\H,0,-11.1635307541,2.4851540795,-1.7200127223\H,0,-9.77
 09830763,1.4706010792,-1.7551114781\H,0,-9.9657607601,2.7926219163,-0.
 5191250685\H,0,15.0330124292,-2.9147668038,0.3703353135\H,0,-15.073642
 0572,1.5991772178,2.0186929653\H,0,10.1927451935,2.3230092089,0.050231
 8482\H,0,-8.55023976,0.4024048416,0.0675261266\H,0,8.8798256696,4.3380
 071827,0.7621220532\H,0,7.4542318102,4.1896938304,-0.2505213981\H,0,7.
 2659158516,3.6520262706,1.3429911371\H,0,-8.0455873527,-3.3968543433,-
 0.4789731863\H,0,-8.2775021212,-2.6028902919,-2.1930711961\H,0,-6.5341
 191839,-2.9489494348,-1.843639798\H,0,7.1023660916,0.6349267077,-0.388
 8267577\H,0,-6.3711540914,0.3855660517,-0.1288680118\H,0,5.4409417992,
 3.3230879808,0.2924557546\H,0,-5.0635468257,-2.3545431323,-0.789895139
 5\H,0,4.5374069337,0.3235571017,-0.6347655446\H,0,-4.1807294769,0.5417
 035424,-0.009159635\H,0,3.1351391419,3.2273646265,1.6343066717\H,0,1.6
 889971607,3.2493259146,0.2884734493\H,0,3.0394693269,3.8005366787,-0.1
 257756356\H,0,-2.9445355686,-3.0864209341,-0.3454922142\H,0,-2.7125399
 67,-2.2600730693,-2.1238811301\H,0,-1.4713475198,-2.621089659,-0.70289
 88329\H,0,2.4663679998,-0.2051437954,-0.6495811701\H,0,-2.0714617692,0
 .916779922,-0.1956434713\H,0,0.2349237914,1.8184572727,-0.0478227723\H
 ,0,0.1580475898,-1.1875689209,-0.6205137254\\Version=ES64L-G16RevA.03\
 State=1-A\HF=-1706.8773788\RMSD=2.705e-09\PG=C01 [X(C40H56O2)]\\@


 EXPERIMENTALISTS THINK SILICON IS REALLY FUN TO USE
     ITS PLACE IN NOVEL COMPOUNDS IS CERTAIN TO AMUSE
 THEY SIT ALL DAY IN LABORATORIES MAKING ALL THIS SLUDGE
     "LOADED WITH THE SILICON THEY SAY", TO ME IT LOOKS LIKE FUDGE.
 FOR HAPPY THOUGH THEY BE WITH CRUD, I'D LIKE TO KNOW A LITTLE
      ABOUT THE PI BONDS ON THE EDGE AND SIGMAS IN THE MIDDLE.

 SO LETS DERIVE A WAVEFUNCTION.....6-31G*
     USE AN OPTIMAL GEOMETRY AND SEE WHERE ELECTRONS ARE.
 BUT WHAT OF CORRELATION?  ASKS THE WIRY LITTLE SKEPTIC.
     WE'LL THROW IN PERTURBATION AS AN ELECTRON ANTISEPTIC.
 AND WHEN THE PROGRAM GIVES US ANSWERS IN THEM WE CAN TRUST
     SINCE NOBODY CAN MAKE THE STUFF, WE HAVE NO CHOICE, WE MUST.

 SO THEORY GUYS HAVE GOT IT MADE, IN ROOMS FREE OF POLLUTION.
     INSTEAD OF PROBLEMS WITH THE REFLUX, THEY HAVE ONLY SOLUTIONS.
 AND WHEN THE FEDS ANNOUNCE THE LIST OF CARCINOGENIC TERRORS,
     THE THEORISTS SIT SAFELY AT THEIR TERMINALS FIXING ERRORS.
 IN OTHER WORDS, EXPERIMENTALISTS WILL LIKELY DIE OF CANCER
     FROM WORKING HARD YET FRUITLESSLY...TILL THEORY GIVES THE ANSWER.
          -- THOMAS A. HOLME, 1983
 Job cpu time:       0 days  8 hours 39 minutes  3.3 seconds.
 Elapsed time:       0 days  2 hours 10 minutes 33.9 seconds.
 File lengths (MBytes):  RWF=   3127 Int=      0 D2E=      0 Chk=     84 Scr=      1
 Normal termination of Gaussian 16 at Sat Jul 13 00:06:39 2019.
