 Entering Gaussian System, Link 0=g16
 Input=Geometria-84-.com
 Output=Geometria-84-.log
 Initial command:
 /usr/local/g16/l1.exe "/home/padawan/israel-mol/zeaxanthin/spectra/emi/Gau-112481.inp" -scrdir="/home/padawan/israel-mol/zeaxanthin/spectra/emi/"
 Entering Link 1 = /usr/local/g16/l1.exe PID=    112483.
  
 Copyright (c) 1988,1990,1992,1993,1995,1998,2003,2009,2016,
            Gaussian, Inc.  All Rights Reserved.
  
 This is part of the Gaussian(R) 16 program.  It is based on
 the Gaussian(R) 09 system (copyright 2009, Gaussian, Inc.),
 the Gaussian(R) 03 system (copyright 2003, Gaussian, Inc.),
 the Gaussian(R) 98 system (copyright 1998, Gaussian, Inc.),
 the Gaussian(R) 94 system (copyright 1995, Gaussian, Inc.),
 the Gaussian 92(TM) system (copyright 1992, Gaussian, Inc.),
 the Gaussian 90(TM) system (copyright 1990, Gaussian, Inc.),
 the Gaussian 88(TM) system (copyright 1988, Gaussian, Inc.),
 the Gaussian 86(TM) system (copyright 1986, Carnegie Mellon
 University), and the Gaussian 82(TM) system (copyright 1983,
 Carnegie Mellon University). Gaussian is a federally registered
 trademark of Gaussian, Inc.
  
 This software contains proprietary and confidential information,
 including trade secrets, belonging to Gaussian, Inc.
  
 This software is provided under written license and may be
 used, copied, transmitted, or stored only in accord with that
 written license.
  
 The following legend is applicable only to US Government
 contracts under FAR:
  
                    RESTRICTED RIGHTS LEGEND
  
 Use, reproduction and disclosure by the US Government is
 subject to restrictions as set forth in subparagraphs (a)
 and (c) of the Commercial Computer Software - Restricted
 Rights clause in FAR 52.227-19.
  
 Gaussian, Inc.
 340 Quinnipiac St., Bldg. 40, Wallingford CT 06492
  
  
 ---------------------------------------------------------------
 Warning -- This program may not be used in any manner that
 competes with the business of Gaussian, Inc. or will provide
 assistance to any competitor of Gaussian, Inc.  The licensee
 of this program is prohibited from giving any competitor of
 Gaussian, Inc. access to this program.  By using this program,
 the user acknowledges that Gaussian, Inc. is engaged in the
 business of creating and licensing software in the field of
 computational chemistry and represents and warrants to the
 licensee that it is not a competitor of Gaussian, Inc. and that
 it will not use this program in any manner prohibited above.
 ---------------------------------------------------------------
  

 Cite this work as:
 Gaussian 16, Revision A.03,
 M. J. Frisch, G. W. Trucks, H. B. Schlegel, G. E. Scuseria, 
 M. A. Robb, J. R. Cheeseman, G. Scalmani, V. Barone, 
 G. A. Petersson, H. Nakatsuji, X. Li, M. Caricato, A. V. Marenich, 
 J. Bloino, B. G. Janesko, R. Gomperts, B. Mennucci, H. P. Hratchian, 
 J. V. Ortiz, A. F. Izmaylov, J. L. Sonnenberg, D. Williams-Young, 
 F. Ding, F. Lipparini, F. Egidi, J. Goings, B. Peng, A. Petrone, 
 T. Henderson, D. Ranasinghe, V. G. Zakrzewski, J. Gao, N. Rega, 
 G. Zheng, W. Liang, M. Hada, M. Ehara, K. Toyota, R. Fukuda, 
 J. Hasegawa, M. Ishida, T. Nakajima, Y. Honda, O. Kitao, H. Nakai, 
 T. Vreven, K. Throssell, J. A. Montgomery, Jr., J. E. Peralta, 
 F. Ogliaro, M. J. Bearpark, J. J. Heyd, E. N. Brothers, K. N. Kudin, 
 V. N. Staroverov, T. A. Keith, R. Kobayashi, J. Normand, 
 K. Raghavachari, A. P. Rendell, J. C. Burant, S. S. Iyengar, 
 J. Tomasi, M. Cossi, J. M. Millam, M. Klene, C. Adamo, R. Cammi, 
 J. W. Ochterski, R. L. Martin, K. Morokuma, O. Farkas, 
 J. B. Foresman, and D. J. Fox, Gaussian, Inc., Wallingford CT, 2016.
 
 ******************************************
 Gaussian 16:  ES64L-G16RevA.03 25-Dec-2016
                10-Jul-2019 
 ******************************************
 %nproc=4
 Will use up to    4 processors via shared memory.
 %Mem=2GB
 -------------------------------------
 # td=(NStates=1) CAM-B3LYP/6-31G(d,p)
 -------------------------------------
 1/38=1,172=1/1;
 2/12=2,17=6,18=5,40=1/2;
 3/5=1,6=6,7=101,11=9,25=1,30=1,74=-40/1,2,3,8;
 4//1;
 5/5=2,38=5/2;
 8/6=1,10=2,108=1/1;
 9/41=1,42=1,70=2/14;
 6/7=2,8=2,9=2,10=2/1;
 99/5=1,9=1/99;
 --
 TD
 --
 Symbolic Z-matrix:
 Charge =  0 Multiplicity = 1
 8                     14.84934  -2.16254  -0.10761 
 8                    -14.75646   1.88916   0.96491 
 6                     11.21004  -1.51615   0.9737 
 6                    -12.37295  -1.0911    0.6353 
 6                     12.6866  -1.88109   1.12018 
 6                    -13.81685  -0.32865   0.67223 
 6                     13.38294  -1.90255  -0.29949 
 6                    -13.54118   1.15582   1.00392 
 6                     10.9813  -0.31125   0.03168 
 6                    -11.24558  -0.26266  -0.04436 
 6                     13.29408  -0.51072  -0.90645 
 6                    -12.77327   1.75227  -0.14229 
 6                     11.87989   0.1369   -0.88044 
 6                    -11.54111   0.99526  -0.52066 
 6                     10.78286  -1.29797   2.38455 
 6                     10.41036  -2.69251   0.4664 
 6                    -11.7999  -1.33247   1.9617 
 6                    -12.63946  -2.45911  -0.13458 
 6                     9.7044    0.28737   0.16713 
 6                    -10.08914  -0.99912  -0.36446 
 6                     11.65038   1.1702   -1.82606 
 6                    -10.63065   1.74144  -1.36723 
 6                     9.26897   1.60357   0.08842 
 6                    -8.76663  -0.47172  -0.37576 
 6                     7.97046   2.19076   0.14314 
 6                    -7.54325  -1.11287  -0.66498 
 6                     8.01301   3.71939   0.23429 
 6                    -7.64957  -2.62083  -1.05032 
 6                     6.88588   1.48421   0.10989 
 6                    -6.34678  -0.47042  -0.4839 
 6                     5.60727   2.09323   0.22418 
 6                    -5.03372  -0.96557  -0.60162 
 6                     4.48665   1.31755   0.13453 
 6                    -3.95406  -0.17438  -0.53113 
 6                     3.05771   1.6741    0.09895 
 6                    -2.59702  -0.69655  -0.54804 
 6                     2.75234   3.24099   0.36857 
 6                    -2.29256  -2.16796  -0.83084 
 6                     2.1357    0.79978  -0.0863 
 6                    -1.59306   0.2141   -0.26251 
 6                     0.73861   1.08177  -0.11712 
 6                    -0.23422   0.07992  -0.22608 
 1                     13.24774  -1.1366    1.63984 
 1                     12.66931  -2.71852   1.48253 
 1                    -14.60699  -0.86952   1.50102 
 1                    -14.27357  -0.54958  -0.25453 
 1                     12.9922  -2.70642  -0.82858 
 1                    -12.94114   1.34734   1.83714 
 1                     13.90027   0.2994   -0.67844 
 1                     13.39763  -0.71531  -1.99012 
 1                    -13.50217   1.96428  -0.91151 
 1                    -12.44698   2.74436   0.16783 
 1                     10.97909  -2.26467   2.88387 
 1                     9.62944  -0.96018   2.48165 
 1                     11.52052  -0.62164   2.79981 
 1                     10.64679  -2.83428  -0.63341 
 1                     10.52282  -3.66925   0.95014 
 1                     9.40597  -2.35641   0.47552 
 1                    -11.63411  -0.5989    2.59043 
 1                    -10.89005  -1.89866   1.88611 
 1                    -12.55058  -1.94681   2.57222 
 1                    -13.30393  -3.02752   0.25806 
 1                    -11.63261  -3.18043  -0.30803 
 1                    -13.10785  -2.18283  -1.12639 
 1                     8.78778  -0.48125   0.37045 
 1                    -10.11913  -1.90943  -0.74902 
 1                     10.6504   1.2673   -1.95681 
 1                     11.99394   2.17297  -1.65476 
 1                     12.07414   0.96369  -2.8088 
 1                    -11.01856   2.12471  -2.27501 
 1                    -9.96408   1.07782  -1.63922 
 1                    -9.90135   2.47645  -0.83696 
 1                     14.92472  -2.92027   0.40321 
 1                    -15.24976   1.46846   1.62645 
 1                     10.12896   2.29549   0.05492 
 1                    -8.51088   0.51771   0.12071 
 1                     9.02641   4.22441   0.34698 
 1                     7.3929    4.19965  -0.5616 
 1                     7.40562   3.87838   1.2355 
 1                    -8.03265  -3.4154   -0.35098 
 1                    -8.63233  -2.71957  -1.76421 
 1                    -6.75123  -3.0738   -1.51708 
 1                     7.04004   0.27635  -0.14955 
 1                    -6.31565   0.52236  -0.32259 
 1                     5.67961   3.11151   0.17982 
 1                    -5.13403  -2.04897  -0.83064 
 1                     4.84021   0.33492   0.09466 
 1                    -4.10271   0.90238  -0.2126 
 1                     3.44338   3.61458   1.23816 
 1                     1.72061   3.42422   0.28365 
 1                     3.10227   3.83462  -0.47666 
 1                    -2.75836  -2.95897  -0.23101 
 1                    -2.75009  -2.33332  -1.91354 
 1                    -1.32233  -2.65904  -1.02339 
 1                     2.40563  -0.39584  -0.07224 
 1                    -1.94414   1.36857  -0.48556 
 1                     0.33515   1.98193   0.0474 
 1                     0.04605  -0.95639  -0.52387 
 
 Stoichiometry    C40H56O2
 Framework group  C1[X(C40H56O2)]
 Deg. of freedom   288
 Full point group                 C1      NOp   1
 Largest Abelian subgroup         C1      NOp   1
 Largest concise Abelian subgroup C1      NOp   1
                         Standard orientation:                         
 ---------------------------------------------------------------------
 Center     Atomic      Atomic             Coordinates (Angstroms)
 Number     Number       Type             X           Y           Z
 ---------------------------------------------------------------------
      1          8           0       14.851276   -2.144806   -0.160049
      2          8           0      -14.757324    1.856490    1.019129
      3          6           0       11.211686   -1.528699    0.937824
      4          6           0      -12.371674   -1.112709    0.613830
      5          6           0       12.688539   -1.896127    1.074792
      6          6           0      -13.816125   -0.352509    0.670267
      7          6           0       13.384648   -1.881134   -0.345072
      8          6           0      -13.541500    1.123299    1.039387
      9          6           0       10.981892   -0.300504    0.026636
     10          6           0      -11.245029   -0.266491   -0.044811
     11          6           0       13.294663   -0.474449   -0.916593
     12          6           0      -12.774220    1.749134   -0.091479
     13          6           0       11.880004    0.171259   -0.873983
     14          6           0      -11.541571    1.002856   -0.489075
     15          6           0       10.784580   -1.346608    2.353808
     16          6           0       10.412787   -2.692426    0.401027
     17          6           0      -11.798221   -1.387153    1.933614
     18          6           0      -12.637303   -2.460986   -0.190391
     19          6           0        9.704572    0.293544    0.177388
     20          6           0      -10.088103   -0.993760   -0.383620
     21          6           0       11.649569    1.227992   -1.793114
     22          6           0      -10.631801    1.770909   -1.316622
     23          6           0        9.268163    1.610991    0.132080
     24          6           0       -8.765978   -0.465258   -0.381770
     25          6           0        7.969225    2.195643    0.201840
     26          6           0       -7.542179   -1.097975   -0.687310
     27          6           0        8.010669    3.721512    0.331651
     28          6           0       -7.647452   -2.595778   -1.110682
     29          6           0        6.885163    1.489359    0.150883
     30          6           0       -6.346147   -0.459423   -0.490201
     31          6           0        5.606126    2.094348    0.280745
     32          6           0       -5.032747   -0.950468   -0.620614
     33          6           0        4.486060    1.320349    0.171660
     34          6           0       -3.953654   -0.160512   -0.530280
     35          6           0        3.056857    1.676629    0.145334
     36          6           0       -2.596230   -0.681079   -0.560614
     37          6           0        2.750370    3.235966    0.454576
     38          6           0       -2.290736   -2.144634   -0.880615
     39          6           0        2.135460    0.806595   -0.061853
     40          6           0       -1.592900    0.222795   -0.252272
     41          6           0        0.738156    1.088238   -0.085316
     42          6           0       -0.233958    0.088745   -0.219458
     43          1           0       13.249218   -1.164613    1.613048
     44          1           0       12.671926   -2.742471    1.415830
     45          1           0      -14.605731   -0.914774    1.485221
     46          1           0      -14.272841   -0.550251   -0.261717
     47          1           0       12.994416   -2.671641   -0.894282
     48          1           0      -12.941461    1.294106    1.877097
     49          1           0       13.900298    0.330091   -0.668241
     50          1           0       13.398176   -0.651464   -2.005109
     51          1           0      -13.503402    1.980010   -0.854977
     52          1           0      -12.448610    2.733300    0.243606
     53          1           0       10.981608   -2.325502    2.828470
     54          1           0        9.630929   -1.012241    2.459603
     55          1           0       11.521807   -0.680465    2.785945
     56          1           0       10.649135   -2.806138   -0.702055
     57          1           0       10.526049   -3.681013    0.859876
     58          1           0        9.408147   -2.357410    0.418807
     59          1           0      -11.632859   -0.669609    2.580683
     60          1           0      -10.887966   -1.950572    1.843580
     61          1           0      -12.548339   -2.017305    2.528496
     62          1           0      -13.301287   -3.039650    0.187842
     63          1           0      -11.629948   -3.176945   -0.382191
     64          1           0      -13.106062   -2.160038   -1.174812
     65          1           0        8.788559   -0.480656    0.361328
     66          1           0      -10.117479   -1.894061   -0.791095
     67          1           0       10.649491    1.327628   -1.921208
     68          1           0       11.992412    2.226355   -1.596535
     69          1           0       12.073313    1.046733   -2.780830
     70          1           0      -11.020142    2.176740   -2.214346
     71          1           0       -9.964789    1.114879   -1.605420
     72          1           0       -9.902957    2.492798   -0.768020
     73          1           0       14.927303   -2.915165    0.331412
     74          1           0      -15.250201    1.418813    1.669890
     75          1           0       10.127635    2.304174    0.115982
     76          1           0       -8.510872    0.511473    0.139551
     77          1           0        9.023713    4.224265    0.456938
     78          1           0        7.390063    4.221308   -0.451735
     79          1           0        7.403328    3.854656    1.336658
     80          1           0       -8.029821   -3.408074   -0.431618
     81          1           0       -8.630254   -2.677146   -1.826690
     82          1           0       -6.748855   -3.036122   -1.588887
     83          1           0        7.040172    0.288571   -0.139073
     84          1           0       -6.315724    0.528974   -0.303817
     85          1           0        5.677702    3.113471    0.262169
     86          1           0       -5.132298   -2.027797   -0.876971
     87          1           0        4.840338    0.339306    0.106872
     88          1           0       -4.103049    0.907729   -0.184579
     89          1           0        3.441285    3.587939    1.333232
     90          1           0        1.718495    3.420523    0.374474
     91          1           0        3.099718    3.851058   -0.375415
     92          1           0       -2.755849   -2.950917   -0.300926
     93          1           0       -2.748332   -2.282875   -1.967081
     94          1           0       -1.320181   -2.629966   -1.085676
     95          1           0        2.406274   -0.388802   -0.078106
     96          1           0       -1.944867    1.382276   -0.445978
     97          1           0        0.334063    1.983648    0.101994
     98          1           0        0.047026   -0.939483   -0.543426
 ---------------------------------------------------------------------
 Rotational constants (GHZ):           0.2491185           0.0093042           0.0091044
 Standard basis: 6-31G(d,p) (6D, 7F)
 There are   910 symmetry adapted cartesian basis functions of A   symmetry.
 There are   910 symmetry adapted basis functions of A   symmetry.
   910 basis functions,  1568 primitive gaussians,   910 cartesian basis functions
   156 alpha electrons      156 beta electrons
       nuclear repulsion energy      3987.9658507978 Hartrees.
 NAtoms=   98 NActive=   98 NUniq=   98 SFac= 1.00D+00 NAtFMM=   60 NAOKFM=T Big=T
 Integral buffers will be    131072 words long.
 Raffenetti 1 integral format.
 Two-electron integral symmetry is turned on.
 One-electron integrals computed using PRISM.
 NBasis=   910 RedAO= T EigKep=  7.44D-04  NBF=   910
 NBsUse=   910 1.00D-06 EigRej= -1.00D+00 NBFU=   910
 ExpMin= 1.61D-01 ExpMax= 5.48D+03 ExpMxC= 8.25D+02 IAcc=3 IRadAn=         5 AccDes= 0.00D+00
 Harris functional with IExCor=20419 and IRadAn=       5 diagonalized for initial guess.
 HarFok:  IExCor=20419 AccDes= 0.00D+00 IRadAn=         5 IDoV= 1 UseB2=F ITyADJ=14
 ICtDFT=  3500011 ScaDFX=  1.000000  1.000000  1.000000  1.000000
 FoFCou: FMM=F IPFlag=           0 FMFlag=      100000 FMFlg1=        2001
         NFxFlg=           0 DoJE=T BraDBF=F KetDBF=T FulRan=T
         wScrn=  0.000000 ICntrl=       500 IOpCl=  0 I1Cent=   200000004 NGrid=           0
         NMat0=    1 NMatS0=      1 NMatT0=    0 NMatD0=    1 NMtDS0=    0 NMtDT0=    0
 Petite list used in FoFCou.
 Requested convergence on RMS density matrix=1.00D-08 within 128 cycles.
 Requested convergence on MAX density matrix=1.00D-06.
 Requested convergence on             energy=1.00D-06.
 No special actions if energy rises.
 Integral accuracy reduced to 1.0D-05 until final iterations.
 Initial convergence to 1.0D-05 achieved.  Increase integral accuracy.
 SCF Done:  E(RCAM-B3LYP) =  -1706.95643358     A.U. after   14 cycles
            NFock= 14  Conv=0.90D-08     -V/T= 2.0087
 DoSCS=F DFT=T ScalE2(SS,OS)=  1.000000  1.000000
 ExpMin= 1.61D-01 ExpMax= 5.48D+03 ExpMxC= 8.25D+02 IAcc=3 IRadAn=         5 AccDes= 0.00D+00
 HarFok:  IExCor=  205 AccDes= 0.00D+00 IRadAn=         5 IDoV=-2 UseB2=F ITyADJ=14
 ICtDFT= 12500011 ScaDFX=  1.000000  1.000000  1.000000  1.000000
 GSVD:  LWork=       -2100 too small for GESVD, short by        9450 words or        9450 for optimal perf.
 Range of M.O.s used for correlation:    43   910
 NBasis=   910 NAE=   156 NBE=   156 NFC=    42 NFV=     0
 NROrb=    868 NOA=   114 NOB=   114 NVA=   754 NVB=   754
 Orbital symmetries:
       Occupied  (A) (A) (A) (A) (A) (A) (A) (A) (A) (A) (A) (A)
                 (A) (A) (A) (A) (A) (A) (A) (A) (A) (A) (A) (A)
                 (A) (A) (A) (A) (A) (A) (A) (A) (A) (A) (A) (A)
                 (A) (A) (A) (A) (A) (A) (A) (A) (A) (A) (A) (A)
                 (A) (A) (A) (A) (A) (A) (A) (A) (A) (A) (A) (A)
                 (A) (A) (A) (A) (A) (A) (A) (A) (A) (A) (A) (A)
                 (A) (A) (A) (A) (A) (A) (A) (A) (A) (A) (A) (A)
                 (A) (A) (A) (A) (A) (A) (A) (A) (A) (A) (A) (A)
                 (A) (A) (A) (A) (A) (A) (A) (A) (A) (A) (A) (A)
                 (A) (A) (A) (A) (A) (A) (A) (A) (A) (A) (A) (A)
                 (A) (A) (A) (A) (A) (A) (A) (A) (A) (A) (A) (A)
                 (A) (A) (A) (A) (A) (A) (A) (A) (A) (A) (A) (A)
                 (A) (A) (A) (A) (A) (A) (A) (A) (A) (A) (A) (A)
       Virtual   (A) (A) (A) (A) (A) (A) (A) (A) (A) (A) (A) (A)
                 (A) (A) (A) (A) (A) (A) (A) (A) (A) (A) (A) (A)
                 (A) (A) (A) (A) (A) (A) (A) (A) (A) (A) (A) (A)
                 (A) (A) (A) (A) (A) (A) (A) (A) (A) (A) (A) (A)
                 (A) (A) (A) (A) (A) (A) (A) (A) (A) (A) (A) (A)
                 (A) (A) (A) (A) (A) (A) (A) (A) (A) (A) (A) (A)
                 (A) (A) (A) (A) (A) (A) (A) (A) (A) (A) (A) (A)
                 (A) (A) (A) (A) (A) (A) (A) (A) (A) (A) (A) (A)
                 (A) (A) (A) (A) (A) (A) (A) (A) (A) (A) (A) (A)
                 (A) (A) (A) (A) (A) (A) (A) (A) (A) (A) (A) (A)
                 (A) (A) (A) (A) (A) (A) (A) (A) (A) (A) (A) (A)
                 (A) (A) (A) (A) (A) (A) (A) (A) (A) (A) (A) (A)
                 (A) (A) (A) (A) (A) (A) (A) (A) (A) (A) (A) (A)
                 (A) (A) (A) (A) (A) (A) (A) (A) (A) (A) (A) (A)
                 (A) (A) (A) (A) (A) (A) (A) (A) (A) (A) (A) (A)
                 (A) (A) (A) (A) (A) (A) (A) (A) (A) (A) (A) (A)
                 (A) (A) (A) (A) (A) (A) (A) (A) (A) (A) (A) (A)
                 (A) (A) (A) (A) (A) (A) (A) (A) (A) (A) (A) (A)
                 (A) (A) (A) (A) (A) (A) (A) (A) (A) (A) (A) (A)
                 (A) (A) (A) (A) (A) (A) (A) (A) (A) (A) (A) (A)
                 (A) (A) (A) (A) (A) (A) (A) (A) (A) (A) (A) (A)
                 (A) (A) (A) (A) (A) (A) (A) (A) (A) (A) (A) (A)
                 (A) (A) (A) (A) (A) (A) (A) (A) (A) (A) (A) (A)
                 (A) (A) (A) (A) (A) (A) (A) (A) (A) (A) (A) (A)
                 (A) (A) (A) (A) (A) (A) (A) (A) (A) (A) (A) (A)
                 (A) (A) (A) (A) (A) (A) (A) (A) (A) (A) (A) (A)
                 (A) (A) (A) (A) (A) (A) (A) (A) (A) (A) (A) (A)
                 (A) (A) (A) (A) (A) (A) (A) (A) (A) (A) (A) (A)
                 (A) (A) (A) (A) (A) (A) (A) (A) (A) (A) (A) (A)
                 (A) (A) (A) (A) (A) (A) (A) (A) (A) (A) (A) (A)
                 (A) (A) (A) (A) (A) (A) (A) (A) (A) (A) (A) (A)
                 (A) (A) (A) (A) (A) (A) (A) (A) (A) (A) (A) (A)
                 (A) (A) (A) (A) (A) (A) (A) (A) (A) (A) (A) (A)
                 (A) (A) (A) (A) (A) (A) (A) (A) (A) (A) (A) (A)
                 (A) (A) (A) (A) (A) (A) (A) (A) (A) (A) (A) (A)
                 (A) (A) (A) (A) (A) (A) (A) (A) (A) (A) (A) (A)
                 (A) (A) (A) (A) (A) (A) (A) (A) (A) (A) (A) (A)
                 (A) (A) (A) (A) (A) (A) (A) (A) (A) (A) (A) (A)
                 (A) (A) (A) (A) (A) (A) (A) (A) (A) (A) (A) (A)
                 (A) (A) (A) (A) (A) (A) (A) (A) (A) (A) (A) (A)
                 (A) (A) (A) (A) (A) (A) (A) (A) (A) (A) (A) (A)
                 (A) (A) (A) (A) (A) (A) (A) (A) (A) (A) (A) (A)
                 (A) (A) (A) (A) (A) (A) (A) (A) (A) (A) (A) (A)
                 (A) (A) (A) (A) (A) (A) (A) (A) (A) (A) (A) (A)
                 (A) (A) (A) (A) (A) (A) (A) (A) (A) (A) (A) (A)
                 (A) (A) (A) (A) (A) (A) (A) (A) (A) (A) (A) (A)
                 (A) (A) (A) (A) (A) (A) (A) (A) (A) (A) (A) (A)
                 (A) (A) (A) (A) (A) (A) (A) (A) (A) (A) (A) (A)
                 (A) (A) (A) (A) (A) (A) (A) (A) (A) (A) (A) (A)
                 (A) (A) (A) (A) (A) (A) (A) (A) (A) (A) (A) (A)
                 (A) (A) (A) (A) (A) (A) (A) (A) (A) (A) (A) (A)
                 (A) (A) (A) (A) (A) (A) (A) (A) (A) (A) (A) (A)
                 (A) (A) (A) (A) (A) (A) (A) (A) (A) (A) (A) (A)
                 (A) (A) (A) (A) (A) (A) (A) (A) (A) (A) (A) (A)
                 (A) (A) (A) (A) (A) (A) (A) (A) (A) (A) (A) (A)
                 (A) (A) (A) (A) (A) (A) (A) (A) (A) (A) (A) (A)
                 (A) (A) (A) (A) (A) (A) (A) (A) (A) (A) (A) (A)
                 (A) (A) (A) (A) (A) (A) (A) (A) (A) (A) (A) (A)
                 (A) (A) (A) (A) (A) (A) (A) (A) (A) (A) (A) (A)
                 (A) (A) (A) (A) (A) (A) (A) (A) (A) (A) (A) (A)
                 (A) (A) (A) (A) (A) (A) (A) (A) (A) (A) (A) (A)
                 (A) (A) (A) (A) (A) (A) (A) (A) (A) (A) (A) (A)
                 (A) (A) (A) (A) (A) (A) (A) (A) (A) (A)
     4 initial guesses have been made.
 Convergence on wavefunction:    0.001000000000000
 Iteration     1 Dimension     4 NMult     0 NNew      4
 CISAX will form     4 AO SS matrices at one time.
 Iteration     2 Dimension     6 NMult     4 NNew      2
 Iteration     3 Dimension     8 NMult     6 NNew      2
 Iteration     4 Dimension    10 NMult     8 NNew      2
 Iteration     5 Dimension    12 NMult    10 NNew      2
 Iteration     6 Dimension    14 NMult    12 NNew      2
 ***********************************************************************
 Excited states from <AA,BB:AA,BB> singles matrix:
 ***********************************************************************
 
 Ground to excited state transition densities written to RWF  633
 Ground to excited state transition electric dipole moments (Au):
       state          X           Y           Z        Dip. S.      Osc.
         1        -7.9673     -0.9991     -0.2333     64.5304      3.9158
 Ground to excited state transition velocity dipole moments (Au):
       state          X           Y           Z        Dip. S.      Osc.
         1         0.6994      0.0869      0.0210      0.4972      3.6414
 Ground to excited state transition magnetic dipole moments (Au):
       state          X           Y           Z
         1         0.1135     -0.2421     -0.6563
 Ground to excited state transition velocity quadrupole moments (Au):
       state          XX          YY          ZZ          XY          XZ          YZ
         1        -1.8865      0.1460     -0.0111      0.1650     -0.2787     -0.0300
 <0|del|b> * <b|rxdel|0> + <0|del|b> * <b|delr+rdel|0>
 Rotatory Strengths (R) in cgs (10**-40 erg-esu-cm/Gauss)
       state          XX          YY          ZZ    R(velocity)    E-M Angle
         1       -27.7617    159.6930    214.0883    115.3398       84.89
 1/2[<0|r|b>*<b|rxdel|0> + (<0|rxdel|b>*<b|r|0>)*]
 Rotatory Strengths (R) in cgs (10**-40 erg-esu-cm/Gauss)
       state          XX          YY          ZZ     R(length)
         1       639.2633   -171.0530   -108.2782    119.9774
  1/2[<0|del|b>*<b|r|0> + (<0|r|b>*<b|del|0>)*] (Au)
       state          X           Y           Z        Dip. S.   Osc.(frdel)
         1        -5.5725     -0.0868     -0.0049      5.6642      3.7761

 Excitation energies and oscillator strengths:
 
 Excited State   1:      Singlet-A      2.4768 eV  500.57 nm  f=3.9158  <S**2>=0.000
     155 ->158        -0.18875
     156 ->157         0.67570
 This state for optimization and/or second-order correction.
 Total Energy, E(TD-HF/TD-DFT) =  -1706.86541148    
 Copying the excited state density for this state as the 1-particle RhoCI density.
 SavETr:  write IOETrn=   770 NScale= 10 NData=  16 NLR=1 NState=    1 LETran=      28.

 **********************************************************************

            Population analysis using the SCF density.

 **********************************************************************

 Orbital symmetries:
       Occupied  (A) (A) (A) (A) (A) (A) (A) (A) (A) (A) (A) (A)
                 (A) (A) (A) (A) (A) (A) (A) (A) (A) (A) (A) (A)
                 (A) (A) (A) (A) (A) (A) (A) (A) (A) (A) (A) (A)
                 (A) (A) (A) (A) (A) (A) (A) (A) (A) (A) (A) (A)
                 (A) (A) (A) (A) (A) (A) (A) (A) (A) (A) (A) (A)
                 (A) (A) (A) (A) (A) (A) (A) (A) (A) (A) (A) (A)
                 (A) (A) (A) (A) (A) (A) (A) (A) (A) (A) (A) (A)
                 (A) (A) (A) (A) (A) (A) (A) (A) (A) (A) (A) (A)
                 (A) (A) (A) (A) (A) (A) (A) (A) (A) (A) (A) (A)
                 (A) (A) (A) (A) (A) (A) (A) (A) (A) (A) (A) (A)
                 (A) (A) (A) (A) (A) (A) (A) (A) (A) (A) (A) (A)
                 (A) (A) (A) (A) (A) (A) (A) (A) (A) (A) (A) (A)
                 (A) (A) (A) (A) (A) (A) (A) (A) (A) (A) (A) (A)
       Virtual   (A) (A) (A) (A) (A) (A) (A) (A) (A) (A) (A) (A)
                 (A) (A) (A) (A) (A) (A) (A) (A) (A) (A) (A) (A)
                 (A) (A) (A) (A) (A) (A) (A) (A) (A) (A) (A) (A)
                 (A) (A) (A) (A) (A) (A) (A) (A) (A) (A) (A) (A)
                 (A) (A) (A) (A) (A) (A) (A) (A) (A) (A) (A) (A)
                 (A) (A) (A) (A) (A) (A) (A) (A) (A) (A) (A) (A)
                 (A) (A) (A) (A) (A) (A) (A) (A) (A) (A) (A) (A)
                 (A) (A) (A) (A) (A) (A) (A) (A) (A) (A) (A) (A)
                 (A) (A) (A) (A) (A) (A) (A) (A) (A) (A) (A) (A)
                 (A) (A) (A) (A) (A) (A) (A) (A) (A) (A) (A) (A)
                 (A) (A) (A) (A) (A) (A) (A) (A) (A) (A) (A) (A)
                 (A) (A) (A) (A) (A) (A) (A) (A) (A) (A) (A) (A)
                 (A) (A) (A) (A) (A) (A) (A) (A) (A) (A) (A) (A)
                 (A) (A) (A) (A) (A) (A) (A) (A) (A) (A) (A) (A)
                 (A) (A) (A) (A) (A) (A) (A) (A) (A) (A) (A) (A)
                 (A) (A) (A) (A) (A) (A) (A) (A) (A) (A) (A) (A)
                 (A) (A) (A) (A) (A) (A) (A) (A) (A) (A) (A) (A)
                 (A) (A) (A) (A) (A) (A) (A) (A) (A) (A) (A) (A)
                 (A) (A) (A) (A) (A) (A) (A) (A) (A) (A) (A) (A)
                 (A) (A) (A) (A) (A) (A) (A) (A) (A) (A) (A) (A)
                 (A) (A) (A) (A) (A) (A) (A) (A) (A) (A) (A) (A)
                 (A) (A) (A) (A) (A) (A) (A) (A) (A) (A) (A) (A)
                 (A) (A) (A) (A) (A) (A) (A) (A) (A) (A) (A) (A)
                 (A) (A) (A) (A) (A) (A) (A) (A) (A) (A) (A) (A)
                 (A) (A) (A) (A) (A) (A) (A) (A) (A) (A) (A) (A)
                 (A) (A) (A) (A) (A) (A) (A) (A) (A) (A) (A) (A)
                 (A) (A) (A) (A) (A) (A) (A) (A) (A) (A) (A) (A)
                 (A) (A) (A) (A) (A) (A) (A) (A) (A) (A) (A) (A)
                 (A) (A) (A) (A) (A) (A) (A) (A) (A) (A) (A) (A)
                 (A) (A) (A) (A) (A) (A) (A) (A) (A) (A) (A) (A)
                 (A) (A) (A) (A) (A) (A) (A) (A) (A) (A) (A) (A)
                 (A) (A) (A) (A) (A) (A) (A) (A) (A) (A) (A) (A)
                 (A) (A) (A) (A) (A) (A) (A) (A) (A) (A) (A) (A)
                 (A) (A) (A) (A) (A) (A) (A) (A) (A) (A) (A) (A)
                 (A) (A) (A) (A) (A) (A) (A) (A) (A) (A) (A) (A)
                 (A) (A) (A) (A) (A) (A) (A) (A) (A) (A) (A) (A)
                 (A) (A) (A) (A) (A) (A) (A) (A) (A) (A) (A) (A)
                 (A) (A) (A) (A) (A) (A) (A) (A) (A) (A) (A) (A)
                 (A) (A) (A) (A) (A) (A) (A) (A) (A) (A) (A) (A)
                 (A) (A) (A) (A) (A) (A) (A) (A) (A) (A) (A) (A)
                 (A) (A) (A) (A) (A) (A) (A) (A) (A) (A) (A) (A)
                 (A) (A) (A) (A) (A) (A) (A) (A) (A) (A) (A) (A)
                 (A) (A) (A) (A) (A) (A) (A) (A) (A) (A) (A) (A)
                 (A) (A) (A) (A) (A) (A) (A) (A) (A) (A) (A) (A)
                 (A) (A) (A) (A) (A) (A) (A) (A) (A) (A) (A) (A)
                 (A) (A) (A) (A) (A) (A) (A) (A) (A) (A) (A) (A)
                 (A) (A) (A) (A) (A) (A) (A) (A) (A) (A) (A) (A)
                 (A) (A) (A) (A) (A) (A) (A) (A) (A) (A) (A) (A)
                 (A) (A) (A) (A) (A) (A) (A) (A) (A) (A) (A) (A)
                 (A) (A) (A) (A) (A) (A) (A) (A) (A) (A) (A) (A)
                 (A) (A) (A) (A) (A) (A) (A) (A) (A) (A) (A) (A)
                 (A) (A) (A) (A) (A) (A) (A) (A) (A) (A) (A) (A)
                 (A) (A) (A) (A) (A) (A) (A) (A) (A) (A) (A) (A)
                 (A) (A) (A) (A) (A) (A) (A) (A) (A) (A) (A) (A)
                 (A) (A) (A) (A) (A) (A) (A) (A) (A) (A) (A) (A)
                 (A) (A) (A) (A) (A) (A) (A) (A) (A) (A) (A) (A)
                 (A) (A) (A) (A) (A) (A) (A) (A) (A) (A) (A) (A)
                 (A) (A) (A) (A) (A) (A) (A) (A) (A) (A) (A) (A)
                 (A) (A) (A) (A) (A) (A) (A) (A) (A) (A) (A) (A)
                 (A) (A) (A) (A) (A) (A) (A) (A) (A) (A) (A) (A)
                 (A) (A) (A) (A) (A) (A) (A) (A) (A) (A) (A) (A)
                 (A) (A) (A) (A) (A) (A) (A) (A) (A) (A) (A) (A)
                 (A) (A) (A) (A) (A) (A) (A) (A) (A) (A)
 The electronic state is 1-A.
 Alpha  occ. eigenvalues --  -19.20772 -19.19706 -10.30442 -10.29707 -10.28791
 Alpha  occ. eigenvalues --  -10.27789 -10.27763 -10.27405 -10.27361 -10.27251
 Alpha  occ. eigenvalues --  -10.27200 -10.27200 -10.27102 -10.26845 -10.26680
 Alpha  occ. eigenvalues --  -10.26676 -10.26580 -10.26524 -10.26483 -10.26388
 Alpha  occ. eigenvalues --  -10.26211 -10.26206 -10.26154 -10.26093 -10.26067
 Alpha  occ. eigenvalues --  -10.25810 -10.25763 -10.25752 -10.25713 -10.25475
 Alpha  occ. eigenvalues --  -10.25447 -10.25409 -10.25334 -10.25125 -10.25016
 Alpha  occ. eigenvalues --  -10.24794 -10.24358 -10.23941 -10.23308 -10.22807
 Alpha  occ. eigenvalues --  -10.22755 -10.22570  -1.10705  -1.07549  -0.94426
 Alpha  occ. eigenvalues --   -0.93698  -0.92512  -0.92186  -0.91115  -0.89934
 Alpha  occ. eigenvalues --   -0.88967  -0.87346  -0.87208  -0.85954  -0.84939
 Alpha  occ. eigenvalues --   -0.83816  -0.82368  -0.80604  -0.79896  -0.78000
 Alpha  occ. eigenvalues --   -0.77706  -0.77414  -0.76474  -0.76213  -0.76006
 Alpha  occ. eigenvalues --   -0.75790  -0.75611  -0.75210  -0.74193  -0.71606
 Alpha  occ. eigenvalues --   -0.69659  -0.68241  -0.66689  -0.65733  -0.64399
 Alpha  occ. eigenvalues --   -0.64100  -0.63291  -0.62030  -0.61281  -0.61003
 Alpha  occ. eigenvalues --   -0.59944  -0.59355  -0.58392  -0.57220  -0.56298
 Alpha  occ. eigenvalues --   -0.55867  -0.55779  -0.54732  -0.54353  -0.53523
 Alpha  occ. eigenvalues --   -0.53237  -0.52822  -0.52260  -0.52012  -0.51120
 Alpha  occ. eigenvalues --   -0.50966  -0.50688  -0.50176  -0.49473  -0.49215
 Alpha  occ. eigenvalues --   -0.49148  -0.48804  -0.48628  -0.48241  -0.47993
 Alpha  occ. eigenvalues --   -0.47830  -0.47506  -0.47435  -0.47114  -0.46585
 Alpha  occ. eigenvalues --   -0.46109  -0.45974  -0.45782  -0.45467  -0.45178
 Alpha  occ. eigenvalues --   -0.45167  -0.45101  -0.44546  -0.44034  -0.43872
 Alpha  occ. eigenvalues --   -0.43696  -0.43300  -0.42631  -0.42161  -0.42024
 Alpha  occ. eigenvalues --   -0.41957  -0.41606  -0.41251  -0.41082  -0.40788
 Alpha  occ. eigenvalues --   -0.40544  -0.40360  -0.40001  -0.39608  -0.39518
 Alpha  occ. eigenvalues --   -0.38903  -0.38722  -0.38589  -0.38331  -0.38162
 Alpha  occ. eigenvalues --   -0.37896  -0.37267  -0.37015  -0.36920  -0.36123
 Alpha  occ. eigenvalues --   -0.35883  -0.35291  -0.34273  -0.32895  -0.32380
 Alpha  occ. eigenvalues --   -0.31407  -0.30128  -0.28736  -0.25866  -0.23163
 Alpha  occ. eigenvalues --   -0.20331
 Alpha virt. eigenvalues --   -0.05191  -0.01344   0.01832   0.05886   0.07666
 Alpha virt. eigenvalues --    0.09880   0.11640   0.11813   0.12074   0.12345
 Alpha virt. eigenvalues --    0.12807   0.13513   0.13713   0.13845   0.14029
 Alpha virt. eigenvalues --    0.14250   0.14751   0.14777   0.14982   0.15252
 Alpha virt. eigenvalues --    0.15758   0.16053   0.16730   0.17173   0.17511
 Alpha virt. eigenvalues --    0.17736   0.17870   0.17916   0.18309   0.18471
 Alpha virt. eigenvalues --    0.18657   0.18866   0.19091   0.19427   0.19636
 Alpha virt. eigenvalues --    0.20006   0.20094   0.20484   0.20648   0.21054
 Alpha virt. eigenvalues --    0.21403   0.21758   0.21941   0.22287   0.22392
 Alpha virt. eigenvalues --    0.22466   0.23025   0.23493   0.24000   0.24171
 Alpha virt. eigenvalues --    0.24358   0.24603   0.24713   0.25070   0.25228
 Alpha virt. eigenvalues --    0.25633   0.25911   0.26287   0.26546   0.26681
 Alpha virt. eigenvalues --    0.26952   0.27203   0.27627   0.27759   0.28271
 Alpha virt. eigenvalues --    0.28354   0.28531   0.29124   0.29363   0.29833
 Alpha virt. eigenvalues --    0.30222   0.30559   0.30791   0.31166   0.31312
 Alpha virt. eigenvalues --    0.31468   0.32506   0.32619   0.32660   0.33120
 Alpha virt. eigenvalues --    0.33506   0.33630   0.33999   0.35046   0.35076
 Alpha virt. eigenvalues --    0.35442   0.35996   0.36157   0.36299   0.38075
 Alpha virt. eigenvalues --    0.38753   0.39115   0.41064   0.41768   0.42476
 Alpha virt. eigenvalues --    0.43438   0.43755   0.44221   0.45003   0.45373
 Alpha virt. eigenvalues --    0.46348   0.47175   0.48020   0.49610   0.50572
 Alpha virt. eigenvalues --    0.51635   0.52486   0.53027   0.53603   0.53976
 Alpha virt. eigenvalues --    0.54982   0.55290   0.55585   0.55730   0.56393
 Alpha virt. eigenvalues --    0.56710   0.56787   0.57629   0.57725   0.58198
 Alpha virt. eigenvalues --    0.58832   0.59098   0.59609   0.60029   0.60508
 Alpha virt. eigenvalues --    0.60659   0.60976   0.61201   0.61788   0.62004
 Alpha virt. eigenvalues --    0.62493   0.62657   0.63021   0.63250   0.63519
 Alpha virt. eigenvalues --    0.63848   0.64391   0.64447   0.65181   0.65302
 Alpha virt. eigenvalues --    0.65853   0.66156   0.66171   0.66640   0.67122
 Alpha virt. eigenvalues --    0.67482   0.67658   0.67814   0.68423   0.69058
 Alpha virt. eigenvalues --    0.69423   0.69573   0.69717   0.69823   0.70064
 Alpha virt. eigenvalues --    0.70623   0.70959   0.71623   0.71810   0.72042
 Alpha virt. eigenvalues --    0.72491   0.72523   0.72860   0.73020   0.73450
 Alpha virt. eigenvalues --    0.73532   0.73840   0.74786   0.74952   0.75798
 Alpha virt. eigenvalues --    0.76067   0.76717   0.76903   0.77742   0.78032
 Alpha virt. eigenvalues --    0.78447   0.79234   0.79264   0.79660   0.79821
 Alpha virt. eigenvalues --    0.80700   0.80787   0.81159   0.81442   0.81967
 Alpha virt. eigenvalues --    0.82221   0.82560   0.82857   0.83091   0.83234
 Alpha virt. eigenvalues --    0.83652   0.83845   0.84111   0.84311   0.84874
 Alpha virt. eigenvalues --    0.85090   0.85520   0.86151   0.86377   0.86694
 Alpha virt. eigenvalues --    0.87280   0.87384   0.87887   0.88103   0.88344
 Alpha virt. eigenvalues --    0.88431   0.88767   0.89366   0.89645   0.90036
 Alpha virt. eigenvalues --    0.90073   0.90288   0.90451   0.91023   0.91043
 Alpha virt. eigenvalues --    0.91505   0.92313   0.92365   0.92579   0.92771
 Alpha virt. eigenvalues --    0.92974   0.93396   0.93727   0.93784   0.94124
 Alpha virt. eigenvalues --    0.94458   0.94896   0.95056   0.95368   0.95473
 Alpha virt. eigenvalues --    0.95701   0.96060   0.96127   0.96311   0.97018
 Alpha virt. eigenvalues --    0.97449   0.97610   0.98415   0.98611   0.98858
 Alpha virt. eigenvalues --    0.98975   0.99307   0.99596   0.99795   1.00427
 Alpha virt. eigenvalues --    1.00624   1.00885   1.01350   1.01435   1.01809
 Alpha virt. eigenvalues --    1.02544   1.02587   1.02847   1.03725   1.04167
 Alpha virt. eigenvalues --    1.05014   1.05347   1.05536   1.05727   1.05811
 Alpha virt. eigenvalues --    1.06716   1.07479   1.07935   1.08522   1.09531
 Alpha virt. eigenvalues --    1.09655   1.09995   1.10435   1.10806   1.10992
 Alpha virt. eigenvalues --    1.11380   1.12076   1.12663   1.13361   1.13541
 Alpha virt. eigenvalues --    1.14028   1.14214   1.14539   1.15254   1.15536
 Alpha virt. eigenvalues --    1.16839   1.17101   1.17659   1.17761   1.18275
 Alpha virt. eigenvalues --    1.19334   1.19524   1.20847   1.21624   1.21752
 Alpha virt. eigenvalues --    1.23040   1.23456   1.23673   1.24216   1.25314
 Alpha virt. eigenvalues --    1.25758   1.26546   1.27778   1.28835   1.29310
 Alpha virt. eigenvalues --    1.29599   1.30326   1.30971   1.32370   1.33894
 Alpha virt. eigenvalues --    1.34470   1.34853   1.35570   1.35714   1.35823
 Alpha virt. eigenvalues --    1.37319   1.38040   1.38409   1.38748   1.39525
 Alpha virt. eigenvalues --    1.40339   1.41143   1.41618   1.42303   1.42602
 Alpha virt. eigenvalues --    1.42902   1.43167   1.43573   1.44646   1.46032
 Alpha virt. eigenvalues --    1.47017   1.47118   1.47692   1.48565   1.48773
 Alpha virt. eigenvalues --    1.49487   1.50155   1.51581   1.52328   1.53529
 Alpha virt. eigenvalues --    1.53690   1.54356   1.55271   1.55907   1.56021
 Alpha virt. eigenvalues --    1.57357   1.58160   1.58591   1.59237   1.60641
 Alpha virt. eigenvalues --    1.60949   1.61889   1.62362   1.63048   1.64084
 Alpha virt. eigenvalues --    1.64499   1.65436   1.65802   1.66309   1.66985
 Alpha virt. eigenvalues --    1.68466   1.69240   1.69372   1.69695   1.70431
 Alpha virt. eigenvalues --    1.70968   1.72186   1.72740   1.74660   1.75503
 Alpha virt. eigenvalues --    1.75728   1.76253   1.76463   1.77232   1.77677
 Alpha virt. eigenvalues --    1.78732   1.79501   1.80517   1.80825   1.81771
 Alpha virt. eigenvalues --    1.81927   1.82334   1.83011   1.83520   1.83798
 Alpha virt. eigenvalues --    1.84277   1.85425   1.85692   1.85981   1.86429
 Alpha virt. eigenvalues --    1.86731   1.87812   1.87897   1.88912   1.89389
 Alpha virt. eigenvalues --    1.90139   1.90615   1.90764   1.90875   1.91309
 Alpha virt. eigenvalues --    1.91863   1.92446   1.92868   1.92934   1.93663
 Alpha virt. eigenvalues --    1.93770   1.94226   1.95083   1.95304   1.96124
 Alpha virt. eigenvalues --    1.96516   1.96722   1.96830   1.97228   1.97380
 Alpha virt. eigenvalues --    1.97730   1.98215   1.98694   1.99561   1.99934
 Alpha virt. eigenvalues --    2.00209   2.00509   2.00667   2.00964   2.01876
 Alpha virt. eigenvalues --    2.02284   2.02893   2.03486   2.04974   2.05201
 Alpha virt. eigenvalues --    2.05390   2.05641   2.06021   2.06253   2.06929
 Alpha virt. eigenvalues --    2.07367   2.07718   2.08270   2.08380   2.09124
 Alpha virt. eigenvalues --    2.09485   2.09987   2.10394   2.11201   2.11255
 Alpha virt. eigenvalues --    2.11422   2.11862   2.12684   2.12916   2.13352
 Alpha virt. eigenvalues --    2.13642   2.14725   2.14929   2.15410   2.15748
 Alpha virt. eigenvalues --    2.15880   2.16313   2.16523   2.16772   2.17074
 Alpha virt. eigenvalues --    2.17251   2.17638   2.17937   2.18820   2.18850
 Alpha virt. eigenvalues --    2.19417   2.19978   2.20390   2.20757   2.21236
 Alpha virt. eigenvalues --    2.22157   2.22499   2.22560   2.22781   2.23324
 Alpha virt. eigenvalues --    2.23747   2.23832   2.24184   2.25070   2.25453
 Alpha virt. eigenvalues --    2.25562   2.27077   2.27306   2.28006   2.28908
 Alpha virt. eigenvalues --    2.29131   2.29642   2.30435   2.30656   2.31111
 Alpha virt. eigenvalues --    2.31368   2.32195   2.32341   2.32730   2.32822
 Alpha virt. eigenvalues --    2.33410   2.33816   2.33870   2.34236   2.34930
 Alpha virt. eigenvalues --    2.35541   2.36013   2.36229   2.36526   2.37104
 Alpha virt. eigenvalues --    2.37506   2.37667   2.38307   2.38943   2.39042
 Alpha virt. eigenvalues --    2.40763   2.40935   2.41040   2.41574   2.42251
 Alpha virt. eigenvalues --    2.42793   2.42998   2.43576   2.43818   2.44683
 Alpha virt. eigenvalues --    2.44901   2.45030   2.45498   2.45839   2.47261
 Alpha virt. eigenvalues --    2.47463   2.47568   2.48148   2.48580   2.48907
 Alpha virt. eigenvalues --    2.48990   2.49781   2.50142   2.50372   2.50576
 Alpha virt. eigenvalues --    2.51266   2.51751   2.51903   2.52532   2.52803
 Alpha virt. eigenvalues --    2.54372   2.54910   2.55292   2.55636   2.56836
 Alpha virt. eigenvalues --    2.57644   2.58415   2.58961   2.59918   2.60352
 Alpha virt. eigenvalues --    2.60545   2.61399   2.61913   2.62562   2.62738
 Alpha virt. eigenvalues --    2.62912   2.63489   2.63892   2.64749   2.65069
 Alpha virt. eigenvalues --    2.65371   2.65858   2.66310   2.66967   2.67113
 Alpha virt. eigenvalues --    2.67748   2.68571   2.69552   2.70103   2.70733
 Alpha virt. eigenvalues --    2.70914   2.71586   2.71811   2.71919   2.73021
 Alpha virt. eigenvalues --    2.73075   2.73942   2.74290   2.74887   2.75198
 Alpha virt. eigenvalues --    2.75874   2.76106   2.76904   2.77231   2.77620
 Alpha virt. eigenvalues --    2.77642   2.78032   2.78307   2.78727   2.79263
 Alpha virt. eigenvalues --    2.79699   2.80077   2.80813   2.81135   2.81394
 Alpha virt. eigenvalues --    2.81661   2.81897   2.82505   2.82920   2.83449
 Alpha virt. eigenvalues --    2.84169   2.84690   2.84987   2.85189   2.85962
 Alpha virt. eigenvalues --    2.86627   2.87147   2.87424   2.87599   2.88292
 Alpha virt. eigenvalues --    2.89398   2.89689   2.90079   2.90289   2.90619
 Alpha virt. eigenvalues --    2.91963   2.92498   2.93330   2.94095   2.94657
 Alpha virt. eigenvalues --    2.95502   2.95901   2.96310   2.96639   2.97414
 Alpha virt. eigenvalues --    2.97719   2.98744   2.99202   2.99253   3.00575
 Alpha virt. eigenvalues --    3.00935   3.01958   3.02460   3.02773   3.03424
 Alpha virt. eigenvalues --    3.03978   3.04091   3.04395   3.05631   3.05774
 Alpha virt. eigenvalues --    3.06078   3.06605   3.07132   3.07463   3.07903
 Alpha virt. eigenvalues --    3.09635   3.10825   3.11046   3.11288   3.12889
 Alpha virt. eigenvalues --    3.13477   3.13998   3.14579   3.14825   3.16543
 Alpha virt. eigenvalues --    3.17016   3.17168   3.19651   3.19923   3.21183
 Alpha virt. eigenvalues --    3.22616   3.23490   3.25276   3.26679   3.27393
 Alpha virt. eigenvalues --    3.27418   3.28001   3.29512   3.30755   3.32415
 Alpha virt. eigenvalues --    3.34480   3.36373   3.38406   3.39529   3.40799
 Alpha virt. eigenvalues --    3.41779   3.42018   3.42462   3.42988   3.43628
 Alpha virt. eigenvalues --    3.44263   3.45223   3.46725   3.48298   3.48672
 Alpha virt. eigenvalues --    3.51348   3.51486   3.53193   3.53502   3.54344
 Alpha virt. eigenvalues --    3.55720   3.56647   3.56975   3.57214   3.59352
 Alpha virt. eigenvalues --    3.59755   3.60287   3.60571   3.61051   3.61566
 Alpha virt. eigenvalues --    3.61717   3.63428   3.64360   3.64876   3.67939
 Alpha virt. eigenvalues --    3.68679   3.69688   3.72118   3.73789   3.77641
 Alpha virt. eigenvalues --    3.79518   3.81220   3.82605   3.83336   3.85151
 Alpha virt. eigenvalues --    3.88519   4.06875   4.09617   4.15109   4.18843
 Alpha virt. eigenvalues --    4.19252   4.20052   4.21761   4.23602   4.26810
 Alpha virt. eigenvalues --    4.27968   4.29018   4.29766   4.31073   4.35475
 Alpha virt. eigenvalues --    4.37143   4.40689   4.42893   4.43951   4.47101
 Alpha virt. eigenvalues --    4.48968   4.49439   4.49933   4.54601   4.54951
 Alpha virt. eigenvalues --    4.55874   4.56744   4.57811   4.58721   4.62076
 Alpha virt. eigenvalues --    4.63908   4.65604   4.69688   4.70325   4.72318
 Alpha virt. eigenvalues --    4.73725   4.76135   4.79872   4.80705   4.82295
 Alpha virt. eigenvalues --    4.84791   4.87536   4.90614   4.92951
          Condensed to atoms (all electrons):
 Mulliken charges:
               1
     1  O   -0.570921
     2  O   -0.545581
     3  C   -0.052358
     4  C   -0.034743
     5  C   -0.158373
     6  C   -0.185765
     7  C    0.136750
     8  C    0.152989
     9  C    0.094219
    10  C    0.074081
    11  C   -0.203017
    12  C   -0.224754
    13  C    0.034721
    14  C    0.052341
    15  C   -0.272196
    16  C   -0.298471
    17  C   -0.277882
    18  C   -0.296543
    19  C   -0.126480
    20  C   -0.117187
    21  C   -0.384520
    22  C   -0.361898
    23  C   -0.141011
    24  C   -0.122943
    25  C    0.131824
    26  C    0.130078
    27  C   -0.382065
    28  C   -0.386069
    29  C   -0.124412
    30  C   -0.123721
    31  C   -0.084565
    32  C   -0.047426
    33  C   -0.112995
    34  C   -0.135081
    35  C    0.110569
    36  C    0.122919
    37  C   -0.366190
    38  C   -0.386508
    39  C   -0.114492
    40  C   -0.134893
    41  C   -0.079140
    42  C   -0.085722
    43  H    0.108562
    44  H    0.071013
    45  H    0.045766
    46  H    0.113104
    47  H    0.099719
    48  H    0.096749
    49  H    0.135005
    50  H    0.104667
    51  H    0.125437
    52  H    0.111559
    53  H    0.092127
    54  H    0.088034
    55  H    0.101964
    56  H    0.090071
    57  H    0.100384
    58  H    0.108500
    59  H    0.112007
    60  H    0.110060
    61  H    0.068653
    62  H    0.117920
    63  H    0.068875
    64  H    0.097024
    65  H    0.055363
    66  H    0.076510
    67  H    0.136143
    68  H    0.119976
    69  H    0.103007
    70  H    0.110387
    71  H    0.127342
    72  H    0.094534
    73  H    0.293696
    74  H    0.294931
    75  H    0.075504
    76  H    0.081350
    77  H    0.115055
    78  H    0.126834
    79  H    0.112373
    80  H    0.123169
    81  H    0.093616
    82  H    0.111523
    83  H    0.077807
    84  H    0.064849
    85  H    0.075568
    86  H    0.077556
    87  H    0.074337
    88  H    0.099909
    89  H    0.119393
    90  H    0.116310
    91  H    0.121016
    92  H    0.126058
    93  H    0.107233
    94  H    0.124871
    95  H    0.081487
    96  H    0.059548
    97  H    0.077884
    98  H    0.075091
 Sum of Mulliken charges =  -0.00000
 Mulliken charges with hydrogens summed into heavy atoms:
               1
     1  O   -0.277225
     2  O   -0.250650
     3  C   -0.052358
     4  C   -0.034743
     5  C    0.021203
     6  C   -0.026895
     7  C    0.236469
     8  C    0.249738
     9  C    0.094219
    10  C    0.074081
    11  C    0.036656
    12  C    0.012242
    13  C    0.034721
    14  C    0.052341
    15  C    0.009928
    16  C    0.000484
    17  C    0.012839
    18  C   -0.012724
    19  C   -0.071117
    20  C   -0.040676
    21  C   -0.025394
    22  C   -0.029635
    23  C   -0.065507
    24  C   -0.041593
    25  C    0.131824
    26  C    0.130078
    27  C   -0.027804
    28  C   -0.057761
    29  C   -0.046605
    30  C   -0.058872
    31  C   -0.008997
    32  C    0.030130
    33  C   -0.038658
    34  C   -0.035172
    35  C    0.110569
    36  C    0.122919
    37  C   -0.009471
    38  C   -0.028346
    39  C   -0.033005
    40  C   -0.075345
    41  C   -0.001256
    42  C   -0.010631
 Electronic spatial extent (au):  <R**2>=         110901.5452
 Charge=             -0.0000 electrons
 Dipole moment (field-independent basis, Debye):
    X=             -0.5918    Y=             -1.5993    Z=              0.4716  Tot=              1.7693
 Quadrupole moment (field-independent basis, Debye-Ang):
   XX=           -287.7522   YY=           -239.7063   ZZ=           -262.9065
   XY=             16.3271   XZ=             -4.7794   YZ=             -0.3398
 Traceless Quadrupole moment (field-independent basis, Debye-Ang):
   XX=            -24.2972   YY=             23.7487   ZZ=              0.5485
   XY=             16.3271   XZ=             -4.7794   YZ=             -0.3398
 Octapole moment (field-independent basis, Debye-Ang**2):
  XXX=           -595.7479  YYY=            -25.2695  ZZZ=              7.6288  XYY=            166.8411
  XXY=           -332.4269  XXZ=            266.8029  XZZ=            -35.0639  YZZ=              1.0580
  YYZ=             -1.7233  XYZ=            -59.9083
 Hexadecapole moment (field-independent basis, Debye-Ang**3):
 XXXX=        -157727.1570 YYYY=          -4691.0023 ZZZZ=          -1548.1778 XXXY=           3433.8602
 XXXZ=           -958.4009 YYYX=           -298.0295 YYYZ=            -21.4871 ZZZX=           -296.2386
 ZZZY=             11.3742 XXYY=         -23809.0307 XXZZ=         -23861.2527 YYZZ=          -1080.1257
 XXYZ=           -538.7376 YYXZ=            170.7145 ZZXY=           -220.3033
 N-N= 3.987965850798D+03 E-N=-1.193215364553D+04  KE= 1.692158657414D+03
 1\1\GINC-RYZEN-SSD1\SP\RCAM-B3LYP TD-FC\6-31G(d,p)\C40H56O2\PADAWAN\11
 -Jul-2019\0\\# td=(NStates=1) CAM-B3LYP/6-31G(d,p)\\TD\\0,1\O,0,14.849
 340459,-2.162539187,-0.1076076838\O,0,-14.7564607101,1.8891642215,0.96
 49060216\C,0,11.2100433503,-1.5161541675,0.9737035314\C,0,-12.37295245
 92,-1.091100728,0.6352971737\C,0,12.6866022262,-1.8810874048,1.1201769
 097\C,0,-13.8168484038,-0.328650885,0.672230035\C,0,13.3829363326,-1.9
 025525774,-0.2994934943\C,0,-13.5411834113,1.1558242435,1.0039216432\C
 ,0,10.9812974567,-0.3112487519,0.031679875\C,0,-11.2455809221,-0.26265
 72726,-0.0443621122\C,0,13.294079899,-0.5107195571,-0.9064533993\C,0,-
 12.773269765,1.7522682339,-0.1422935824\C,0,11.8798938584,0.1369040733
 ,-0.8804406871\C,0,-11.5411147065,0.9952561547,-0.5206640624\C,0,10.78
 28593269,-1.2979652375,2.3845518392\C,0,10.4103616562,-2.6925070187,0.
 46640003\C,0,-11.7999017962,-1.3324729392,1.9617023012\C,0,-12.6394604
 41,-2.4591071326,-0.1345821962\C,0,9.7043956806,0.2873676898,0.1671306
 731\C,0,-10.0891444864,-0.9991226542,-0.3644577308\C,0,11.6503809181,1
 .1702021941,-1.8260645965\C,0,-10.6306513531,1.7414436215,-1.367233613
 4\C,0,9.2689708021,1.6035665997,0.0884154815\C,0,-8.7666280598,-0.4717
 191208,-0.3757626783\C,0,7.9704561506,2.1907550585,0.1431350885\C,0,-7
 .5432523592,-1.1128696149,-0.6649826673\C,0,8.0130130853,3.7193907941,
 0.2342876128\C,0,-7.6495732543,-2.6208316601,-1.0503237174\C,0,6.88587
 85589,1.4842073617,0.1098885039\C,0,-6.3467773747,-0.4704153034,-0.483
 8973147\C,0,5.6072714411,2.0932335614,0.2241793869\C,0,-5.0337219182,-
 0.9655736303,-0.6016170397\C,0,4.4866474507,1.3175479488,0.1345313681\
 C,0,-3.9540567027,-0.174379662,-0.5311259276\C,0,3.0577132623,1.674101
 8012,0.0989540114\C,0,-2.5970151575,-0.696549734,-0.5480431593\C,0,2.7
 523368007,3.2409917912,0.3685745155\C,0,-2.2925580238,-2.167960288,-0.
 8308443104\C,0,2.1357026593,0.7997820422,-0.0862993099\C,0,-1.59306126
 61,0.2140992989,-0.262510202\C,0,0.7386106901,1.0817709911,-0.11712038
 4\C,0,-0.2342232923,0.079920392,-0.2260835784\H,0,13.2477433543,-1.136
 5970698,1.639839673\H,0,12.66931043,-2.7185150656,1.4825259366\H,0,-14
 .6069936724,-0.8695243943,1.5010210231\H,0,-14.2735708521,-0.549582830
 2,-0.2545273087\H,0,12.992200227,-2.7064199491,-0.8285834163\H,0,-12.9
 411445465,1.347338716,1.8371414481\H,0,13.9002746145,0.2994025182,-0.6
 784430253\H,0,13.3976253195,-0.7153068878,-1.9901217432\H,0,-13.502165
 4255,1.9642814882,-0.9115138944\H,0,-12.4469806711,2.744359456,0.16782
 78188\H,0,10.9790905981,-2.2646748965,2.8838730833\H,0,9.6294412711,-0
 .9601758166,2.4816549205\H,0,11.5205157936,-0.6216410312,2.7998133673\
 H,0,10.6467909421,-2.8342782018,-0.633410024\H,0,10.522821285,-3.66924
 55676,0.9501444544\H,0,9.4059679138,-2.3564069487,0.4755242734\H,0,-11
 .6341050965,-0.5989023841,2.5904293399\H,0,-10.8900518442,-1.898662410
 1,1.8861123952\H,0,-12.5505759506,-1.9468121011,2.5722178018\H,0,-13.3
 039308421,-3.027521448,0.2580639374\H,0,-11.6326084958,-3.1804346324,-
 0.3080279048\H,0,-13.1078486439,-2.1828274746,-1.1263853805\H,0,8.7877
 806811,-0.4812525363,0.3704541664\H,0,-10.1191266777,-1.9094280067,-0.
 7490187039\H,0,10.6503963316,1.2673014001,-1.9568077398\H,0,11.9939352
 225,2.1729682397,-1.6547610841\H,0,12.0741390839,0.9636872236,-2.80880
 35694\H,0,-11.0185562566,2.1247080349,-2.2750082218\H,0,-9.9640823862,
 1.0778218013,-1.639219889\H,0,-9.9013543194,2.4764502991,-0.8369568517
 \H,0,14.9247216002,-2.9202673538,0.4032086009\H,0,-15.249759669,1.4684
 641465,1.6264537414\H,0,10.1289588149,2.2954864566,0.0549223172\H,0,-8
 .5108758236,0.5177063717,0.1207114451\H,0,9.026410328,4.2244058226,0.3
 469805391\H,0,7.3928956766,4.1996548265,-0.5616025063\H,0,7.405619822,
 3.8783789059,1.235500388\H,0,-8.0326460586,-3.4153961975,-0.350980387\
 H,0,-8.6323276038,-2.7195719601,-1.7642083098\H,0,-6.7512308951,-3.073
 8019201,-1.5170771417\H,0,7.040039859,0.2763508501,-0.1495528303\H,0,-
 6.3156485409,0.5223597311,-0.3225873837\H,0,5.6796056656,3.1115068227,
 0.1798244914\H,0,-5.1340338744,-2.0489725753,-0.8306392139\H,0,4.84020
 72137,0.3349182378,0.0946573977\H,0,-4.1027116752,0.90237961,-0.212599
 979\H,0,3.443379966,3.6145833483,1.2381570567\H,0,1.720610322,3.424223
 4043,0.2836529673\H,0,3.1022656066,3.834620087,-0.4766607241\H,0,-2.75
 83569507,-2.9589681888,-0.2310107661\H,0,-2.7500937224,-2.333320394,-1
 .913540096\H,0,-1.3223326183,-2.6590434543,-1.0233908821\H,0,2.4056319
 262,-0.3958428653,-0.0722434363\H,0,-1.9441390369,1.3685651005,-0.4855
 624632\H,0,0.3351538144,1.9819336204,0.0473967497\H,0,0.0460463896,-0.
 9563858026,-0.5238740614\\Version=ES64L-G16RevA.03\State=1-A\HF=-1706.
 9564336\RMSD=8.973e-09\PG=C01 [X(C40H56O2)]\\@


 CHINESE FORTUNE COOKIE OF JAN 1 1967 SAY....
 ALL THINGS ARE DIFFICULT BEFORE THEY ARE EASY.
 WE LEARN SO LITTLE AND FORGET SO MUCH.
 YOU WILL OVERCOME OBSTACLES TO ACHIEVE SUCCESS.
 AH SO.
 Job cpu time:       0 days  9 hours 44 minutes 13.3 seconds.
 Elapsed time:       0 days  2 hours 27 minutes  2.8 seconds.
 File lengths (MBytes):  RWF=   3127 Int=      0 D2E=      0 Chk=     84 Scr=      1
 Normal termination of Gaussian 16 at Thu Jul 11 00:22:14 2019.
