 Entering Gaussian System, Link 0=g16
 Input=Geometria-360-.com
 Output=Geometria-360-.log
 Initial command:
 /usr/local/g16/l1.exe "/home/padawan/israel-mol/zeaxanthin/spectra/emi/Gau-16910.inp" -scrdir="/home/padawan/israel-mol/zeaxanthin/spectra/emi/"
 Entering Link 1 = /usr/local/g16/l1.exe PID=     16912.
  
 Copyright (c) 1988,1990,1992,1993,1995,1998,2003,2009,2016,
            Gaussian, Inc.  All Rights Reserved.
  
 This is part of the Gaussian(R) 16 program.  It is based on
 the Gaussian(R) 09 system (copyright 2009, Gaussian, Inc.),
 the Gaussian(R) 03 system (copyright 2003, Gaussian, Inc.),
 the Gaussian(R) 98 system (copyright 1998, Gaussian, Inc.),
 the Gaussian(R) 94 system (copyright 1995, Gaussian, Inc.),
 the Gaussian 92(TM) system (copyright 1992, Gaussian, Inc.),
 the Gaussian 90(TM) system (copyright 1990, Gaussian, Inc.),
 the Gaussian 88(TM) system (copyright 1988, Gaussian, Inc.),
 the Gaussian 86(TM) system (copyright 1986, Carnegie Mellon
 University), and the Gaussian 82(TM) system (copyright 1983,
 Carnegie Mellon University). Gaussian is a federally registered
 trademark of Gaussian, Inc.
  
 This software contains proprietary and confidential information,
 including trade secrets, belonging to Gaussian, Inc.
  
 This software is provided under written license and may be
 used, copied, transmitted, or stored only in accord with that
 written license.
  
 The following legend is applicable only to US Government
 contracts under FAR:
  
                    RESTRICTED RIGHTS LEGEND
  
 Use, reproduction and disclosure by the US Government is
 subject to restrictions as set forth in subparagraphs (a)
 and (c) of the Commercial Computer Software - Restricted
 Rights clause in FAR 52.227-19.
  
 Gaussian, Inc.
 340 Quinnipiac St., Bldg. 40, Wallingford CT 06492
  
  
 ---------------------------------------------------------------
 Warning -- This program may not be used in any manner that
 competes with the business of Gaussian, Inc. or will provide
 assistance to any competitor of Gaussian, Inc.  The licensee
 of this program is prohibited from giving any competitor of
 Gaussian, Inc. access to this program.  By using this program,
 the user acknowledges that Gaussian, Inc. is engaged in the
 business of creating and licensing software in the field of
 computational chemistry and represents and warrants to the
 licensee that it is not a competitor of Gaussian, Inc. and that
 it will not use this program in any manner prohibited above.
 ---------------------------------------------------------------
  

 Cite this work as:
 Gaussian 16, Revision A.03,
 M. J. Frisch, G. W. Trucks, H. B. Schlegel, G. E. Scuseria, 
 M. A. Robb, J. R. Cheeseman, G. Scalmani, V. Barone, 
 G. A. Petersson, H. Nakatsuji, X. Li, M. Caricato, A. V. Marenich, 
 J. Bloino, B. G. Janesko, R. Gomperts, B. Mennucci, H. P. Hratchian, 
 J. V. Ortiz, A. F. Izmaylov, J. L. Sonnenberg, D. Williams-Young, 
 F. Ding, F. Lipparini, F. Egidi, J. Goings, B. Peng, A. Petrone, 
 T. Henderson, D. Ranasinghe, V. G. Zakrzewski, J. Gao, N. Rega, 
 G. Zheng, W. Liang, M. Hada, M. Ehara, K. Toyota, R. Fukuda, 
 J. Hasegawa, M. Ishida, T. Nakajima, Y. Honda, O. Kitao, H. Nakai, 
 T. Vreven, K. Throssell, J. A. Montgomery, Jr., J. E. Peralta, 
 F. Ogliaro, M. J. Bearpark, J. J. Heyd, E. N. Brothers, K. N. Kudin, 
 V. N. Staroverov, T. A. Keith, R. Kobayashi, J. Normand, 
 K. Raghavachari, A. P. Rendell, J. C. Burant, S. S. Iyengar, 
 J. Tomasi, M. Cossi, J. M. Millam, M. Klene, C. Adamo, R. Cammi, 
 J. W. Ochterski, R. L. Martin, K. Morokuma, O. Farkas, 
 J. B. Foresman, and D. J. Fox, Gaussian, Inc., Wallingford CT, 2016.
 
 ******************************************
 Gaussian 16:  ES64L-G16RevA.03 25-Dec-2016
                17-Jul-2019 
 ******************************************
 %nproc=4
 Will use up to    4 processors via shared memory.
 %Mem=2GB
 -------------------------------------
 # td=(NStates=1) CAM-B3LYP/6-31G(d,p)
 -------------------------------------
 1/38=1,172=1/1;
 2/12=2,17=6,18=5,40=1/2;
 3/5=1,6=6,7=101,11=9,25=1,30=1,74=-40/1,2,3,8;
 4//1;
 5/5=2,38=5/2;
 8/6=1,10=2,108=1/1;
 9/41=1,42=1,70=2/14;
 6/7=2,8=2,9=2,10=2/1;
 99/5=1,9=1/99;
 --
 TD
 --
 Symbolic Z-matrix:
 Charge =  0 Multiplicity = 1
 8                     14.67768  -2.07043  -0.08696 
 8                    -14.74902   1.90819   0.83499 
 6                     11.02586  -1.59946   0.96845 
 6                    -12.33023  -0.96669   0.65094 
 6                     12.5487  -1.84787   1.02102 
 6                    -13.68923  -0.24918   0.61642 
 6                     13.30982  -1.7756   -0.283 
 6                    -13.50446   1.26793   0.94455 
 6                     10.87134  -0.34347   0.0054 
 6                    -11.20856  -0.23444  -0.07798 
 6                     13.20687  -0.43219  -0.84578 
 6                    -12.66113   1.88464  -0.16497 
 6                     11.80238   0.1423   -0.88615 
 6                    -11.38221   1.01374  -0.53014 
 6                     10.57181  -1.19466   2.35572 
 6                     10.29732  -2.72867   0.37088 
 6                    -11.92933  -1.33356   2.09854 
 6                    -12.63413  -2.24728  -0.18574 
 6                     9.65031   0.31344   0.1246 
 6                    -10.00101  -1.01401  -0.39015 
 6                     11.69164   1.2117   -1.82612 
 6                    -10.43932   1.96505  -1.21265 
 6                     9.28128   1.65644   0.16699 
 6                    -8.74228  -0.58487  -0.25645 
 6                     8.07669   2.36381   0.23212 
 6                    -7.48908  -1.3109   -0.50881 
 6                     7.9241    3.84073   0.38094 
 6                    -7.50662  -2.60549  -1.01026 
 6                     6.91132   1.60746   0.09781 
 6                    -6.37003  -0.67011  -0.21143 
 6                     5.57897   2.14842   0.04172 
 6                    -5.00479  -1.11808  -0.49634 
 6                     4.48676   1.40283  -0.11773 
 6                    -3.88793  -0.4167   -0.3243 
 6                     3.10878   1.71283  -0.05977 
 6                    -2.50473  -0.8865   -0.52934 
 6                     2.69651   3.11607   0.36714 
 6                    -2.26229  -2.31018  -1.05134 
 6                     2.09954   0.75193  -0.18244 
 6                    -1.59525  -0.00828  -0.33572 
 6                     0.79108   0.83642  -0.04789 
 6                    -0.18236  -0.15833  -0.38329 
 1                     13.11416  -1.30159   1.87615 
 1                     12.79057  -2.96402   1.53021 
 1                    -14.23373  -0.44829   1.49145 
 1                    -14.21106  -0.41857  -0.25252 
 1                     12.71678  -2.62492  -0.8237 
 1                    -12.86088   1.52987   1.72039 
 1                     13.84829   0.21264  -0.23383 
 1                     13.70181  -0.49216  -1.66933 
 1                    -13.23429   1.92273  -1.15222 
 1                    -12.32815   2.79129   0.55866 
 1                     10.92461  -1.93832   3.10479 
 1                     9.49862  -1.07184   2.35087 
 1                     10.91804  -0.38319   2.76467 
 1                     10.67943  -3.07344  -0.54407 
 1                     10.20492  -3.77607   0.97186 
 1                     9.20342  -2.48083   0.28647 
 1                    -11.66344  -0.42041   2.7277 
 1                    -10.96383  -1.87454   2.12591 
 1                    -12.61586  -1.865     2.45967 
 1                    -13.58648  -2.86679  -0.06384 
 1                    -11.77681  -2.97427  -0.0405 
 1                    -12.54539  -2.19896  -1.38874 
 1                     8.75508  -0.19454   0.20859 
 1                    -10.16293  -2.07976  -0.73722 
 1                     10.64781   1.62894  -1.84073 
 1                     12.21343   1.97683  -1.24641 
 1                     12.19309   1.00033  -2.83628 
 1                    -10.95334   2.63922  -2.03603 
 1                    -9.61695   1.30119  -1.80641 
 1                    -9.70649   2.67222  -0.60611 
 1                     14.75578  -2.90225   0.44932 
 1                    -15.47777   1.81229   1.51767 
 1                     10.26223   2.16078   0.18144 
 1                    -8.37658   0.44519   0.12798 
 1                     8.91229   4.27493   0.63694 
 1                     7.43886   4.29113  -0.42261 
 1                     7.31794   4.10484   1.37807 
 1                    -7.96666  -3.49847  -0.39604 
 1                    -8.23489  -2.59175  -1.94609 
 1                    -6.74898  -3.01571  -1.58959 
 1                     7.19671   0.66205  -0.01624 
 1                    -6.37545   0.49025  -0.13503 
 1                     5.43234   3.28845   0.24779 
 1                    -4.85005  -2.21288  -1.07999 
 1                     4.93836   0.24683  -0.35533 
 1                    -4.15696   0.66441   0.0523 
 1                     3.14967   3.35005   1.30446 
 1                     1.62735   3.13388   0.42423 
 1                     3.0623    3.92942  -0.3603 
 1                    -2.67358  -3.01898  -0.39623 
 1                    -2.74997  -2.52413  -2.02815 
 1                    -1.21457  -2.6806   -1.33238 
 1                     2.53308  -0.14066  -0.49434 
 1                    -2.01776   0.92545   0.26986 
 1                     0.22512   1.7689    0.07917 
 1                     0.40255  -1.07182  -0.87117 
 
 Stoichiometry    C40H56O2
 Framework group  C1[X(C40H56O2)]
 Deg. of freedom   288
 Full point group                 C1      NOp   1
 Largest Abelian subgroup         C1      NOp   1
 Largest concise Abelian subgroup C1      NOp   1
                         Standard orientation:                         
 ---------------------------------------------------------------------
 Center     Atomic      Atomic             Coordinates (Angstroms)
 Number     Number       Type             X           Y           Z
 ---------------------------------------------------------------------
      1          8           0       14.676903   -2.066270   -0.085088
      2          8           0      -14.751351    1.900818    0.837013
      3          6           0       11.024383   -1.600589    0.970238
      4          6           0      -12.331699   -0.972643    0.642507
      5          6           0       12.547254   -1.848814    1.022619
      6          6           0      -13.690867   -0.255359    0.610188
      7          6           0       13.309069   -1.770997   -0.280675
      8          6           0      -13.506682    1.260440    0.944624
      9          6           0       10.870050   -0.340703    0.012253
     10          6           0      -11.209823   -0.237125   -0.082785
     11          6           0       13.206074   -0.425321   -0.837997
     12          6           0      -12.662907    1.881919   -0.161888
     13          6           0       11.801449    0.148967   -0.876787
     14          6           0      -11.383557    1.012855   -0.529921
     15          6           0       10.569460   -1.201598    2.358902
     16          6           0       10.296465   -2.727530    0.367644
     17          6           0      -11.931501   -1.345342    2.088808
     18          6           0      -12.634804   -2.249871   -0.199576
     19          6           0        9.648785    0.315395    0.133473
     20          6           0      -10.001894   -1.015092   -0.397489
     21          6           0       11.690940    1.222173   -1.812431
     22          6           0      -10.440548    1.967199   -1.208013
     23          6           0        9.279379    1.658115    0.181170
     24          6           0       -8.743351   -0.586170   -0.261342
     25          6           0        8.074561    2.364897    0.248538
     26          6           0       -7.489823   -1.310830   -0.515984
     27          6           0        7.921506    3.841155    0.403324
     28          6           0       -7.506748   -2.603359   -1.022746
     29          6           0        6.909469    1.608795    0.110484
     30          6           0       -6.371108   -0.670966   -0.215369
     31          6           0        5.577004    2.149631    0.055884
     32          6           0       -5.005593   -1.117410   -0.501360
     33          6           0        4.485078    1.404411   -0.107224
     34          6           0       -3.889014   -0.416453   -0.325834
     35          6           0        3.106985    1.713809   -0.048748
     36          6           0       -2.505573   -0.885041   -0.532044
     37          6           0        2.694113    3.115183    0.383689
     38          6           0       -2.262480   -2.306512   -1.059736
     39          6           0        2.098067    0.753157   -0.175905
     40          6           0       -1.596437   -0.007388   -0.334324
     41          6           0        0.789509    0.836751   -0.041732
     42          6           0       -0.183479   -0.156872   -0.381736
     43          1           0       13.112102   -1.305894    1.880297
     44          1           0       12.789144   -2.966974    1.527368
     45          1           0      -14.235794   -0.458195    1.484091
     46          1           0      -14.212185   -0.421320   -0.259727
     47          1           0       12.716553   -2.618252   -0.825177
     48          1           0      -12.863593    1.519369    1.721888
     49          1           0       13.846986    0.217169   -0.223059
     50          1           0       13.701475   -0.481789   -1.661516
     51          1           0      -13.235536    1.923900   -1.149290
     52          1           0      -12.330563    2.785686    0.565626
     53          1           0       10.922044   -1.948227    3.105108
     54          1           0        9.496240   -1.079033    2.353970
     55          1           0       10.915249   -0.391713    2.771365
     56          1           0       10.679171   -3.068449   -0.548503
     57          1           0       10.204012   -3.777403    0.964273
     58          1           0        9.202543   -2.479631    0.283645
     59          1           0      -11.666190   -0.434710    2.721858
     60          1           0      -10.965868   -1.886173    2.114492
     61          1           0      -12.618086   -1.878438    2.447382
     62          1           0      -13.587056   -2.870125   -0.080739
     63          1           0      -11.777374   -2.977234   -0.056850
     64          1           0      -12.545420   -2.196602   -1.402323
     65          1           0        8.753641   -0.193164    0.214891
     66          1           0      -10.163348   -2.079444   -0.749009
     67          1           0       10.647009    1.639197   -1.825895
     68          1           0       12.212212    1.985060   -1.229300
     69          1           0       12.193005    1.015080   -2.823165
     70          1           0      -10.954293    2.644606   -2.028912
     71          1           0       -9.617673    1.306001   -1.804036
     72          1           0       -9.708240    2.672073   -0.598184
     73          1           0       14.754931   -2.900255    0.447821
     74          1           0      -15.480452    1.801933    1.518895
     75          1           0       10.260187    2.162650    0.198227
     76          1           0       -8.378141    0.442402    0.127509
     77          1           0        8.909436    4.274559    0.661640
     78          1           0        7.436583    4.294718   -0.398641
     79          1           0        7.314727    4.101016    1.401197
     80          1           0       -7.966888   -3.498974   -0.412448
     81          1           0       -8.234508   -2.585974   -1.958908
     82          1           0       -6.748684   -3.010999   -1.603341
     83          1           0        7.195166    0.663935   -0.007279
     84          1           0       -6.376881    0.489061   -0.134217
     85          1           0        5.429962    3.288773    0.266544
     86          1           0       -4.850240   -2.209769   -1.089414
     87          1           0        4.937113    0.249516   -0.349305
     88          1           0       -4.158533    0.663033    0.055037
     89          1           0        3.146698    3.345437    1.322207
     90          1           0        1.624917    3.132484    0.440257
     91          1           0        3.060087    3.931603   -0.340215
     92          1           0       -2.673935   -3.018099   -0.407762
     93          1           0       -2.749568   -2.516581   -2.037687
     94          1           0       -1.214505   -2.675494   -1.341722
     95          1           0        2.532020   -0.138029   -0.491219
     96          1           0       -2.019521    0.923746    0.274845
     97          1           0        0.223239    1.768560    0.088840
     98          1           0        0.401940   -1.068195   -0.873033
 ---------------------------------------------------------------------
 Rotational constants (GHZ):           0.2448594           0.0094212           0.0092075
 Standard basis: 6-31G(d,p) (6D, 7F)
 There are   910 symmetry adapted cartesian basis functions of A   symmetry.
 There are   910 symmetry adapted basis functions of A   symmetry.
   910 basis functions,  1568 primitive gaussians,   910 cartesian basis functions
   156 alpha electrons      156 beta electrons
       nuclear repulsion energy      3991.0616539248 Hartrees.
 NAtoms=   98 NActive=   98 NUniq=   98 SFac= 1.00D+00 NAtFMM=   60 NAOKFM=T Big=T
 Integral buffers will be    131072 words long.
 Raffenetti 1 integral format.
 Two-electron integral symmetry is turned on.
 One-electron integrals computed using PRISM.
 NBasis=   910 RedAO= T EigKep=  7.43D-04  NBF=   910
 NBsUse=   910 1.00D-06 EigRej= -1.00D+00 NBFU=   910
 ExpMin= 1.61D-01 ExpMax= 5.48D+03 ExpMxC= 8.25D+02 IAcc=3 IRadAn=         5 AccDes= 0.00D+00
 Harris functional with IExCor=20419 and IRadAn=       5 diagonalized for initial guess.
 HarFok:  IExCor=20419 AccDes= 0.00D+00 IRadAn=         5 IDoV= 1 UseB2=F ITyADJ=14
 ICtDFT=  3500011 ScaDFX=  1.000000  1.000000  1.000000  1.000000
 FoFCou: FMM=F IPFlag=           0 FMFlag=      100000 FMFlg1=        2001
         NFxFlg=           0 DoJE=T BraDBF=F KetDBF=T FulRan=T
         wScrn=  0.000000 ICntrl=       500 IOpCl=  0 I1Cent=   200000004 NGrid=           0
         NMat0=    1 NMatS0=      1 NMatT0=    0 NMatD0=    1 NMtDS0=    0 NMtDT0=    0
 Petite list used in FoFCou.
 Requested convergence on RMS density matrix=1.00D-08 within 128 cycles.
 Requested convergence on MAX density matrix=1.00D-06.
 Requested convergence on             energy=1.00D-06.
 No special actions if energy rises.
 Integral accuracy reduced to 1.0D-05 until final iterations.
 Initial convergence to 1.0D-05 achieved.  Increase integral accuracy.
 SCF Done:  E(RCAM-B3LYP) =  -1706.92613106     A.U. after   15 cycles
            NFock= 15  Conv=0.47D-08     -V/T= 2.0094
 DoSCS=F DFT=T ScalE2(SS,OS)=  1.000000  1.000000
 ExpMin= 1.61D-01 ExpMax= 5.48D+03 ExpMxC= 8.25D+02 IAcc=3 IRadAn=         5 AccDes= 0.00D+00
 HarFok:  IExCor=  205 AccDes= 0.00D+00 IRadAn=         5 IDoV=-2 UseB2=F ITyADJ=14
 ICtDFT= 12500011 ScaDFX=  1.000000  1.000000  1.000000  1.000000
 GSVD:  LWork=       -2100 too small for GESVD, short by        9450 words or        9450 for optimal perf.
 Range of M.O.s used for correlation:    43   910
 NBasis=   910 NAE=   156 NBE=   156 NFC=    42 NFV=     0
 NROrb=    868 NOA=   114 NOB=   114 NVA=   754 NVB=   754
 Orbital symmetries:
       Occupied  (A) (A) (A) (A) (A) (A) (A) (A) (A) (A) (A) (A)
                 (A) (A) (A) (A) (A) (A) (A) (A) (A) (A) (A) (A)
                 (A) (A) (A) (A) (A) (A) (A) (A) (A) (A) (A) (A)
                 (A) (A) (A) (A) (A) (A) (A) (A) (A) (A) (A) (A)
                 (A) (A) (A) (A) (A) (A) (A) (A) (A) (A) (A) (A)
                 (A) (A) (A) (A) (A) (A) (A) (A) (A) (A) (A) (A)
                 (A) (A) (A) (A) (A) (A) (A) (A) (A) (A) (A) (A)
                 (A) (A) (A) (A) (A) (A) (A) (A) (A) (A) (A) (A)
                 (A) (A) (A) (A) (A) (A) (A) (A) (A) (A) (A) (A)
                 (A) (A) (A) (A) (A) (A) (A) (A) (A) (A) (A) (A)
                 (A) (A) (A) (A) (A) (A) (A) (A) (A) (A) (A) (A)
                 (A) (A) (A) (A) (A) (A) (A) (A) (A) (A) (A) (A)
                 (A) (A) (A) (A) (A) (A) (A) (A) (A) (A) (A) (A)
       Virtual   (A) (A) (A) (A) (A) (A) (A) (A) (A) (A) (A) (A)
                 (A) (A) (A) (A) (A) (A) (A) (A) (A) (A) (A) (A)
                 (A) (A) (A) (A) (A) (A) (A) (A) (A) (A) (A) (A)
                 (A) (A) (A) (A) (A) (A) (A) (A) (A) (A) (A) (A)
                 (A) (A) (A) (A) (A) (A) (A) (A) (A) (A) (A) (A)
                 (A) (A) (A) (A) (A) (A) (A) (A) (A) (A) (A) (A)
                 (A) (A) (A) (A) (A) (A) (A) (A) (A) (A) (A) (A)
                 (A) (A) (A) (A) (A) (A) (A) (A) (A) (A) (A) (A)
                 (A) (A) (A) (A) (A) (A) (A) (A) (A) (A) (A) (A)
                 (A) (A) (A) (A) (A) (A) (A) (A) (A) (A) (A) (A)
                 (A) (A) (A) (A) (A) (A) (A) (A) (A) (A) (A) (A)
                 (A) (A) (A) (A) (A) (A) (A) (A) (A) (A) (A) (A)
                 (A) (A) (A) (A) (A) (A) (A) (A) (A) (A) (A) (A)
                 (A) (A) (A) (A) (A) (A) (A) (A) (A) (A) (A) (A)
                 (A) (A) (A) (A) (A) (A) (A) (A) (A) (A) (A) (A)
                 (A) (A) (A) (A) (A) (A) (A) (A) (A) (A) (A) (A)
                 (A) (A) (A) (A) (A) (A) (A) (A) (A) (A) (A) (A)
                 (A) (A) (A) (A) (A) (A) (A) (A) (A) (A) (A) (A)
                 (A) (A) (A) (A) (A) (A) (A) (A) (A) (A) (A) (A)
                 (A) (A) (A) (A) (A) (A) (A) (A) (A) (A) (A) (A)
                 (A) (A) (A) (A) (A) (A) (A) (A) (A) (A) (A) (A)
                 (A) (A) (A) (A) (A) (A) (A) (A) (A) (A) (A) (A)
                 (A) (A) (A) (A) (A) (A) (A) (A) (A) (A) (A) (A)
                 (A) (A) (A) (A) (A) (A) (A) (A) (A) (A) (A) (A)
                 (A) (A) (A) (A) (A) (A) (A) (A) (A) (A) (A) (A)
                 (A) (A) (A) (A) (A) (A) (A) (A) (A) (A) (A) (A)
                 (A) (A) (A) (A) (A) (A) (A) (A) (A) (A) (A) (A)
                 (A) (A) (A) (A) (A) (A) (A) (A) (A) (A) (A) (A)
                 (A) (A) (A) (A) (A) (A) (A) (A) (A) (A) (A) (A)
                 (A) (A) (A) (A) (A) (A) (A) (A) (A) (A) (A) (A)
                 (A) (A) (A) (A) (A) (A) (A) (A) (A) (A) (A) (A)
                 (A) (A) (A) (A) (A) (A) (A) (A) (A) (A) (A) (A)
                 (A) (A) (A) (A) (A) (A) (A) (A) (A) (A) (A) (A)
                 (A) (A) (A) (A) (A) (A) (A) (A) (A) (A) (A) (A)
                 (A) (A) (A) (A) (A) (A) (A) (A) (A) (A) (A) (A)
                 (A) (A) (A) (A) (A) (A) (A) (A) (A) (A) (A) (A)
                 (A) (A) (A) (A) (A) (A) (A) (A) (A) (A) (A) (A)
                 (A) (A) (A) (A) (A) (A) (A) (A) (A) (A) (A) (A)
                 (A) (A) (A) (A) (A) (A) (A) (A) (A) (A) (A) (A)
                 (A) (A) (A) (A) (A) (A) (A) (A) (A) (A) (A) (A)
                 (A) (A) (A) (A) (A) (A) (A) (A) (A) (A) (A) (A)
                 (A) (A) (A) (A) (A) (A) (A) (A) (A) (A) (A) (A)
                 (A) (A) (A) (A) (A) (A) (A) (A) (A) (A) (A) (A)
                 (A) (A) (A) (A) (A) (A) (A) (A) (A) (A) (A) (A)
                 (A) (A) (A) (A) (A) (A) (A) (A) (A) (A) (A) (A)
                 (A) (A) (A) (A) (A) (A) (A) (A) (A) (A) (A) (A)
                 (A) (A) (A) (A) (A) (A) (A) (A) (A) (A) (A) (A)
                 (A) (A) (A) (A) (A) (A) (A) (A) (A) (A) (A) (A)
                 (A) (A) (A) (A) (A) (A) (A) (A) (A) (A) (A) (A)
                 (A) (A) (A) (A) (A) (A) (A) (A) (A) (A) (A) (A)
                 (A) (A) (A) (A) (A) (A) (A) (A) (A) (A) (A) (A)
                 (A) (A) (A) (A) (A) (A) (A) (A) (A) (A) (A) (A)
                 (A) (A) (A) (A) (A) (A) (A) (A) (A) (A) (A) (A)
                 (A) (A) (A) (A) (A) (A) (A) (A) (A) (A) (A) (A)
                 (A) (A) (A) (A) (A) (A) (A) (A) (A) (A) (A) (A)
                 (A) (A) (A) (A) (A) (A) (A) (A) (A) (A) (A) (A)
                 (A) (A) (A) (A) (A) (A) (A) (A) (A) (A) (A) (A)
                 (A) (A) (A) (A) (A) (A) (A) (A) (A) (A) (A) (A)
                 (A) (A) (A) (A) (A) (A) (A) (A) (A) (A) (A) (A)
                 (A) (A) (A) (A) (A) (A) (A) (A) (A) (A) (A) (A)
                 (A) (A) (A) (A) (A) (A) (A) (A) (A) (A) (A) (A)
                 (A) (A) (A) (A) (A) (A) (A) (A) (A) (A) (A) (A)
                 (A) (A) (A) (A) (A) (A) (A) (A) (A) (A)
     4 initial guesses have been made.
 Convergence on wavefunction:    0.001000000000000
 Iteration     1 Dimension     4 NMult     0 NNew      4
 CISAX will form     4 AO SS matrices at one time.
 Iteration     2 Dimension     6 NMult     4 NNew      2
 Iteration     3 Dimension     8 NMult     6 NNew      2
 Iteration     4 Dimension    10 NMult     8 NNew      2
 Iteration     5 Dimension    12 NMult    10 NNew      2
 Iteration     6 Dimension    14 NMult    12 NNew      2
 ***********************************************************************
 Excited states from <AA,BB:AA,BB> singles matrix:
 ***********************************************************************
 
 Ground to excited state transition densities written to RWF  633
 Ground to excited state transition electric dipole moments (Au):
       state          X           Y           Z        Dip. S.      Osc.
         1        -7.5319     -0.9948     -0.2912     57.8035      3.2931
 Ground to excited state transition velocity dipole moments (Au):
       state          X           Y           Z        Dip. S.      Osc.
         1         0.6240      0.0799      0.0251      0.3964      3.0924
 Ground to excited state transition magnetic dipole moments (Au):
       state          X           Y           Z
         1         0.1859     -0.1387     -1.4765
 Ground to excited state transition velocity quadrupole moments (Au):
       state          XX          YY          ZZ          XY          XZ          YZ
         1         4.6877      0.2631      0.0479      0.0447     -0.2231     -0.0886
 <0|del|b> * <b|rxdel|0> + <0|del|b> * <b|delr+rdel|0>
 Rotatory Strengths (R) in cgs (10**-40 erg-esu-cm/Gauss)
       state          XX          YY          ZZ    R(velocity)    E-M Angle
         1      -120.5129     93.3953    589.1542    187.3455       85.86
 1/2[<0|r|b>*<b|rxdel|0> + (<0|rxdel|b>*<b|r|0>)*]
 Rotatory Strengths (R) in cgs (10**-40 erg-esu-cm/Gauss)
       state          XX          YY          ZZ     R(length)
         1       990.0401    -97.5787   -304.0104    196.1503
  1/2[<0|del|b>*<b|r|0> + (<0|r|b>*<b|del|0>)*] (Au)
       state          X           Y           Z        Dip. S.   Osc.(frdel)
         1        -4.7000     -0.0795     -0.0073      4.7868      3.1912

 Excitation energies and oscillator strengths:
 
 Excited State   1:      Singlet-A      2.3254 eV  533.17 nm  f=3.2931  <S**2>=0.000
     155 ->158        -0.15079
     156 ->157         0.68818
 This state for optimization and/or second-order correction.
 Total Energy, E(TD-HF/TD-DFT) =  -1706.84067435    
 Copying the excited state density for this state as the 1-particle RhoCI density.
 SavETr:  write IOETrn=   770 NScale= 10 NData=  16 NLR=1 NState=    1 LETran=      28.

 **********************************************************************

            Population analysis using the SCF density.

 **********************************************************************

 Orbital symmetries:
       Occupied  (A) (A) (A) (A) (A) (A) (A) (A) (A) (A) (A) (A)
                 (A) (A) (A) (A) (A) (A) (A) (A) (A) (A) (A) (A)
                 (A) (A) (A) (A) (A) (A) (A) (A) (A) (A) (A) (A)
                 (A) (A) (A) (A) (A) (A) (A) (A) (A) (A) (A) (A)
                 (A) (A) (A) (A) (A) (A) (A) (A) (A) (A) (A) (A)
                 (A) (A) (A) (A) (A) (A) (A) (A) (A) (A) (A) (A)
                 (A) (A) (A) (A) (A) (A) (A) (A) (A) (A) (A) (A)
                 (A) (A) (A) (A) (A) (A) (A) (A) (A) (A) (A) (A)
                 (A) (A) (A) (A) (A) (A) (A) (A) (A) (A) (A) (A)
                 (A) (A) (A) (A) (A) (A) (A) (A) (A) (A) (A) (A)
                 (A) (A) (A) (A) (A) (A) (A) (A) (A) (A) (A) (A)
                 (A) (A) (A) (A) (A) (A) (A) (A) (A) (A) (A) (A)
                 (A) (A) (A) (A) (A) (A) (A) (A) (A) (A) (A) (A)
       Virtual   (A) (A) (A) (A) (A) (A) (A) (A) (A) (A) (A) (A)
                 (A) (A) (A) (A) (A) (A) (A) (A) (A) (A) (A) (A)
                 (A) (A) (A) (A) (A) (A) (A) (A) (A) (A) (A) (A)
                 (A) (A) (A) (A) (A) (A) (A) (A) (A) (A) (A) (A)
                 (A) (A) (A) (A) (A) (A) (A) (A) (A) (A) (A) (A)
                 (A) (A) (A) (A) (A) (A) (A) (A) (A) (A) (A) (A)
                 (A) (A) (A) (A) (A) (A) (A) (A) (A) (A) (A) (A)
                 (A) (A) (A) (A) (A) (A) (A) (A) (A) (A) (A) (A)
                 (A) (A) (A) (A) (A) (A) (A) (A) (A) (A) (A) (A)
                 (A) (A) (A) (A) (A) (A) (A) (A) (A) (A) (A) (A)
                 (A) (A) (A) (A) (A) (A) (A) (A) (A) (A) (A) (A)
                 (A) (A) (A) (A) (A) (A) (A) (A) (A) (A) (A) (A)
                 (A) (A) (A) (A) (A) (A) (A) (A) (A) (A) (A) (A)
                 (A) (A) (A) (A) (A) (A) (A) (A) (A) (A) (A) (A)
                 (A) (A) (A) (A) (A) (A) (A) (A) (A) (A) (A) (A)
                 (A) (A) (A) (A) (A) (A) (A) (A) (A) (A) (A) (A)
                 (A) (A) (A) (A) (A) (A) (A) (A) (A) (A) (A) (A)
                 (A) (A) (A) (A) (A) (A) (A) (A) (A) (A) (A) (A)
                 (A) (A) (A) (A) (A) (A) (A) (A) (A) (A) (A) (A)
                 (A) (A) (A) (A) (A) (A) (A) (A) (A) (A) (A) (A)
                 (A) (A) (A) (A) (A) (A) (A) (A) (A) (A) (A) (A)
                 (A) (A) (A) (A) (A) (A) (A) (A) (A) (A) (A) (A)
                 (A) (A) (A) (A) (A) (A) (A) (A) (A) (A) (A) (A)
                 (A) (A) (A) (A) (A) (A) (A) (A) (A) (A) (A) (A)
                 (A) (A) (A) (A) (A) (A) (A) (A) (A) (A) (A) (A)
                 (A) (A) (A) (A) (A) (A) (A) (A) (A) (A) (A) (A)
                 (A) (A) (A) (A) (A) (A) (A) (A) (A) (A) (A) (A)
                 (A) (A) (A) (A) (A) (A) (A) (A) (A) (A) (A) (A)
                 (A) (A) (A) (A) (A) (A) (A) (A) (A) (A) (A) (A)
                 (A) (A) (A) (A) (A) (A) (A) (A) (A) (A) (A) (A)
                 (A) (A) (A) (A) (A) (A) (A) (A) (A) (A) (A) (A)
                 (A) (A) (A) (A) (A) (A) (A) (A) (A) (A) (A) (A)
                 (A) (A) (A) (A) (A) (A) (A) (A) (A) (A) (A) (A)
                 (A) (A) (A) (A) (A) (A) (A) (A) (A) (A) (A) (A)
                 (A) (A) (A) (A) (A) (A) (A) (A) (A) (A) (A) (A)
                 (A) (A) (A) (A) (A) (A) (A) (A) (A) (A) (A) (A)
                 (A) (A) (A) (A) (A) (A) (A) (A) (A) (A) (A) (A)
                 (A) (A) (A) (A) (A) (A) (A) (A) (A) (A) (A) (A)
                 (A) (A) (A) (A) (A) (A) (A) (A) (A) (A) (A) (A)
                 (A) (A) (A) (A) (A) (A) (A) (A) (A) (A) (A) (A)
                 (A) (A) (A) (A) (A) (A) (A) (A) (A) (A) (A) (A)
                 (A) (A) (A) (A) (A) (A) (A) (A) (A) (A) (A) (A)
                 (A) (A) (A) (A) (A) (A) (A) (A) (A) (A) (A) (A)
                 (A) (A) (A) (A) (A) (A) (A) (A) (A) (A) (A) (A)
                 (A) (A) (A) (A) (A) (A) (A) (A) (A) (A) (A) (A)
                 (A) (A) (A) (A) (A) (A) (A) (A) (A) (A) (A) (A)
                 (A) (A) (A) (A) (A) (A) (A) (A) (A) (A) (A) (A)
                 (A) (A) (A) (A) (A) (A) (A) (A) (A) (A) (A) (A)
                 (A) (A) (A) (A) (A) (A) (A) (A) (A) (A) (A) (A)
                 (A) (A) (A) (A) (A) (A) (A) (A) (A) (A) (A) (A)
                 (A) (A) (A) (A) (A) (A) (A) (A) (A) (A) (A) (A)
                 (A) (A) (A) (A) (A) (A) (A) (A) (A) (A) (A) (A)
                 (A) (A) (A) (A) (A) (A) (A) (A) (A) (A) (A) (A)
                 (A) (A) (A) (A) (A) (A) (A) (A) (A) (A) (A) (A)
                 (A) (A) (A) (A) (A) (A) (A) (A) (A) (A) (A) (A)
                 (A) (A) (A) (A) (A) (A) (A) (A) (A) (A) (A) (A)
                 (A) (A) (A) (A) (A) (A) (A) (A) (A) (A) (A) (A)
                 (A) (A) (A) (A) (A) (A) (A) (A) (A) (A) (A) (A)
                 (A) (A) (A) (A) (A) (A) (A) (A) (A) (A) (A) (A)
                 (A) (A) (A) (A) (A) (A) (A) (A) (A) (A) (A) (A)
                 (A) (A) (A) (A) (A) (A) (A) (A) (A) (A) (A) (A)
                 (A) (A) (A) (A) (A) (A) (A) (A) (A) (A) (A) (A)
                 (A) (A) (A) (A) (A) (A) (A) (A) (A) (A)
 The electronic state is 1-A.
 Alpha  occ. eigenvalues --  -19.21589 -19.20792 -10.30390 -10.29082 -10.27987
 Alpha  occ. eigenvalues --  -10.27882 -10.27659 -10.27542 -10.27527 -10.27153
 Alpha  occ. eigenvalues --  -10.27140 -10.26998 -10.26952 -10.26939 -10.26911
 Alpha  occ. eigenvalues --  -10.26815 -10.26629 -10.26522 -10.26445 -10.26440
 Alpha  occ. eigenvalues --  -10.26330 -10.26328 -10.26256 -10.26221 -10.26214
 Alpha  occ. eigenvalues --  -10.26142 -10.25948 -10.25930 -10.25845 -10.25815
 Alpha  occ. eigenvalues --  -10.25712 -10.25693 -10.25439 -10.25433 -10.25226
 Alpha  occ. eigenvalues --  -10.25165 -10.24868 -10.24805 -10.23725 -10.23408
 Alpha  occ. eigenvalues --  -10.23205 -10.23086  -1.09479  -1.08272  -0.94361
 Alpha  occ. eigenvalues --   -0.93409  -0.92628  -0.92159  -0.91567  -0.90746
 Alpha  occ. eigenvalues --   -0.88649  -0.87299  -0.86274  -0.85680  -0.85059
 Alpha  occ. eigenvalues --   -0.83804  -0.82155  -0.81064  -0.79910  -0.78694
 Alpha  occ. eigenvalues --   -0.77741  -0.77225  -0.76998  -0.76772  -0.76119
 Alpha  occ. eigenvalues --   -0.75742  -0.75076  -0.74474  -0.74191  -0.70908
 Alpha  occ. eigenvalues --   -0.68946  -0.67605  -0.65723  -0.65245  -0.64009
 Alpha  occ. eigenvalues --   -0.63771  -0.62732  -0.60812  -0.60223  -0.59551
 Alpha  occ. eigenvalues --   -0.59424  -0.58913  -0.58765  -0.58218  -0.56415
 Alpha  occ. eigenvalues --   -0.55753  -0.55712  -0.55007  -0.54633  -0.53854
 Alpha  occ. eigenvalues --   -0.53491  -0.52868  -0.52670  -0.52016  -0.51416
 Alpha  occ. eigenvalues --   -0.50868  -0.50396  -0.50178  -0.50011  -0.49516
 Alpha  occ. eigenvalues --   -0.49363  -0.48669  -0.48655  -0.48469  -0.48020
 Alpha  occ. eigenvalues --   -0.47913  -0.47647  -0.47246  -0.47089  -0.46368
 Alpha  occ. eigenvalues --   -0.46128  -0.45320  -0.45162  -0.44979  -0.44877
 Alpha  occ. eigenvalues --   -0.44762  -0.43956  -0.43761  -0.43420  -0.42985
 Alpha  occ. eigenvalues --   -0.42853  -0.42703  -0.42421  -0.41715  -0.41522
 Alpha  occ. eigenvalues --   -0.41464  -0.41419  -0.41042  -0.40489  -0.40337
 Alpha  occ. eigenvalues --   -0.40102  -0.40077  -0.39998  -0.39662  -0.38990
 Alpha  occ. eigenvalues --   -0.38526  -0.38350  -0.38262  -0.37853  -0.37397
 Alpha  occ. eigenvalues --   -0.37206  -0.37001  -0.36549  -0.36403  -0.35675
 Alpha  occ. eigenvalues --   -0.35615  -0.34583  -0.33616  -0.32987  -0.31735
 Alpha  occ. eigenvalues --   -0.30424  -0.29958  -0.28979  -0.26130  -0.23941
 Alpha  occ. eigenvalues --   -0.19879
 Alpha virt. eigenvalues --   -0.05588  -0.00643   0.02032   0.06416   0.07768
 Alpha virt. eigenvalues --    0.09767   0.11312   0.11755   0.12107   0.12408
 Alpha virt. eigenvalues --    0.12676   0.13017   0.13183   0.13388   0.13755
 Alpha virt. eigenvalues --    0.14130   0.14487   0.14591   0.14755   0.15084
 Alpha virt. eigenvalues --    0.15558   0.15738   0.16129   0.16240   0.16577
 Alpha virt. eigenvalues --    0.16838   0.17141   0.17752   0.18066   0.18366
 Alpha virt. eigenvalues --    0.18710   0.19067   0.19185   0.19375   0.19528
 Alpha virt. eigenvalues --    0.19808   0.19887   0.20464   0.20499   0.20975
 Alpha virt. eigenvalues --    0.21169   0.21467   0.21993   0.22083   0.22144
 Alpha virt. eigenvalues --    0.22635   0.22868   0.23099   0.23309   0.23644
 Alpha virt. eigenvalues --    0.23767   0.23991   0.24221   0.24675   0.24786
 Alpha virt. eigenvalues --    0.24990   0.25026   0.25130   0.25861   0.26111
 Alpha virt. eigenvalues --    0.26142   0.26715   0.26753   0.26769   0.27801
 Alpha virt. eigenvalues --    0.28085   0.28681   0.28970   0.28989   0.29471
 Alpha virt. eigenvalues --    0.29764   0.30048   0.30243   0.30984   0.31292
 Alpha virt. eigenvalues --    0.31975   0.32138   0.32343   0.32628   0.33195
 Alpha virt. eigenvalues --    0.33540   0.34032   0.34330   0.35037   0.35525
 Alpha virt. eigenvalues --    0.36008   0.36438   0.37281   0.37463   0.38136
 Alpha virt. eigenvalues --    0.38984   0.39950   0.40776   0.41427   0.41939
 Alpha virt. eigenvalues --    0.43005   0.44186   0.44799   0.45489   0.46095
 Alpha virt. eigenvalues --    0.47918   0.49012   0.49782   0.49929   0.50158
 Alpha virt. eigenvalues --    0.50741   0.52477   0.53088   0.53384   0.54465
 Alpha virt. eigenvalues --    0.55066   0.55712   0.56014   0.56330   0.56512
 Alpha virt. eigenvalues --    0.56863   0.57126   0.57501   0.57735   0.58553
 Alpha virt. eigenvalues --    0.58895   0.59100   0.59785   0.59898   0.60485
 Alpha virt. eigenvalues --    0.61058   0.61625   0.61987   0.62059   0.62454
 Alpha virt. eigenvalues --    0.62933   0.63212   0.63272   0.63300   0.63858
 Alpha virt. eigenvalues --    0.64311   0.64978   0.65504   0.65672   0.65960
 Alpha virt. eigenvalues --    0.66070   0.66224   0.66648   0.66778   0.67085
 Alpha virt. eigenvalues --    0.67393   0.67797   0.68191   0.68265   0.68960
 Alpha virt. eigenvalues --    0.69494   0.69551   0.70156   0.70367   0.70521
 Alpha virt. eigenvalues --    0.70718   0.71128   0.72155   0.72271   0.72338
 Alpha virt. eigenvalues --    0.72714   0.73857   0.74177   0.74516   0.74937
 Alpha virt. eigenvalues --    0.74992   0.75368   0.75684   0.75925   0.76387
 Alpha virt. eigenvalues --    0.76708   0.76983   0.77061   0.77435   0.77939
 Alpha virt. eigenvalues --    0.78214   0.78573   0.78901   0.79161   0.79573
 Alpha virt. eigenvalues --    0.79849   0.80013   0.80464   0.80775   0.81427
 Alpha virt. eigenvalues --    0.81843   0.82061   0.82666   0.83033   0.83051
 Alpha virt. eigenvalues --    0.83369   0.83618   0.83640   0.83989   0.84025
 Alpha virt. eigenvalues --    0.84490   0.84758   0.84895   0.85246   0.85809
 Alpha virt. eigenvalues --    0.85851   0.85904   0.86467   0.86786   0.86915
 Alpha virt. eigenvalues --    0.87689   0.87834   0.87996   0.88455   0.88605
 Alpha virt. eigenvalues --    0.89181   0.89200   0.89707   0.89896   0.89964
 Alpha virt. eigenvalues --    0.90277   0.90948   0.91388   0.91718   0.92050
 Alpha virt. eigenvalues --    0.92130   0.92418   0.92719   0.92838   0.93009
 Alpha virt. eigenvalues --    0.93359   0.93762   0.94360   0.94607   0.94814
 Alpha virt. eigenvalues --    0.94995   0.95141   0.95610   0.95924   0.96028
 Alpha virt. eigenvalues --    0.96044   0.96449   0.96593   0.97300   0.97344
 Alpha virt. eigenvalues --    0.97566   0.97692   0.99296   1.00079   1.00369
 Alpha virt. eigenvalues --    1.00492   1.00857   1.01146   1.01656   1.01797
 Alpha virt. eigenvalues --    1.01983   1.02545   1.02887   1.03460   1.04057
 Alpha virt. eigenvalues --    1.04701   1.04908   1.05519   1.05931   1.06051
 Alpha virt. eigenvalues --    1.06587   1.06702   1.07015   1.07381   1.08158
 Alpha virt. eigenvalues --    1.08564   1.08852   1.09083   1.09810   1.10110
 Alpha virt. eigenvalues --    1.10406   1.10829   1.11408   1.12127   1.12216
 Alpha virt. eigenvalues --    1.12919   1.13723   1.14366   1.14614   1.15454
 Alpha virt. eigenvalues --    1.15541   1.16048   1.16403   1.17165   1.17511
 Alpha virt. eigenvalues --    1.18083   1.18780   1.19729   1.19933   1.19977
 Alpha virt. eigenvalues --    1.21637   1.23034   1.24198   1.24584   1.25080
 Alpha virt. eigenvalues --    1.26583   1.27135   1.27614   1.27928   1.29671
 Alpha virt. eigenvalues --    1.29761   1.30682   1.30828   1.33148   1.33491
 Alpha virt. eigenvalues --    1.34035   1.34780   1.36481   1.36590   1.37010
 Alpha virt. eigenvalues --    1.37171   1.37579   1.38717   1.38955   1.40096
 Alpha virt. eigenvalues --    1.40853   1.41147   1.41991   1.43008   1.43504
 Alpha virt. eigenvalues --    1.43865   1.44209   1.46112   1.46723   1.47168
 Alpha virt. eigenvalues --    1.47737   1.47902   1.48874   1.49196   1.49667
 Alpha virt. eigenvalues --    1.50603   1.51367   1.51590   1.52911   1.53091
 Alpha virt. eigenvalues --    1.54051   1.54321   1.55335   1.56674   1.57349
 Alpha virt. eigenvalues --    1.58662   1.59315   1.59705   1.60463   1.60984
 Alpha virt. eigenvalues --    1.61326   1.61673   1.61926   1.62475   1.62642
 Alpha virt. eigenvalues --    1.63876   1.64846   1.66868   1.66893   1.67591
 Alpha virt. eigenvalues --    1.67791   1.70217   1.70569   1.71248   1.71467
 Alpha virt. eigenvalues --    1.71924   1.73014   1.74724   1.74890   1.76415
 Alpha virt. eigenvalues --    1.76561   1.77855   1.78145   1.78339   1.79048
 Alpha virt. eigenvalues --    1.80292   1.81583   1.82086   1.82560   1.82944
 Alpha virt. eigenvalues --    1.83050   1.83083   1.84107   1.84233   1.84302
 Alpha virt. eigenvalues --    1.84981   1.85696   1.86364   1.86986   1.87743
 Alpha virt. eigenvalues --    1.87920   1.88114   1.88248   1.88804   1.89049
 Alpha virt. eigenvalues --    1.89156   1.89622   1.89961   1.91094   1.91119
 Alpha virt. eigenvalues --    1.91735   1.92437   1.92589   1.92758   1.92897
 Alpha virt. eigenvalues --    1.93360   1.93943   1.94150   1.94493   1.95173
 Alpha virt. eigenvalues --    1.95608   1.95960   1.96774   1.97731   1.97872
 Alpha virt. eigenvalues --    1.98200   1.98603   1.98638   1.98898   1.99619
 Alpha virt. eigenvalues --    1.99797   2.00231   2.00774   2.01018   2.01464
 Alpha virt. eigenvalues --    2.01876   2.02126   2.02664   2.02954   2.03470
 Alpha virt. eigenvalues --    2.04383   2.05039   2.05712   2.05992   2.06558
 Alpha virt. eigenvalues --    2.07394   2.07679   2.07898   2.08058   2.08570
 Alpha virt. eigenvalues --    2.08871   2.09072   2.09368   2.09735   2.10609
 Alpha virt. eigenvalues --    2.10907   2.11157   2.11189   2.11704   2.11937
 Alpha virt. eigenvalues --    2.12025   2.12615   2.12720   2.13075   2.13286
 Alpha virt. eigenvalues --    2.13860   2.14138   2.14973   2.15075   2.15625
 Alpha virt. eigenvalues --    2.16677   2.16818   2.16854   2.17484   2.17885
 Alpha virt. eigenvalues --    2.18073   2.18992   2.19403   2.19891   2.20001
 Alpha virt. eigenvalues --    2.20695   2.21018   2.21160   2.21586   2.21771
 Alpha virt. eigenvalues --    2.22205   2.23267   2.23569   2.23981   2.25042
 Alpha virt. eigenvalues --    2.25426   2.26155   2.26359   2.26644   2.27264
 Alpha virt. eigenvalues --    2.27579   2.28205   2.29045   2.29077   2.29483
 Alpha virt. eigenvalues --    2.29607   2.29710   2.30225   2.30578   2.31548
 Alpha virt. eigenvalues --    2.31817   2.32176   2.32932   2.33059   2.33393
 Alpha virt. eigenvalues --    2.34696   2.34923   2.35464   2.36524   2.36844
 Alpha virt. eigenvalues --    2.37224   2.37345   2.37711   2.37881   2.38893
 Alpha virt. eigenvalues --    2.39436   2.40180   2.40307   2.41244   2.41465
 Alpha virt. eigenvalues --    2.41891   2.42249   2.42690   2.42880   2.44189
 Alpha virt. eigenvalues --    2.44269   2.44574   2.45037   2.45211   2.45924
 Alpha virt. eigenvalues --    2.46598   2.46776   2.47527   2.47719   2.47909
 Alpha virt. eigenvalues --    2.48494   2.48880   2.49327   2.50562   2.50917
 Alpha virt. eigenvalues --    2.51417   2.52291   2.52352   2.52489   2.53055
 Alpha virt. eigenvalues --    2.54075   2.54124   2.54629   2.55085   2.55335
 Alpha virt. eigenvalues --    2.55450   2.56574   2.57235   2.57568   2.57697
 Alpha virt. eigenvalues --    2.58541   2.58941   2.59971   2.60276   2.60443
 Alpha virt. eigenvalues --    2.60860   2.61897   2.62410   2.62962   2.63508
 Alpha virt. eigenvalues --    2.64356   2.65271   2.65534   2.65848   2.66989
 Alpha virt. eigenvalues --    2.67190   2.67515   2.67681   2.68273   2.68549
 Alpha virt. eigenvalues --    2.69061   2.69428   2.69930   2.70296   2.70364
 Alpha virt. eigenvalues --    2.70746   2.71252   2.71716   2.71947   2.72590
 Alpha virt. eigenvalues --    2.72848   2.73349   2.73556   2.74155   2.74625
 Alpha virt. eigenvalues --    2.75200   2.75454   2.76547   2.77346   2.77771
 Alpha virt. eigenvalues --    2.77914   2.78663   2.79174   2.79591   2.80469
 Alpha virt. eigenvalues --    2.80580   2.80980   2.81364   2.82249   2.82303
 Alpha virt. eigenvalues --    2.82821   2.82870   2.83151   2.83546   2.84194
 Alpha virt. eigenvalues --    2.84786   2.84940   2.86076   2.86234   2.87096
 Alpha virt. eigenvalues --    2.87251   2.88258   2.88505   2.88796   2.89897
 Alpha virt. eigenvalues --    2.90134   2.90404   2.90787   2.91429   2.91955
 Alpha virt. eigenvalues --    2.92303   2.93196   2.93291   2.93454   2.93879
 Alpha virt. eigenvalues --    2.94185   2.95388   2.95611   2.95866   2.96163
 Alpha virt. eigenvalues --    2.97603   2.97842   2.98573   3.00004   3.00373
 Alpha virt. eigenvalues --    3.01080   3.01752   3.01905   3.02595   3.03130
 Alpha virt. eigenvalues --    3.05171   3.05470   3.05753   3.06542   3.07137
 Alpha virt. eigenvalues --    3.07551   3.09189   3.09422   3.09923   3.12373
 Alpha virt. eigenvalues --    3.13169   3.13875   3.14075   3.15283   3.15386
 Alpha virt. eigenvalues --    3.16986   3.17289   3.17441   3.19390   3.20542
 Alpha virt. eigenvalues --    3.22738   3.23083   3.23214   3.23309   3.23833
 Alpha virt. eigenvalues --    3.25751   3.27063   3.29971   3.30043   3.32562
 Alpha virt. eigenvalues --    3.32633   3.35550   3.35655   3.36875   3.37198
 Alpha virt. eigenvalues --    3.37697   3.39583   3.39954   3.40086   3.42136
 Alpha virt. eigenvalues --    3.42780   3.42805   3.43479   3.44779   3.45975
 Alpha virt. eigenvalues --    3.46316   3.46892   3.47820   3.48305   3.48809
 Alpha virt. eigenvalues --    3.49581   3.49816   3.51416   3.52288   3.52580
 Alpha virt. eigenvalues --    3.52627   3.53480   3.56316   3.56818   3.57231
 Alpha virt. eigenvalues --    3.57617   3.58578   3.59282   3.59654   3.61119
 Alpha virt. eigenvalues --    3.62279   3.62723   3.63349   3.64578   3.70147
 Alpha virt. eigenvalues --    3.76903   3.77182   3.81435   3.84678   3.84927
 Alpha virt. eigenvalues --    3.89868   3.93763   4.12837   4.15424   4.19773
 Alpha virt. eigenvalues --    4.20177   4.21287   4.22138   4.23723   4.26356
 Alpha virt. eigenvalues --    4.27710   4.28397   4.31881   4.32764   4.36887
 Alpha virt. eigenvalues --    4.39202   4.41530   4.44440   4.46877   4.47942
 Alpha virt. eigenvalues --    4.48296   4.49707   4.51412   4.53422   4.54584
 Alpha virt. eigenvalues --    4.55336   4.57444   4.57950   4.59016   4.62091
 Alpha virt. eigenvalues --    4.63021   4.65138   4.68765   4.70080   4.73548
 Alpha virt. eigenvalues --    4.74161   4.76890   4.82086   4.83982   4.84727
 Alpha virt. eigenvalues --    4.85327   4.87156   4.91082   4.91381
          Condensed to atoms (all electrons):
 Mulliken charges:
               1
     1  O   -0.566402
     2  O   -0.580077
     3  C    0.022010
     4  C   -0.022898
     5  C   -0.203226
     6  C   -0.165053
     7  C    0.183799
     8  C    0.165212
     9  C    0.049928
    10  C    0.092468
    11  C   -0.190531
    12  C   -0.198861
    13  C    0.052180
    14  C    0.031249
    15  C   -0.297269
    16  C   -0.293272
    17  C   -0.291728
    18  C   -0.329968
    19  C   -0.110038
    20  C   -0.156690
    21  C   -0.371336
    22  C   -0.345803
    23  C   -0.154768
    24  C   -0.077625
    25  C    0.114202
    26  C    0.196936
    27  C   -0.374075
    28  C   -0.400597
    29  C   -0.092659
    30  C   -0.175047
    31  C   -0.081668
    32  C   -0.085315
    33  C   -0.102134
    34  C   -0.119505
    35  C    0.078590
    36  C    0.158225
    37  C   -0.368952
    38  C   -0.385259
    39  C   -0.090046
    40  C   -0.142844
    41  C   -0.081911
    42  C   -0.108250
    43  H    0.087737
    44  H    0.027902
    45  H    0.082814
    46  H    0.110138
    47  H    0.063731
    48  H    0.084099
    49  H    0.121179
    50  H    0.109740
    51  H    0.116796
    52  H    0.089743
    53  H    0.091533
    54  H    0.100515
    55  H    0.121414
    56  H    0.118502
    57  H    0.077857
    58  H    0.102687
    59  H    0.096016
    60  H    0.104331
    61  H    0.113457
    62  H    0.100453
    63  H    0.089950
    64  H    0.091723
    65  H    0.064346
    66  H    0.091536
    67  H    0.121548
    68  H    0.129447
    69  H    0.113252
    70  H    0.098819
    71  H    0.086962
    72  H    0.107761
    73  H    0.308789
    74  H    0.306978
    75  H    0.061190
    76  H    0.080317
    77  H    0.106831
    78  H    0.139717
    79  H    0.106545
    80  H    0.112393
    81  H    0.098234
    82  H    0.125815
    83  H    0.061877
    84  H    0.080391
    85  H    0.078677
    86  H    0.062884
    87  H    0.059613
    88  H    0.077470
    89  H    0.128090
    90  H    0.113200
    91  H    0.106140
    92  H    0.135219
    93  H    0.119169
    94  H    0.112099
    95  H    0.076211
    96  H    0.081951
    97  H    0.085625
    98  H    0.077594
 Sum of Mulliken charges =  -0.00000
 Mulliken charges with hydrogens summed into heavy atoms:
               1
     1  O   -0.257614
     2  O   -0.273100
     3  C    0.022010
     4  C   -0.022898
     5  C   -0.087587
     6  C    0.027900
     7  C    0.247529
     8  C    0.249311
     9  C    0.049928
    10  C    0.092468
    11  C    0.040388
    12  C    0.007677
    13  C    0.052180
    14  C    0.031249
    15  C    0.016194
    16  C    0.005775
    17  C    0.022077
    18  C   -0.047841
    19  C   -0.045692
    20  C   -0.065153
    21  C   -0.007089
    22  C   -0.052261
    23  C   -0.093578
    24  C    0.002693
    25  C    0.114202
    26  C    0.196936
    27  C   -0.020982
    28  C   -0.064156
    29  C   -0.030782
    30  C   -0.094656
    31  C   -0.002991
    32  C   -0.022432
    33  C   -0.042521
    34  C   -0.042036
    35  C    0.078590
    36  C    0.158225
    37  C   -0.021523
    38  C   -0.018772
    39  C   -0.013834
    40  C   -0.060893
    41  C    0.003714
    42  C   -0.030655
 Electronic spatial extent (au):  <R**2>=         109652.3272
 Charge=             -0.0000 electrons
 Dipole moment (field-independent basis, Debye):
    X=             -1.0888    Y=             -1.4507    Z=              1.1696  Tot=              2.1583
 Quadrupole moment (field-independent basis, Debye-Ang):
   XX=           -258.3519   YY=           -244.9471   ZZ=           -259.4998
   XY=             11.6945   XZ=             -9.6636   YZ=              5.9400
 Traceless Quadrupole moment (field-independent basis, Debye-Ang):
   XX=             -4.0856   YY=              9.3192   ZZ=             -5.2335
   XY=             11.6945   XZ=             -9.6636   YZ=              5.9400
 Octapole moment (field-independent basis, Debye-Ang**2):
  XXX=           -618.3320  YYY=            -24.2752  ZZZ=             12.8946  XYY=            105.6195
  XXY=           -255.1551  XXZ=            392.5563  XZZ=            -40.1066  YZZ=             -1.4256
  YYZ=              3.5437  XYZ=            -76.3240
 Hexadecapole moment (field-independent basis, Debye-Ang**3):
 XXXX=        -144470.8139 YYYY=          -4921.4945 ZZZZ=          -1503.3843 XXXY=           1316.9856
 XXXZ=          -3001.4400 YYYX=           -203.4923 YYYZ=             41.4022 ZZZX=           -197.7235
 ZZZY=             35.6224 XXYY=         -23865.6549 XXZZ=         -23251.3944 YYZZ=          -1080.9585
 XXYZ=            149.5450 YYXZ=             95.1958 ZZXY=           -180.6110
 N-N= 3.991061653925D+03 E-N=-1.193767842112D+04  KE= 1.691044791815D+03
 1\1\GINC-RYZEN-SSD1\SP\RCAM-B3LYP TD-FC\6-31G(d,p)\C40H56O2\PADAWAN\17
 -Jul-2019\0\\# td=(NStates=1) CAM-B3LYP/6-31G(d,p)\\TD\\0,1\O,0,14.677
 6832933,-2.0704299761,-0.0869556186\O,0,-14.749019966,1.9081861237,0.8
 349930303\C,0,11.0258649325,-1.5994624983,0.9684530063\C,0,-12.3302281
 868,-0.9666882867,0.6509387379\C,0,12.5486984358,-1.8478740835,1.02101
 69937\C,0,-13.6892256416,-0.2491829382,0.6164244544\C,0,13.3098190209,
 -1.7755998821,-0.2830018452\C,0,-13.504459739,1.2679254536,0.944545705
 6\C,0,10.8713364606,-0.3434719742,0.0053972467\C,0,-11.2085572197,-0.2
 344444513,-0.0779754735\C,0,13.2068711781,-0.4321917043,-0.8457773317\
 C,0,-12.6611285509,1.8846414712,-0.1649658496\C,0,11.8023761066,0.1423
 046134,-0.8861512581\C,0,-11.3822088159,1.0137380029,-0.5301350095\C,0
 ,10.5718082218,-1.1946649075,2.3557189559\C,0,10.297320352,-2.72867063
 51,0.370880478\C,0,-11.9293347395,-1.3335630482,2.0985359846\C,0,-12.6
 34129908,-2.2472759495,-0.1857373117\C,0,9.650310272,0.313440297,0.124
 5964196\C,0,-10.0010056726,-1.0140141433,-0.3901503\C,0,11.6916350435,
 1.2116963435,-1.8261246025\C,0,-10.4393222202,1.9650459817,-1.21264815
 48\C,0,9.2812820332,1.6564418872,0.1669933393\C,0,-8.7422756246,-0.584
 8704359,-0.2564507471\C,0,8.0766867737,2.3638123642,0.2321239874\C,0,-
 7.4890769417,-1.3108994178,-0.5088070497\C,0,7.9241041944,3.8407329283
 ,0.3809422782\C,0,-7.5066189589,-2.6054901259,-1.010259711\C,0,6.91132
 11031,1.607459687,0.0978072957\C,0,-6.3700297,-0.6701052724,-0.2114300
 68\C,0,5.5789686109,2.1484190799,0.0417211411\C,0,-5.0047890249,-1.118
 0788808,-0.4963365117\C,0,4.4867574617,1.4028264766,-0.1177338584\C,0,
 -3.88793009,-0.4167038944,-0.3242952445\C,0,3.1087783688,1.7128256736,
 -0.0597718612\C,0,-2.5047259286,-0.8864987289,-0.5293412891\C,0,2.6965
 112181,3.1160692989,0.3671443724\C,0,-2.2622949975,-2.3101845105,-1.05
 13363596\C,0,2.0995390429,0.7519272567,-0.1824389239\C,0,-1.5952514851
 ,-0.0082829393,-0.3357175228\C,0,0.7910759366,0.8364164556,-0.04789346
 13\C,0,-0.1823581058,-0.1583334333,-0.3832892989\H,0,13.114159996,-1.3
 015935695,1.8761533043\H,0,12.7905725563,-2.9640196161,1.5302107051\H,
 0,-14.2337263456,-0.4482922711,1.491450066\H,0,-14.2110646015,-0.41856
 97289,-0.2525171077\H,0,12.7167826853,-2.6249217993,-0.8237029283\H,0,
 -12.8608765197,1.5298669688,1.720389773\H,0,13.8482894159,0.2126438423
 ,-0.2338285639\H,0,13.7018057376,-0.4921645736,-1.669329664\H,0,-13.23
 42886379,1.9227273328,-1.1522179648\H,0,-12.3281487879,2.7912941495,0.
 5586569017\H,0,10.9246051495,-1.9383222612,3.1047851745\H,0,9.49861818
 88,-1.0718369827,2.3508718422\H,0,10.9180355456,-0.3831871858,2.764669
 853\H,0,10.6794342064,-3.0734421182,-0.5440710901\H,0,10.2049194948,-3
 .7760662496,0.9718566257\H,0,9.2034176588,-2.4808293909,0.2864653675\H
 ,0,-11.6634380298,-0.4204145354,2.7277030673\H,0,-10.9638292219,-1.874
 5399979,2.1259063746\H,0,-12.6158624792,-1.8650039203,2.4596665467\H,0
 ,-13.5864790969,-2.8667853744,-0.0638382528\H,0,-11.7768129163,-2.9742
 740163,-0.0405011521\H,0,-12.5453923982,-2.1989590878,-1.3887416162\H,
 0,8.7550774107,-0.1945438654,0.2085879798\H,0,-10.1629310581,-2.079755
 0394,-0.7372175238\H,0,10.6478060726,1.6289375638,-1.8407261316\H,0,12
 .2134271717,1.9768286258,-1.246410249\H,0,12.1930909791,1.000330888,-2
 .8362763166\H,0,-10.953339735,2.639219486,-2.0360343244\H,0,-9.6169476
 728,1.3011941385,-1.8064066077\H,0,-9.7064948335,2.6722198761,-0.60611
 37674\H,0,14.7557847065,-2.9022455517,0.4493232123\H,0,-15.4777724702,
 1.812288529,1.5176728633\H,0,10.2622321422,2.1607829863,0.1814449695\H
 ,0,-8.3765823942,0.44518912,0.1279821722\H,0,8.9122889159,4.2749308751
 ,0.636939535\H,0,7.438860273,4.2911339744,-0.4226086069\H,0,7.31794105
 41,4.1048415522,1.3780746455\H,0,-7.9666594599,-3.4984745054,-0.396044
 8935\H,0,-8.2348878598,-2.5917491778,-1.9460864976\H,0,-6.7489806701,-
 3.0157061105,-1.5895943934\H,0,7.1967055256,0.6620494199,-0.0162394989
 \H,0,-6.3754545215,0.4902465198,-0.1350286279\H,0,5.4323409391,3.28845
 45175,0.2477912881\H,0,-4.8500454755,-2.2128789659,-1.0799941494\H,0,4
 .9383570287,0.2468294289,-0.3553276008\H,0,-4.1569570997,0.6644058126,
 0.0522965107\H,0,3.1496705951,3.3500468947,1.3044636874\H,0,1.62735099
 61,3.1338843704,0.4242270247\H,0,3.0623016102,3.929419567,-0.360299087
 9\H,0,-2.6735784728,-3.0189841904,-0.3962272877\H,0,-2.7499737104,-2.5
 241294749,-2.0281515572\H,0,-1.2145718422,-2.6805956096,-1.3323817812\
 H,0,2.5330846715,-0.1406573467,-0.4943356456\H,0,-2.0177563986,0.92545
 07891,0.2698630793\H,0,0.2251228113,1.7689023172,0.079169927\H,0,0.402
 5520402,-1.0718173457,-0.8711687909\\Version=ES64L-G16RevA.03\State=1-
 A\HF=-1706.9261311\RMSD=4.717e-09\PG=C01 [X(C40H56O2)]\\@


 I DO NOT DEFINE TIME, SPACE, PLACE, AND MOTION, AS BEING WELL KNOWN TO ALL.
                                            -- NEWTON (1642-1726), PRINCIPIA
 Job cpu time:       0 days  8 hours 43 minutes 57.1 seconds.
 Elapsed time:       0 days  2 hours 11 minutes 51.8 seconds.
 File lengths (MBytes):  RWF=   3127 Int=      0 D2E=      0 Chk=     84 Scr=      1
 Normal termination of Gaussian 16 at Wed Jul 17 05:28:33 2019.
