 Entering Gaussian System, Link 0=g16
 Input=Geometria-416-.com
 Output=Geometria-416-.log
 Initial command:
 /usr/local/g16/l1.exe "/home/padawan/israel-mol/zeaxanthin/spectra/emi/Gau-23886.inp" -scrdir="/home/padawan/israel-mol/zeaxanthin/spectra/emi/"
 Entering Link 1 = /usr/local/g16/l1.exe PID=     23888.
  
 Copyright (c) 1988,1990,1992,1993,1995,1998,2003,2009,2016,
            Gaussian, Inc.  All Rights Reserved.
  
 This is part of the Gaussian(R) 16 program.  It is based on
 the Gaussian(R) 09 system (copyright 2009, Gaussian, Inc.),
 the Gaussian(R) 03 system (copyright 2003, Gaussian, Inc.),
 the Gaussian(R) 98 system (copyright 1998, Gaussian, Inc.),
 the Gaussian(R) 94 system (copyright 1995, Gaussian, Inc.),
 the Gaussian 92(TM) system (copyright 1992, Gaussian, Inc.),
 the Gaussian 90(TM) system (copyright 1990, Gaussian, Inc.),
 the Gaussian 88(TM) system (copyright 1988, Gaussian, Inc.),
 the Gaussian 86(TM) system (copyright 1986, Carnegie Mellon
 University), and the Gaussian 82(TM) system (copyright 1983,
 Carnegie Mellon University). Gaussian is a federally registered
 trademark of Gaussian, Inc.
  
 This software contains proprietary and confidential information,
 including trade secrets, belonging to Gaussian, Inc.
  
 This software is provided under written license and may be
 used, copied, transmitted, or stored only in accord with that
 written license.
  
 The following legend is applicable only to US Government
 contracts under FAR:
  
                    RESTRICTED RIGHTS LEGEND
  
 Use, reproduction and disclosure by the US Government is
 subject to restrictions as set forth in subparagraphs (a)
 and (c) of the Commercial Computer Software - Restricted
 Rights clause in FAR 52.227-19.
  
 Gaussian, Inc.
 340 Quinnipiac St., Bldg. 40, Wallingford CT 06492
  
  
 ---------------------------------------------------------------
 Warning -- This program may not be used in any manner that
 competes with the business of Gaussian, Inc. or will provide
 assistance to any competitor of Gaussian, Inc.  The licensee
 of this program is prohibited from giving any competitor of
 Gaussian, Inc. access to this program.  By using this program,
 the user acknowledges that Gaussian, Inc. is engaged in the
 business of creating and licensing software in the field of
 computational chemistry and represents and warrants to the
 licensee that it is not a competitor of Gaussian, Inc. and that
 it will not use this program in any manner prohibited above.
 ---------------------------------------------------------------
  

 Cite this work as:
 Gaussian 16, Revision A.03,
 M. J. Frisch, G. W. Trucks, H. B. Schlegel, G. E. Scuseria, 
 M. A. Robb, J. R. Cheeseman, G. Scalmani, V. Barone, 
 G. A. Petersson, H. Nakatsuji, X. Li, M. Caricato, A. V. Marenich, 
 J. Bloino, B. G. Janesko, R. Gomperts, B. Mennucci, H. P. Hratchian, 
 J. V. Ortiz, A. F. Izmaylov, J. L. Sonnenberg, D. Williams-Young, 
 F. Ding, F. Lipparini, F. Egidi, J. Goings, B. Peng, A. Petrone, 
 T. Henderson, D. Ranasinghe, V. G. Zakrzewski, J. Gao, N. Rega, 
 G. Zheng, W. Liang, M. Hada, M. Ehara, K. Toyota, R. Fukuda, 
 J. Hasegawa, M. Ishida, T. Nakajima, Y. Honda, O. Kitao, H. Nakai, 
 T. Vreven, K. Throssell, J. A. Montgomery, Jr., J. E. Peralta, 
 F. Ogliaro, M. J. Bearpark, J. J. Heyd, E. N. Brothers, K. N. Kudin, 
 V. N. Staroverov, T. A. Keith, R. Kobayashi, J. Normand, 
 K. Raghavachari, A. P. Rendell, J. C. Burant, S. S. Iyengar, 
 J. Tomasi, M. Cossi, J. M. Millam, M. Klene, C. Adamo, R. Cammi, 
 J. W. Ochterski, R. L. Martin, K. Morokuma, O. Farkas, 
 J. B. Foresman, and D. J. Fox, Gaussian, Inc., Wallingford CT, 2016.
 
 ******************************************
 Gaussian 16:  ES64L-G16RevA.03 25-Dec-2016
                18-Jul-2019 
 ******************************************
 %nproc=4
 Will use up to    4 processors via shared memory.
 %Mem=2GB
 -------------------------------------
 # td=(NStates=1) CAM-B3LYP/6-31G(d,p)
 -------------------------------------
 1/38=1,172=1/1;
 2/12=2,17=6,18=5,40=1/2;
 3/5=1,6=6,7=101,11=9,25=1,30=1,74=-40/1,2,3,8;
 4//1;
 5/5=2,38=5/2;
 8/6=1,10=2,108=1/1;
 9/41=1,42=1,70=2/14;
 6/7=2,8=2,9=2,10=2/1;
 99/5=1,9=1/99;
 --
 TD
 --
 Symbolic Z-matrix:
 Charge =  0 Multiplicity = 1
 8                     14.5252  -2.52295  -0.3667 
 8                    -14.71987   1.71289   1.0435 
 6                     11.14504  -1.44298   1.08942 
 6                    -12.31944  -1.06754   0.51672 
 6                     12.61371  -1.93075   1.03207 
 6                    -13.57185  -0.29855   0.6022 
 6                     13.16908  -2.06929  -0.34463 
 6                    -13.4334   1.11485   0.98281 
 6                     10.97701  -0.23      0.04555 
 6                    -11.25447  -0.33426  -0.29832 
 6                     13.0712  -0.7317   -0.98975 
 6                    -12.74195   1.82874  -0.14584 
 6                     11.82901   0.04415  -0.87326 
 6                    -11.51007   1.02496  -0.55471 
 6                     10.82573  -0.9634    2.4702 
 6                     10.17606  -2.59124   0.66832 
 6                    -11.66226  -1.42982   1.90067 
 6                    -12.66873  -2.40676  -0.22502 
 6                     9.64147   0.32326   0.27158 
 6                    -9.99957  -1.002    -0.56731 
 6                     11.69954   1.18164  -1.89612 
 6                    -10.5122   1.92029  -1.28843 
 6                     9.44785   1.70791   0.1487 
 6                    -8.84581  -0.51127  -0.26346 
 6                     8.10955   2.36627   0.24322 
 6                    -7.56716  -1.20234  -0.48476 
 6                     8.08626   3.92136   0.46565 
 6                    -7.60187  -2.70632  -0.81981 
 6                     6.88408   1.6155    0.1558 
 6                    -6.38022  -0.53187  -0.4474 
 6                     5.62525   2.17391   0.125 
 6                    -5.05744  -1.12187  -0.55106 
 6                     4.51148   1.37445  -0.07204 
 6                    -3.91073  -0.34492  -0.2838 
 6                     3.1725    1.76382  -0.07824 
 6                    -2.622    -0.72371  -0.48603 
 6                     2.78649   3.20616   0.35858 
 6                    -2.31405  -2.10102  -0.94996 
 6                     2.10026   0.82509  -0.13121 
 6                    -1.60112   0.21263  -0.17252 
 6                     0.76577   1.10157  -0.08131 
 6                    -0.24425   0.14968  -0.42479 
 1                     13.4321  -1.15265   1.51396 
 1                     12.62464  -2.87819   1.59258 
 1                    -14.38148  -0.88356   1.27486 
 1                    -14.10529  -0.29332  -0.29377 
 1                     12.63499  -2.82259  -0.98835 
 1                    -12.84015   1.24417   1.96581 
 1                     13.80105   0.01541  -0.63308 
 1                     13.14099  -0.8914   -2.06075 
 1                    -13.32518   2.10572  -0.91339 
 1                    -12.35195   2.87881   0.18006 
 1                     11.13072  -1.79503   3.08979 
 1                     9.72001  -0.75547   2.59494 
 1                     11.41183  -0.10002   2.98795 
 1                     10.39094  -3.07259  -0.49488 
 1                     10.21933  -3.41789   1.34331 
 1                     9.08916  -2.20995   0.61308 
 1                    -11.73909  -0.53224   2.71641 
 1                    -10.72147  -1.80506   1.79271 
 1                    -12.34658  -2.22553   2.33543 
 1                    -13.3183  -3.03135   0.40717 
 1                    -11.81619  -3.15008  -0.25142 
 1                    -13.04864  -2.38239  -1.36354 
 1                     8.67843  -0.45334   0.39684 
 1                    -10.03671  -2.07227  -1.06003 
 1                     10.74267   1.56802  -2.18077 
 1                     12.32728   2.0502   -1.60192 
 1                     12.0063   0.96486  -2.91024 
 1                    -11.12977   2.60998  -2.0272 
 1                    -9.66509   1.31707  -1.87806 
 1                    -9.86772   2.60535  -0.7585 
 1                     14.65876  -3.57707  -0.30703 
 1                    -15.38598   1.07936   1.71227 
 1                     10.35802   2.46969   0.13422 
 1                    -8.76132   0.61279   0.22545 
 1                     8.97572   4.19578   0.51707 
 1                     7.4463    4.31226  -0.50256 
 1                     7.66987   4.03188   1.44686 
 1                    -8.09302  -3.20067  -0.01285 
 1                    -7.97406  -3.0513   -1.8894 
 1                    -6.55863  -3.08969  -0.97938 
 1                     6.70084   0.54202   0.2106 
 1                    -6.38404   0.39759  -0.13512 
 1                     5.50229   3.27157   0.32118 
 1                    -5.04976  -2.31252  -0.75785 
 1                     4.68122   0.1632   -0.38718 
 1                    -4.10034   0.60225  -0.04197 
 1                     3.03625   3.42393   1.56861 
 1                     1.85929   3.5119    0.03682 
 1                     3.31896   3.91285  -0.5017 
 1                    -2.44498  -2.85111   0.09143 
 1                    -2.87212  -2.44629  -1.81648 
 1                    -1.32244  -2.35069  -1.40787 
 1                     2.63288  -0.13107  -0.37182 
 1                    -2.01387   1.02057  -0.00658 
 1                     0.4667    1.90759   0.22859 
 1                    -0.02792  -0.88888  -0.94898 
 
 Stoichiometry    C40H56O2
 Framework group  C1[X(C40H56O2)]
 Deg. of freedom   288
 Full point group                 C1      NOp   1
 Largest Abelian subgroup         C1      NOp   1
 Largest concise Abelian subgroup C1      NOp   1
                         Standard orientation:                         
 ---------------------------------------------------------------------
 Center     Atomic      Atomic             Coordinates (Angstroms)
 Number     Number       Type             X           Y           Z
 ---------------------------------------------------------------------
      1          8           0       14.521328   -2.535768   -0.369045
      2          8           0      -14.718824    1.730576    1.051022
      3          6           0       11.142672   -1.453198    1.088635
      4          6           0      -12.321516   -1.052058    0.521685
      5          6           0       12.610810   -1.942516    1.030596
      6          6           0      -13.573083   -0.281779    0.608015
      7          6           0       13.165710   -2.080667   -0.346328
      8          6           0      -13.433020    1.131197    0.989599
      9          6           0       10.975707   -0.239296    0.045678
     10          6           0      -11.255951   -0.319349   -0.293072
     11          6           0       13.069114   -0.742513   -0.990473
     12          6           0      -12.741057    1.845143   -0.138705
     13          6           0       11.827790    0.034598   -0.873136
     14          6           0      -11.510145    1.040332   -0.548431
     15          6           0       10.824208   -0.974267    2.469837
     16          6           0       10.172358   -2.600112    0.666946
     17          6           0      -11.664406   -1.416040    1.905223
     18          6           0      -12.672429   -2.390373   -0.220927
     19          6           0        9.640819    0.315244    0.272415
     20          6           0      -10.001828   -0.988248   -0.562833
     21          6           0       11.699305    1.172957   -1.895154
     22          6           0      -10.511479    1.935113   -1.281742
     23          6           0        9.448663    1.700185    0.150570
     24          6           0       -8.847469   -0.498979   -0.258906
     25          6           0        8.111097    2.359925    0.245867
     26          6           0       -7.569625   -1.191264   -0.481001
     27          6           0        8.089536    3.914878    0.469420
     28          6           0       -7.606028   -2.694968   -0.817114
     29          6           0        6.884796    1.610537    0.158205
     30          6           0       -6.381950   -0.522104   -0.443438
     31          6           0        5.626567    2.170327    0.128094
     32          6           0       -5.059835   -1.113453   -0.547827
     33          6           0        4.511886    1.372211   -0.069256
     34          6           0       -3.912224   -0.337928   -0.280279
     35          6           0        3.173330    1.763025   -0.074869
     36          6           0       -2.623945   -0.717968   -0.483077
     37          6           0        2.788973    3.205465    0.363079
     38          6           0       -2.317591   -2.095278   -0.948062
     39          6           0        2.100061    0.825494   -0.128260
     40          6           0       -1.601988    0.217048   -0.169140
     41          6           0        0.765886    1.103375   -0.077843
     42          6           0       -0.245248    0.152814   -0.421774
     43          1           0       13.430147   -1.165639    1.512850
     44          1           0       12.620840   -2.890366    1.590425
     45          1           0      -14.383184   -0.866395    1.280441
     46          1           0      -14.106726   -0.275332   -0.287831
     47          1           0       12.630658   -2.832932   -0.990463
     48          1           0      -12.839404    1.259172    1.972558
     49          1           0       13.799860    0.003560   -0.633436
     50          1           0       13.138485   -0.901525   -2.061600
     51          1           0      -13.324168    2.123301   -0.905921
     52          1           0      -12.349854    2.894566    0.187857
     53          1           0       11.128437   -1.806664    3.088764
     54          1           0        9.718738   -0.765228    2.594980
     55          1           0       11.411360   -0.111887    2.988069
     56          1           0       10.386445   -3.080866   -0.496645
     57          1           0       10.214897   -3.427294    1.341338
     58          1           0        9.085855   -2.217617    0.612230
     59          1           0      -11.740076   -0.518954    2.721628
     60          1           0      -10.724053   -1.792217    1.796782
     61          1           0      -12.349480   -2.211320    2.339582
     62          1           0      -13.322523   -3.014714    0.410968
     63          1           0      -11.820690   -3.134592   -0.248059
     64          1           0      -13.052577   -2.364775   -1.359339
     65          1           0        8.676972   -0.460408    0.397340
     66          1           0      -10.040239   -2.058126   -1.056311
     67          1           0       10.742786    1.560570   -2.179303
     68          1           0       12.328052    2.040622   -1.600474
     69          1           0       12.005602    0.956566   -2.909503
     70          1           0      -11.128475    2.625991   -2.019882
     71          1           0       -9.665160    1.331396   -1.872009
     72          1           0       -9.866139    2.619100   -0.751476
     73          1           0       14.653762   -3.590082   -0.310159
     74          1           0      -15.385468    1.097285    1.719493
     75          1           0       10.359653    2.461000    0.136421
     76          1           0       -8.761658    0.624638    0.230792
     77          1           0        8.979298    4.188304    0.520825
     78          1           0        7.449773    4.307155   -0.498358
     79          1           0        7.673489    4.025148    1.450807
     80          1           0       -8.097527   -3.189369   -0.010389
     81          1           0       -7.978842   -3.038776   -1.886864
     82          1           0       -6.563243   -3.079351   -0.977205
     83          1           0        6.700409    0.537213    0.212280
     84          1           0       -6.384690    0.407135   -0.130488
     85          1           0        5.504830    3.267979    0.325087
     86          1           0       -5.053478   -2.303962   -0.755470
     87          1           0        4.680248    0.161002   -0.385303
     88          1           0       -4.100755    0.609269   -0.037730
     89          1           0        3.039248    3.422107    1.573203
     90          1           0        1.862032    3.512439    0.041749
     91          1           0        3.322001    3.912196   -0.496826
     92          1           0       -2.449083   -2.845965    0.092819
     93          1           0       -2.876230   -2.439325   -1.814703
     94          1           0       -1.326360   -2.345688   -1.406385
     95          1           0        2.631599   -0.131069   -0.369677
     96          1           0       -2.013822    1.025315   -0.002530
     97          1           0        0.467750    1.909488    0.232704
     98          1           0       -0.030156   -0.885600   -0.946750
 ---------------------------------------------------------------------
 Rotational constants (GHZ):           0.2369247           0.0094038           0.0091873
 Standard basis: 6-31G(d,p) (6D, 7F)
 There are   910 symmetry adapted cartesian basis functions of A   symmetry.
 There are   910 symmetry adapted basis functions of A   symmetry.
   910 basis functions,  1568 primitive gaussians,   910 cartesian basis functions
   156 alpha electrons      156 beta electrons
       nuclear repulsion energy      3980.6612252116 Hartrees.
 NAtoms=   98 NActive=   98 NUniq=   98 SFac= 1.00D+00 NAtFMM=   60 NAOKFM=T Big=T
 Integral buffers will be    131072 words long.
 Raffenetti 1 integral format.
 Two-electron integral symmetry is turned on.
 One-electron integrals computed using PRISM.
 NBasis=   910 RedAO= T EigKep=  9.13D-04  NBF=   910
 NBsUse=   910 1.00D-06 EigRej= -1.00D+00 NBFU=   910
 ExpMin= 1.61D-01 ExpMax= 5.48D+03 ExpMxC= 8.25D+02 IAcc=3 IRadAn=         5 AccDes= 0.00D+00
 Harris functional with IExCor=20419 and IRadAn=       5 diagonalized for initial guess.
 HarFok:  IExCor=20419 AccDes= 0.00D+00 IRadAn=         5 IDoV= 1 UseB2=F ITyADJ=14
 ICtDFT=  3500011 ScaDFX=  1.000000  1.000000  1.000000  1.000000
 FoFCou: FMM=F IPFlag=           0 FMFlag=      100000 FMFlg1=        2001
         NFxFlg=           0 DoJE=T BraDBF=F KetDBF=T FulRan=T
         wScrn=  0.000000 ICntrl=       500 IOpCl=  0 I1Cent=   200000004 NGrid=           0
         NMat0=    1 NMatS0=      1 NMatT0=    0 NMatD0=    1 NMtDS0=    0 NMtDT0=    0
 Petite list used in FoFCou.
 Requested convergence on RMS density matrix=1.00D-08 within 128 cycles.
 Requested convergence on MAX density matrix=1.00D-06.
 Requested convergence on             energy=1.00D-06.
 No special actions if energy rises.
 Integral accuracy reduced to 1.0D-05 until final iterations.
 Initial convergence to 1.0D-05 achieved.  Increase integral accuracy.
 SCF Done:  E(RCAM-B3LYP) =  -1706.86617783     A.U. after   16 cycles
            NFock= 16  Conv=0.68D-08     -V/T= 2.0102
 DoSCS=F DFT=T ScalE2(SS,OS)=  1.000000  1.000000
 ExpMin= 1.61D-01 ExpMax= 5.48D+03 ExpMxC= 8.25D+02 IAcc=3 IRadAn=         5 AccDes= 0.00D+00
 HarFok:  IExCor=  205 AccDes= 0.00D+00 IRadAn=         5 IDoV=-2 UseB2=F ITyADJ=14
 ICtDFT= 12500011 ScaDFX=  1.000000  1.000000  1.000000  1.000000
 GSVD:  LWork=       -2100 too small for GESVD, short by        9450 words or        9450 for optimal perf.
 Range of M.O.s used for correlation:    43   910
 NBasis=   910 NAE=   156 NBE=   156 NFC=    42 NFV=     0
 NROrb=    868 NOA=   114 NOB=   114 NVA=   754 NVB=   754
 Orbital symmetries:
       Occupied  (A) (A) (A) (A) (A) (A) (A) (A) (A) (A) (A) (A)
                 (A) (A) (A) (A) (A) (A) (A) (A) (A) (A) (A) (A)
                 (A) (A) (A) (A) (A) (A) (A) (A) (A) (A) (A) (A)
                 (A) (A) (A) (A) (A) (A) (A) (A) (A) (A) (A) (A)
                 (A) (A) (A) (A) (A) (A) (A) (A) (A) (A) (A) (A)
                 (A) (A) (A) (A) (A) (A) (A) (A) (A) (A) (A) (A)
                 (A) (A) (A) (A) (A) (A) (A) (A) (A) (A) (A) (A)
                 (A) (A) (A) (A) (A) (A) (A) (A) (A) (A) (A) (A)
                 (A) (A) (A) (A) (A) (A) (A) (A) (A) (A) (A) (A)
                 (A) (A) (A) (A) (A) (A) (A) (A) (A) (A) (A) (A)
                 (A) (A) (A) (A) (A) (A) (A) (A) (A) (A) (A) (A)
                 (A) (A) (A) (A) (A) (A) (A) (A) (A) (A) (A) (A)
                 (A) (A) (A) (A) (A) (A) (A) (A) (A) (A) (A) (A)
       Virtual   (A) (A) (A) (A) (A) (A) (A) (A) (A) (A) (A) (A)
                 (A) (A) (A) (A) (A) (A) (A) (A) (A) (A) (A) (A)
                 (A) (A) (A) (A) (A) (A) (A) (A) (A) (A) (A) (A)
                 (A) (A) (A) (A) (A) (A) (A) (A) (A) (A) (A) (A)
                 (A) (A) (A) (A) (A) (A) (A) (A) (A) (A) (A) (A)
                 (A) (A) (A) (A) (A) (A) (A) (A) (A) (A) (A) (A)
                 (A) (A) (A) (A) (A) (A) (A) (A) (A) (A) (A) (A)
                 (A) (A) (A) (A) (A) (A) (A) (A) (A) (A) (A) (A)
                 (A) (A) (A) (A) (A) (A) (A) (A) (A) (A) (A) (A)
                 (A) (A) (A) (A) (A) (A) (A) (A) (A) (A) (A) (A)
                 (A) (A) (A) (A) (A) (A) (A) (A) (A) (A) (A) (A)
                 (A) (A) (A) (A) (A) (A) (A) (A) (A) (A) (A) (A)
                 (A) (A) (A) (A) (A) (A) (A) (A) (A) (A) (A) (A)
                 (A) (A) (A) (A) (A) (A) (A) (A) (A) (A) (A) (A)
                 (A) (A) (A) (A) (A) (A) (A) (A) (A) (A) (A) (A)
                 (A) (A) (A) (A) (A) (A) (A) (A) (A) (A) (A) (A)
                 (A) (A) (A) (A) (A) (A) (A) (A) (A) (A) (A) (A)
                 (A) (A) (A) (A) (A) (A) (A) (A) (A) (A) (A) (A)
                 (A) (A) (A) (A) (A) (A) (A) (A) (A) (A) (A) (A)
                 (A) (A) (A) (A) (A) (A) (A) (A) (A) (A) (A) (A)
                 (A) (A) (A) (A) (A) (A) (A) (A) (A) (A) (A) (A)
                 (A) (A) (A) (A) (A) (A) (A) (A) (A) (A) (A) (A)
                 (A) (A) (A) (A) (A) (A) (A) (A) (A) (A) (A) (A)
                 (A) (A) (A) (A) (A) (A) (A) (A) (A) (A) (A) (A)
                 (A) (A) (A) (A) (A) (A) (A) (A) (A) (A) (A) (A)
                 (A) (A) (A) (A) (A) (A) (A) (A) (A) (A) (A) (A)
                 (A) (A) (A) (A) (A) (A) (A) (A) (A) (A) (A) (A)
                 (A) (A) (A) (A) (A) (A) (A) (A) (A) (A) (A) (A)
                 (A) (A) (A) (A) (A) (A) (A) (A) (A) (A) (A) (A)
                 (A) (A) (A) (A) (A) (A) (A) (A) (A) (A) (A) (A)
                 (A) (A) (A) (A) (A) (A) (A) (A) (A) (A) (A) (A)
                 (A) (A) (A) (A) (A) (A) (A) (A) (A) (A) (A) (A)
                 (A) (A) (A) (A) (A) (A) (A) (A) (A) (A) (A) (A)
                 (A) (A) (A) (A) (A) (A) (A) (A) (A) (A) (A) (A)
                 (A) (A) (A) (A) (A) (A) (A) (A) (A) (A) (A) (A)
                 (A) (A) (A) (A) (A) (A) (A) (A) (A) (A) (A) (A)
                 (A) (A) (A) (A) (A) (A) (A) (A) (A) (A) (A) (A)
                 (A) (A) (A) (A) (A) (A) (A) (A) (A) (A) (A) (A)
                 (A) (A) (A) (A) (A) (A) (A) (A) (A) (A) (A) (A)
                 (A) (A) (A) (A) (A) (A) (A) (A) (A) (A) (A) (A)
                 (A) (A) (A) (A) (A) (A) (A) (A) (A) (A) (A) (A)
                 (A) (A) (A) (A) (A) (A) (A) (A) (A) (A) (A) (A)
                 (A) (A) (A) (A) (A) (A) (A) (A) (A) (A) (A) (A)
                 (A) (A) (A) (A) (A) (A) (A) (A) (A) (A) (A) (A)
                 (A) (A) (A) (A) (A) (A) (A) (A) (A) (A) (A) (A)
                 (A) (A) (A) (A) (A) (A) (A) (A) (A) (A) (A) (A)
                 (A) (A) (A) (A) (A) (A) (A) (A) (A) (A) (A) (A)
                 (A) (A) (A) (A) (A) (A) (A) (A) (A) (A) (A) (A)
                 (A) (A) (A) (A) (A) (A) (A) (A) (A) (A) (A) (A)
                 (A) (A) (A) (A) (A) (A) (A) (A) (A) (A) (A) (A)
                 (A) (A) (A) (A) (A) (A) (A) (A) (A) (A) (A) (A)
                 (A) (A) (A) (A) (A) (A) (A) (A) (A) (A) (A) (A)
                 (A) (A) (A) (A) (A) (A) (A) (A) (A) (A) (A) (A)
                 (A) (A) (A) (A) (A) (A) (A) (A) (A) (A) (A) (A)
                 (A) (A) (A) (A) (A) (A) (A) (A) (A) (A) (A) (A)
                 (A) (A) (A) (A) (A) (A) (A) (A) (A) (A) (A) (A)
                 (A) (A) (A) (A) (A) (A) (A) (A) (A) (A) (A) (A)
                 (A) (A) (A) (A) (A) (A) (A) (A) (A) (A) (A) (A)
                 (A) (A) (A) (A) (A) (A) (A) (A) (A) (A) (A) (A)
                 (A) (A) (A) (A) (A) (A) (A) (A) (A) (A) (A) (A)
                 (A) (A) (A) (A) (A) (A) (A) (A) (A) (A) (A) (A)
                 (A) (A) (A) (A) (A) (A) (A) (A) (A) (A) (A) (A)
                 (A) (A) (A) (A) (A) (A) (A) (A) (A) (A)
     4 initial guesses have been made.
 Convergence on wavefunction:    0.001000000000000
 Iteration     1 Dimension     4 NMult     0 NNew      4
 CISAX will form     4 AO SS matrices at one time.
 Iteration     2 Dimension     6 NMult     4 NNew      2
 Iteration     3 Dimension     8 NMult     6 NNew      2
 Iteration     4 Dimension    10 NMult     8 NNew      2
 Iteration     5 Dimension    12 NMult    10 NNew      2
 Iteration     6 Dimension    14 NMult    12 NNew      2
 ***********************************************************************
 Excited states from <AA,BB:AA,BB> singles matrix:
 ***********************************************************************
 
 Ground to excited state transition densities written to RWF  633
 Ground to excited state transition electric dipole moments (Au):
       state          X           Y           Z        Dip. S.      Osc.
         1        -8.7148     -1.3639     -0.3782     77.9505      3.6065
 Ground to excited state transition velocity dipole moments (Au):
       state          X           Y           Z        Dip. S.      Osc.
         1         0.5840      0.0900      0.0255      0.3497      3.3597
 Ground to excited state transition magnetic dipole moments (Au):
       state          X           Y           Z
         1         0.1296     -0.2136     -1.1142
 Ground to excited state transition velocity quadrupole moments (Au):
       state          XX          YY          ZZ          XY          XZ          YZ
         1         1.5857      0.2392      0.0156      0.1362     -0.1505     -0.0442
 <0|del|b> * <b|rxdel|0> + <0|del|b> * <b|delr+rdel|0>
 Rotatory Strengths (R) in cgs (10**-40 erg-esu-cm/Gauss)
       state          XX          YY          ZZ    R(velocity)    E-M Angle
         1      -155.7842     91.9268    350.2797     95.4741       87.61
 1/2[<0|r|b>*<b|rxdel|0> + (<0|rxdel|b>*<b|r|0>)*]
 Rotatory Strengths (R) in cgs (10**-40 erg-esu-cm/Gauss)
       state          XX          YY          ZZ     R(length)
         1       798.7543   -206.0705   -297.9793     98.2348
  1/2[<0|del|b>*<b|r|0> + (<0|r|b>*<b|del|0>)*] (Au)
       state          X           Y           Z        Dip. S.   Osc.(frdel)
         1        -5.0891     -0.1227     -0.0096      5.2214      3.4809

 Excitation energies and oscillator strengths:
 
 Excited State   1:      Singlet-A      1.8885 eV  656.53 nm  f=3.6065  <S**2>=0.000
     155 ->158        -0.13237
     156 ->157         0.70110
     156 <-157        -0.12069
 This state for optimization and/or second-order correction.
 Total Energy, E(TD-HF/TD-DFT) =  -1706.79677734    
 Copying the excited state density for this state as the 1-particle RhoCI density.
 SavETr:  write IOETrn=   770 NScale= 10 NData=  16 NLR=1 NState=    1 LETran=      28.

 **********************************************************************

            Population analysis using the SCF density.

 **********************************************************************

 Orbital symmetries:
       Occupied  (A) (A) (A) (A) (A) (A) (A) (A) (A) (A) (A) (A)
                 (A) (A) (A) (A) (A) (A) (A) (A) (A) (A) (A) (A)
                 (A) (A) (A) (A) (A) (A) (A) (A) (A) (A) (A) (A)
                 (A) (A) (A) (A) (A) (A) (A) (A) (A) (A) (A) (A)
                 (A) (A) (A) (A) (A) (A) (A) (A) (A) (A) (A) (A)
                 (A) (A) (A) (A) (A) (A) (A) (A) (A) (A) (A) (A)
                 (A) (A) (A) (A) (A) (A) (A) (A) (A) (A) (A) (A)
                 (A) (A) (A) (A) (A) (A) (A) (A) (A) (A) (A) (A)
                 (A) (A) (A) (A) (A) (A) (A) (A) (A) (A) (A) (A)
                 (A) (A) (A) (A) (A) (A) (A) (A) (A) (A) (A) (A)
                 (A) (A) (A) (A) (A) (A) (A) (A) (A) (A) (A) (A)
                 (A) (A) (A) (A) (A) (A) (A) (A) (A) (A) (A) (A)
                 (A) (A) (A) (A) (A) (A) (A) (A) (A) (A) (A) (A)
       Virtual   (A) (A) (A) (A) (A) (A) (A) (A) (A) (A) (A) (A)
                 (A) (A) (A) (A) (A) (A) (A) (A) (A) (A) (A) (A)
                 (A) (A) (A) (A) (A) (A) (A) (A) (A) (A) (A) (A)
                 (A) (A) (A) (A) (A) (A) (A) (A) (A) (A) (A) (A)
                 (A) (A) (A) (A) (A) (A) (A) (A) (A) (A) (A) (A)
                 (A) (A) (A) (A) (A) (A) (A) (A) (A) (A) (A) (A)
                 (A) (A) (A) (A) (A) (A) (A) (A) (A) (A) (A) (A)
                 (A) (A) (A) (A) (A) (A) (A) (A) (A) (A) (A) (A)
                 (A) (A) (A) (A) (A) (A) (A) (A) (A) (A) (A) (A)
                 (A) (A) (A) (A) (A) (A) (A) (A) (A) (A) (A) (A)
                 (A) (A) (A) (A) (A) (A) (A) (A) (A) (A) (A) (A)
                 (A) (A) (A) (A) (A) (A) (A) (A) (A) (A) (A) (A)
                 (A) (A) (A) (A) (A) (A) (A) (A) (A) (A) (A) (A)
                 (A) (A) (A) (A) (A) (A) (A) (A) (A) (A) (A) (A)
                 (A) (A) (A) (A) (A) (A) (A) (A) (A) (A) (A) (A)
                 (A) (A) (A) (A) (A) (A) (A) (A) (A) (A) (A) (A)
                 (A) (A) (A) (A) (A) (A) (A) (A) (A) (A) (A) (A)
                 (A) (A) (A) (A) (A) (A) (A) (A) (A) (A) (A) (A)
                 (A) (A) (A) (A) (A) (A) (A) (A) (A) (A) (A) (A)
                 (A) (A) (A) (A) (A) (A) (A) (A) (A) (A) (A) (A)
                 (A) (A) (A) (A) (A) (A) (A) (A) (A) (A) (A) (A)
                 (A) (A) (A) (A) (A) (A) (A) (A) (A) (A) (A) (A)
                 (A) (A) (A) (A) (A) (A) (A) (A) (A) (A) (A) (A)
                 (A) (A) (A) (A) (A) (A) (A) (A) (A) (A) (A) (A)
                 (A) (A) (A) (A) (A) (A) (A) (A) (A) (A) (A) (A)
                 (A) (A) (A) (A) (A) (A) (A) (A) (A) (A) (A) (A)
                 (A) (A) (A) (A) (A) (A) (A) (A) (A) (A) (A) (A)
                 (A) (A) (A) (A) (A) (A) (A) (A) (A) (A) (A) (A)
                 (A) (A) (A) (A) (A) (A) (A) (A) (A) (A) (A) (A)
                 (A) (A) (A) (A) (A) (A) (A) (A) (A) (A) (A) (A)
                 (A) (A) (A) (A) (A) (A) (A) (A) (A) (A) (A) (A)
                 (A) (A) (A) (A) (A) (A) (A) (A) (A) (A) (A) (A)
                 (A) (A) (A) (A) (A) (A) (A) (A) (A) (A) (A) (A)
                 (A) (A) (A) (A) (A) (A) (A) (A) (A) (A) (A) (A)
                 (A) (A) (A) (A) (A) (A) (A) (A) (A) (A) (A) (A)
                 (A) (A) (A) (A) (A) (A) (A) (A) (A) (A) (A) (A)
                 (A) (A) (A) (A) (A) (A) (A) (A) (A) (A) (A) (A)
                 (A) (A) (A) (A) (A) (A) (A) (A) (A) (A) (A) (A)
                 (A) (A) (A) (A) (A) (A) (A) (A) (A) (A) (A) (A)
                 (A) (A) (A) (A) (A) (A) (A) (A) (A) (A) (A) (A)
                 (A) (A) (A) (A) (A) (A) (A) (A) (A) (A) (A) (A)
                 (A) (A) (A) (A) (A) (A) (A) (A) (A) (A) (A) (A)
                 (A) (A) (A) (A) (A) (A) (A) (A) (A) (A) (A) (A)
                 (A) (A) (A) (A) (A) (A) (A) (A) (A) (A) (A) (A)
                 (A) (A) (A) (A) (A) (A) (A) (A) (A) (A) (A) (A)
                 (A) (A) (A) (A) (A) (A) (A) (A) (A) (A) (A) (A)
                 (A) (A) (A) (A) (A) (A) (A) (A) (A) (A) (A) (A)
                 (A) (A) (A) (A) (A) (A) (A) (A) (A) (A) (A) (A)
                 (A) (A) (A) (A) (A) (A) (A) (A) (A) (A) (A) (A)
                 (A) (A) (A) (A) (A) (A) (A) (A) (A) (A) (A) (A)
                 (A) (A) (A) (A) (A) (A) (A) (A) (A) (A) (A) (A)
                 (A) (A) (A) (A) (A) (A) (A) (A) (A) (A) (A) (A)
                 (A) (A) (A) (A) (A) (A) (A) (A) (A) (A) (A) (A)
                 (A) (A) (A) (A) (A) (A) (A) (A) (A) (A) (A) (A)
                 (A) (A) (A) (A) (A) (A) (A) (A) (A) (A) (A) (A)
                 (A) (A) (A) (A) (A) (A) (A) (A) (A) (A) (A) (A)
                 (A) (A) (A) (A) (A) (A) (A) (A) (A) (A) (A) (A)
                 (A) (A) (A) (A) (A) (A) (A) (A) (A) (A) (A) (A)
                 (A) (A) (A) (A) (A) (A) (A) (A) (A) (A) (A) (A)
                 (A) (A) (A) (A) (A) (A) (A) (A) (A) (A) (A) (A)
                 (A) (A) (A) (A) (A) (A) (A) (A) (A) (A) (A) (A)
                 (A) (A) (A) (A) (A) (A) (A) (A) (A) (A) (A) (A)
                 (A) (A) (A) (A) (A) (A) (A) (A) (A) (A)
 The electronic state is 1-A.
 Alpha  occ. eigenvalues --  -19.21841 -19.21241 -10.30339 -10.30099 -10.28365
 Alpha  occ. eigenvalues --  -10.27769 -10.27665 -10.27629 -10.27539 -10.27465
 Alpha  occ. eigenvalues --  -10.27452 -10.27354 -10.27225 -10.27161 -10.27127
 Alpha  occ. eigenvalues --  -10.27102 -10.27056 -10.26988 -10.26944 -10.26764
 Alpha  occ. eigenvalues --  -10.26413 -10.26148 -10.26033 -10.26001 -10.25988
 Alpha  occ. eigenvalues --  -10.25933 -10.25917 -10.25905 -10.25666 -10.25560
 Alpha  occ. eigenvalues --  -10.25534 -10.25473 -10.25152 -10.25056 -10.25005
 Alpha  occ. eigenvalues --  -10.25002 -10.24999 -10.24811 -10.24771 -10.24727
 Alpha  occ. eigenvalues --  -10.24474 -10.24120  -1.07145  -1.07124  -0.93778
 Alpha  occ. eigenvalues --   -0.93668  -0.92439  -0.91208  -0.90427  -0.89153
 Alpha  occ. eigenvalues --   -0.87494  -0.86962  -0.86203  -0.85842  -0.84642
 Alpha  occ. eigenvalues --   -0.83097  -0.81543  -0.79884  -0.79586  -0.78395
 Alpha  occ. eigenvalues --   -0.76510  -0.76437  -0.75902  -0.75485  -0.75310
 Alpha  occ. eigenvalues --   -0.75205  -0.74956  -0.74798  -0.73029  -0.70818
 Alpha  occ. eigenvalues --   -0.68819  -0.67008  -0.65520  -0.64749  -0.63922
 Alpha  occ. eigenvalues --   -0.63531  -0.62200  -0.62173  -0.61204  -0.60147
 Alpha  occ. eigenvalues --   -0.59325  -0.58137  -0.57729  -0.57501  -0.56197
 Alpha  occ. eigenvalues --   -0.55528  -0.54947  -0.54317  -0.54220  -0.53626
 Alpha  occ. eigenvalues --   -0.53241  -0.52676  -0.51898  -0.51177  -0.50622
 Alpha  occ. eigenvalues --   -0.50273  -0.49584  -0.49136  -0.48980  -0.48801
 Alpha  occ. eigenvalues --   -0.48612  -0.48381  -0.47868  -0.47736  -0.47654
 Alpha  occ. eigenvalues --   -0.47423  -0.46951  -0.46878  -0.46774  -0.46186
 Alpha  occ. eigenvalues --   -0.45919  -0.45266  -0.45159  -0.44999  -0.44788
 Alpha  occ. eigenvalues --   -0.44410  -0.44253  -0.43956  -0.43237  -0.42963
 Alpha  occ. eigenvalues --   -0.42698  -0.42177  -0.41765  -0.41648  -0.41496
 Alpha  occ. eigenvalues --   -0.41238  -0.41124  -0.40871  -0.40510  -0.40257
 Alpha  occ. eigenvalues --   -0.40065  -0.40007  -0.39767  -0.39129  -0.38980
 Alpha  occ. eigenvalues --   -0.38811  -0.38720  -0.38329  -0.38284  -0.37802
 Alpha  occ. eigenvalues --   -0.37349  -0.37033  -0.36836  -0.36198  -0.36025
 Alpha  occ. eigenvalues --   -0.35533  -0.34481  -0.33179  -0.32261  -0.31907
 Alpha  occ. eigenvalues --   -0.31843  -0.30039  -0.28185  -0.26283  -0.23418
 Alpha  occ. eigenvalues --   -0.18085
 Alpha virt. eigenvalues --   -0.06706  -0.00863   0.02863   0.05936   0.07996
 Alpha virt. eigenvalues --    0.09107   0.09429   0.10057   0.10941   0.11920
 Alpha virt. eigenvalues --    0.12059   0.12550   0.12577   0.12775   0.13171
 Alpha virt. eigenvalues --    0.13385   0.13661   0.14228   0.14757   0.14921
 Alpha virt. eigenvalues --    0.15160   0.15540   0.15878   0.16095   0.16158
 Alpha virt. eigenvalues --    0.16492   0.17161   0.17207   0.17443   0.17638
 Alpha virt. eigenvalues --    0.17761   0.18616   0.18914   0.19121   0.19242
 Alpha virt. eigenvalues --    0.19779   0.19884   0.20224   0.20384   0.20488
 Alpha virt. eigenvalues --    0.20711   0.21016   0.21548   0.21815   0.21916
 Alpha virt. eigenvalues --    0.22074   0.22409   0.22801   0.23085   0.23342
 Alpha virt. eigenvalues --    0.23717   0.23818   0.24224   0.24573   0.24743
 Alpha virt. eigenvalues --    0.25366   0.25677   0.25754   0.25925   0.26122
 Alpha virt. eigenvalues --    0.26480   0.26611   0.27043   0.27140   0.27342
 Alpha virt. eigenvalues --    0.27782   0.27919   0.28104   0.28580   0.28975
 Alpha virt. eigenvalues --    0.29130   0.29950   0.30263   0.30499   0.30740
 Alpha virt. eigenvalues --    0.31859   0.31914   0.32262   0.32426   0.32774
 Alpha virt. eigenvalues --    0.32947   0.33512   0.33967   0.34878   0.35238
 Alpha virt. eigenvalues --    0.35647   0.36053   0.36685   0.37252   0.38107
 Alpha virt. eigenvalues --    0.38990   0.39567   0.40081   0.41807   0.42575
 Alpha virt. eigenvalues --    0.42890   0.43463   0.43944   0.44548   0.45487
 Alpha virt. eigenvalues --    0.46176   0.46648   0.47626   0.49166   0.50317
 Alpha virt. eigenvalues --    0.51073   0.51408   0.52273   0.53440   0.53855
 Alpha virt. eigenvalues --    0.54340   0.55424   0.55611   0.56158   0.57128
 Alpha virt. eigenvalues --    0.57251   0.57733   0.58205   0.58549   0.58776
 Alpha virt. eigenvalues --    0.59227   0.59552   0.59639   0.59861   0.60604
 Alpha virt. eigenvalues --    0.60742   0.60971   0.61117   0.61879   0.62219
 Alpha virt. eigenvalues --    0.62442   0.62657   0.62983   0.63452   0.63972
 Alpha virt. eigenvalues --    0.64086   0.64400   0.64699   0.65091   0.65466
 Alpha virt. eigenvalues --    0.65612   0.65889   0.66092   0.66595   0.67064
 Alpha virt. eigenvalues --    0.67240   0.67438   0.67634   0.67905   0.68372
 Alpha virt. eigenvalues --    0.68521   0.68875   0.69298   0.69639   0.69980
 Alpha virt. eigenvalues --    0.70903   0.70968   0.71290   0.71504   0.71613
 Alpha virt. eigenvalues --    0.72291   0.72631   0.72850   0.73141   0.73443
 Alpha virt. eigenvalues --    0.74026   0.74620   0.74841   0.75257   0.75451
 Alpha virt. eigenvalues --    0.75643   0.76305   0.76799   0.76912   0.77359
 Alpha virt. eigenvalues --    0.77966   0.78189   0.78224   0.78455   0.79243
 Alpha virt. eigenvalues --    0.79548   0.79704   0.79837   0.80177   0.80539
 Alpha virt. eigenvalues --    0.80766   0.81544   0.81706   0.82013   0.82328
 Alpha virt. eigenvalues --    0.82889   0.83129   0.83197   0.83584   0.84162
 Alpha virt. eigenvalues --    0.84534   0.84828   0.84882   0.85005   0.85671
 Alpha virt. eigenvalues --    0.85817   0.86033   0.86273   0.86956   0.87078
 Alpha virt. eigenvalues --    0.87361   0.87659   0.87833   0.88114   0.88371
 Alpha virt. eigenvalues --    0.88897   0.89138   0.89676   0.89908   0.90109
 Alpha virt. eigenvalues --    0.90321   0.91084   0.91329   0.91717   0.91974
 Alpha virt. eigenvalues --    0.92037   0.92630   0.92886   0.93265   0.93555
 Alpha virt. eigenvalues --    0.93699   0.94072   0.94227   0.95155   0.95336
 Alpha virt. eigenvalues --    0.95507   0.95738   0.96443   0.96677   0.96811
 Alpha virt. eigenvalues --    0.97035   0.97170   0.97298   0.97629   0.98010
 Alpha virt. eigenvalues --    0.98258   0.98613   0.98657   0.99267   0.99560
 Alpha virt. eigenvalues --    0.99856   1.00074   1.00212   1.00636   1.01080
 Alpha virt. eigenvalues --    1.01141   1.01609   1.02028   1.02496   1.02624
 Alpha virt. eigenvalues --    1.02734   1.03002   1.03206   1.04073   1.04248
 Alpha virt. eigenvalues --    1.05088   1.05304   1.05542   1.05757   1.06177
 Alpha virt. eigenvalues --    1.06419   1.07431   1.08465   1.08688   1.09373
 Alpha virt. eigenvalues --    1.10028   1.10642   1.11151   1.11637   1.12382
 Alpha virt. eigenvalues --    1.12594   1.13130   1.13384   1.14069   1.14441
 Alpha virt. eigenvalues --    1.15307   1.15873   1.16625   1.16802   1.17156
 Alpha virt. eigenvalues --    1.17556   1.18228   1.18922   1.19999   1.20544
 Alpha virt. eigenvalues --    1.21920   1.22682   1.23745   1.24167   1.24950
 Alpha virt. eigenvalues --    1.25907   1.26946   1.28054   1.28613   1.29333
 Alpha virt. eigenvalues --    1.30242   1.30778   1.31030   1.32051   1.32949
 Alpha virt. eigenvalues --    1.33594   1.34119   1.35095   1.35701   1.36025
 Alpha virt. eigenvalues --    1.37112   1.37617   1.38176   1.38656   1.39489
 Alpha virt. eigenvalues --    1.40973   1.41180   1.41687   1.42175   1.42503
 Alpha virt. eigenvalues --    1.43630   1.44293   1.44515   1.44670   1.46342
 Alpha virt. eigenvalues --    1.46947   1.47808   1.48304   1.48420   1.49654
 Alpha virt. eigenvalues --    1.50543   1.50664   1.51215   1.52690   1.53046
 Alpha virt. eigenvalues --    1.53590   1.54303   1.55188   1.55459   1.56238
 Alpha virt. eigenvalues --    1.56568   1.57409   1.58047   1.58276   1.58843
 Alpha virt. eigenvalues --    1.59728   1.61175   1.61589   1.62260   1.63143
 Alpha virt. eigenvalues --    1.64029   1.64692   1.64759   1.64809   1.65803
 Alpha virt. eigenvalues --    1.66045   1.66983   1.69233   1.70505   1.71097
 Alpha virt. eigenvalues --    1.71219   1.72990   1.73746   1.73913   1.76622
 Alpha virt. eigenvalues --    1.76658   1.77573   1.79084   1.79437   1.79772
 Alpha virt. eigenvalues --    1.80426   1.80857   1.81303   1.81977   1.82851
 Alpha virt. eigenvalues --    1.83280   1.83358   1.83418   1.84244   1.84535
 Alpha virt. eigenvalues --    1.84669   1.85383   1.85684   1.85899   1.86472
 Alpha virt. eigenvalues --    1.87022   1.87399   1.88505   1.88601   1.89103
 Alpha virt. eigenvalues --    1.89208   1.89235   1.89451   1.89754   1.90120
 Alpha virt. eigenvalues --    1.90315   1.90746   1.91119   1.91372   1.92028
 Alpha virt. eigenvalues --    1.92102   1.92197   1.93063   1.93391   1.93915
 Alpha virt. eigenvalues --    1.94561   1.94899   1.95325   1.95469   1.95769
 Alpha virt. eigenvalues --    1.96104   1.97334   1.98149   1.98263   1.98530
 Alpha virt. eigenvalues --    1.99031   1.99362   1.99806   2.00179   2.00545
 Alpha virt. eigenvalues --    2.00767   2.01297   2.01741   2.02154   2.03355
 Alpha virt. eigenvalues --    2.03658   2.03926   2.04533   2.04714   2.05011
 Alpha virt. eigenvalues --    2.05708   2.05752   2.06299   2.06473   2.06673
 Alpha virt. eigenvalues --    2.07061   2.07605   2.08050   2.09478   2.09749
 Alpha virt. eigenvalues --    2.10494   2.10563   2.10733   2.10914   2.11028
 Alpha virt. eigenvalues --    2.11629   2.12120   2.12264   2.12515   2.13341
 Alpha virt. eigenvalues --    2.13846   2.14220   2.14495   2.14721   2.15217
 Alpha virt. eigenvalues --    2.15550   2.15866   2.16155   2.16510   2.16951
 Alpha virt. eigenvalues --    2.17286   2.17639   2.17678   2.18587   2.19021
 Alpha virt. eigenvalues --    2.19465   2.19818   2.20168   2.20622   2.21194
 Alpha virt. eigenvalues --    2.21470   2.22185   2.22413   2.22926   2.23234
 Alpha virt. eigenvalues --    2.23937   2.24236   2.24774   2.25654   2.25713
 Alpha virt. eigenvalues --    2.26096   2.26446   2.26980   2.27445   2.28247
 Alpha virt. eigenvalues --    2.28656   2.28807   2.30011   2.30113   2.30820
 Alpha virt. eigenvalues --    2.31098   2.31611   2.32012   2.32487   2.32794
 Alpha virt. eigenvalues --    2.33834   2.34111   2.34541   2.35830   2.36920
 Alpha virt. eigenvalues --    2.37044   2.37279   2.37842   2.38247   2.38403
 Alpha virt. eigenvalues --    2.39039   2.39224   2.39632   2.39931   2.40803
 Alpha virt. eigenvalues --    2.41115   2.41151   2.41769   2.42494   2.42664
 Alpha virt. eigenvalues --    2.42853   2.43425   2.44309   2.44544   2.44622
 Alpha virt. eigenvalues --    2.45295   2.46289   2.46555   2.47035   2.47126
 Alpha virt. eigenvalues --    2.47479   2.48050   2.48102   2.49178   2.49511
 Alpha virt. eigenvalues --    2.50220   2.50563   2.50966   2.52044   2.52186
 Alpha virt. eigenvalues --    2.52769   2.53083   2.53411   2.54083   2.55171
 Alpha virt. eigenvalues --    2.55287   2.55654   2.55897   2.56287   2.57123
 Alpha virt. eigenvalues --    2.57589   2.57975   2.58750   2.58832   2.59267
 Alpha virt. eigenvalues --    2.59463   2.59872   2.60395   2.60638   2.61167
 Alpha virt. eigenvalues --    2.61691   2.62584   2.62702   2.63887   2.64453
 Alpha virt. eigenvalues --    2.64666   2.64866   2.65120   2.65681   2.66837
 Alpha virt. eigenvalues --    2.67221   2.67607   2.68464   2.68706   2.68891
 Alpha virt. eigenvalues --    2.69189   2.69890   2.70668   2.71472   2.71748
 Alpha virt. eigenvalues --    2.72042   2.72563   2.72950   2.73083   2.73730
 Alpha virt. eigenvalues --    2.74055   2.74550   2.74574   2.75096   2.75869
 Alpha virt. eigenvalues --    2.76165   2.76987   2.77590   2.78107   2.78363
 Alpha virt. eigenvalues --    2.78880   2.79267   2.79959   2.80250   2.80613
 Alpha virt. eigenvalues --    2.80781   2.81892   2.81976   2.82598   2.82819
 Alpha virt. eigenvalues --    2.83557   2.83646   2.83771   2.84513   2.85315
 Alpha virt. eigenvalues --    2.85529   2.86133   2.86573   2.86757   2.87082
 Alpha virt. eigenvalues --    2.87988   2.88620   2.89371   2.89710   2.89985
 Alpha virt. eigenvalues --    2.90057   2.90212   2.90611   2.92366   2.92440
 Alpha virt. eigenvalues --    2.92853   2.93082   2.93503   2.93946   2.94605
 Alpha virt. eigenvalues --    2.94995   2.95499   2.96284   2.96662   2.97615
 Alpha virt. eigenvalues --    2.98238   2.98586   2.99307   3.00598   3.01362
 Alpha virt. eigenvalues --    3.01834   3.02589   3.02760   3.03536   3.03692
 Alpha virt. eigenvalues --    3.04363   3.05125   3.05334   3.06785   3.08237
 Alpha virt. eigenvalues --    3.09031   3.09936   3.11298   3.12838   3.13354
 Alpha virt. eigenvalues --    3.14000   3.14383   3.15857   3.18352   3.18516
 Alpha virt. eigenvalues --    3.19179   3.19492   3.19664   3.20060   3.21910
 Alpha virt. eigenvalues --    3.22982   3.23689   3.24261   3.25181   3.26089
 Alpha virt. eigenvalues --    3.27695   3.29855   3.30196   3.31031   3.32365
 Alpha virt. eigenvalues --    3.34495   3.36217   3.36935   3.37768   3.38851
 Alpha virt. eigenvalues --    3.39014   3.41541   3.41868   3.42317   3.43266
 Alpha virt. eigenvalues --    3.44807   3.45186   3.47160   3.47894   3.48539
 Alpha virt. eigenvalues --    3.49655   3.52110   3.52718   3.53010   3.53809
 Alpha virt. eigenvalues --    3.54543   3.55394   3.55811   3.56254   3.57056
 Alpha virt. eigenvalues --    3.57367   3.57759   3.58330   3.59667   3.60999
 Alpha virt. eigenvalues --    3.63091   3.65037   3.66487   3.67043   3.68178
 Alpha virt. eigenvalues --    3.68765   3.73952   3.77873   3.85062   3.97711
 Alpha virt. eigenvalues --    4.02482   4.08719   4.09051   4.11375   4.18567
 Alpha virt. eigenvalues --    4.19335   4.20361   4.21346   4.23462   4.25786
 Alpha virt. eigenvalues --    4.26699   4.27961   4.30570   4.32487   4.35401
 Alpha virt. eigenvalues --    4.38276   4.39666   4.41759   4.44432   4.46205
 Alpha virt. eigenvalues --    4.48192   4.48884   4.50128   4.53618   4.54621
 Alpha virt. eigenvalues --    4.55299   4.55524   4.57876   4.58442   4.61568
 Alpha virt. eigenvalues --    4.62295   4.64215   4.67321   4.67340   4.71461
 Alpha virt. eigenvalues --    4.72292   4.73994   4.77880   4.80622   4.81120
 Alpha virt. eigenvalues --    4.82552   4.86817   4.89350   4.90876
          Condensed to atoms (all electrons):
 Mulliken charges:
               1
     1  O   -0.584776
     2  O   -0.574812
     3  C   -0.010552
     4  C   -0.004250
     5  C   -0.177655
     6  C   -0.178484
     7  C    0.185229
     8  C    0.192355
     9  C    0.070378
    10  C    0.073087
    11  C   -0.207918
    12  C   -0.210644
    13  C    0.047814
    14  C    0.038624
    15  C   -0.292163
    16  C   -0.290146
    17  C   -0.293576
    18  C   -0.317780
    19  C   -0.107075
    20  C   -0.145465
    21  C   -0.374143
    22  C   -0.370468
    23  C   -0.117228
    24  C   -0.074022
    25  C    0.006222
    26  C    0.089468
    27  C   -0.327012
    28  C   -0.366175
    29  C   -0.090765
    30  C   -0.096781
    31  C   -0.075133
    32  C   -0.100603
    33  C   -0.131714
    34  C   -0.112831
    35  C    0.079788
    36  C    0.121974
    37  C   -0.350556
    38  C   -0.366504
    39  C   -0.086974
    40  C   -0.073385
    41  C   -0.053043
    42  C   -0.097359
    43  H    0.082492
    44  H    0.075009
    45  H    0.049477
    46  H    0.118528
    47  H    0.068984
    48  H    0.072020
    49  H    0.119820
    50  H    0.106420
    51  H    0.135776
    52  H    0.100163
    53  H    0.096817
    54  H    0.101931
    55  H    0.102126
    56  H    0.075785
    57  H    0.111131
    58  H    0.095180
    59  H    0.085955
    60  H    0.124264
    61  H    0.088183
    62  H    0.098495
    63  H    0.089728
    64  H    0.097636
    65  H    0.094218
    66  H    0.098443
    67  H    0.130065
    68  H    0.111346
    69  H    0.104257
    70  H    0.085168
    71  H    0.102659
    72  H    0.119382
    73  H    0.312181
    74  H    0.293717
    75  H    0.087391
    76  H    0.084221
    77  H    0.110226
    78  H    0.112288
    79  H    0.134928
    80  H    0.129708
    81  H    0.105726
    82  H    0.097959
    83  H    0.078744
    84  H    0.066438
    85  H    0.094777
    86  H    0.084426
    87  H    0.061408
    88  H    0.078345
    89  H    0.109453
    90  H    0.124141
    91  H    0.081121
    92  H    0.092377
    93  H    0.121703
    94  H    0.108411
    95  H    0.070093
    96  H    0.048066
    97  H    0.057906
    98  H    0.067844
 Sum of Mulliken charges =  -0.00000
 Mulliken charges with hydrogens summed into heavy atoms:
               1
     1  O   -0.272595
     2  O   -0.281095
     3  C   -0.010552
     4  C   -0.004250
     5  C   -0.020154
     6  C   -0.010479
     7  C    0.254214
     8  C    0.264375
     9  C    0.070378
    10  C    0.073087
    11  C    0.018321
    12  C    0.025295
    13  C    0.047814
    14  C    0.038624
    15  C    0.008711
    16  C   -0.008050
    17  C    0.004826
    18  C   -0.031922
    19  C   -0.012857
    20  C   -0.047023
    21  C   -0.028475
    22  C   -0.063259
    23  C   -0.029838
    24  C    0.010199
    25  C    0.006222
    26  C    0.089468
    27  C    0.030431
    28  C   -0.032782
    29  C   -0.012021
    30  C   -0.030342
    31  C    0.019644
    32  C   -0.016177
    33  C   -0.070306
    34  C   -0.034485
    35  C    0.079788
    36  C    0.121974
    37  C   -0.035841
    38  C   -0.044014
    39  C   -0.016881
    40  C   -0.025319
    41  C    0.004863
    42  C   -0.029515
 Electronic spatial extent (au):  <R**2>=         109937.5045
 Charge=             -0.0000 electrons
 Dipole moment (field-independent basis, Debye):
    X=              0.6814    Y=             -2.0791    Z=              0.5665  Tot=              2.2601
 Quadrupole moment (field-independent basis, Debye-Ang):
   XX=           -271.9631   YY=           -239.9640   ZZ=           -261.2559
   XY=             11.8645   XZ=             -8.3897   YZ=              2.6933
 Traceless Quadrupole moment (field-independent basis, Debye-Ang):
   XX=            -14.2355   YY=             17.7637   ZZ=             -3.5282
   XY=             11.8645   XZ=             -8.3897   YZ=              2.6933
 Octapole moment (field-independent basis, Debye-Ang**2):
  XXX=           -234.1802  YYY=            -43.1330  ZZZ=              6.8914  XYY=            184.9445
  XXY=           -440.1150  XXZ=            176.0825  XZZ=            -13.4646  YZZ=             -3.8876
  YYZ=            -10.2440  XYZ=              4.3468
 Hexadecapole moment (field-independent basis, Debye-Ang**3):
 XXXX=        -152166.8920 YYYY=          -4933.8842 ZZZZ=          -1589.6784 XXXY=           2526.7840
 XXXZ=          -2356.9825 YYYX=           -657.6393 YYYZ=             22.4064 ZZZX=           -251.4347
 ZZZY=             44.0269 XXYY=         -23078.0114 XXZZ=         -23827.6180 YYZZ=          -1103.7220
 XXYZ=           -212.3669 YYXZ=             86.2443 ZZXY=            -74.9868
 N-N= 3.980661225212D+03 E-N=-1.191611729303D+04  KE= 1.689557173931D+03
 1\1\GINC-RYZEN-SSD1\SP\RCAM-B3LYP TD-FC\6-31G(d,p)\C40H56O2\PADAWAN\18
 -Jul-2019\0\\# td=(NStates=1) CAM-B3LYP/6-31G(d,p)\\TD\\0,1\O,0,14.525
 1980448,-2.5229452276,-0.3667035934\O,0,-14.7198670507,1.7128865938,1.
 0435038814\C,0,11.1450368497,-1.4429768498,1.0894151025\C,0,-12.319437
 1077,-1.0675383717,0.5167153155\C,0,12.6137149375,-1.9307523713,1.0320
 680988\C,0,-13.5718539044,-0.2985478747,0.6022030323\C,0,13.1690849475
 ,-2.069289251,-0.3446280078\C,0,-13.4334026333,1.1148501461,0.98280953
 2\C,0,10.9770070277,-0.2300006271,0.0455512621\C,0,-11.2544718112,-0.3
 342644333,-0.2983175078\C,0,13.0711976108,-0.7317016553,-0.9897517292\
 C,0,-12.7419466327,1.8287358807,-0.1458439374\C,0,11.8290087699,0.0441
 547984,-0.873259969\C,0,-11.5100716022,1.024959125,-0.5547074667\C,0,1
 0.8257336144,-0.9634017812,2.470200404\C,0,10.1760582258,-2.5912368917
 ,0.668320222\C,0,-11.6622580318,-1.4298226742,1.9006661976\C,0,-12.668
 7333683,-2.4067618981,-0.2250212401\C,0,9.6414693879,0.3232612791,0.27
 15811181\C,0,-9.9995655286,-1.0020029422,-0.5673080158\C,0,11.69953583
 36,1.1816433382,-1.8961216022\C,0,-10.512199508,1.9202915063,-1.288425
 7326\C,0,9.4478486899,1.7079070337,0.1487015102\C,0,-8.8458059776,-0.5
 112730762,-0.2634614481\C,0,8.10955006,2.3662726103,0.2432150965\C,0,-
 7.5671647505,-1.2023385618,-0.4847646455\C,0,8.08626041,3.9213609911,0
 .4656507491\C,0,-7.6018684838,-2.7063202089,-0.8198106661\C,0,6.884078
 3788,1.615500491,0.1558030953\C,0,-6.3802207191,-0.531871449,-0.447403
 6654\C,0,5.6252532393,2.1739116292,0.1249994689\C,0,-5.0574442904,-1.1
 218692598,-0.5510619842\C,0,4.511479934,1.3744536394,-0.0720392889\C,0
 ,-3.9107323702,-0.3449167157,-0.2838011951\C,0,3.1725047415,1.76382077
 31,-0.0782437084\C,0,-2.6219976558,-0.7237124502,-0.4860269577\C,0,2.7
 86490216,3.2061583078,0.3585835164\C,0,-2.314050173,-2.1010235944,-0.9
 499562216\C,0,2.1002591149,0.8250945735,-0.1312138014\C,0,-1.601122072
 2,0.2126291519,-0.1725212031\C,0,0.7657734063,1.1015729713,-0.08130680
 27\C,0,-0.2442542954,0.1496773677,-0.4247934493\H,0,13.4321017902,-1.1
 52648675,1.5139570847\H,0,12.6246359626,-2.8781910332,1.5925769417\H,0
 ,-14.3814811211,-0.8835557975,1.2748584068\H,0,-14.1052940244,-0.29331
 72036,-0.2937712331\H,0,12.6349945065,-2.8225915663,-0.9883493929\H,0,
 -12.8401544474,1.2441683989,1.9658143154\H,0,13.8010546925,0.015414119
 3,-0.6330784888\H,0,13.140989656,-0.8914044975,-2.0607488059\H,0,-13.3
 251777268,2.1057156317,-0.9133940824\H,0,-12.3519511681,2.8788129014,0
 .1800590419\H,0,11.1307157606,-1.7950279318,3.0897936754\H,0,9.7200103
 28,-0.7554653455,2.5949362486\H,0,11.4118349255,-0.100018869,2.9879521
 812\H,0,10.3909353565,-3.0725920332,-0.4948761706\H,0,10.219330936,-3.
 417890432,1.3433137714\H,0,9.0891562326,-2.2099523032,0.6130780288\H,0
 ,-11.7390855946,-0.5322357175,2.7164119382\H,0,-10.7214749865,-1.80506
 30502,1.7927130553\H,0,-12.3465755506,-2.2255299729,2.3354341234\H,0,-
 13.3183022792,-3.0313518311,0.4071688479\H,0,-11.8161868537,-3.1500815
 971,-0.2514222442\H,0,-13.0486427233,-2.3823874306,-1.3635390959\H,0,8
 .678429746,-0.453339745,0.3968368047\H,0,-10.0367084358,-2.0722742913,
 -1.060029805\H,0,10.7426655586,1.5680214721,-2.180770136\H,0,12.327278
 5569,2.0501959625,-1.6019157996\H,0,12.0063023002,0.9648573406,-2.9102
 437134\H,0,-11.1297673777,2.6099765618,-2.0272034413\H,0,-9.6650924872
 ,1.3170657257,-1.8780637734\H,0,-9.8677209561,2.6053531894,-0.75849900
 59\H,0,14.6587550035,-3.5770730344,-0.3070324232\H,0,-15.3859832913,1.
 0793552356,1.7122723232\H,0,10.3580217212,2.4696938774,0.134220247\H,0
 ,-8.7613208681,0.6127858797,0.2254519192\H,0,8.9757152585,4.1957829603
 ,0.5170675478\H,0,7.4463010171,4.3122560866,-0.5025566017\H,0,7.669866
 2466,4.0318842564,1.4468615242\H,0,-8.0930220962,-3.2006747254,-0.0128
 465737\H,0,-7.9740617772,-3.0512951324,-1.8894008291\H,0,-6.5586316352
 ,-3.0896935093,-0.9793833723\H,0,6.7008359386,0.5420174167,0.210603185
 3\H,0,-6.3840353795,0.3975872538,-0.1351186369\H,0,5.5022879338,3.2715
 728293,0.3211786269\H,0,-5.0497554465,-2.3125189299,-0.7578519352\H,0,
 4.6812213151,0.1632010661,-0.3871807861\H,0,-4.1003414381,0.602249597,
 -0.0419729163\H,0,3.0362492529,3.4239342834,1.568610102\H,0,1.85929419
 04,3.5119021722,0.0368182838\H,0,3.3189572757,3.9128479098,-0.50170322
 83\H,0,-2.4449756126,-2.8511074027,0.0914314781\H,0,-2.8721159246,-2.4
 462916912,-1.81648039\H,0,-1.3224426293,-2.3506926193,-1.4078693299\H,
 0,2.6328846515,-0.1310663876,-0.3718233943\H,0,-2.0138660096,1.0205703
 01,-0.0065845655\H,0,0.4666969687,1.9075861856,0.2285948695\H,0,-0.027
 9210071,-0.8888790519,-0.9489765717\\Version=ES64L-G16RevA.03\State=1-
 A\HF=-1706.8661778\RMSD=6.818e-09\PG=C01 [X(C40H56O2)]\\@


      SCIENCE SANS CONSCIENCE N'EST QUE RUINE DE L'AME.

                                                  -- RABELAIS
 Job cpu time:       0 days  8 hours 45 minutes 52.0 seconds.
 Elapsed time:       0 days  2 hours 12 minutes 19.7 seconds.
 File lengths (MBytes):  RWF=   3127 Int=      0 D2E=      0 Chk=     84 Scr=      1
 Normal termination of Gaussian 16 at Thu Jul 18 11:47:38 2019.
