 Entering Gaussian System, Link 0=g16
 Input=Geometria-457-.com
 Output=Geometria-457-.log
 Initial command:
 /usr/local/g16/l1.exe "/home/padawan/israel-mol/zeaxanthin/spectra/emi/Gau-28777.inp" -scrdir="/home/padawan/israel-mol/zeaxanthin/spectra/emi/"
 Entering Link 1 = /usr/local/g16/l1.exe PID=     28779.
  
 Copyright (c) 1988,1990,1992,1993,1995,1998,2003,2009,2016,
            Gaussian, Inc.  All Rights Reserved.
  
 This is part of the Gaussian(R) 16 program.  It is based on
 the Gaussian(R) 09 system (copyright 2009, Gaussian, Inc.),
 the Gaussian(R) 03 system (copyright 2003, Gaussian, Inc.),
 the Gaussian(R) 98 system (copyright 1998, Gaussian, Inc.),
 the Gaussian(R) 94 system (copyright 1995, Gaussian, Inc.),
 the Gaussian 92(TM) system (copyright 1992, Gaussian, Inc.),
 the Gaussian 90(TM) system (copyright 1990, Gaussian, Inc.),
 the Gaussian 88(TM) system (copyright 1988, Gaussian, Inc.),
 the Gaussian 86(TM) system (copyright 1986, Carnegie Mellon
 University), and the Gaussian 82(TM) system (copyright 1983,
 Carnegie Mellon University). Gaussian is a federally registered
 trademark of Gaussian, Inc.
  
 This software contains proprietary and confidential information,
 including trade secrets, belonging to Gaussian, Inc.
  
 This software is provided under written license and may be
 used, copied, transmitted, or stored only in accord with that
 written license.
  
 The following legend is applicable only to US Government
 contracts under FAR:
  
                    RESTRICTED RIGHTS LEGEND
  
 Use, reproduction and disclosure by the US Government is
 subject to restrictions as set forth in subparagraphs (a)
 and (c) of the Commercial Computer Software - Restricted
 Rights clause in FAR 52.227-19.
  
 Gaussian, Inc.
 340 Quinnipiac St., Bldg. 40, Wallingford CT 06492
  
  
 ---------------------------------------------------------------
 Warning -- This program may not be used in any manner that
 competes with the business of Gaussian, Inc. or will provide
 assistance to any competitor of Gaussian, Inc.  The licensee
 of this program is prohibited from giving any competitor of
 Gaussian, Inc. access to this program.  By using this program,
 the user acknowledges that Gaussian, Inc. is engaged in the
 business of creating and licensing software in the field of
 computational chemistry and represents and warrants to the
 licensee that it is not a competitor of Gaussian, Inc. and that
 it will not use this program in any manner prohibited above.
 ---------------------------------------------------------------
  

 Cite this work as:
 Gaussian 16, Revision A.03,
 M. J. Frisch, G. W. Trucks, H. B. Schlegel, G. E. Scuseria, 
 M. A. Robb, J. R. Cheeseman, G. Scalmani, V. Barone, 
 G. A. Petersson, H. Nakatsuji, X. Li, M. Caricato, A. V. Marenich, 
 J. Bloino, B. G. Janesko, R. Gomperts, B. Mennucci, H. P. Hratchian, 
 J. V. Ortiz, A. F. Izmaylov, J. L. Sonnenberg, D. Williams-Young, 
 F. Ding, F. Lipparini, F. Egidi, J. Goings, B. Peng, A. Petrone, 
 T. Henderson, D. Ranasinghe, V. G. Zakrzewski, J. Gao, N. Rega, 
 G. Zheng, W. Liang, M. Hada, M. Ehara, K. Toyota, R. Fukuda, 
 J. Hasegawa, M. Ishida, T. Nakajima, Y. Honda, O. Kitao, H. Nakai, 
 T. Vreven, K. Throssell, J. A. Montgomery, Jr., J. E. Peralta, 
 F. Ogliaro, M. J. Bearpark, J. J. Heyd, E. N. Brothers, K. N. Kudin, 
 V. N. Staroverov, T. A. Keith, R. Kobayashi, J. Normand, 
 K. Raghavachari, A. P. Rendell, J. C. Burant, S. S. Iyengar, 
 J. Tomasi, M. Cossi, J. M. Millam, M. Klene, C. Adamo, R. Cammi, 
 J. W. Ochterski, R. L. Martin, K. Morokuma, O. Farkas, 
 J. B. Foresman, and D. J. Fox, Gaussian, Inc., Wallingford CT, 2016.
 
 ******************************************
 Gaussian 16:  ES64L-G16RevA.03 25-Dec-2016
                19-Jul-2019 
 ******************************************
 %nproc=4
 Will use up to    4 processors via shared memory.
 %Mem=2GB
 -------------------------------------
 # td=(NStates=1) CAM-B3LYP/6-31G(d,p)
 -------------------------------------
 1/38=1,172=1/1;
 2/12=2,17=6,18=5,40=1/2;
 3/5=1,6=6,7=101,11=9,25=1,30=1,74=-40/1,2,3,8;
 4//1;
 5/5=2,38=5/2;
 8/6=1,10=2,108=1/1;
 9/41=1,42=1,70=2/14;
 6/7=2,8=2,9=2,10=2/1;
 99/5=1,9=1/99;
 --
 TD
 --
 Symbolic Z-matrix:
 Charge =  0 Multiplicity = 1
 8                     14.80109  -2.16892  -0.3356 
 8                    -14.7744   2.08462   1.06011 
 6                     11.30205  -1.38854   1.02743 
 6                    -12.36015  -0.99045   0.74469 
 6                     12.80391  -1.76945   1.01126 
 6                    -13.67263  -0.23598   0.74877 
 6                     13.46437  -1.79802  -0.33796 
 6                    -13.488    1.2869    0.9269 
 6                     11.11229  -0.24873   0.06597 
 6                    -11.30511  -0.18057  -0.12481 
 6                     13.31496  -0.49707  -1.04997 
 6                    -12.78037   1.82009  -0.24977 
 6                     11.96733   0.10133  -0.88369 
 6                    -11.53196   1.05872  -0.5781 
 6                     10.92838  -0.91761   2.45868 
 6                     10.39136  -2.67638   0.59076 
 6                    -11.71164  -1.29063   2.1631 
 6                    -12.65682  -2.33502   0.06535 
 6                     9.77886   0.33652   0.18429 
 6                    -10.06492  -0.97359  -0.49363 
 6                     11.78167   1.24439  -1.88793 
 6                    -10.67697   1.80964  -1.52488 
 6                     9.3486    1.58575   0.05043 
 6                    -8.76492  -0.50954  -0.61998 
 6                     8.0212    2.2162    0.24691 
 6                    -7.63551  -1.36427  -0.74603 
 6                     7.87911   3.61139   0.61737 
 6                    -7.69547  -2.72998  -1.1743 
 6                     6.85742   1.47308   0.02057 
 6                    -6.47426  -0.66657  -0.51588 
 6                     5.55199   1.93702   0.35853 
 6                    -5.12275  -1.16545  -0.58945 
 6                     4.40123   1.22273   0.08161 
 6                    -3.92468  -0.32653  -0.41168 
 6                     3.04555   1.66901   0.19062 
 6                    -2.67459  -0.77287  -0.59843 
 6                     2.71135   3.02972   0.57793 
 6                    -2.3055   -2.17571  -0.86193 
 6                     2.06397   0.69028  -0.07135 
 6                    -1.67543   0.17403  -0.33891 
 6                     0.6358    0.93129  -0.16222 
 6                    -0.26991  -0.08804  -0.49295 
 1                     13.37677  -0.9689    1.44678 
 1                     12.88738  -2.74037   1.65442 
 1                    -14.3685  -0.3723    1.49352 
 1                    -14.3837  -0.33681  -0.23313 
 1                     12.96101  -2.55935  -0.89984 
 1                    -12.81421   1.44235   1.68374 
 1                     14.04183   0.09099  -0.8303 
 1                     13.4549  -0.81032  -2.1559 
 1                    -13.52597   2.04312  -0.94902 
 1                    -12.43072   3.01099  -0.08741 
 1                     11.02159  -1.6808    3.04352 
 1                     9.84399  -0.60329   2.54989 
 1                     11.59422  -0.14784   2.83766 
 1                     10.9174  -3.14515  -0.20053 
 1                     10.25353  -3.29509   1.52909 
 1                     9.41294  -2.14466   0.44668 
 1                    -11.81484  -0.22605   2.79155 
 1                    -10.66624  -1.77911   2.34483 
 1                    -12.471   -1.86736   2.57325 
 1                    -13.50312  -2.93094   0.37319 
 1                    -11.86569  -3.01352   0.15839 
 1                    -13.03393  -2.10463  -1.02387 
 1                     9.02493  -0.41169   0.73687 
 1                    -10.25412  -1.9383   -0.88534 
 1                     10.88003   1.53628  -2.09357 
 1                     12.45487   2.14543  -1.79244 
 1                     12.15355   0.80554  -2.92742 
 1                    -11.3397   2.42878  -2.2546 
 1                    -10.17718   1.10178  -2.12205 
 1                    -10.16926   2.42644  -0.96485 
 1                     14.89247  -3.01499   0.04822 
 1                    -15.35632   1.53725   1.60109 
 1                     9.9962    2.44348  -0.18109 
 1                    -8.66751   0.41977  -0.1396 
 1                     8.93634   4.30657   0.2919 
 1                     7.05578   4.13338  -0.01656 
 1                     7.56278   3.78313   1.67648 
 1                    -8.09494  -3.23327  -0.06235 
 1                    -8.37613  -3.04833  -1.85739 
 1                    -6.59676  -3.12936  -1.30087 
 1                     7.07997   0.38019  -0.23917 
 1                    -6.56585   0.34675  -0.1888 
 1                     5.50054   2.95299   0.59677 
 1                    -4.96955  -2.14881  -1.17755 
 1                     4.66644   0.22296  -0.1324 
 1                    -4.14644   0.59377   0.00352 
 1                     3.3715    3.32335   1.46582 
 1                     1.57244   3.07813   0.95297 
 1                     2.95388   3.84404  -0.03589 
 1                    -3.31933  -2.66501  -0.32815 
 1                    -2.29179  -2.48318  -1.92146 
 1                    -1.24106  -2.69692  -0.2973 
 1                     2.35356  -0.27307  -0.09159 
 1                    -1.80979   1.10463  -0.06598 
 1                     0.33783   1.7702    0.15139 
 1                     0.22903  -1.07166  -0.7775 
 
 Stoichiometry    C40H56O2
 Framework group  C1[X(C40H56O2)]
 Deg. of freedom   288
 Full point group                 C1      NOp   1
 Largest Abelian subgroup         C1      NOp   1
 Largest concise Abelian subgroup C1      NOp   1
                         Standard orientation:                         
 ---------------------------------------------------------------------
 Center     Atomic      Atomic             Coordinates (Angstroms)
 Number     Number       Type             X           Y           Z
 ---------------------------------------------------------------------
      1          8           0       14.803532   -2.156451   -0.290165
      2          8           0      -14.777440    2.088227    1.013289
      3          6           0       11.304027   -1.347009    1.054583
      4          6           0      -12.358866   -0.990334    0.774237
      5          6           0       12.806434   -1.726032    1.047234
      6          6           0      -13.672444   -0.237897    0.759979
      7          6           0       13.466281   -1.787660   -0.301174
      8          6           0      -13.489939    1.289254    0.899570
      9          6           0       11.112139   -0.232077    0.064796
     10          6           0      -11.305424   -0.201109   -0.115952
     11          6           0       13.314628   -0.505288   -1.045678
     12          6           0      -12.783660    1.793627   -0.290545
     13          6           0       11.966210    0.095167   -0.893837
     14          6           0      -11.534305    1.026032   -0.600223
     15          6           0       10.930367   -0.840680    2.473700
     16          6           0       10.394999   -2.646756    0.650997
     17          6           0      -11.709233   -1.253720    2.199430
     18          6           0      -12.653908   -2.352034    0.129165
     19          6           0        9.777918    0.354050    0.169019
     20          6           0      -10.064264   -1.001385   -0.465310
     21          6           0       11.778400    1.212275   -1.926478
     22          6           0      -10.680861    1.754075   -1.566079
     23          6           0        9.345770    1.598887    0.003931
     24          6           0       -8.764999   -0.538794   -0.603993
     25          6           0        8.017551    2.232166    0.185141
     26          6           0       -7.634410   -1.394801   -0.709048
     27          6           0        7.873608    3.636048    0.520384
     28          6           0       -7.692585   -2.770957   -1.102715
     29          6           0        6.854740    1.481895   -0.021782
     30          6           0       -6.474065   -0.689845   -0.497166
     31          6           0        5.548800    1.952325    0.305059
     32          6           0       -5.121866   -1.188468   -0.558835
     33          6           0        4.398950    1.229620    0.046828
     34          6           0       -3.924936   -0.343605   -0.402905
     35          6           0        3.042678    1.676552    0.145266
     36          6           0       -2.674287   -0.792699   -0.578989
     37          6           0        2.706685    3.046110    0.498316
     38          6           0       -2.303279   -2.201205   -0.807231
     39          6           0        2.062390    0.690112   -0.091435
     40          6           0       -1.676378    0.161877   -0.343944
     41          6           0        0.633832    0.926687   -0.187614
     42          6           0       -0.270550   -0.101955   -0.492064
     43          1           0       13.378331   -0.913934    1.462139
     44          1           0       12.891628   -2.680307    1.714631
     45          1           0      -14.367749   -0.356405    1.508295
     46          1           0      -14.383840   -0.364476   -0.218688
     47          1           0       12.963750   -2.563633   -0.843423
     48          1           0      -12.816013    1.464708    1.651891
     49          1           0       14.040744    0.089172   -0.841283
     50          1           0       13.454487   -0.846116   -2.143433
     51          1           0      -13.529920    1.997885   -0.994800
     52          1           0      -12.435665    2.988747   -0.158436
     53          1           0       11.024973   -1.588747    3.077546
     54          1           0        9.845564   -0.525730    2.557525
     55          1           0       11.595268   -0.060647    2.832804
     56          1           0       10.921336   -3.134570   -0.128497
     57          1           0       10.258530   -3.241814    1.604699
     58          1           0        9.415735   -2.120251    0.494067
     59          1           0      -11.813679   -0.173781    2.800892
     60          1           0      -10.663031   -1.735955    2.392868
     61          1           0      -12.467548   -1.821027    2.624381
     62          1           0      -13.499188   -2.941222    0.452370
     63          1           0      -11.861745   -3.026823    0.238869
     64          1           0      -13.031880   -2.149718   -0.965313
     65          1           0        9.025348   -0.381077    0.740677
     66          1           0      -10.252247   -1.975937   -0.832477
     67          1           0       10.876231    1.497584   -2.138942
     68          1           0       12.450330    2.116403   -1.854089
     69          1           0       12.150407    0.747897   -2.954763
     70          1           0      -11.344848    2.353662   -2.310827
     71          1           0      -10.180338    1.032111   -2.145473
     72          1           0      -10.173784    2.385526   -1.022042
     73          1           0       14.896332   -2.992439    0.114819
     74          1           0      -15.358297    1.553827    1.568206
     75          1           0        9.992005    2.451438   -0.249480
     76          1           0       -8.668713    0.402471   -0.147253
     77          1           0        8.929668    4.324331    0.176939
     78          1           0        7.049213    4.140699   -0.126069
     79          1           0        7.557537    3.833978    1.575001
     80          1           0       -8.090787   -3.246625    0.021772
     81          1           0       -8.373116   -3.107412   -1.777209
     82          1           0       -6.593354   -3.171809   -1.219749
     83          1           0        7.078763    0.383132   -0.254004
     84          1           0       -6.566975    0.331273   -0.195692
     85          1           0        5.495987    2.973906    0.517630
     86          1           0       -4.967516   -2.186119   -1.122045
     87          1           0        4.665513    0.225155   -0.142039
     88          1           0       -4.147827    0.586553   -0.010917
     89          1           0        3.366837    3.362988    1.378181
     90          1           0        1.567880    3.102313    0.872614
     91          1           0        2.947729    3.845045   -0.135957
     92          1           0       -3.316140   -2.678354   -0.260759
     93          1           0       -2.289633   -2.535264   -1.858683
     94          1           0       -1.237812   -2.706474   -0.230196
     95          1           0        2.353375   -0.273024   -0.087530
     96          1           0       -1.811957    1.098871   -0.094495
     97          1           0        0.334796    1.772813    0.104904
     98          1           0        0.229685   -1.091716   -0.751985
 ---------------------------------------------------------------------
 Rotational constants (GHZ):           0.2460030           0.0092512           0.0090705
 Standard basis: 6-31G(d,p) (6D, 7F)
 There are   910 symmetry adapted cartesian basis functions of A   symmetry.
 There are   910 symmetry adapted basis functions of A   symmetry.
   910 basis functions,  1568 primitive gaussians,   910 cartesian basis functions
   156 alpha electrons      156 beta electrons
       nuclear repulsion energy      3973.7971140404 Hartrees.
 NAtoms=   98 NActive=   98 NUniq=   98 SFac= 1.00D+00 NAtFMM=   60 NAOKFM=T Big=T
 Integral buffers will be    131072 words long.
 Raffenetti 1 integral format.
 Two-electron integral symmetry is turned on.
 One-electron integrals computed using PRISM.
 NBasis=   910 RedAO= T EigKep=  1.05D-03  NBF=   910
 NBsUse=   910 1.00D-06 EigRej= -1.00D+00 NBFU=   910
 ExpMin= 1.61D-01 ExpMax= 5.48D+03 ExpMxC= 8.25D+02 IAcc=3 IRadAn=         5 AccDes= 0.00D+00
 Harris functional with IExCor=20419 and IRadAn=       5 diagonalized for initial guess.
 HarFok:  IExCor=20419 AccDes= 0.00D+00 IRadAn=         5 IDoV= 1 UseB2=F ITyADJ=14
 ICtDFT=  3500011 ScaDFX=  1.000000  1.000000  1.000000  1.000000
 FoFCou: FMM=F IPFlag=           0 FMFlag=      100000 FMFlg1=        2001
         NFxFlg=           0 DoJE=T BraDBF=F KetDBF=T FulRan=T
         wScrn=  0.000000 ICntrl=       500 IOpCl=  0 I1Cent=   200000004 NGrid=           0
         NMat0=    1 NMatS0=      1 NMatT0=    0 NMatD0=    1 NMtDS0=    0 NMtDT0=    0
 Petite list used in FoFCou.
 Requested convergence on RMS density matrix=1.00D-08 within 128 cycles.
 Requested convergence on MAX density matrix=1.00D-06.
 Requested convergence on             energy=1.00D-06.
 No special actions if energy rises.
 Integral accuracy reduced to 1.0D-05 until final iterations.
 Initial convergence to 1.0D-05 achieved.  Increase integral accuracy.
 SCF Done:  E(RCAM-B3LYP) =  -1706.92779042     A.U. after   15 cycles
            NFock= 15  Conv=0.54D-08     -V/T= 2.0092
 DoSCS=F DFT=T ScalE2(SS,OS)=  1.000000  1.000000
 ExpMin= 1.61D-01 ExpMax= 5.48D+03 ExpMxC= 8.25D+02 IAcc=3 IRadAn=         5 AccDes= 0.00D+00
 HarFok:  IExCor=  205 AccDes= 0.00D+00 IRadAn=         5 IDoV=-2 UseB2=F ITyADJ=14
 ICtDFT= 12500011 ScaDFX=  1.000000  1.000000  1.000000  1.000000
 GSVD:  LWork=       -2100 too small for GESVD, short by        9450 words or        9450 for optimal perf.
 Range of M.O.s used for correlation:    43   910
 NBasis=   910 NAE=   156 NBE=   156 NFC=    42 NFV=     0
 NROrb=    868 NOA=   114 NOB=   114 NVA=   754 NVB=   754
 Orbital symmetries:
       Occupied  (A) (A) (A) (A) (A) (A) (A) (A) (A) (A) (A) (A)
                 (A) (A) (A) (A) (A) (A) (A) (A) (A) (A) (A) (A)
                 (A) (A) (A) (A) (A) (A) (A) (A) (A) (A) (A) (A)
                 (A) (A) (A) (A) (A) (A) (A) (A) (A) (A) (A) (A)
                 (A) (A) (A) (A) (A) (A) (A) (A) (A) (A) (A) (A)
                 (A) (A) (A) (A) (A) (A) (A) (A) (A) (A) (A) (A)
                 (A) (A) (A) (A) (A) (A) (A) (A) (A) (A) (A) (A)
                 (A) (A) (A) (A) (A) (A) (A) (A) (A) (A) (A) (A)
                 (A) (A) (A) (A) (A) (A) (A) (A) (A) (A) (A) (A)
                 (A) (A) (A) (A) (A) (A) (A) (A) (A) (A) (A) (A)
                 (A) (A) (A) (A) (A) (A) (A) (A) (A) (A) (A) (A)
                 (A) (A) (A) (A) (A) (A) (A) (A) (A) (A) (A) (A)
                 (A) (A) (A) (A) (A) (A) (A) (A) (A) (A) (A) (A)
       Virtual   (A) (A) (A) (A) (A) (A) (A) (A) (A) (A) (A) (A)
                 (A) (A) (A) (A) (A) (A) (A) (A) (A) (A) (A) (A)
                 (A) (A) (A) (A) (A) (A) (A) (A) (A) (A) (A) (A)
                 (A) (A) (A) (A) (A) (A) (A) (A) (A) (A) (A) (A)
                 (A) (A) (A) (A) (A) (A) (A) (A) (A) (A) (A) (A)
                 (A) (A) (A) (A) (A) (A) (A) (A) (A) (A) (A) (A)
                 (A) (A) (A) (A) (A) (A) (A) (A) (A) (A) (A) (A)
                 (A) (A) (A) (A) (A) (A) (A) (A) (A) (A) (A) (A)
                 (A) (A) (A) (A) (A) (A) (A) (A) (A) (A) (A) (A)
                 (A) (A) (A) (A) (A) (A) (A) (A) (A) (A) (A) (A)
                 (A) (A) (A) (A) (A) (A) (A) (A) (A) (A) (A) (A)
                 (A) (A) (A) (A) (A) (A) (A) (A) (A) (A) (A) (A)
                 (A) (A) (A) (A) (A) (A) (A) (A) (A) (A) (A) (A)
                 (A) (A) (A) (A) (A) (A) (A) (A) (A) (A) (A) (A)
                 (A) (A) (A) (A) (A) (A) (A) (A) (A) (A) (A) (A)
                 (A) (A) (A) (A) (A) (A) (A) (A) (A) (A) (A) (A)
                 (A) (A) (A) (A) (A) (A) (A) (A) (A) (A) (A) (A)
                 (A) (A) (A) (A) (A) (A) (A) (A) (A) (A) (A) (A)
                 (A) (A) (A) (A) (A) (A) (A) (A) (A) (A) (A) (A)
                 (A) (A) (A) (A) (A) (A) (A) (A) (A) (A) (A) (A)
                 (A) (A) (A) (A) (A) (A) (A) (A) (A) (A) (A) (A)
                 (A) (A) (A) (A) (A) (A) (A) (A) (A) (A) (A) (A)
                 (A) (A) (A) (A) (A) (A) (A) (A) (A) (A) (A) (A)
                 (A) (A) (A) (A) (A) (A) (A) (A) (A) (A) (A) (A)
                 (A) (A) (A) (A) (A) (A) (A) (A) (A) (A) (A) (A)
                 (A) (A) (A) (A) (A) (A) (A) (A) (A) (A) (A) (A)
                 (A) (A) (A) (A) (A) (A) (A) (A) (A) (A) (A) (A)
                 (A) (A) (A) (A) (A) (A) (A) (A) (A) (A) (A) (A)
                 (A) (A) (A) (A) (A) (A) (A) (A) (A) (A) (A) (A)
                 (A) (A) (A) (A) (A) (A) (A) (A) (A) (A) (A) (A)
                 (A) (A) (A) (A) (A) (A) (A) (A) (A) (A) (A) (A)
                 (A) (A) (A) (A) (A) (A) (A) (A) (A) (A) (A) (A)
                 (A) (A) (A) (A) (A) (A) (A) (A) (A) (A) (A) (A)
                 (A) (A) (A) (A) (A) (A) (A) (A) (A) (A) (A) (A)
                 (A) (A) (A) (A) (A) (A) (A) (A) (A) (A) (A) (A)
                 (A) (A) (A) (A) (A) (A) (A) (A) (A) (A) (A) (A)
                 (A) (A) (A) (A) (A) (A) (A) (A) (A) (A) (A) (A)
                 (A) (A) (A) (A) (A) (A) (A) (A) (A) (A) (A) (A)
                 (A) (A) (A) (A) (A) (A) (A) (A) (A) (A) (A) (A)
                 (A) (A) (A) (A) (A) (A) (A) (A) (A) (A) (A) (A)
                 (A) (A) (A) (A) (A) (A) (A) (A) (A) (A) (A) (A)
                 (A) (A) (A) (A) (A) (A) (A) (A) (A) (A) (A) (A)
                 (A) (A) (A) (A) (A) (A) (A) (A) (A) (A) (A) (A)
                 (A) (A) (A) (A) (A) (A) (A) (A) (A) (A) (A) (A)
                 (A) (A) (A) (A) (A) (A) (A) (A) (A) (A) (A) (A)
                 (A) (A) (A) (A) (A) (A) (A) (A) (A) (A) (A) (A)
                 (A) (A) (A) (A) (A) (A) (A) (A) (A) (A) (A) (A)
                 (A) (A) (A) (A) (A) (A) (A) (A) (A) (A) (A) (A)
                 (A) (A) (A) (A) (A) (A) (A) (A) (A) (A) (A) (A)
                 (A) (A) (A) (A) (A) (A) (A) (A) (A) (A) (A) (A)
                 (A) (A) (A) (A) (A) (A) (A) (A) (A) (A) (A) (A)
                 (A) (A) (A) (A) (A) (A) (A) (A) (A) (A) (A) (A)
                 (A) (A) (A) (A) (A) (A) (A) (A) (A) (A) (A) (A)
                 (A) (A) (A) (A) (A) (A) (A) (A) (A) (A) (A) (A)
                 (A) (A) (A) (A) (A) (A) (A) (A) (A) (A) (A) (A)
                 (A) (A) (A) (A) (A) (A) (A) (A) (A) (A) (A) (A)
                 (A) (A) (A) (A) (A) (A) (A) (A) (A) (A) (A) (A)
                 (A) (A) (A) (A) (A) (A) (A) (A) (A) (A) (A) (A)
                 (A) (A) (A) (A) (A) (A) (A) (A) (A) (A) (A) (A)
                 (A) (A) (A) (A) (A) (A) (A) (A) (A) (A) (A) (A)
                 (A) (A) (A) (A) (A) (A) (A) (A) (A) (A) (A) (A)
                 (A) (A) (A) (A) (A) (A) (A) (A) (A) (A) (A) (A)
                 (A) (A) (A) (A) (A) (A) (A) (A) (A) (A)
     4 initial guesses have been made.
 Convergence on wavefunction:    0.001000000000000
 Iteration     1 Dimension     4 NMult     0 NNew      4
 CISAX will form     4 AO SS matrices at one time.
 Iteration     2 Dimension     6 NMult     4 NNew      2
 Iteration     3 Dimension     8 NMult     6 NNew      2
 Iteration     4 Dimension    10 NMult     8 NNew      2
 Iteration     5 Dimension    12 NMult    10 NNew      2
 Iteration     6 Dimension    14 NMult    12 NNew      2
 ***********************************************************************
 Excited states from <AA,BB:AA,BB> singles matrix:
 ***********************************************************************
 
 Ground to excited state transition densities written to RWF  633
 Ground to excited state transition electric dipole moments (Au):
       state          X           Y           Z        Dip. S.      Osc.
         1         8.3328      1.4209      0.3450     71.5734      3.6899
 Ground to excited state transition velocity dipole moments (Au):
       state          X           Y           Z        Dip. S.      Osc.
         1        -0.6176     -0.1044     -0.0263      0.3930      3.3877
 Ground to excited state transition magnetic dipole moments (Au):
       state          X           Y           Z
         1        -0.1267      0.3917      0.4911
 Ground to excited state transition velocity quadrupole moments (Au):
       state          XX          YY          ZZ          XY          XZ          YZ
         1         1.0782     -0.1436     -0.0026     -0.1447      0.1864      0.0109
 <0|del|b> * <b|rxdel|0> + <0|del|b> * <b|delr+rdel|0>
 Rotatory Strengths (R) in cgs (10**-40 erg-esu-cm/Gauss)
       state          XX          YY          ZZ    R(velocity)    E-M Angle
         1      -139.6806    250.6243    112.5039     74.4825       86.51
 1/2[<0|r|b>*<b|rxdel|0> + (<0|rxdel|b>*<b|r|0>)*]
 Rotatory Strengths (R) in cgs (10**-40 erg-esu-cm/Gauss)
       state          XX          YY          ZZ     R(length)
         1       746.7153   -393.5776   -119.8089     77.7763
  1/2[<0|del|b>*<b|r|0> + (<0|r|b>*<b|del|0>)*] (Au)
       state          X           Y           Z        Dip. S.   Osc.(frdel)
         1        -5.1460     -0.1484     -0.0091      5.3034      3.5356

 Excitation energies and oscillator strengths:
 
 Excited State   1:      Singlet-A      2.1043 eV  589.19 nm  f=3.6899  <S**2>=0.000
     155 ->158         0.14901
     156 ->157         0.69222
 This state for optimization and/or second-order correction.
 Total Energy, E(TD-HF/TD-DFT) =  -1706.85045865    
 Copying the excited state density for this state as the 1-particle RhoCI density.
 SavETr:  write IOETrn=   770 NScale= 10 NData=  16 NLR=1 NState=    1 LETran=      28.

 **********************************************************************

            Population analysis using the SCF density.

 **********************************************************************

 Orbital symmetries:
       Occupied  (A) (A) (A) (A) (A) (A) (A) (A) (A) (A) (A) (A)
                 (A) (A) (A) (A) (A) (A) (A) (A) (A) (A) (A) (A)
                 (A) (A) (A) (A) (A) (A) (A) (A) (A) (A) (A) (A)
                 (A) (A) (A) (A) (A) (A) (A) (A) (A) (A) (A) (A)
                 (A) (A) (A) (A) (A) (A) (A) (A) (A) (A) (A) (A)
                 (A) (A) (A) (A) (A) (A) (A) (A) (A) (A) (A) (A)
                 (A) (A) (A) (A) (A) (A) (A) (A) (A) (A) (A) (A)
                 (A) (A) (A) (A) (A) (A) (A) (A) (A) (A) (A) (A)
                 (A) (A) (A) (A) (A) (A) (A) (A) (A) (A) (A) (A)
                 (A) (A) (A) (A) (A) (A) (A) (A) (A) (A) (A) (A)
                 (A) (A) (A) (A) (A) (A) (A) (A) (A) (A) (A) (A)
                 (A) (A) (A) (A) (A) (A) (A) (A) (A) (A) (A) (A)
                 (A) (A) (A) (A) (A) (A) (A) (A) (A) (A) (A) (A)
       Virtual   (A) (A) (A) (A) (A) (A) (A) (A) (A) (A) (A) (A)
                 (A) (A) (A) (A) (A) (A) (A) (A) (A) (A) (A) (A)
                 (A) (A) (A) (A) (A) (A) (A) (A) (A) (A) (A) (A)
                 (A) (A) (A) (A) (A) (A) (A) (A) (A) (A) (A) (A)
                 (A) (A) (A) (A) (A) (A) (A) (A) (A) (A) (A) (A)
                 (A) (A) (A) (A) (A) (A) (A) (A) (A) (A) (A) (A)
                 (A) (A) (A) (A) (A) (A) (A) (A) (A) (A) (A) (A)
                 (A) (A) (A) (A) (A) (A) (A) (A) (A) (A) (A) (A)
                 (A) (A) (A) (A) (A) (A) (A) (A) (A) (A) (A) (A)
                 (A) (A) (A) (A) (A) (A) (A) (A) (A) (A) (A) (A)
                 (A) (A) (A) (A) (A) (A) (A) (A) (A) (A) (A) (A)
                 (A) (A) (A) (A) (A) (A) (A) (A) (A) (A) (A) (A)
                 (A) (A) (A) (A) (A) (A) (A) (A) (A) (A) (A) (A)
                 (A) (A) (A) (A) (A) (A) (A) (A) (A) (A) (A) (A)
                 (A) (A) (A) (A) (A) (A) (A) (A) (A) (A) (A) (A)
                 (A) (A) (A) (A) (A) (A) (A) (A) (A) (A) (A) (A)
                 (A) (A) (A) (A) (A) (A) (A) (A) (A) (A) (A) (A)
                 (A) (A) (A) (A) (A) (A) (A) (A) (A) (A) (A) (A)
                 (A) (A) (A) (A) (A) (A) (A) (A) (A) (A) (A) (A)
                 (A) (A) (A) (A) (A) (A) (A) (A) (A) (A) (A) (A)
                 (A) (A) (A) (A) (A) (A) (A) (A) (A) (A) (A) (A)
                 (A) (A) (A) (A) (A) (A) (A) (A) (A) (A) (A) (A)
                 (A) (A) (A) (A) (A) (A) (A) (A) (A) (A) (A) (A)
                 (A) (A) (A) (A) (A) (A) (A) (A) (A) (A) (A) (A)
                 (A) (A) (A) (A) (A) (A) (A) (A) (A) (A) (A) (A)
                 (A) (A) (A) (A) (A) (A) (A) (A) (A) (A) (A) (A)
                 (A) (A) (A) (A) (A) (A) (A) (A) (A) (A) (A) (A)
                 (A) (A) (A) (A) (A) (A) (A) (A) (A) (A) (A) (A)
                 (A) (A) (A) (A) (A) (A) (A) (A) (A) (A) (A) (A)
                 (A) (A) (A) (A) (A) (A) (A) (A) (A) (A) (A) (A)
                 (A) (A) (A) (A) (A) (A) (A) (A) (A) (A) (A) (A)
                 (A) (A) (A) (A) (A) (A) (A) (A) (A) (A) (A) (A)
                 (A) (A) (A) (A) (A) (A) (A) (A) (A) (A) (A) (A)
                 (A) (A) (A) (A) (A) (A) (A) (A) (A) (A) (A) (A)
                 (A) (A) (A) (A) (A) (A) (A) (A) (A) (A) (A) (A)
                 (A) (A) (A) (A) (A) (A) (A) (A) (A) (A) (A) (A)
                 (A) (A) (A) (A) (A) (A) (A) (A) (A) (A) (A) (A)
                 (A) (A) (A) (A) (A) (A) (A) (A) (A) (A) (A) (A)
                 (A) (A) (A) (A) (A) (A) (A) (A) (A) (A) (A) (A)
                 (A) (A) (A) (A) (A) (A) (A) (A) (A) (A) (A) (A)
                 (A) (A) (A) (A) (A) (A) (A) (A) (A) (A) (A) (A)
                 (A) (A) (A) (A) (A) (A) (A) (A) (A) (A) (A) (A)
                 (A) (A) (A) (A) (A) (A) (A) (A) (A) (A) (A) (A)
                 (A) (A) (A) (A) (A) (A) (A) (A) (A) (A) (A) (A)
                 (A) (A) (A) (A) (A) (A) (A) (A) (A) (A) (A) (A)
                 (A) (A) (A) (A) (A) (A) (A) (A) (A) (A) (A) (A)
                 (A) (A) (A) (A) (A) (A) (A) (A) (A) (A) (A) (A)
                 (A) (A) (A) (A) (A) (A) (A) (A) (A) (A) (A) (A)
                 (A) (A) (A) (A) (A) (A) (A) (A) (A) (A) (A) (A)
                 (A) (A) (A) (A) (A) (A) (A) (A) (A) (A) (A) (A)
                 (A) (A) (A) (A) (A) (A) (A) (A) (A) (A) (A) (A)
                 (A) (A) (A) (A) (A) (A) (A) (A) (A) (A) (A) (A)
                 (A) (A) (A) (A) (A) (A) (A) (A) (A) (A) (A) (A)
                 (A) (A) (A) (A) (A) (A) (A) (A) (A) (A) (A) (A)
                 (A) (A) (A) (A) (A) (A) (A) (A) (A) (A) (A) (A)
                 (A) (A) (A) (A) (A) (A) (A) (A) (A) (A) (A) (A)
                 (A) (A) (A) (A) (A) (A) (A) (A) (A) (A) (A) (A)
                 (A) (A) (A) (A) (A) (A) (A) (A) (A) (A) (A) (A)
                 (A) (A) (A) (A) (A) (A) (A) (A) (A) (A) (A) (A)
                 (A) (A) (A) (A) (A) (A) (A) (A) (A) (A) (A) (A)
                 (A) (A) (A) (A) (A) (A) (A) (A) (A) (A) (A) (A)
                 (A) (A) (A) (A) (A) (A) (A) (A) (A) (A) (A) (A)
                 (A) (A) (A) (A) (A) (A) (A) (A) (A) (A)
 The electronic state is 1-A.
 Alpha  occ. eigenvalues --  -19.21238 -19.20743 -10.29218 -10.29211 -10.28988
 Alpha  occ. eigenvalues --  -10.28426 -10.27940 -10.27694 -10.27505 -10.27366
 Alpha  occ. eigenvalues --  -10.27232 -10.27082 -10.26944 -10.26934 -10.26836
 Alpha  occ. eigenvalues --  -10.26762 -10.26665 -10.26634 -10.26428 -10.26284
 Alpha  occ. eigenvalues --  -10.26158 -10.26023 -10.25943 -10.25940 -10.25932
 Alpha  occ. eigenvalues --  -10.25866 -10.25792 -10.25756 -10.25742 -10.25594
 Alpha  occ. eigenvalues --  -10.25565 -10.25538 -10.25500 -10.25379 -10.25207
 Alpha  occ. eigenvalues --  -10.24928 -10.24914 -10.24872 -10.24716 -10.23883
 Alpha  occ. eigenvalues --  -10.23450 -10.23280  -1.11066  -1.06857  -0.94117
 Alpha  occ. eigenvalues --   -0.93629  -0.92636  -0.91869  -0.91386  -0.90139
 Alpha  occ. eigenvalues --   -0.87561  -0.87210  -0.87064  -0.85631  -0.85047
 Alpha  occ. eigenvalues --   -0.83147  -0.82033  -0.80402  -0.80113  -0.78448
 Alpha  occ. eigenvalues --   -0.77041  -0.76925  -0.76188  -0.76145  -0.76064
 Alpha  occ. eigenvalues --   -0.75936  -0.75746  -0.75449  -0.73137  -0.70925
 Alpha  occ. eigenvalues --   -0.69391  -0.67154  -0.66154  -0.65527  -0.64834
 Alpha  occ. eigenvalues --   -0.64449  -0.63676  -0.62769  -0.61019  -0.60286
 Alpha  occ. eigenvalues --   -0.59928  -0.59753  -0.58514  -0.58162  -0.56587
 Alpha  occ. eigenvalues --   -0.55818  -0.55345  -0.54939  -0.54771  -0.54219
 Alpha  occ. eigenvalues --   -0.53465  -0.52911  -0.52059  -0.51545  -0.51239
 Alpha  occ. eigenvalues --   -0.51101  -0.50550  -0.50262  -0.50139  -0.49555
 Alpha  occ. eigenvalues --   -0.49062  -0.48625  -0.48471  -0.48361  -0.48233
 Alpha  occ. eigenvalues --   -0.47798  -0.47569  -0.47033  -0.46722  -0.46265
 Alpha  occ. eigenvalues --   -0.46127  -0.45631  -0.45496  -0.45230  -0.45030
 Alpha  occ. eigenvalues --   -0.44855  -0.44559  -0.44308  -0.43926  -0.43341
 Alpha  occ. eigenvalues --   -0.43287  -0.43126  -0.43032  -0.42854  -0.42089
 Alpha  occ. eigenvalues --   -0.41799  -0.41630  -0.41430  -0.40853  -0.40479
 Alpha  occ. eigenvalues --   -0.40386  -0.40245  -0.40107  -0.39955  -0.39271
 Alpha  occ. eigenvalues --   -0.38891  -0.38847  -0.38516  -0.38218  -0.37995
 Alpha  occ. eigenvalues --   -0.37688  -0.36770  -0.36518  -0.36197  -0.35686
 Alpha  occ. eigenvalues --   -0.35352  -0.34924  -0.34355  -0.32760  -0.32150
 Alpha  occ. eigenvalues --   -0.31687  -0.30066  -0.28274  -0.26477  -0.23075
 Alpha  occ. eigenvalues --   -0.19010
 Alpha virt. eigenvalues --   -0.06085  -0.01110   0.02712   0.05521   0.07932
 Alpha virt. eigenvalues --    0.09735   0.10799   0.11417   0.11711   0.11994
 Alpha virt. eigenvalues --    0.12569   0.12699   0.13079   0.13385   0.13718
 Alpha virt. eigenvalues --    0.13895   0.13995   0.14670   0.14731   0.14944
 Alpha virt. eigenvalues --    0.15479   0.15833   0.15940   0.16232   0.16573
 Alpha virt. eigenvalues --    0.16651   0.16987   0.17363   0.17735   0.18001
 Alpha virt. eigenvalues --    0.18627   0.18807   0.19009   0.19255   0.19433
 Alpha virt. eigenvalues --    0.19686   0.19993   0.20430   0.20665   0.21203
 Alpha virt. eigenvalues --    0.21349   0.21515   0.21749   0.22075   0.22329
 Alpha virt. eigenvalues --    0.22729   0.22888   0.23095   0.23531   0.23709
 Alpha virt. eigenvalues --    0.24036   0.24099   0.24300   0.24579   0.24956
 Alpha virt. eigenvalues --    0.25428   0.25643   0.25869   0.26223   0.26528
 Alpha virt. eigenvalues --    0.26727   0.27197   0.27432   0.27606   0.28071
 Alpha virt. eigenvalues --    0.28793   0.29037   0.29174   0.29346   0.30085
 Alpha virt. eigenvalues --    0.30229   0.30498   0.30795   0.31030   0.31274
 Alpha virt. eigenvalues --    0.32047   0.32120   0.32890   0.33126   0.33390
 Alpha virt. eigenvalues --    0.33584   0.34101   0.34517   0.34847   0.34918
 Alpha virt. eigenvalues --    0.35234   0.36289   0.36523   0.37812   0.38250
 Alpha virt. eigenvalues --    0.38970   0.39104   0.40604   0.41897   0.42979
 Alpha virt. eigenvalues --    0.43489   0.43841   0.44286   0.44890   0.45181
 Alpha virt. eigenvalues --    0.46220   0.46375   0.46946   0.48139   0.49098
 Alpha virt. eigenvalues --    0.49701   0.51118   0.52144   0.53332   0.54201
 Alpha virt. eigenvalues --    0.55280   0.55724   0.55943   0.56756   0.56881
 Alpha virt. eigenvalues --    0.57307   0.57559   0.57753   0.58104   0.58242
 Alpha virt. eigenvalues --    0.58740   0.59080   0.59512   0.59833   0.60265
 Alpha virt. eigenvalues --    0.60593   0.61139   0.61319   0.61685   0.61989
 Alpha virt. eigenvalues --    0.62291   0.62519   0.62858   0.63164   0.63311
 Alpha virt. eigenvalues --    0.63699   0.64150   0.64597   0.64960   0.65064
 Alpha virt. eigenvalues --    0.65674   0.66102   0.66322   0.66615   0.66853
 Alpha virt. eigenvalues --    0.67059   0.67238   0.67533   0.67719   0.68164
 Alpha virt. eigenvalues --    0.68463   0.68671   0.69076   0.69652   0.70140
 Alpha virt. eigenvalues --    0.70239   0.70454   0.70576   0.71160   0.71569
 Alpha virt. eigenvalues --    0.72150   0.72432   0.73004   0.73235   0.73659
 Alpha virt. eigenvalues --    0.73862   0.74404   0.74616   0.74945   0.75292
 Alpha virt. eigenvalues --    0.75954   0.76351   0.76648   0.77103   0.77611
 Alpha virt. eigenvalues --    0.78229   0.78409   0.78978   0.79387   0.80087
 Alpha virt. eigenvalues --    0.80194   0.80602   0.81040   0.81640   0.81818
 Alpha virt. eigenvalues --    0.82090   0.82759   0.82954   0.83136   0.83237
 Alpha virt. eigenvalues --    0.83425   0.83684   0.84046   0.84714   0.85071
 Alpha virt. eigenvalues --    0.85156   0.85410   0.85631   0.85753   0.86083
 Alpha virt. eigenvalues --    0.86528   0.87184   0.87426   0.87475   0.87872
 Alpha virt. eigenvalues --    0.88201   0.88272   0.88904   0.89243   0.89420
 Alpha virt. eigenvalues --    0.90182   0.90304   0.90390   0.90564   0.90838
 Alpha virt. eigenvalues --    0.91011   0.91375   0.91739   0.92047   0.92109
 Alpha virt. eigenvalues --    0.92479   0.92786   0.92926   0.93075   0.93222
 Alpha virt. eigenvalues --    0.93698   0.93986   0.94552   0.94665   0.95272
 Alpha virt. eigenvalues --    0.95527   0.95715   0.96074   0.96398   0.96631
 Alpha virt. eigenvalues --    0.97241   0.97335   0.97447   0.97830   0.97860
 Alpha virt. eigenvalues --    0.98252   0.98749   0.98946   0.99333   0.99787
 Alpha virt. eigenvalues --    1.00354   1.00581   1.00904   1.01201   1.01428
 Alpha virt. eigenvalues --    1.01604   1.01785   1.02120   1.02927   1.03073
 Alpha virt. eigenvalues --    1.03329   1.03577   1.04421   1.04716   1.04898
 Alpha virt. eigenvalues --    1.05885   1.06380   1.06540   1.07346   1.07748
 Alpha virt. eigenvalues --    1.08503   1.08568   1.09120   1.09472   1.09723
 Alpha virt. eigenvalues --    1.09990   1.10232   1.10512   1.10883   1.11088
 Alpha virt. eigenvalues --    1.11709   1.12695   1.13394   1.13666   1.13950
 Alpha virt. eigenvalues --    1.14908   1.15206   1.15710   1.16172   1.16517
 Alpha virt. eigenvalues --    1.16805   1.18036   1.19373   1.19678   1.20058
 Alpha virt. eigenvalues --    1.21009   1.21444   1.22181   1.24351   1.24503
 Alpha virt. eigenvalues --    1.25129   1.25552   1.26912   1.27305   1.27521
 Alpha virt. eigenvalues --    1.28041   1.29709   1.30393   1.31477   1.32034
 Alpha virt. eigenvalues --    1.32644   1.34404   1.34537   1.34905   1.35078
 Alpha virt. eigenvalues --    1.36607   1.37165   1.37774   1.38610   1.39072
 Alpha virt. eigenvalues --    1.39581   1.40113   1.41080   1.42781   1.42852
 Alpha virt. eigenvalues --    1.43036   1.43520   1.43866   1.45012   1.46417
 Alpha virt. eigenvalues --    1.47247   1.47717   1.48106   1.49039   1.49769
 Alpha virt. eigenvalues --    1.50618   1.51008   1.51349   1.51946   1.54064
 Alpha virt. eigenvalues --    1.54309   1.54447   1.55527   1.56226   1.56703
 Alpha virt. eigenvalues --    1.57405   1.57769   1.58179   1.58967   1.59659
 Alpha virt. eigenvalues --    1.60278   1.60620   1.61547   1.62253   1.63407
 Alpha virt. eigenvalues --    1.63480   1.63882   1.64969   1.65362   1.65733
 Alpha virt. eigenvalues --    1.66307   1.68125   1.68723   1.70224   1.71152
 Alpha virt. eigenvalues --    1.72255   1.73329   1.74463   1.75823   1.76485
 Alpha virt. eigenvalues --    1.77018   1.77667   1.78395   1.79110   1.79556
 Alpha virt. eigenvalues --    1.80083   1.80492   1.80908   1.81747   1.82118
 Alpha virt. eigenvalues --    1.83409   1.83642   1.84533   1.84890   1.85219
 Alpha virt. eigenvalues --    1.85433   1.85582   1.85779   1.86373   1.86907
 Alpha virt. eigenvalues --    1.87205   1.87304   1.87943   1.88004   1.88201
 Alpha virt. eigenvalues --    1.88803   1.89510   1.89937   1.90307   1.90680
 Alpha virt. eigenvalues --    1.91022   1.91688   1.91848   1.92421   1.92622
 Alpha virt. eigenvalues --    1.93370   1.93952   1.94213   1.94480   1.94807
 Alpha virt. eigenvalues --    1.95317   1.95441   1.95681   1.96575   1.96925
 Alpha virt. eigenvalues --    1.97358   1.97719   1.97979   1.98307   1.98631
 Alpha virt. eigenvalues --    1.99111   1.99518   1.99654   2.00354   2.00582
 Alpha virt. eigenvalues --    2.01011   2.01701   2.02230   2.02565   2.02844
 Alpha virt. eigenvalues --    2.03485   2.03988   2.04565   2.04911   2.05592
 Alpha virt. eigenvalues --    2.05889   2.06267   2.06704   2.06804   2.06972
 Alpha virt. eigenvalues --    2.07855   2.08950   2.09399   2.09806   2.10116
 Alpha virt. eigenvalues --    2.10303   2.10720   2.11032   2.11814   2.11981
 Alpha virt. eigenvalues --    2.12462   2.13016   2.13192   2.14022   2.14085
 Alpha virt. eigenvalues --    2.14150   2.14444   2.15145   2.15454   2.15799
 Alpha virt. eigenvalues --    2.15925   2.16320   2.16774   2.16967   2.17440
 Alpha virt. eigenvalues --    2.17786   2.19326   2.19396   2.19730   2.20187
 Alpha virt. eigenvalues --    2.20519   2.20573   2.21453   2.21951   2.23051
 Alpha virt. eigenvalues --    2.23212   2.23936   2.24031   2.24847   2.25697
 Alpha virt. eigenvalues --    2.25824   2.26628   2.26975   2.27331   2.27767
 Alpha virt. eigenvalues --    2.27920   2.28522   2.29266   2.29412   2.29894
 Alpha virt. eigenvalues --    2.30501   2.30778   2.32066   2.32110   2.32395
 Alpha virt. eigenvalues --    2.33847   2.33997   2.34421   2.34667   2.34802
 Alpha virt. eigenvalues --    2.35640   2.35651   2.35908   2.36467   2.36775
 Alpha virt. eigenvalues --    2.37175   2.37437   2.38169   2.38405   2.39299
 Alpha virt. eigenvalues --    2.40103   2.40438   2.40840   2.41498   2.42217
 Alpha virt. eigenvalues --    2.42505   2.43026   2.43246   2.44081   2.44085
 Alpha virt. eigenvalues --    2.44393   2.44933   2.45025   2.45372   2.46158
 Alpha virt. eigenvalues --    2.46522   2.47224   2.47754   2.48113   2.48989
 Alpha virt. eigenvalues --    2.49212   2.49711   2.50803   2.50948   2.51241
 Alpha virt. eigenvalues --    2.52254   2.52678   2.53067   2.53782   2.53993
 Alpha virt. eigenvalues --    2.54561   2.55007   2.55314   2.56106   2.56348
 Alpha virt. eigenvalues --    2.57154   2.57786   2.58185   2.58327   2.58571
 Alpha virt. eigenvalues --    2.59159   2.59720   2.60578   2.61293   2.62321
 Alpha virt. eigenvalues --    2.62502   2.62723   2.63671   2.64049   2.64430
 Alpha virt. eigenvalues --    2.64840   2.65129   2.65863   2.66299   2.66732
 Alpha virt. eigenvalues --    2.67286   2.67923   2.68113   2.68543   2.69122
 Alpha virt. eigenvalues --    2.69272   2.69516   2.69794   2.70802   2.71246
 Alpha virt. eigenvalues --    2.71273   2.72707   2.73004   2.73111   2.73379
 Alpha virt. eigenvalues --    2.73965   2.74479   2.74833   2.75160   2.75724
 Alpha virt. eigenvalues --    2.76000   2.76386   2.76676   2.77090   2.77757
 Alpha virt. eigenvalues --    2.77974   2.78982   2.79561   2.79766   2.80023
 Alpha virt. eigenvalues --    2.80393   2.80983   2.81386   2.81569   2.82322
 Alpha virt. eigenvalues --    2.82664   2.83676   2.84080   2.84248   2.84499
 Alpha virt. eigenvalues --    2.85037   2.85309   2.85976   2.86780   2.87209
 Alpha virt. eigenvalues --    2.87543   2.88115   2.88728   2.89020   2.89801
 Alpha virt. eigenvalues --    2.91396   2.91656   2.92207   2.92470   2.92980
 Alpha virt. eigenvalues --    2.93440   2.93803   2.94173   2.95107   2.95625
 Alpha virt. eigenvalues --    2.95985   2.96722   2.97260   2.97874   2.98201
 Alpha virt. eigenvalues --    2.98790   2.99123   2.99769   2.99888   3.00461
 Alpha virt. eigenvalues --    3.00839   3.01919   3.02730   3.02966   3.03177
 Alpha virt. eigenvalues --    3.04237   3.05191   3.05612   3.06357   3.08751
 Alpha virt. eigenvalues --    3.08972   3.09631   3.09958   3.10589   3.11052
 Alpha virt. eigenvalues --    3.11074   3.12329   3.12900   3.13884   3.15774
 Alpha virt. eigenvalues --    3.16663   3.16890   3.18541   3.20245   3.21042
 Alpha virt. eigenvalues --    3.22236   3.23015   3.23836   3.26178   3.26674
 Alpha virt. eigenvalues --    3.27537   3.27685   3.28463   3.28926   3.29712
 Alpha virt. eigenvalues --    3.30280   3.30877   3.33507   3.34221   3.35924
 Alpha virt. eigenvalues --    3.36348   3.36944   3.38278   3.38435   3.41495
 Alpha virt. eigenvalues --    3.44447   3.46028   3.46384   3.46487   3.47902
 Alpha virt. eigenvalues --    3.48878   3.49578   3.50259   3.51860   3.52866
 Alpha virt. eigenvalues --    3.53522   3.55530   3.56357   3.57527   3.58143
 Alpha virt. eigenvalues --    3.58738   3.59852   3.59860   3.61841   3.62220
 Alpha virt. eigenvalues --    3.63910   3.64931   3.65790   3.67243   3.68280
 Alpha virt. eigenvalues --    3.68896   3.71411   3.72443   3.73953   3.74664
 Alpha virt. eigenvalues --    3.78682   3.79920   3.84380   3.85811   3.87389
 Alpha virt. eigenvalues --    3.90377   3.97364   4.07326   4.17181   4.17627
 Alpha virt. eigenvalues --    4.19293   4.20062   4.21207   4.22850   4.23788
 Alpha virt. eigenvalues --    4.26667   4.28529   4.28804   4.31323   4.34430
 Alpha virt. eigenvalues --    4.36445   4.38507   4.40807   4.42683   4.43987
 Alpha virt. eigenvalues --    4.46437   4.46902   4.47415   4.51797   4.53300
 Alpha virt. eigenvalues --    4.54915   4.55256   4.57254   4.58367   4.60704
 Alpha virt. eigenvalues --    4.61935   4.63845   4.65814   4.68920   4.71524
 Alpha virt. eigenvalues --    4.72124   4.75673   4.79228   4.81593   4.82484
 Alpha virt. eigenvalues --    4.83191   4.86156   4.87809   4.92181
          Condensed to atoms (all electrons):
 Mulliken charges:
               1
     1  O   -0.552638
     2  O   -0.577515
     3  C   -0.057490
     4  C   -0.003277
     5  C   -0.202145
     6  C   -0.192637
     7  C    0.167510
     8  C    0.139541
     9  C    0.127538
    10  C    0.053241
    11  C   -0.206414
    12  C   -0.208152
    13  C    0.031032
    14  C    0.044166
    15  C   -0.294304
    16  C   -0.299674
    17  C   -0.301235
    18  C   -0.310310
    19  C   -0.128662
    20  C   -0.160050
    21  C   -0.346494
    22  C   -0.346668
    23  C   -0.099332
    24  C   -0.105836
    25  C    0.091455
    26  C    0.147164
    27  C   -0.379311
    28  C   -0.354822
    29  C   -0.113035
    30  C   -0.127805
    31  C   -0.095058
    32  C   -0.147548
    33  C   -0.099401
    34  C   -0.097022
    35  C    0.127997
    36  C    0.141259
    37  C   -0.386325
    38  C   -0.360754
    39  C   -0.124277
    40  C   -0.108985
    41  C   -0.052946
    42  C   -0.085714
    43  H    0.099418
    44  H    0.063923
    45  H    0.085540
    46  H    0.088588
    47  H    0.064713
    48  H    0.101967
    49  H    0.128596
    50  H    0.101566
    51  H    0.129560
    52  H    0.062089
    53  H    0.107298
    54  H    0.097208
    55  H    0.108565
    56  H    0.118186
    57  H    0.097436
    58  H    0.104679
    59  H    0.074465
    60  H    0.119493
    61  H    0.114834
    62  H    0.104281
    63  H    0.107579
    64  H    0.094100
    65  H    0.073801
    66  H    0.088142
    67  H    0.124809
    68  H    0.111960
    69  H    0.080455
    70  H    0.093018
    71  H    0.125958
    72  H    0.132405
    73  H    0.300781
    74  H    0.302353
    75  H    0.078542
    76  H    0.088932
    77  H    0.068687
    78  H    0.118849
    79  H    0.132399
    80  H    0.086111
    81  H    0.137470
    82  H    0.107963
    83  H    0.074299
    84  H    0.080301
    85  H    0.068994
    86  H    0.081533
    87  H    0.080381
    88  H    0.087702
    89  H    0.113010
    90  H    0.101247
    91  H    0.136699
    92  H    0.094320
    93  H    0.130916
    94  H    0.089453
    95  H    0.077359
    96  H    0.074140
    97  H    0.053272
    98  H    0.084589
 Sum of Mulliken charges =  -0.00000
 Mulliken charges with hydrogens summed into heavy atoms:
               1
     1  O   -0.251857
     2  O   -0.275163
     3  C   -0.057490
     4  C   -0.003277
     5  C   -0.038804
     6  C   -0.018509
     7  C    0.232223
     8  C    0.241508
     9  C    0.127538
    10  C    0.053241
    11  C    0.023748
    12  C   -0.016503
    13  C    0.031032
    14  C    0.044166
    15  C    0.018767
    16  C    0.020626
    17  C    0.007557
    18  C   -0.004351
    19  C   -0.054861
    20  C   -0.071908
    21  C   -0.029271
    22  C    0.004712
    23  C   -0.020790
    24  C   -0.016904
    25  C    0.091455
    26  C    0.147164
    27  C   -0.059375
    28  C   -0.023279
    29  C   -0.038736
    30  C   -0.047504
    31  C   -0.026064
    32  C   -0.066015
    33  C   -0.019020
    34  C   -0.009320
    35  C    0.127997
    36  C    0.141259
    37  C   -0.035368
    38  C   -0.046065
    39  C   -0.046918
    40  C   -0.034845
    41  C    0.000326
    42  C   -0.001125
 Electronic spatial extent (au):  <R**2>=         111475.5157
 Charge=             -0.0000 electrons
 Dipole moment (field-independent basis, Debye):
    X=             -0.2089    Y=             -2.2607    Z=              1.4637  Tot=              2.7012
 Quadrupole moment (field-independent basis, Debye-Ang):
   XX=           -276.1994   YY=           -245.1657   ZZ=           -262.1934
   XY=             19.6287   XZ=              1.1835   YZ=              0.1002
 Traceless Quadrupole moment (field-independent basis, Debye-Ang):
   XX=            -15.0132   YY=             16.0204   ZZ=             -1.0072
   XY=             19.6287   XZ=              1.1835   YZ=              0.1002
 Octapole moment (field-independent basis, Debye-Ang**2):
  XXX=           -387.8861  YYY=            -20.7111  ZZZ=              9.4191  XYY=            166.7728
  XXY=           -541.3157  XXZ=            261.1702  XZZ=            -21.1252  YZZ=             -7.2203
  YYZ=             -1.9209  XYZ=            -29.5492
 Hexadecapole moment (field-independent basis, Debye-Ang**3):
 XXXX=        -152913.3627 YYYY=          -4683.0255 ZZZZ=          -1737.2356 XXXY=           3799.7016
 XXXZ=           -666.3171 YYYX=           -269.6546 YYYZ=             -8.2730 ZZZX=           -139.0600
 ZZZY=             22.3638 XXYY=         -24403.5649 XXZZ=         -24212.6638 YYZZ=          -1078.8177
 XXYZ=           -725.8962 YYXZ=            178.7201 ZZXY=           -139.1376
 N-N= 3.973797114040D+03 E-N=-1.190312153026D+04  KE= 1.691321202615D+03
 1\1\GINC-RYZEN-SSD1\SP\RCAM-B3LYP TD-FC\6-31G(d,p)\C40H56O2\PADAWAN\19
 -Jul-2019\0\\# td=(NStates=1) CAM-B3LYP/6-31G(d,p)\\TD\\0,1\O,0,14.801
 0856336,-2.1689198251,-0.335600483\O,0,-14.7744025043,2.0846237675,1.0
 601055416\C,0,11.3020525513,-1.3885414062,1.0274289039\C,0,-12.3601511
 791,-0.990450663,0.7446881128\C,0,12.8039139574,-1.7694462407,1.011256
 0176\C,0,-13.6726339824,-0.2359816181,0.7487676888\C,0,13.4643744764,-
 1.7980221243,-0.3379573407\C,0,-13.4879980928,1.2868973508,0.926903941
 4\C,0,11.1122905561,-0.2487325003,0.0659733043\C,0,-11.3051068747,-0.1
 805690638,-0.124810157\C,0,13.3149619872,-0.4970681919,-1.0499677508\C
 ,0,-12.780370475,1.8200850156,-0.2497743304\C,0,11.9673326023,0.101330
 516,-0.8836910121\C,0,-11.5319637914,1.0587225014,-0.578099806\C,0,10.
 9283838794,-0.9176072017,2.4586792519\C,0,10.391359756,-2.6763754055,0
 .5907624662\C,0,-11.7116429703,-1.2906287548,2.1631024412\C,0,-12.6568
 221772,-2.3350247244,0.0653477968\C,0,9.7788631273,0.3365226053,0.1842
 923892\C,0,-10.0649220642,-0.9735901009,-0.4936306481\C,0,11.781674047
 4,1.2443896129,-1.8879307831\C,0,-10.6769659846,1.8096404411,-1.524879
 3779\C,0,9.3485987649,1.5857548185,0.0504316832\C,0,-8.7649178888,-0.5
 095429032,-0.6199770997\C,0,8.0212012251,2.2161976028,0.2469054655\C,0
 ,-7.6355115852,-1.3642747554,-0.7460307721\C,0,7.879109695,3.611389994
 ,0.6173659206\C,0,-7.6954678438,-2.7299825752,-1.1742961146\C,0,6.8574
 157126,1.4730762486,0.020569572\C,0,-6.474260123,-0.6665749194,-0.5158
 805131\C,0,5.5519859126,1.9370179398,0.3585328223\C,0,-5.1227508211,-1
 .1654536183,-0.5894458226\C,0,4.4012289089,1.2227284668,0.0816060756\C
 ,0,-3.9246837654,-0.3265348775,-0.4116839834\C,0,3.0455520462,1.669011
 2921,0.1906231783\C,0,-2.6745929153,-0.7728673657,-0.5984281978\C,0,2.
 7113527023,3.0297206641,0.5779254505\C,0,-2.3054993179,-2.1757110631,-
 0.8619274187\C,0,2.0639654855,0.6902810921,-0.0713478148\C,0,-1.675429
 503,0.1740252915,-0.3389078418\C,0,0.635800409,0.9312859426,-0.1622248
 945\C,0,-0.2699068607,-0.0880364036,-0.492950265\H,0,13.3767662566,-0.
 9689003001,1.446780367\H,0,12.8873822372,-2.7403672508,1.6544231263\H,
 0,-14.368499823,-0.3723046724,1.493520273\H,0,-14.3837018652,-0.336811
 5531,-0.2331251685\H,0,12.9610071077,-2.5593452416,-0.8998405421\H,0,-
 12.8142118532,1.4423482169,1.6837361076\H,0,14.0418287699,0.0909916771
 ,-0.8302982108\H,0,13.4549010471,-0.8103163887,-2.1558983208\H,0,-13.5
 259678058,2.043119372,-0.9490176448\H,0,-12.4307190449,3.0109861187,-0
 .0874077048\H,0,11.0215948485,-1.6807965087,3.0435190479\H,0,9.8439927
 263,-0.603290128,2.5498917442\H,0,11.5942231643,-0.1478436515,2.837657
 1517\H,0,10.9173980028,-3.1451492889,-0.2005267357\H,0,10.2535343563,-
 3.2950881518,1.5290923492\H,0,9.4129386109,-2.1446557736,0.4466813891\
 H,0,-11.8148431703,-0.2260450984,2.7915494519\H,0,-10.6662394629,-1.77
 91104549,2.3448282668\H,0,-12.4709979928,-1.8673641563,2.5732479048\H,
 0,-13.5031207611,-2.9309417901,0.3731854495\H,0,-11.8656918042,-3.0135
 179407,0.1583887369\H,0,-13.0339312521,-2.1046296549,-1.0238651285\H,0
 ,9.0249343964,-0.4116855796,0.7368708081\H,0,-10.254120177,-1.93830089
 4,-0.8853423362\H,0,10.8800292949,1.5362782978,-2.0935714161\H,0,12.45
 48713161,2.1454254854,-1.7924448525\H,0,12.1535470247,0.805541409,-2.9
 274154305\H,0,-11.3396983708,2.4287784419,-2.2545961806\H,0,-10.177183
 6964,1.1017841975,-2.1220481718\H,0,-10.1692611101,2.4264352976,-0.964
 849641\H,0,14.8924683748,-3.0149868258,0.0482231023\H,0,-15.356320325,
 1.5372510252,1.6010912051\H,0,9.9961955386,2.4434812561,-0.1810912841\
 H,0,-8.6675114871,0.4197665778,-0.1396045865\H,0,8.9363413211,4.306574
 0394,0.2918950305\H,0,7.0557819652,4.1333781988,-0.0165580018\H,0,7.56
 27755376,3.7831293809,1.6764844864\H,0,-8.0949422882,-3.2332679847,-0.
 0623515242\H,0,-8.3761319842,-3.0483348364,-1.8573876278\H,0,-6.596755
 4475,-3.1293574756,-1.3008655206\H,0,7.0799738524,0.3801912341,-0.2391
 717922\H,0,-6.5658535614,0.3467521703,-0.1888040054\H,0,5.5005377588,2
 .9529909711,0.5967661856\H,0,-4.9695474257,-2.1488125593,-1.1775539054
 \H,0,4.666439837,0.2229570417,-0.1323953075\H,0,-4.1464360476,0.593768
 7489,0.0035216332\H,0,3.3715027783,3.3233542254,1.465819823\H,0,1.5724
 355046,3.0781287949,0.952969899\H,0,2.9538807681,3.8440410291,-0.03588
 66467\H,0,-3.3193330483,-2.6650087929,-0.32815048\H,0,-2.2917878918,-2
 .4831753795,-1.9214608881\H,0,-1.2410644914,-2.6969172417,-0.297298272
 8\H,0,2.3535567187,-0.2730705881,-0.0915853705\H,0,-1.8097856016,1.104
 6287069,-0.0659805051\H,0,0.3378340824,1.7702024472,0.1513871487\H,0,0
 .2290346885,-1.0716573297,-0.7774994239\\Version=ES64L-G16RevA.03\Stat
 e=1-A\HF=-1706.9277904\RMSD=5.423e-09\PG=C01 [X(C40H56O2)]\\@


 IT IS IMPOSSIBLE TO MEDITATE ON TIME AND THE MYSTERY 
 OF NATURE WITHOUT AN OVERWHELMING EMOTION AT THE
 LIMITATIONS OF HUMAN INTELLIGENCE.

                                         -- ALFRED NORTH WHITEHEAD
 Job cpu time:       0 days  8 hours 26 minutes 47.0 seconds.
 Elapsed time:       0 days  2 hours  7 minutes 35.1 seconds.
 File lengths (MBytes):  RWF=   3127 Int=      0 D2E=      0 Chk=     84 Scr=      1
 Normal termination of Gaussian 16 at Fri Jul 19 10:07:58 2019.
