 Entering Gaussian System, Link 0=g16
 Input=Geometria-330-.com
 Output=Geometria-330-.log
 Initial command:
 /usr/local/g16/l1.exe "/home/padawan/israel-mol/zeaxanthin/spectra/emi/Gau-12883.inp" -scrdir="/home/padawan/israel-mol/zeaxanthin/spectra/emi/"
 Entering Link 1 = /usr/local/g16/l1.exe PID=     12885.
  
 Copyright (c) 1988,1990,1992,1993,1995,1998,2003,2009,2016,
            Gaussian, Inc.  All Rights Reserved.
  
 This is part of the Gaussian(R) 16 program.  It is based on
 the Gaussian(R) 09 system (copyright 2009, Gaussian, Inc.),
 the Gaussian(R) 03 system (copyright 2003, Gaussian, Inc.),
 the Gaussian(R) 98 system (copyright 1998, Gaussian, Inc.),
 the Gaussian(R) 94 system (copyright 1995, Gaussian, Inc.),
 the Gaussian 92(TM) system (copyright 1992, Gaussian, Inc.),
 the Gaussian 90(TM) system (copyright 1990, Gaussian, Inc.),
 the Gaussian 88(TM) system (copyright 1988, Gaussian, Inc.),
 the Gaussian 86(TM) system (copyright 1986, Carnegie Mellon
 University), and the Gaussian 82(TM) system (copyright 1983,
 Carnegie Mellon University). Gaussian is a federally registered
 trademark of Gaussian, Inc.
  
 This software contains proprietary and confidential information,
 including trade secrets, belonging to Gaussian, Inc.
  
 This software is provided under written license and may be
 used, copied, transmitted, or stored only in accord with that
 written license.
  
 The following legend is applicable only to US Government
 contracts under FAR:
  
                    RESTRICTED RIGHTS LEGEND
  
 Use, reproduction and disclosure by the US Government is
 subject to restrictions as set forth in subparagraphs (a)
 and (c) of the Commercial Computer Software - Restricted
 Rights clause in FAR 52.227-19.
  
 Gaussian, Inc.
 340 Quinnipiac St., Bldg. 40, Wallingford CT 06492
  
  
 ---------------------------------------------------------------
 Warning -- This program may not be used in any manner that
 competes with the business of Gaussian, Inc. or will provide
 assistance to any competitor of Gaussian, Inc.  The licensee
 of this program is prohibited from giving any competitor of
 Gaussian, Inc. access to this program.  By using this program,
 the user acknowledges that Gaussian, Inc. is engaged in the
 business of creating and licensing software in the field of
 computational chemistry and represents and warrants to the
 licensee that it is not a competitor of Gaussian, Inc. and that
 it will not use this program in any manner prohibited above.
 ---------------------------------------------------------------
  

 Cite this work as:
 Gaussian 16, Revision A.03,
 M. J. Frisch, G. W. Trucks, H. B. Schlegel, G. E. Scuseria, 
 M. A. Robb, J. R. Cheeseman, G. Scalmani, V. Barone, 
 G. A. Petersson, H. Nakatsuji, X. Li, M. Caricato, A. V. Marenich, 
 J. Bloino, B. G. Janesko, R. Gomperts, B. Mennucci, H. P. Hratchian, 
 J. V. Ortiz, A. F. Izmaylov, J. L. Sonnenberg, D. Williams-Young, 
 F. Ding, F. Lipparini, F. Egidi, J. Goings, B. Peng, A. Petrone, 
 T. Henderson, D. Ranasinghe, V. G. Zakrzewski, J. Gao, N. Rega, 
 G. Zheng, W. Liang, M. Hada, M. Ehara, K. Toyota, R. Fukuda, 
 J. Hasegawa, M. Ishida, T. Nakajima, Y. Honda, O. Kitao, H. Nakai, 
 T. Vreven, K. Throssell, J. A. Montgomery, Jr., J. E. Peralta, 
 F. Ogliaro, M. J. Bearpark, J. J. Heyd, E. N. Brothers, K. N. Kudin, 
 V. N. Staroverov, T. A. Keith, R. Kobayashi, J. Normand, 
 K. Raghavachari, A. P. Rendell, J. C. Burant, S. S. Iyengar, 
 J. Tomasi, M. Cossi, J. M. Millam, M. Klene, C. Adamo, R. Cammi, 
 J. W. Ochterski, R. L. Martin, K. Morokuma, O. Farkas, 
 J. B. Foresman, and D. J. Fox, Gaussian, Inc., Wallingford CT, 2016.
 
 ******************************************
 Gaussian 16:  ES64L-G16RevA.03 25-Dec-2016
                16-Jul-2019 
 ******************************************
 %nproc=4
 Will use up to    4 processors via shared memory.
 %Mem=2GB
 -------------------------------------
 # td=(NStates=1) CAM-B3LYP/6-31G(d,p)
 -------------------------------------
 1/38=1,172=1/1;
 2/12=2,17=6,18=5,40=1/2;
 3/5=1,6=6,7=101,11=9,25=1,30=1,74=-40/1,2,3,8;
 4//1;
 5/5=2,38=5/2;
 8/6=1,10=2,108=1/1;
 9/41=1,42=1,70=2/14;
 6/7=2,8=2,9=2,10=2/1;
 99/5=1,9=1/99;
 --
 TD
 --
 Symbolic Z-matrix:
 Charge =  0 Multiplicity = 1
 8                     14.62398  -2.37416  -0.48804 
 8                    -14.85684   1.8673    0.3965 
 6                     11.09256  -1.67552   0.8015 
 6                    -12.33689  -0.97815   0.61058 
 6                     12.624   -1.94844   0.75038 
 6                    -13.74212  -0.27245   0.48538 
 6                     13.26517  -1.87333  -0.58267 
 6                    -13.62216   1.20111   0.53938 
 6                     10.94015  -0.2616   -0.09556 
 6                    -11.26583  -0.32667  -0.19626 
 6                     13.34243  -0.37277  -1.09171 
 6                    -12.86362   1.6343   -0.73189 
 6                     11.93547   0.17045  -1.0078 
 6                    -11.5026   0.88967  -0.86286 
 6                     10.56423  -1.51054   2.23172 
 6                     10.27158  -2.81223   0.04014 
 6                    -12.0622  -1.04472   2.21123 
 6                    -12.51153  -2.47084   0.06653 
 6                     9.59766   0.37283   0.024 
 6                    -9.9462   -1.07711  -0.24557 
 6                     11.7225   1.46927  -1.71048 
 6                    -10.49828   1.53053  -1.8034 
 6                     9.33022   1.62793   0.12724 
 6                    -8.73578  -0.45239  -0.28466 
 6                     8.06517   2.30802   0.19338 
 6                    -7.45247  -1.26215  -0.4242 
 6                     8.04008   3.8688    0.32475 
 6                    -7.50143  -2.67482  -0.80627 
 6                     6.92208   1.55671   0.15141 
 6                    -6.33309  -0.52504  -0.24859 
 6                     5.61027   2.15938   0.41733 
 6                    -5.01109  -1.0174   -0.27808 
 6                     4.49993   1.34179   0.28022 
 6                    -3.89998  -0.18274  -0.1517 
 6                     3.18723   1.75951   0.44587 
 6                    -2.53587  -0.63752  -0.20202 
 6                     2.94617   3.1801    0.77182 
 6                    -2.28687  -2.1084   -0.49042 
 6                     2.11279   0.80987   0.23073 
 6                    -1.50551   0.20171  -0.00537 
 6                     0.78265   0.93376   0.40525 
 6                    -0.20876   0.0808   -0.09203 
 1                     13.04284  -1.32419   1.47065 
 1                     12.75287  -2.77222   1.33803 
 1                    -14.49899  -0.74013   1.28178 
 1                    -14.32907  -0.49015  -0.44161 
 1                     12.65263  -2.44835  -1.42839 
 1                    -13.2672   1.67079   1.48104 
 1                     13.94454   0.12373  -0.28366 
 1                     13.79112  -0.16864  -2.08512 
 1                    -13.5524   1.49869  -1.61946 
 1                    -12.7028   2.86991  -0.69909 
 1                     10.58641  -2.53573   2.71845 
 1                     9.47494  -1.19183   1.95292 
 1                     11.22574  -0.627     2.83245 
 1                     10.50909  -3.10113  -1.02594 
 1                     10.83899  -3.76906   0.5576 
 1                     9.11253  -2.74128   0.40555 
 1                    -12.12731   0.08852   2.43879 
 1                    -11.07866  -1.54832   2.4091 
 1                    -12.69831  -1.41676   2.8972 
 1                    -13.33939  -2.95363   0.64407 
 1                    -11.84177  -3.01137   0.13463 
 1                    -12.9469  -2.66011  -0.8633 
 1                     8.81572  -0.41588  -0.04408 
 1                    -9.86922  -2.32281  -0.2739 
 1                     10.66644   1.63146  -2.22125 
 1                     12.05911   2.4119   -1.24574 
 1                     12.16275   1.31467  -2.70632 
 1                    -11.10191   2.14158  -2.72536 
 1                    -9.81947   0.68582  -2.07374 
 1                    -9.81762   2.37448  -1.36399 
 1                     14.61131  -3.38617  -0.29351 
 1                    -15.46259   1.48066   1.01756 
 1                     10.35122   2.24646   0.06613 
 1                    -8.75696   0.6168   -0.30214 
 1                     9.03257   4.32339   0.20124 
 1                     7.35593   4.27239  -0.47953 
 1                     7.60081   4.05195   1.41719 
 1                    -8.24402  -3.2571   -0.14271 
 1                    -7.96027  -2.74208  -1.70554 
 1                    -6.55517  -3.16911  -0.74897 
 1                     6.94365   0.47912  -0.17229 
 1                    -6.33642   0.58105   0.17746 
 1                     5.4605    3.21228   0.51044 
 1                    -4.79399  -2.06703  -0.45092 
 1                     4.63278   0.35962  -0.08637 
 1                    -4.12715   0.66472   0.27749 
 1                     3.6786    3.54199   1.59087 
 1                     1.72271   3.38652   1.12593 
 1                     2.91459   4.05301  -0.25392 
 1                    -2.90891  -2.59888   0.31123 
 1                    -2.69758  -2.39967  -1.60062 
 1                    -1.23212  -2.22824  -0.58949 
 1                     2.63817  -0.17195   0.15285 
 1                    -1.87459   1.26426   0.18884 
 1                     0.45558   1.89797   0.69835 
 1                     0.19016  -0.81262  -0.60802 
 
 Stoichiometry    C40H56O2
 Framework group  C1[X(C40H56O2)]
 Deg. of freedom   288
 Full point group                 C1      NOp   1
 Largest Abelian subgroup         C1      NOp   1
 Largest concise Abelian subgroup C1      NOp   1
                         Standard orientation:                         
 ---------------------------------------------------------------------
 Center     Atomic      Atomic             Coordinates (Angstroms)
 Number     Number       Type             X           Y           Z
 ---------------------------------------------------------------------
      1          8           0       14.625662   -2.366689   -0.507875
      2          8           0      -14.855895    1.862832    0.408632
      3          6           0       11.092567   -1.689639    0.788556
      4          6           0      -12.336530   -0.986168    0.577707
      5          6           0       12.624042   -1.961848    0.734885
      6          6           0      -13.741518   -0.278259    0.462617
      7          6           0       13.267041   -1.864149   -0.595824
      8          6           0      -13.621480    1.194149    0.541832
      9          6           0       10.941525   -0.260649   -0.084529
     10          6           0      -11.264310   -0.321197   -0.216481
     11          6           0       13.345148   -0.355154   -1.079160
     12          6           0      -12.861164    1.648802   -0.720852
     13          6           0       11.938126    0.186731   -0.987935
     14          6           0      -11.500046    0.906335   -0.862616
     15          6           0       10.562305   -1.548941    2.220657
     16          6           0       10.272503   -2.813129    0.006857
     17          6           0      -12.064024   -1.079995    2.177357
     18          6           0      -12.510582   -2.469364    0.008101
     19          6           0        9.598931    0.371824    0.043981
     20          6           0       -9.944689   -1.070853   -0.276754
     21          6           0       11.726244    1.497347   -1.668708
     22          6           0      -10.494379    1.562982   -1.790752
     23          6           0        9.331482    1.625023    0.168196
     24          6           0       -8.734157   -0.445707   -0.303575
     25          6           0        8.066411    2.304047    0.244177
     26          6           0       -7.450740   -1.253146   -0.455121
     27          6           0        8.041304    3.862369    0.402039
     28          6           0       -7.499321   -2.659099   -0.861233
     29          6           0        6.923309    1.553712    0.187883
     30          6           0       -6.331517   -0.519267   -0.265483
     31          6           0        5.611200    2.151932    0.462230
     32          6           0       -5.009533   -1.011219   -0.301549
     33          6           0        4.500960    1.336933    0.309721
     34          6           0       -3.898511   -0.178971   -0.159473
     35          6           0        3.188077    1.751940    0.480672
     36          6           0       -2.534379   -0.633005   -0.215670
     37          6           0        2.946720    3.166806    0.830418
     38          6           0       -2.285137   -2.098798   -0.528711
     39          6           0        2.113837    0.806235    0.247954
     40          6           0       -1.504204    0.202631   -0.003379
     41          6           0        0.783468    0.927300    0.422748
     42          6           0       -0.207348    0.083051   -0.090317
     43          1           0       13.041972   -1.349984    1.466241
     44          1           0       12.752030   -2.795517    1.308613
     45          1           0      -14.499521   -0.759329    1.249916
     46          1           0      -14.327224   -0.480087   -0.468735
     47          1           0       12.655584   -2.424628   -1.452036
     48          1           0      -13.267749    1.647700    1.491827
     49          1           0       13.946203    0.127454   -0.261966
     50          1           0       13.795210   -0.134218   -2.068343
     51          1           0      -13.548752    1.528405   -1.611537
     52          1           0      -12.700259    2.883661   -0.666816
     53          1           0       10.583721   -2.582271    2.689907
     54          1           0        9.473426   -1.225400    1.945844
     55          1           0       11.223087   -0.675836    2.837227
     56          1           0       10.511432   -3.083889   -1.063656
     57          1           0       10.839115   -3.778691    0.508734
     58          1           0        9.112965   -2.748256    0.371846
     59          1           0      -12.129333    0.049219    2.424079
     60          1           0      -11.080808   -1.587005    2.367976
     61          1           0      -12.701107   -1.463564    2.856038
     62          1           0      -13.339284   -2.961810    0.576225
     63          1           0      -11.840973   -3.011058    0.067905
     64          1           0      -12.944711   -2.642732   -0.925401
     65          1           0        8.817011   -0.415507   -0.038561
     66          1           0       -9.867800   -2.315899   -0.326171
     67          1           0       10.670897    1.668331   -2.178081
     68          1           0       12.062322    2.431893   -1.187541
     69          1           0       12.167832    1.359654   -2.666435
     70          1           0      -11.096697    2.189699   -2.703010
     71          1           0       -9.815288    0.722907   -2.074506
     72          1           0       -9.814228    2.399247   -1.336128
     73          1           0       14.612626   -3.381863   -0.330611
     74          1           0      -15.462530    1.465753    1.022205
     75          1           0       10.352632    2.244377    0.119007
     76          1           0       -8.755199    0.623621   -0.302892
     77          1           0        9.034013    4.318869    0.287628
     78          1           0        7.358296    4.279674   -0.396188
     79          1           0        7.600570    4.026966    1.496841
     80          1           0       -8.242872   -3.252491   -0.208683
     81          1           0       -7.956946   -2.711001   -1.762142
     82          1           0       -6.553194   -3.154416   -0.811065
     83          1           0        6.945206    0.481777   -0.154069
     84          1           0       -6.335318    0.579413    0.179322
     85          1           0        5.461414    3.203112    0.573032
     86          1           0       -4.792306   -2.057790   -0.491920
     87          1           0        4.634205    0.361124   -0.073339
     88          1           0       -4.126181    0.661091    0.283758
     89          1           0        3.678079    3.514619    1.656497
     90          1           0        1.722805    3.367331    1.186318
     91          1           0        2.916626    4.057048   -0.180370
     92          1           0       -2.908322   -2.602763    0.263638
     93          1           0       -2.694367   -2.371082   -1.644260
     94          1           0       -1.230271   -2.217065   -0.628370
     95          1           0        2.639216   -0.174188    0.154095
     96          1           0       -1.873438    1.261777    0.208385
     97          1           0        0.456100    1.886425    0.731763
     98          1           0        0.192183   -0.801515   -0.620890
 ---------------------------------------------------------------------
 Rotational constants (GHZ):           0.2432377           0.0093462           0.0091332
 Standard basis: 6-31G(d,p) (6D, 7F)
 There are   910 symmetry adapted cartesian basis functions of A   symmetry.
 There are   910 symmetry adapted basis functions of A   symmetry.
   910 basis functions,  1568 primitive gaussians,   910 cartesian basis functions
   156 alpha electrons      156 beta electrons
       nuclear repulsion energy      3963.9246434853 Hartrees.
 NAtoms=   98 NActive=   98 NUniq=   98 SFac= 1.00D+00 NAtFMM=   60 NAOKFM=T Big=T
 Integral buffers will be    131072 words long.
 Raffenetti 1 integral format.
 Two-electron integral symmetry is turned on.
 One-electron integrals computed using PRISM.
 NBasis=   910 RedAO= T EigKep=  8.04D-04  NBF=   910
 NBsUse=   910 1.00D-06 EigRej= -1.00D+00 NBFU=   910
 ExpMin= 1.61D-01 ExpMax= 5.48D+03 ExpMxC= 8.25D+02 IAcc=3 IRadAn=         5 AccDes= 0.00D+00
 Harris functional with IExCor=20419 and IRadAn=       5 diagonalized for initial guess.
 HarFok:  IExCor=20419 AccDes= 0.00D+00 IRadAn=         5 IDoV= 1 UseB2=F ITyADJ=14
 ICtDFT=  3500011 ScaDFX=  1.000000  1.000000  1.000000  1.000000
 FoFCou: FMM=F IPFlag=           0 FMFlag=      100000 FMFlg1=        2001
         NFxFlg=           0 DoJE=T BraDBF=F KetDBF=T FulRan=T
         wScrn=  0.000000 ICntrl=       500 IOpCl=  0 I1Cent=   200000004 NGrid=           0
         NMat0=    1 NMatS0=      1 NMatT0=    0 NMatD0=    1 NMtDS0=    0 NMtDT0=    0
 Petite list used in FoFCou.
 Requested convergence on RMS density matrix=1.00D-08 within 128 cycles.
 Requested convergence on MAX density matrix=1.00D-06.
 Requested convergence on             energy=1.00D-06.
 No special actions if energy rises.
 Integral accuracy reduced to 1.0D-05 until final iterations.
 Initial convergence to 1.0D-05 achieved.  Increase integral accuracy.
 SCF Done:  E(RCAM-B3LYP) =  -1706.89645310     A.U. after   15 cycles
            NFock= 15  Conv=0.57D-08     -V/T= 2.0106
 DoSCS=F DFT=T ScalE2(SS,OS)=  1.000000  1.000000
 ExpMin= 1.61D-01 ExpMax= 5.48D+03 ExpMxC= 8.25D+02 IAcc=3 IRadAn=         5 AccDes= 0.00D+00
 HarFok:  IExCor=  205 AccDes= 0.00D+00 IRadAn=         5 IDoV=-2 UseB2=F ITyADJ=14
 ICtDFT= 12500011 ScaDFX=  1.000000  1.000000  1.000000  1.000000
 GSVD:  LWork=       -2100 too small for GESVD, short by        9450 words or        9450 for optimal perf.
 Range of M.O.s used for correlation:    43   910
 NBasis=   910 NAE=   156 NBE=   156 NFC=    42 NFV=     0
 NROrb=    868 NOA=   114 NOB=   114 NVA=   754 NVB=   754
 Orbital symmetries:
       Occupied  (A) (A) (A) (A) (A) (A) (A) (A) (A) (A) (A) (A)
                 (A) (A) (A) (A) (A) (A) (A) (A) (A) (A) (A) (A)
                 (A) (A) (A) (A) (A) (A) (A) (A) (A) (A) (A) (A)
                 (A) (A) (A) (A) (A) (A) (A) (A) (A) (A) (A) (A)
                 (A) (A) (A) (A) (A) (A) (A) (A) (A) (A) (A) (A)
                 (A) (A) (A) (A) (A) (A) (A) (A) (A) (A) (A) (A)
                 (A) (A) (A) (A) (A) (A) (A) (A) (A) (A) (A) (A)
                 (A) (A) (A) (A) (A) (A) (A) (A) (A) (A) (A) (A)
                 (A) (A) (A) (A) (A) (A) (A) (A) (A) (A) (A) (A)
                 (A) (A) (A) (A) (A) (A) (A) (A) (A) (A) (A) (A)
                 (A) (A) (A) (A) (A) (A) (A) (A) (A) (A) (A) (A)
                 (A) (A) (A) (A) (A) (A) (A) (A) (A) (A) (A) (A)
                 (A) (A) (A) (A) (A) (A) (A) (A) (A) (A) (A) (A)
       Virtual   (A) (A) (A) (A) (A) (A) (A) (A) (A) (A) (A) (A)
                 (A) (A) (A) (A) (A) (A) (A) (A) (A) (A) (A) (A)
                 (A) (A) (A) (A) (A) (A) (A) (A) (A) (A) (A) (A)
                 (A) (A) (A) (A) (A) (A) (A) (A) (A) (A) (A) (A)
                 (A) (A) (A) (A) (A) (A) (A) (A) (A) (A) (A) (A)
                 (A) (A) (A) (A) (A) (A) (A) (A) (A) (A) (A) (A)
                 (A) (A) (A) (A) (A) (A) (A) (A) (A) (A) (A) (A)
                 (A) (A) (A) (A) (A) (A) (A) (A) (A) (A) (A) (A)
                 (A) (A) (A) (A) (A) (A) (A) (A) (A) (A) (A) (A)
                 (A) (A) (A) (A) (A) (A) (A) (A) (A) (A) (A) (A)
                 (A) (A) (A) (A) (A) (A) (A) (A) (A) (A) (A) (A)
                 (A) (A) (A) (A) (A) (A) (A) (A) (A) (A) (A) (A)
                 (A) (A) (A) (A) (A) (A) (A) (A) (A) (A) (A) (A)
                 (A) (A) (A) (A) (A) (A) (A) (A) (A) (A) (A) (A)
                 (A) (A) (A) (A) (A) (A) (A) (A) (A) (A) (A) (A)
                 (A) (A) (A) (A) (A) (A) (A) (A) (A) (A) (A) (A)
                 (A) (A) (A) (A) (A) (A) (A) (A) (A) (A) (A) (A)
                 (A) (A) (A) (A) (A) (A) (A) (A) (A) (A) (A) (A)
                 (A) (A) (A) (A) (A) (A) (A) (A) (A) (A) (A) (A)
                 (A) (A) (A) (A) (A) (A) (A) (A) (A) (A) (A) (A)
                 (A) (A) (A) (A) (A) (A) (A) (A) (A) (A) (A) (A)
                 (A) (A) (A) (A) (A) (A) (A) (A) (A) (A) (A) (A)
                 (A) (A) (A) (A) (A) (A) (A) (A) (A) (A) (A) (A)
                 (A) (A) (A) (A) (A) (A) (A) (A) (A) (A) (A) (A)
                 (A) (A) (A) (A) (A) (A) (A) (A) (A) (A) (A) (A)
                 (A) (A) (A) (A) (A) (A) (A) (A) (A) (A) (A) (A)
                 (A) (A) (A) (A) (A) (A) (A) (A) (A) (A) (A) (A)
                 (A) (A) (A) (A) (A) (A) (A) (A) (A) (A) (A) (A)
                 (A) (A) (A) (A) (A) (A) (A) (A) (A) (A) (A) (A)
                 (A) (A) (A) (A) (A) (A) (A) (A) (A) (A) (A) (A)
                 (A) (A) (A) (A) (A) (A) (A) (A) (A) (A) (A) (A)
                 (A) (A) (A) (A) (A) (A) (A) (A) (A) (A) (A) (A)
                 (A) (A) (A) (A) (A) (A) (A) (A) (A) (A) (A) (A)
                 (A) (A) (A) (A) (A) (A) (A) (A) (A) (A) (A) (A)
                 (A) (A) (A) (A) (A) (A) (A) (A) (A) (A) (A) (A)
                 (A) (A) (A) (A) (A) (A) (A) (A) (A) (A) (A) (A)
                 (A) (A) (A) (A) (A) (A) (A) (A) (A) (A) (A) (A)
                 (A) (A) (A) (A) (A) (A) (A) (A) (A) (A) (A) (A)
                 (A) (A) (A) (A) (A) (A) (A) (A) (A) (A) (A) (A)
                 (A) (A) (A) (A) (A) (A) (A) (A) (A) (A) (A) (A)
                 (A) (A) (A) (A) (A) (A) (A) (A) (A) (A) (A) (A)
                 (A) (A) (A) (A) (A) (A) (A) (A) (A) (A) (A) (A)
                 (A) (A) (A) (A) (A) (A) (A) (A) (A) (A) (A) (A)
                 (A) (A) (A) (A) (A) (A) (A) (A) (A) (A) (A) (A)
                 (A) (A) (A) (A) (A) (A) (A) (A) (A) (A) (A) (A)
                 (A) (A) (A) (A) (A) (A) (A) (A) (A) (A) (A) (A)
                 (A) (A) (A) (A) (A) (A) (A) (A) (A) (A) (A) (A)
                 (A) (A) (A) (A) (A) (A) (A) (A) (A) (A) (A) (A)
                 (A) (A) (A) (A) (A) (A) (A) (A) (A) (A) (A) (A)
                 (A) (A) (A) (A) (A) (A) (A) (A) (A) (A) (A) (A)
                 (A) (A) (A) (A) (A) (A) (A) (A) (A) (A) (A) (A)
                 (A) (A) (A) (A) (A) (A) (A) (A) (A) (A) (A) (A)
                 (A) (A) (A) (A) (A) (A) (A) (A) (A) (A) (A) (A)
                 (A) (A) (A) (A) (A) (A) (A) (A) (A) (A) (A) (A)
                 (A) (A) (A) (A) (A) (A) (A) (A) (A) (A) (A) (A)
                 (A) (A) (A) (A) (A) (A) (A) (A) (A) (A) (A) (A)
                 (A) (A) (A) (A) (A) (A) (A) (A) (A) (A) (A) (A)
                 (A) (A) (A) (A) (A) (A) (A) (A) (A) (A) (A) (A)
                 (A) (A) (A) (A) (A) (A) (A) (A) (A) (A) (A) (A)
                 (A) (A) (A) (A) (A) (A) (A) (A) (A) (A) (A) (A)
                 (A) (A) (A) (A) (A) (A) (A) (A) (A) (A) (A) (A)
                 (A) (A) (A) (A) (A) (A) (A) (A) (A) (A) (A) (A)
                 (A) (A) (A) (A) (A) (A) (A) (A) (A) (A)
     4 initial guesses have been made.
 Convergence on wavefunction:    0.001000000000000
 Iteration     1 Dimension     4 NMult     0 NNew      4
 CISAX will form     4 AO SS matrices at one time.
 Iteration     2 Dimension     6 NMult     4 NNew      2
 Iteration     3 Dimension     8 NMult     6 NNew      2
 Iteration     4 Dimension    10 NMult     8 NNew      2
 Iteration     5 Dimension    12 NMult    10 NNew      2
 Iteration     6 Dimension    14 NMult    12 NNew      2
 ***********************************************************************
 Excited states from <AA,BB:AA,BB> singles matrix:
 ***********************************************************************
 
 Ground to excited state transition densities written to RWF  633
 Ground to excited state transition electric dipole moments (Au):
       state          X           Y           Z        Dip. S.      Osc.
         1         8.2050      1.4096      0.3763     69.4508      3.5980
 Ground to excited state transition velocity dipole moments (Au):
       state          X           Y           Z        Dip. S.      Osc.
         1        -0.6156     -0.1036     -0.0279      0.3905      3.3501
 Ground to excited state transition magnetic dipole moments (Au):
       state          X           Y           Z
         1         0.0463     -0.3300      0.8820
 Ground to excited state transition velocity quadrupole moments (Au):
       state          XX          YY          ZZ          XY          XZ          YZ
         1        -1.1696     -0.3320     -0.0165     -0.2918      0.2114     -0.0257
 <0|del|b> * <b|rxdel|0> + <0|del|b> * <b|delr+rdel|0>
 Rotatory Strengths (R) in cgs (10**-40 erg-esu-cm/Gauss)
       state          XX          YY          ZZ    R(velocity)    E-M Angle
         1       180.2591   -206.8465   -145.9082    -57.4986       91.84
 1/2[<0|r|b>*<b|rxdel|0> + (<0|rxdel|b>*<b|r|0>)*]
 Rotatory Strengths (R) in cgs (10**-40 erg-esu-cm/Gauss)
       state          XX          YY          ZZ     R(length)
         1      -268.8083    328.9856   -234.7039    -58.1755
  1/2[<0|del|b>*<b|r|0> + (<0|r|b>*<b|del|0>)*] (Au)
       state          X           Y           Z        Dip. S.   Osc.(frdel)
         1        -5.0511     -0.1461     -0.0105      5.2077      3.4718

 Excitation energies and oscillator strengths:
 
 Excited State   1:      Singlet-A      2.1146 eV  586.33 nm  f=3.5980  <S**2>=0.000
     155 ->158        -0.13379
     156 ->157         0.69637
 This state for optimization and/or second-order correction.
 Total Energy, E(TD-HF/TD-DFT) =  -1706.81874341    
 Copying the excited state density for this state as the 1-particle RhoCI density.
 SavETr:  write IOETrn=   770 NScale= 10 NData=  16 NLR=1 NState=    1 LETran=      28.

 **********************************************************************

            Population analysis using the SCF density.

 **********************************************************************

 Orbital symmetries:
       Occupied  (A) (A) (A) (A) (A) (A) (A) (A) (A) (A) (A) (A)
                 (A) (A) (A) (A) (A) (A) (A) (A) (A) (A) (A) (A)
                 (A) (A) (A) (A) (A) (A) (A) (A) (A) (A) (A) (A)
                 (A) (A) (A) (A) (A) (A) (A) (A) (A) (A) (A) (A)
                 (A) (A) (A) (A) (A) (A) (A) (A) (A) (A) (A) (A)
                 (A) (A) (A) (A) (A) (A) (A) (A) (A) (A) (A) (A)
                 (A) (A) (A) (A) (A) (A) (A) (A) (A) (A) (A) (A)
                 (A) (A) (A) (A) (A) (A) (A) (A) (A) (A) (A) (A)
                 (A) (A) (A) (A) (A) (A) (A) (A) (A) (A) (A) (A)
                 (A) (A) (A) (A) (A) (A) (A) (A) (A) (A) (A) (A)
                 (A) (A) (A) (A) (A) (A) (A) (A) (A) (A) (A) (A)
                 (A) (A) (A) (A) (A) (A) (A) (A) (A) (A) (A) (A)
                 (A) (A) (A) (A) (A) (A) (A) (A) (A) (A) (A) (A)
       Virtual   (A) (A) (A) (A) (A) (A) (A) (A) (A) (A) (A) (A)
                 (A) (A) (A) (A) (A) (A) (A) (A) (A) (A) (A) (A)
                 (A) (A) (A) (A) (A) (A) (A) (A) (A) (A) (A) (A)
                 (A) (A) (A) (A) (A) (A) (A) (A) (A) (A) (A) (A)
                 (A) (A) (A) (A) (A) (A) (A) (A) (A) (A) (A) (A)
                 (A) (A) (A) (A) (A) (A) (A) (A) (A) (A) (A) (A)
                 (A) (A) (A) (A) (A) (A) (A) (A) (A) (A) (A) (A)
                 (A) (A) (A) (A) (A) (A) (A) (A) (A) (A) (A) (A)
                 (A) (A) (A) (A) (A) (A) (A) (A) (A) (A) (A) (A)
                 (A) (A) (A) (A) (A) (A) (A) (A) (A) (A) (A) (A)
                 (A) (A) (A) (A) (A) (A) (A) (A) (A) (A) (A) (A)
                 (A) (A) (A) (A) (A) (A) (A) (A) (A) (A) (A) (A)
                 (A) (A) (A) (A) (A) (A) (A) (A) (A) (A) (A) (A)
                 (A) (A) (A) (A) (A) (A) (A) (A) (A) (A) (A) (A)
                 (A) (A) (A) (A) (A) (A) (A) (A) (A) (A) (A) (A)
                 (A) (A) (A) (A) (A) (A) (A) (A) (A) (A) (A) (A)
                 (A) (A) (A) (A) (A) (A) (A) (A) (A) (A) (A) (A)
                 (A) (A) (A) (A) (A) (A) (A) (A) (A) (A) (A) (A)
                 (A) (A) (A) (A) (A) (A) (A) (A) (A) (A) (A) (A)
                 (A) (A) (A) (A) (A) (A) (A) (A) (A) (A) (A) (A)
                 (A) (A) (A) (A) (A) (A) (A) (A) (A) (A) (A) (A)
                 (A) (A) (A) (A) (A) (A) (A) (A) (A) (A) (A) (A)
                 (A) (A) (A) (A) (A) (A) (A) (A) (A) (A) (A) (A)
                 (A) (A) (A) (A) (A) (A) (A) (A) (A) (A) (A) (A)
                 (A) (A) (A) (A) (A) (A) (A) (A) (A) (A) (A) (A)
                 (A) (A) (A) (A) (A) (A) (A) (A) (A) (A) (A) (A)
                 (A) (A) (A) (A) (A) (A) (A) (A) (A) (A) (A) (A)
                 (A) (A) (A) (A) (A) (A) (A) (A) (A) (A) (A) (A)
                 (A) (A) (A) (A) (A) (A) (A) (A) (A) (A) (A) (A)
                 (A) (A) (A) (A) (A) (A) (A) (A) (A) (A) (A) (A)
                 (A) (A) (A) (A) (A) (A) (A) (A) (A) (A) (A) (A)
                 (A) (A) (A) (A) (A) (A) (A) (A) (A) (A) (A) (A)
                 (A) (A) (A) (A) (A) (A) (A) (A) (A) (A) (A) (A)
                 (A) (A) (A) (A) (A) (A) (A) (A) (A) (A) (A) (A)
                 (A) (A) (A) (A) (A) (A) (A) (A) (A) (A) (A) (A)
                 (A) (A) (A) (A) (A) (A) (A) (A) (A) (A) (A) (A)
                 (A) (A) (A) (A) (A) (A) (A) (A) (A) (A) (A) (A)
                 (A) (A) (A) (A) (A) (A) (A) (A) (A) (A) (A) (A)
                 (A) (A) (A) (A) (A) (A) (A) (A) (A) (A) (A) (A)
                 (A) (A) (A) (A) (A) (A) (A) (A) (A) (A) (A) (A)
                 (A) (A) (A) (A) (A) (A) (A) (A) (A) (A) (A) (A)
                 (A) (A) (A) (A) (A) (A) (A) (A) (A) (A) (A) (A)
                 (A) (A) (A) (A) (A) (A) (A) (A) (A) (A) (A) (A)
                 (A) (A) (A) (A) (A) (A) (A) (A) (A) (A) (A) (A)
                 (A) (A) (A) (A) (A) (A) (A) (A) (A) (A) (A) (A)
                 (A) (A) (A) (A) (A) (A) (A) (A) (A) (A) (A) (A)
                 (A) (A) (A) (A) (A) (A) (A) (A) (A) (A) (A) (A)
                 (A) (A) (A) (A) (A) (A) (A) (A) (A) (A) (A) (A)
                 (A) (A) (A) (A) (A) (A) (A) (A) (A) (A) (A) (A)
                 (A) (A) (A) (A) (A) (A) (A) (A) (A) (A) (A) (A)
                 (A) (A) (A) (A) (A) (A) (A) (A) (A) (A) (A) (A)
                 (A) (A) (A) (A) (A) (A) (A) (A) (A) (A) (A) (A)
                 (A) (A) (A) (A) (A) (A) (A) (A) (A) (A) (A) (A)
                 (A) (A) (A) (A) (A) (A) (A) (A) (A) (A) (A) (A)
                 (A) (A) (A) (A) (A) (A) (A) (A) (A) (A) (A) (A)
                 (A) (A) (A) (A) (A) (A) (A) (A) (A) (A) (A) (A)
                 (A) (A) (A) (A) (A) (A) (A) (A) (A) (A) (A) (A)
                 (A) (A) (A) (A) (A) (A) (A) (A) (A) (A) (A) (A)
                 (A) (A) (A) (A) (A) (A) (A) (A) (A) (A) (A) (A)
                 (A) (A) (A) (A) (A) (A) (A) (A) (A) (A) (A) (A)
                 (A) (A) (A) (A) (A) (A) (A) (A) (A) (A) (A) (A)
                 (A) (A) (A) (A) (A) (A) (A) (A) (A) (A) (A) (A)
                 (A) (A) (A) (A) (A) (A) (A) (A) (A) (A)
 The electronic state is 1-A.
 Alpha  occ. eigenvalues --  -19.21264 -19.20242 -10.31743 -10.30128 -10.29554
 Alpha  occ. eigenvalues --  -10.28835 -10.28498 -10.27986 -10.27975 -10.27956
 Alpha  occ. eigenvalues --  -10.27893 -10.27538 -10.27358 -10.27350 -10.27332
 Alpha  occ. eigenvalues --  -10.27251 -10.27204 -10.27123 -10.27040 -10.26751
 Alpha  occ. eigenvalues --  -10.26717 -10.26668 -10.26660 -10.26538 -10.26426
 Alpha  occ. eigenvalues --  -10.26303 -10.26303 -10.26231 -10.26153 -10.26119
 Alpha  occ. eigenvalues --  -10.26026 -10.25783 -10.25775 -10.25490 -10.25386
 Alpha  occ. eigenvalues --  -10.25159 -10.25092 -10.25089 -10.24997 -10.24954
 Alpha  occ. eigenvalues --  -10.23464 -10.22036  -1.09974  -1.07101  -0.92987
 Alpha  occ. eigenvalues --   -0.92656  -0.92130  -0.91645  -0.90996  -0.89818
 Alpha  occ. eigenvalues --   -0.87817  -0.86504  -0.85749  -0.85189  -0.84464
 Alpha  occ. eigenvalues --   -0.83405  -0.81461  -0.80217  -0.79908  -0.78461
 Alpha  occ. eigenvalues --   -0.77747  -0.77074  -0.75843  -0.75477  -0.74982
 Alpha  occ. eigenvalues --   -0.74470  -0.74204  -0.74040  -0.73273  -0.70787
 Alpha  occ. eigenvalues --   -0.68125  -0.67027  -0.65896  -0.64716  -0.64487
 Alpha  occ. eigenvalues --   -0.62785  -0.61887  -0.61567  -0.60888  -0.60061
 Alpha  occ. eigenvalues --   -0.59515  -0.58529  -0.57697  -0.57059  -0.56049
 Alpha  occ. eigenvalues --   -0.55532  -0.54825  -0.54536  -0.54141  -0.54079
 Alpha  occ. eigenvalues --   -0.52862  -0.52396  -0.51715  -0.51408  -0.50684
 Alpha  occ. eigenvalues --   -0.50208  -0.49950  -0.49663  -0.49341  -0.49132
 Alpha  occ. eigenvalues --   -0.48921  -0.48617  -0.48220  -0.48049  -0.47913
 Alpha  occ. eigenvalues --   -0.47834  -0.47124  -0.46967  -0.46349  -0.45910
 Alpha  occ. eigenvalues --   -0.45780  -0.45556  -0.45336  -0.44903  -0.44623
 Alpha  occ. eigenvalues --   -0.44301  -0.43900  -0.43812  -0.43598  -0.43434
 Alpha  occ. eigenvalues --   -0.42957  -0.42645  -0.42162  -0.42074  -0.41856
 Alpha  occ. eigenvalues --   -0.41657  -0.41544  -0.41319  -0.41245  -0.40940
 Alpha  occ. eigenvalues --   -0.40489  -0.40008  -0.39610  -0.39588  -0.39430
 Alpha  occ. eigenvalues --   -0.39161  -0.39058  -0.38137  -0.37636  -0.37610
 Alpha  occ. eigenvalues --   -0.37217  -0.36887  -0.36263  -0.35832  -0.35430
 Alpha  occ. eigenvalues --   -0.35246  -0.34424  -0.33440  -0.32318  -0.32184
 Alpha  occ. eigenvalues --   -0.32093  -0.29296  -0.27851  -0.26027  -0.23895
 Alpha  occ. eigenvalues --   -0.19133
 Alpha virt. eigenvalues --   -0.06335  -0.00589   0.02245   0.05101   0.07026
 Alpha virt. eigenvalues --    0.09173   0.10555   0.10819   0.11154   0.11946
 Alpha virt. eigenvalues --    0.12020   0.12235   0.12445   0.12973   0.13585
 Alpha virt. eigenvalues --    0.13609   0.14318   0.14556   0.14660   0.15077
 Alpha virt. eigenvalues --    0.15203   0.15374   0.15669   0.15934   0.16105
 Alpha virt. eigenvalues --    0.16313   0.16692   0.17117   0.17327   0.17522
 Alpha virt. eigenvalues --    0.17550   0.17935   0.18391   0.18549   0.19526
 Alpha virt. eigenvalues --    0.19779   0.19884   0.20201   0.20426   0.20696
 Alpha virt. eigenvalues --    0.20808   0.20991   0.21480   0.21675   0.21778
 Alpha virt. eigenvalues --    0.22163   0.22296   0.22399   0.22627   0.23052
 Alpha virt. eigenvalues --    0.23289   0.23800   0.24171   0.24257   0.24411
 Alpha virt. eigenvalues --    0.24620   0.24922   0.25111   0.25593   0.26095
 Alpha virt. eigenvalues --    0.26497   0.26732   0.26811   0.26849   0.27286
 Alpha virt. eigenvalues --    0.27705   0.28638   0.28883   0.29198   0.29355
 Alpha virt. eigenvalues --    0.29399   0.29765   0.30184   0.30411   0.30613
 Alpha virt. eigenvalues --    0.31275   0.31346   0.31544   0.31761   0.31919
 Alpha virt. eigenvalues --    0.32034   0.32677   0.33169   0.34232   0.34650
 Alpha virt. eigenvalues --    0.34951   0.35795   0.36246   0.37058   0.37338
 Alpha virt. eigenvalues --    0.38120   0.38775   0.39771   0.40727   0.41792
 Alpha virt. eigenvalues --    0.42556   0.42795   0.43696   0.44885   0.45569
 Alpha virt. eigenvalues --    0.45680   0.47149   0.48300   0.48505   0.49433
 Alpha virt. eigenvalues --    0.50766   0.51505   0.52878   0.53885   0.54177
 Alpha virt. eigenvalues --    0.54517   0.54656   0.55608   0.56386   0.56853
 Alpha virt. eigenvalues --    0.56962   0.57231   0.57610   0.57877   0.58405
 Alpha virt. eigenvalues --    0.58782   0.59194   0.59531   0.59655   0.60262
 Alpha virt. eigenvalues --    0.60550   0.61016   0.61456   0.61562   0.62095
 Alpha virt. eigenvalues --    0.62215   0.62611   0.62820   0.63157   0.63427
 Alpha virt. eigenvalues --    0.63826   0.63936   0.64508   0.64653   0.65399
 Alpha virt. eigenvalues --    0.65674   0.65759   0.66070   0.66248   0.66365
 Alpha virt. eigenvalues --    0.66718   0.66948   0.67686   0.67825   0.68114
 Alpha virt. eigenvalues --    0.68211   0.68632   0.69106   0.69540   0.69826
 Alpha virt. eigenvalues --    0.70366   0.70729   0.71121   0.71148   0.71744
 Alpha virt. eigenvalues --    0.71962   0.72066   0.72497   0.72858   0.73268
 Alpha virt. eigenvalues --    0.73906   0.74495   0.74705   0.75104   0.75339
 Alpha virt. eigenvalues --    0.75508   0.76208   0.76340   0.76596   0.76768
 Alpha virt. eigenvalues --    0.77404   0.77739   0.77980   0.78423   0.78851
 Alpha virt. eigenvalues --    0.79049   0.79281   0.80428   0.80564   0.80786
 Alpha virt. eigenvalues --    0.81302   0.81582   0.82120   0.82474   0.82574
 Alpha virt. eigenvalues --    0.83022   0.83109   0.83189   0.83747   0.83788
 Alpha virt. eigenvalues --    0.84286   0.84598   0.85082   0.85183   0.85520
 Alpha virt. eigenvalues --    0.85658   0.86114   0.86287   0.86794   0.87331
 Alpha virt. eigenvalues --    0.87444   0.87833   0.88024   0.88089   0.88360
 Alpha virt. eigenvalues --    0.88419   0.88979   0.89703   0.89826   0.90091
 Alpha virt. eigenvalues --    0.90209   0.90402   0.90562   0.90955   0.90988
 Alpha virt. eigenvalues --    0.91434   0.91908   0.91968   0.92079   0.92739
 Alpha virt. eigenvalues --    0.92797   0.93128   0.93206   0.93331   0.93740
 Alpha virt. eigenvalues --    0.94856   0.95218   0.95548   0.95694   0.95846
 Alpha virt. eigenvalues --    0.95980   0.96537   0.96726   0.97100   0.97323
 Alpha virt. eigenvalues --    0.97955   0.98143   0.98395   0.98948   0.99087
 Alpha virt. eigenvalues --    0.99643   0.99691   0.99744   1.00903   1.01474
 Alpha virt. eigenvalues --    1.02042   1.02209   1.02384   1.02728   1.03186
 Alpha virt. eigenvalues --    1.03419   1.03894   1.04347   1.04490   1.05191
 Alpha virt. eigenvalues --    1.05385   1.05739   1.06572   1.06965   1.07087
 Alpha virt. eigenvalues --    1.07527   1.08126   1.08340   1.09126   1.10094
 Alpha virt. eigenvalues --    1.10144   1.10898   1.11373   1.11537   1.12974
 Alpha virt. eigenvalues --    1.13239   1.13753   1.14277   1.14849   1.15090
 Alpha virt. eigenvalues --    1.15936   1.17049   1.17607   1.17892   1.18477
 Alpha virt. eigenvalues --    1.18807   1.19390   1.20074   1.20413   1.20806
 Alpha virt. eigenvalues --    1.21298   1.22705   1.23080   1.23651   1.24316
 Alpha virt. eigenvalues --    1.24793   1.25448   1.25605   1.26916   1.27531
 Alpha virt. eigenvalues --    1.27639   1.27818   1.29094   1.29801   1.30510
 Alpha virt. eigenvalues --    1.31324   1.33431   1.34184   1.35466   1.35653
 Alpha virt. eigenvalues --    1.36187   1.37384   1.37973   1.38992   1.39544
 Alpha virt. eigenvalues --    1.40406   1.40481   1.41201   1.41633   1.42008
 Alpha virt. eigenvalues --    1.42194   1.42952   1.44402   1.44855   1.45550
 Alpha virt. eigenvalues --    1.46282   1.46914   1.47526   1.48461   1.48802
 Alpha virt. eigenvalues --    1.49356   1.49529   1.50583   1.51385   1.52720
 Alpha virt. eigenvalues --    1.53667   1.54112   1.54788   1.55616   1.55924
 Alpha virt. eigenvalues --    1.56219   1.56551   1.57203   1.58861   1.59196
 Alpha virt. eigenvalues --    1.60131   1.60982   1.62283   1.62840   1.63368
 Alpha virt. eigenvalues --    1.64240   1.64496   1.65094   1.65697   1.66306
 Alpha virt. eigenvalues --    1.67063   1.67319   1.69183   1.69892   1.70803
 Alpha virt. eigenvalues --    1.72580   1.72618   1.73781   1.74637   1.74706
 Alpha virt. eigenvalues --    1.76752   1.77252   1.77432   1.78466   1.78598
 Alpha virt. eigenvalues --    1.79290   1.79424   1.79510   1.80899   1.80969
 Alpha virt. eigenvalues --    1.82256   1.82650   1.83825   1.83930   1.84179
 Alpha virt. eigenvalues --    1.84337   1.84445   1.84630   1.85159   1.85827
 Alpha virt. eigenvalues --    1.86430   1.87032   1.87218   1.87462   1.87596
 Alpha virt. eigenvalues --    1.88006   1.88174   1.88553   1.89818   1.89946
 Alpha virt. eigenvalues --    1.90334   1.90410   1.91263   1.91342   1.91557
 Alpha virt. eigenvalues --    1.91762   1.92171   1.92597   1.92797   1.92899
 Alpha virt. eigenvalues --    1.94134   1.94552   1.95058   1.96207   1.96574
 Alpha virt. eigenvalues --    1.96692   1.97153   1.97495   1.97639   1.97867
 Alpha virt. eigenvalues --    1.98724   1.98871   1.99527   1.99687   1.99902
 Alpha virt. eigenvalues --    2.00333   2.01394   2.01693   2.02121   2.02209
 Alpha virt. eigenvalues --    2.02763   2.02807   2.03233   2.03723   2.03959
 Alpha virt. eigenvalues --    2.04495   2.04626   2.05141   2.05370   2.05708
 Alpha virt. eigenvalues --    2.06449   2.07010   2.07401   2.07648   2.08564
 Alpha virt. eigenvalues --    2.08727   2.08901   2.09305   2.09780   2.09967
 Alpha virt. eigenvalues --    2.10249   2.10722   2.10817   2.11384   2.12171
 Alpha virt. eigenvalues --    2.12538   2.12692   2.13425   2.13831   2.14457
 Alpha virt. eigenvalues --    2.15202   2.15425   2.15835   2.16209   2.16974
 Alpha virt. eigenvalues --    2.17307   2.17378   2.17812   2.17955   2.18228
 Alpha virt. eigenvalues --    2.18496   2.19448   2.20104   2.20503   2.20905
 Alpha virt. eigenvalues --    2.21159   2.21608   2.22218   2.22714   2.23013
 Alpha virt. eigenvalues --    2.23327   2.23765   2.24195   2.24788   2.25688
 Alpha virt. eigenvalues --    2.26885   2.27479   2.27552   2.28474   2.28766
 Alpha virt. eigenvalues --    2.29224   2.29568   2.30501   2.30629   2.31041
 Alpha virt. eigenvalues --    2.31258   2.31974   2.32405   2.32626   2.32823
 Alpha virt. eigenvalues --    2.33269   2.33514   2.35169   2.35638   2.35732
 Alpha virt. eigenvalues --    2.36655   2.36939   2.37383   2.37864   2.38006
 Alpha virt. eigenvalues --    2.39205   2.39577   2.39748   2.40086   2.40663
 Alpha virt. eigenvalues --    2.41260   2.42047   2.42300   2.42474   2.43066
 Alpha virt. eigenvalues --    2.43968   2.44117   2.44474   2.44775   2.45398
 Alpha virt. eigenvalues --    2.46210   2.46546   2.47472   2.47886   2.48202
 Alpha virt. eigenvalues --    2.48445   2.48693   2.49357   2.49398   2.50102
 Alpha virt. eigenvalues --    2.50795   2.51036   2.51373   2.52348   2.52664
 Alpha virt. eigenvalues --    2.53453   2.53758   2.53900   2.54366   2.55113
 Alpha virt. eigenvalues --    2.55497   2.55900   2.56661   2.57320   2.57484
 Alpha virt. eigenvalues --    2.57830   2.58699   2.58822   2.59811   2.60094
 Alpha virt. eigenvalues --    2.60564   2.60881   2.61273   2.61563   2.62059
 Alpha virt. eigenvalues --    2.62305   2.62602   2.62925   2.63084   2.63277
 Alpha virt. eigenvalues --    2.63832   2.63902   2.64248   2.65151   2.65567
 Alpha virt. eigenvalues --    2.66256   2.66498   2.66798   2.66925   2.67277
 Alpha virt. eigenvalues --    2.67826   2.68632   2.68765   2.69080   2.69713
 Alpha virt. eigenvalues --    2.70667   2.71201   2.71362   2.71783   2.72162
 Alpha virt. eigenvalues --    2.72759   2.73260   2.73454   2.73834   2.74208
 Alpha virt. eigenvalues --    2.74349   2.74837   2.75214   2.75579   2.76573
 Alpha virt. eigenvalues --    2.76949   2.77412   2.77644   2.78425   2.78652
 Alpha virt. eigenvalues --    2.78894   2.79080   2.79849   2.80569   2.80829
 Alpha virt. eigenvalues --    2.81322   2.82277   2.83107   2.83356   2.83747
 Alpha virt. eigenvalues --    2.84418   2.84620   2.85674   2.85815   2.86097
 Alpha virt. eigenvalues --    2.87275   2.87772   2.87923   2.88175   2.88548
 Alpha virt. eigenvalues --    2.88946   2.89406   2.90435   2.91112   2.91820
 Alpha virt. eigenvalues --    2.92588   2.93026   2.93950   2.94419   2.95326
 Alpha virt. eigenvalues --    2.95657   2.96672   2.96949   2.97574   2.97983
 Alpha virt. eigenvalues --    2.99043   3.00233   3.00649   3.01121   3.01818
 Alpha virt. eigenvalues --    3.02916   3.04906   3.04963   3.05508   3.06300
 Alpha virt. eigenvalues --    3.06950   3.07351   3.07821   3.09008   3.10105
 Alpha virt. eigenvalues --    3.11399   3.12380   3.12979   3.13346   3.13701
 Alpha virt. eigenvalues --    3.13729   3.14268   3.14680   3.15490   3.16705
 Alpha virt. eigenvalues --    3.18042   3.18653   3.19669   3.20475   3.20828
 Alpha virt. eigenvalues --    3.21073   3.22519   3.24066   3.26892   3.27449
 Alpha virt. eigenvalues --    3.28361   3.28598   3.31259   3.31302   3.31694
 Alpha virt. eigenvalues --    3.33999   3.35267   3.37375   3.38236   3.38833
 Alpha virt. eigenvalues --    3.38931   3.41018   3.41252   3.41754   3.42494
 Alpha virt. eigenvalues --    3.43184   3.44589   3.45669   3.46401   3.46605
 Alpha virt. eigenvalues --    3.48616   3.48782   3.48979   3.50543   3.50974
 Alpha virt. eigenvalues --    3.51181   3.51883   3.54097   3.54433   3.54712
 Alpha virt. eigenvalues --    3.56490   3.57652   3.59580   3.60035   3.61182
 Alpha virt. eigenvalues --    3.61494   3.64221   3.64825   3.66746   3.68168
 Alpha virt. eigenvalues --    3.69796   3.71070   3.72074   3.74935   3.76422
 Alpha virt. eigenvalues --    3.84095   4.10219   4.12850   4.18982   4.19823
 Alpha virt. eigenvalues --    4.20939   4.21576   4.23644   4.24057   4.25321
 Alpha virt. eigenvalues --    4.25706   4.27004   4.31801   4.33467   4.35769
 Alpha virt. eigenvalues --    4.37206   4.38029   4.40462   4.42445   4.43993
 Alpha virt. eigenvalues --    4.45081   4.47418   4.49495   4.52613   4.53130
 Alpha virt. eigenvalues --    4.53937   4.54880   4.56358   4.57340   4.59217
 Alpha virt. eigenvalues --    4.63003   4.63927   4.66259   4.67355   4.70722
 Alpha virt. eigenvalues --    4.71602   4.75324   4.78477   4.79013   4.81330
 Alpha virt. eigenvalues --    4.83660   4.85547   4.86182   4.88585
          Condensed to atoms (all electrons):
 Mulliken charges:
               1
     1  O   -0.577101
     2  O   -0.564120
     3  C   -0.016591
     4  C   -0.026692
     5  C   -0.175145
     6  C   -0.203328
     7  C    0.177182
     8  C    0.174129
     9  C    0.026497
    10  C    0.073397
    11  C   -0.201179
    12  C   -0.211830
    13  C    0.039989
    14  C    0.061405
    15  C   -0.282835
    16  C   -0.289942
    17  C   -0.303759
    18  C   -0.282361
    19  C   -0.102887
    20  C   -0.131033
    21  C   -0.377964
    22  C   -0.366129
    23  C   -0.090162
    24  C   -0.095672
    25  C    0.071705
    26  C    0.094869
    27  C   -0.357950
    28  C   -0.374548
    29  C   -0.119925
    30  C   -0.118892
    31  C   -0.101571
    32  C   -0.094359
    33  C   -0.105263
    34  C   -0.097357
    35  C    0.134219
    36  C    0.098349
    37  C   -0.355154
    38  C   -0.355630
    39  C   -0.117338
    40  C   -0.101167
    41  C   -0.086874
    42  C   -0.089023
    43  H    0.105407
    44  H    0.080161
    45  H    0.064632
    46  H    0.104829
    47  H    0.064711
    48  H    0.089024
    49  H    0.122225
    50  H    0.108653
    51  H    0.124728
    52  H    0.085857
    53  H    0.103975
    54  H    0.103209
    55  H    0.093155
    56  H    0.120265
    57  H    0.065782
    58  H    0.091105
    59  H    0.088646
    60  H    0.100656
    61  H    0.117062
    62  H    0.078396
    63  H    0.092296
    64  H    0.104916
    65  H    0.075391
    66  H    0.072729
    67  H    0.108190
    68  H    0.123464
    69  H    0.094325
    70  H    0.082941
    71  H    0.128968
    72  H    0.109016
    73  H    0.306513
    74  H    0.294537
    75  H    0.071844
    76  H    0.103356
    77  H    0.115909
    78  H    0.124171
    79  H    0.114403
    80  H    0.110873
    81  H    0.146715
    82  H    0.119220
    83  H    0.090636
    84  H    0.080755
    85  H    0.099954
    86  H    0.079026
    87  H    0.078817
    88  H    0.072084
    89  H    0.119255
    90  H    0.077143
    91  H    0.078403
    92  H    0.125769
    93  H    0.097856
    94  H    0.111783
    95  H    0.076018
    96  H    0.068337
    97  H    0.075185
    98  H    0.078762
 Sum of Mulliken charges =  -0.00000
 Mulliken charges with hydrogens summed into heavy atoms:
               1
     1  O   -0.270588
     2  O   -0.269584
     3  C   -0.016591
     4  C   -0.026692
     5  C    0.010424
     6  C   -0.033867
     7  C    0.241893
     8  C    0.263153
     9  C    0.026497
    10  C    0.073397
    11  C    0.029699
    12  C   -0.001245
    13  C    0.039989
    14  C    0.061405
    15  C    0.017504
    16  C   -0.012790
    17  C    0.002606
    18  C   -0.006753
    19  C   -0.027496
    20  C   -0.058304
    21  C   -0.051985
    22  C   -0.045203
    23  C   -0.018317
    24  C    0.007684
    25  C    0.071705
    26  C    0.094869
    27  C   -0.003466
    28  C    0.002260
    29  C   -0.029289
    30  C   -0.038137
    31  C   -0.001617
    32  C   -0.015333
    33  C   -0.026447
    34  C   -0.025273
    35  C    0.134219
    36  C    0.098349
    37  C   -0.080354
    38  C   -0.020222
    39  C   -0.041320
    40  C   -0.032830
    41  C   -0.011689
    42  C   -0.010261
 Electronic spatial extent (au):  <R**2>=         110589.3806
 Charge=             -0.0000 electrons
 Dipole moment (field-independent basis, Debye):
    X=             -1.1647    Y=             -2.3903    Z=              0.6952  Tot=              2.7484
 Quadrupole moment (field-independent basis, Debye-Ang):
   XX=           -274.2597   YY=           -243.0564   ZZ=           -263.4476
   XY=             14.0641   XZ=             -9.4311   YZ=              2.2229
 Traceless Quadrupole moment (field-independent basis, Debye-Ang):
   XX=            -14.0051   YY=             17.1982   ZZ=             -3.1931
   XY=             14.0641   XZ=             -9.4311   YZ=              2.2229
 Octapole moment (field-independent basis, Debye-Ang**2):
  XXX=           -644.1174  YYY=            -35.6751  ZZZ=             -1.6605  XYY=            140.4626
  XXY=           -400.1124  XXZ=            277.6831  XZZ=            -20.9302  YZZ=             -3.7348
  YYZ=             -1.7108  XYZ=            -29.2847
 Hexadecapole moment (field-independent basis, Debye-Ang**3):
 XXXX=        -153441.8519 YYYY=          -4922.7664 ZZZZ=          -1543.4787 XXXY=           2669.1593
 XXXZ=          -2346.2337 YYYX=           -349.8537 YYYZ=             19.6294 ZZZX=           -214.2580
 ZZZY=             10.4035 XXYY=         -23627.8602 XXZZ=         -24017.4390 YYZZ=          -1095.4335
 XXYZ=            -68.0391 YYXZ=             39.0554 ZZXY=           -142.9309
 N-N= 3.963924643485D+03 E-N=-1.188190798842D+04  KE= 1.689047854325D+03
 1\1\GINC-RYZEN-SSD1\SP\RCAM-B3LYP TD-FC\6-31G(d,p)\C40H56O2\PADAWAN\16
 -Jul-2019\0\\# td=(NStates=1) CAM-B3LYP/6-31G(d,p)\\TD\\0,1\O,0,14.623
 9779228,-2.3741603491,-0.4880357266\O,0,-14.8568407481,1.8673020353,0.
 3964991809\C,0,11.0925616022,-1.6755201041,0.8014963106\C,0,-12.336888
 8529,-0.9781494328,0.6105847025\C,0,12.6239959656,-1.9484441405,0.7503
 7993\C,0,-13.7421209311,-0.2724452644,0.4853813501\C,0,13.2651745565,-
 1.8733296551,-0.5826718122\C,0,-13.6221615092,1.201108772,0.5393751885
 \C,0,10.9401533423,-0.2616037874,-0.0955628493\C,0,-11.2658329473,-0.3
 266736743,-0.1962573017\C,0,13.3424347345,-0.3727657617,-1.0917119252\
 C,0,-12.8636187999,1.6342964367,-0.7318925423\C,0,11.9354694159,0.1704
 474276,-1.0078034233\C,0,-11.5026008551,0.8896655957,-0.8628582818\C,0
 ,10.5642274637,-1.5105364946,2.2317165557\C,0,10.2715777778,-2.8122289
 909,0.0401374037\C,0,-12.0621980258,-1.0447241643,2.2112272537\C,0,-12
 .5115276478,-2.4708383057,0.0665279148\C,0,9.5976550065,0.3728262356,0
 .0239963596\C,0,-9.946200192,-1.0771104529,-0.2455658416\C,0,11.722498
 1298,1.4692721011,-1.7104830383\C,0,-10.4982781158,1.5305325304,-1.803
 3972297\C,0,9.3302169267,1.6279290359,0.1272393639\C,0,-8.7357849755,-
 0.4523871876,-0.2846635684\C,0,8.0651656216,2.3080167847,0.193380113\C
 ,0,-7.4524732813,-1.2621545434,-0.4241985889\C,0,8.0400757916,3.868795
 7346,0.3247466587\C,0,-7.5014284398,-2.6748170586,-0.8062693119\C,0,6.
 9220821792,1.5567146125,0.1514126563\C,0,-6.3330860056,-0.525040766,-0
 .2485937844\C,0,5.6102717412,2.159380176,0.4173287019\C,0,-5.011089655
 ,-1.0173988128,-0.2780846865\C,0,4.4999287789,1.341790373,0.2802159366
 \C,0,-3.8999812951,-0.182740498,-0.1516979848\C,0,3.1872262136,1.75951
 0342,0.4458687029\C,0,-2.5358690429,-0.6375238314,-0.2020185569\C,0,2.
 9461661836,3.1800957016,0.7718248405\C,0,-2.2868674547,-2.1084043324,-
 0.490420268\C,0,2.112790368,0.8098730513,0.2307323932\C,0,-1.505512511
 3,0.2017080598,-0.0053744884\C,0,0.7826450935,0.9337561896,0.405251853
 2\C,0,-0.2087607461,0.08080048,-0.092030173\H,0,13.0428428643,-1.32418
 58287,1.4706527543\H,0,12.7528687859,-2.7722204361,1.3380314871\H,0,-1
 4.4989928723,-0.740131455,1.2817790989\H,0,-14.3290664016,-0.490146886
 6,-0.4416060166\H,0,12.6526262696,-2.4483541425,-1.4283933973\H,0,-13.
 2671971517,1.6707910612,1.4810358376\H,0,13.9445390409,0.1237349514,-0
 .2836635474\H,0,13.7911246695,-0.1686422213,-2.0851212431\H,0,-13.5524
 00449,1.4986949296,-1.6194646895\H,0,-12.7027962526,2.8699120113,-0.69
 90888729\H,0,10.5864113301,-2.5357320022,2.7184465407\H,0,9.4749358206
 ,-1.1918289819,1.9529220472\H,0,11.2257363156,-0.6270015673,2.83244663
 07\H,0,10.5090871717,-3.1011348875,-1.0259392769\H,0,10.8389929022,-3.
 7690555486,0.5575951995\H,0,9.1125285699,-2.7412754355,0.4055472757\H,
 0,-12.1273144174,0.0885163577,2.4387941764\H,0,-11.0786607051,-1.54831
 73756,2.4091046945\H,0,-12.6983107241,-1.4167590958,2.8972003\H,0,-13.
 3393943884,-2.9536340593,0.6440725383\H,0,-11.8417694119,-3.0113677257
 ,0.1346263606\H,0,-12.9469025493,-2.6601052024,-0.8632990719\H,0,8.815
 7234753,-0.4158759986,-0.0440772867\H,0,-9.8692216872,-2.3228093448,-0
 .2739011921\H,0,10.6664379358,1.6314578158,-2.2212541844\H,0,12.059111
 7402,2.4119021331,-1.245740182\H,0,12.1627479448,1.3146723221,-2.70632
 33213\H,0,-11.1019145925,2.1415797221,-2.7253632573\H,0,-9.8194679248,
 0.6858226014,-2.0737433413\H,0,-9.8176159456,2.3744801021,-1.363989555
 \H,0,14.611310259,-3.3861739445,-0.2935110711\H,0,-15.4625909521,1.480
 6553656,1.0175628523\H,0,10.3512210411,2.2464615542,0.0661334383\H,0,-
 8.756960432,0.6167962807,-0.3021408401\H,0,9.0325709441,4.3233857206,0
 .2012359646\H,0,7.3559319802,4.2723921002,-0.4795342994\H,0,7.60080934
 09,4.0519462626,1.4171885569\H,0,-8.2440171957,-3.2571003679,-0.142709
 56\H,0,-7.960270398,-2.7420842113,-1.7055424432\H,0,-6.5551712891,-3.1
 69111451,-0.748970331\H,0,6.94365022,0.4791211271,-0.1722851035\H,0,-6
 .3364206181,0.5810455997,0.1774626213\H,0,5.4605037554,3.2122768997,0.
 5104375528\H,0,-4.79398987,-2.0670343814,-0.4509212421\H,0,4.632776470
 6,0.3596207081,-0.0863707051\H,0,-4.1271541194,0.6647158436,0.27748902
 99\H,0,3.6786034883,3.5419860886,1.5908723282\H,0,1.7227105321,3.38651
 9634,1.1259271947\H,0,2.9145868387,4.0530119262,-0.2539184498\H,0,-2.9
 089120062,-2.5988821802,0.3112334583\H,0,-2.6975784708,-2.3996670287,-
 1.6006188039\H,0,-1.2321235974,-2.228240374,-0.5894874917\H,0,2.638165
 1795,-0.171950476,0.1528490729\H,0,-1.8745920822,1.2642646705,0.188844
 9775\H,0,0.4555758566,1.8979652235,0.6983518452\H,0,0.1901608011,-0.81
 26214261,-0.6080224762\\Version=ES64L-G16RevA.03\State=1-A\HF=-1706.89
 64531\RMSD=5.680e-09\PG=C01 [X(C40H56O2)]\\@


 THERE IS MORE TO LIFE THAN INCREASING ITS SPEED.

                                       -- GANDHI
 Job cpu time:       0 days  8 hours  6 minutes  4.3 seconds.
 Elapsed time:       0 days  2 hours  2 minutes 18.2 seconds.
 File lengths (MBytes):  RWF=   3127 Int=      0 D2E=      0 Chk=     84 Scr=      1
 Normal termination of Gaussian 16 at Tue Jul 16 12:49:58 2019.
