 Entering Gaussian System, Link 0=g16
 Input=Geometria-411-.com
 Output=Geometria-411-.log
 Initial command:
 /usr/local/g16/l1.exe "/home/padawan/israel-mol/zeaxanthin/spectra/emi/Gau-23240.inp" -scrdir="/home/padawan/israel-mol/zeaxanthin/spectra/emi/"
 Entering Link 1 = /usr/local/g16/l1.exe PID=     23242.
  
 Copyright (c) 1988,1990,1992,1993,1995,1998,2003,2009,2016,
            Gaussian, Inc.  All Rights Reserved.
  
 This is part of the Gaussian(R) 16 program.  It is based on
 the Gaussian(R) 09 system (copyright 2009, Gaussian, Inc.),
 the Gaussian(R) 03 system (copyright 2003, Gaussian, Inc.),
 the Gaussian(R) 98 system (copyright 1998, Gaussian, Inc.),
 the Gaussian(R) 94 system (copyright 1995, Gaussian, Inc.),
 the Gaussian 92(TM) system (copyright 1992, Gaussian, Inc.),
 the Gaussian 90(TM) system (copyright 1990, Gaussian, Inc.),
 the Gaussian 88(TM) system (copyright 1988, Gaussian, Inc.),
 the Gaussian 86(TM) system (copyright 1986, Carnegie Mellon
 University), and the Gaussian 82(TM) system (copyright 1983,
 Carnegie Mellon University). Gaussian is a federally registered
 trademark of Gaussian, Inc.
  
 This software contains proprietary and confidential information,
 including trade secrets, belonging to Gaussian, Inc.
  
 This software is provided under written license and may be
 used, copied, transmitted, or stored only in accord with that
 written license.
  
 The following legend is applicable only to US Government
 contracts under FAR:
  
                    RESTRICTED RIGHTS LEGEND
  
 Use, reproduction and disclosure by the US Government is
 subject to restrictions as set forth in subparagraphs (a)
 and (c) of the Commercial Computer Software - Restricted
 Rights clause in FAR 52.227-19.
  
 Gaussian, Inc.
 340 Quinnipiac St., Bldg. 40, Wallingford CT 06492
  
  
 ---------------------------------------------------------------
 Warning -- This program may not be used in any manner that
 competes with the business of Gaussian, Inc. or will provide
 assistance to any competitor of Gaussian, Inc.  The licensee
 of this program is prohibited from giving any competitor of
 Gaussian, Inc. access to this program.  By using this program,
 the user acknowledges that Gaussian, Inc. is engaged in the
 business of creating and licensing software in the field of
 computational chemistry and represents and warrants to the
 licensee that it is not a competitor of Gaussian, Inc. and that
 it will not use this program in any manner prohibited above.
 ---------------------------------------------------------------
  

 Cite this work as:
 Gaussian 16, Revision A.03,
 M. J. Frisch, G. W. Trucks, H. B. Schlegel, G. E. Scuseria, 
 M. A. Robb, J. R. Cheeseman, G. Scalmani, V. Barone, 
 G. A. Petersson, H. Nakatsuji, X. Li, M. Caricato, A. V. Marenich, 
 J. Bloino, B. G. Janesko, R. Gomperts, B. Mennucci, H. P. Hratchian, 
 J. V. Ortiz, A. F. Izmaylov, J. L. Sonnenberg, D. Williams-Young, 
 F. Ding, F. Lipparini, F. Egidi, J. Goings, B. Peng, A. Petrone, 
 T. Henderson, D. Ranasinghe, V. G. Zakrzewski, J. Gao, N. Rega, 
 G. Zheng, W. Liang, M. Hada, M. Ehara, K. Toyota, R. Fukuda, 
 J. Hasegawa, M. Ishida, T. Nakajima, Y. Honda, O. Kitao, H. Nakai, 
 T. Vreven, K. Throssell, J. A. Montgomery, Jr., J. E. Peralta, 
 F. Ogliaro, M. J. Bearpark, J. J. Heyd, E. N. Brothers, K. N. Kudin, 
 V. N. Staroverov, T. A. Keith, R. Kobayashi, J. Normand, 
 K. Raghavachari, A. P. Rendell, J. C. Burant, S. S. Iyengar, 
 J. Tomasi, M. Cossi, J. M. Millam, M. Klene, C. Adamo, R. Cammi, 
 J. W. Ochterski, R. L. Martin, K. Morokuma, O. Farkas, 
 J. B. Foresman, and D. J. Fox, Gaussian, Inc., Wallingford CT, 2016.
 
 ******************************************
 Gaussian 16:  ES64L-G16RevA.03 25-Dec-2016
                18-Jul-2019 
 ******************************************
 %nproc=4
 Will use up to    4 processors via shared memory.
 %Mem=2GB
 -------------------------------------
 # td=(NStates=1) CAM-B3LYP/6-31G(d,p)
 -------------------------------------
 1/38=1,172=1/1;
 2/12=2,17=6,18=5,40=1/2;
 3/5=1,6=6,7=101,11=9,25=1,30=1,74=-40/1,2,3,8;
 4//1;
 5/5=2,38=5/2;
 8/6=1,10=2,108=1/1;
 9/41=1,42=1,70=2/14;
 6/7=2,8=2,9=2,10=2/1;
 99/5=1,9=1/99;
 --
 TD
 --
 Symbolic Z-matrix:
 Charge =  0 Multiplicity = 1
 8                     14.73968  -2.00098  -0.27259 
 8                    -14.61071   1.99712   1.07912 
 6                     11.20317  -1.42911   0.98519 
 6                    -12.37754  -0.91538   0.69728 
 6                     12.66195  -1.71099   1.17471 
 6                    -13.693   -0.18195   0.78809 
 6                     13.44811  -1.74401  -0.24565 
 6                    -13.40555   1.31231   0.933 
 6                     10.90686  -0.19831   0.05151 
 6                    -11.27475  -0.15644  -0.14888 
 6                     13.21943  -0.42002  -0.98043 
 6                    -12.59293   1.80129  -0.20136 
 6                     11.76022   0.17928  -0.81822 
 6                    -11.43982   1.08311  -0.62374 
 6                     10.73395  -0.95728   2.47867 
 6                     10.40239  -2.65408   0.59946 
 6                    -11.85075  -1.25472   2.07229 
 6                    -12.58716  -2.26447  -0.03507 
 6                     9.52252   0.36648   0.11117 
 6                    -10.00521  -0.92207  -0.28211 
 6                     11.50276   1.25898  -1.95083 
 6                    -10.58829   1.80283  -1.63619 
 6                     9.32823   1.69013   0.04866 
 6                    -8.73093  -0.4807   -0.34867 
 6                     7.99763   2.17983   0.25248 
 6                    -7.51152  -1.248    -0.56138 
 6                     7.8385    3.66082   0.62929 
 6                    -7.6294   -2.58837  -1.03126 
 6                     6.86266   1.42693   0.05003 
 6                    -6.32121  -0.57033  -0.44844 
 6                     5.58192   1.98307   0.2486 
 6                    -5.08618  -1.12717  -0.66206 
 6                     4.42901   1.08943  -0.04636 
 6                    -3.95853  -0.3942   -0.42661 
 6                     3.14798   1.51957   0.07821 
 6                    -2.57346  -0.80893  -0.66872 
 6                     2.81379   2.86647   0.61928 
 6                    -2.47096  -2.30034  -1.12479 
 6                     2.10707   0.58827  -0.25179 
 6                    -1.60926   0.06119  -0.34269 
 6                     0.78383   0.74112  -0.17999 
 6                    -0.18012  -0.19047  -0.40233 
 1                     13.08558  -0.92163   1.80459 
 1                     12.83876  -2.75326   1.52101 
 1                    -14.11043  -0.6191    1.67937 
 1                    -14.13703  -0.23915  -0.13134 
 1                     12.7769  -2.41872  -0.83311 
 1                    -12.84573   1.27934   1.87131 
 1                     13.834    0.23395  -0.6154 
 1                     13.51701  -0.60792  -2.01075 
 1                    -13.34532   2.113    -0.94125 
 1                    -12.18496   2.88903  -0.01877 
 1                     10.97357  -1.72798   3.12361 
 1                     9.51991  -0.85512   2.51007 
 1                     11.11655  -0.08433   2.89779 
 1                     10.76509  -3.0831   -0.37651 
 1                     10.69746  -3.40676   1.38233 
 1                     9.27728  -2.64301   0.37138 
 1                    -11.77502  -0.57403   2.83768 
 1                    -10.69366  -1.62095   2.08058 
 1                    -12.19919  -2.15976   2.7027 
 1                    -13.37655  -2.81848   0.42708 
 1                    -11.78021  -3.01036  -0.20761 
 1                    -13.01284  -1.97492  -1.09778 
 1                     8.77442  -0.3325    0.2739 
 1                    -10.15425  -2.01114  -0.36949 
 1                     10.51487   1.31054  -2.14906 
 1                     11.72404   2.32661  -1.74117 
 1                     12.03755   0.92964  -2.91857 
 1                    -11.17979   2.68866  -2.13323 
 1                    -10.10227   1.15507  -2.4365 
 1                    -9.92573   2.36162  -1.00975 
 1                     15.00072  -2.83504   0.01875 
 1                    -15.06297   1.65993   1.94371 
 1                     10.27907   2.42708  -0.1366 
 1                    -8.54905   0.70973  -0.15558 
 1                     8.94513   4.15073   0.58588 
 1                     7.23489   4.30953   0.19475 
 1                     7.48627   3.81166   1.65988 
 1                    -8.25983  -3.07418  -0.33823 
 1                    -8.11541  -2.8508   -2.08579 
 1                    -6.78371  -3.4236   -0.89765 
 1                     6.91854   0.51006  -0.47615 
 1                    -6.34518   0.41339  -0.02816 
 1                     5.22256   2.98356   0.50354 
 1                    -5.08068  -2.14278  -1.00221 
 1                     4.63233   0.10964  -0.33291 
 1                    -4.20588   0.72622  -0.09033 
 1                     3.60214   3.02535   1.40262 
 1                     1.68141   2.98384   0.99363 
 1                     3.06245   3.63612  -0.37504 
 1                    -3.25415  -3.06628  -0.69685 
 1                    -2.37742  -2.24845  -2.42201 
 1                    -1.46935  -2.63493  -0.74794 
 1                     2.31285  -0.35018  -0.60965 
 1                    -1.80384   1.02401  -0.01297 
 1                     0.44078   1.57574   0.43595 
 1                     0.17364  -1.21304  -0.5117 
 
 Stoichiometry    C40H56O2
 Framework group  C1[X(C40H56O2)]
 Deg. of freedom   288
 Full point group                 C1      NOp   1
 Largest Abelian subgroup         C1      NOp   1
 Largest concise Abelian subgroup C1      NOp   1
                         Standard orientation:                         
 ---------------------------------------------------------------------
 Center     Atomic      Atomic             Coordinates (Angstroms)
 Number     Number       Type             X           Y           Z
 ---------------------------------------------------------------------
      1          8           0       14.742223   -1.996585   -0.250848
      2          8           0      -14.610104    2.002083    1.056269
      3          6           0       11.205691   -1.410497    1.000311
      4          6           0      -12.375380   -0.913846    0.711557
      5          6           0       12.664673   -1.689086    1.193099
      6          6           0      -13.691227   -0.180039    0.793202
      7          6           0       13.450518   -1.740011   -0.226909
      8          6           0      -13.404594    1.316127    0.918723
      9          6           0       10.908459   -0.192035    0.050874
     10          6           0      -11.273222   -0.165275   -0.144616
     11          6           0       13.220911   -0.425760   -0.978683
     12          6           0      -12.592523    1.790869   -0.222064
     13          6           0       11.761400    0.174761   -0.823878
     14          6           0      -11.439109    1.067943   -0.635415
     15          6           0       10.736560   -0.919678    2.487681
     16          6           0       10.405513   -2.640809    0.630638
     17          6           0      -11.848065   -1.235083    2.090708
     18          6           0      -12.584400   -2.272400   -0.003253
     19          6           0        9.523810    0.372690    0.103563
     20          6           0      -10.003272   -0.931854   -0.268248
     21          6           0       11.503052    1.239592   -1.970275
     22          6           0      -10.588221    1.774995   -1.657286
     23          6           0        9.328753    1.695312    0.024007
     24          6           0       -8.729267   -0.490657   -0.340819
     25          6           0        7.997926    2.186863    0.221802
     26          6           0       -7.509467   -1.259957   -0.543896
     27          6           0        7.838042    3.672509    0.579482
     28          6           0       -7.626700   -2.606349   -0.996387
     29          6           0        6.863333    1.430767    0.029382
     30          6           0       -6.319520   -0.580205   -0.440016
     31          6           0        5.582328    1.988704    0.221062
     32          6           0       -5.084218   -1.139066   -0.646724
     33          6           0        4.429858    1.090669   -0.062042
     34          6           0       -3.956928   -0.402480   -0.421034
     35          6           0        3.148614    1.521661    0.057272
     36          6           0       -2.571686   -0.819522   -0.658103
     37          6           0        2.813789    2.875260    0.580971
     38          6           0       -2.468441   -2.316646   -1.094895
     39          6           0        2.108152    0.585592   -0.260409
     40          6           0       -1.607903    0.055287   -0.343583
     41          6           0        0.784838    0.738606   -0.190267
     42          6           0       -0.178629   -0.196316   -0.400319
     43          1           0       13.088002   -0.891409    1.812616
     44          1           0       12.842154   -2.726693    1.552793
     45          1           0      -14.108205   -0.605873    1.690156
     46          1           0      -14.135444   -0.249372   -0.125310
     47          1           0       12.779547   -2.422640   -0.805442
     48          1           0      -12.844528    1.295603    1.857244
     49          1           0       13.835192    0.233216   -0.622281
     50          1           0       13.518348   -0.626787   -2.006565
     51          1           0      -13.345264    2.092560   -0.965734
     52          1           0      -12.185130    2.881109   -0.053647
     53          1           0       10.976766   -1.681844    3.142463
     54          1           0        9.522466   -0.817800    2.518052
     55          1           0       11.118755   -0.041165    2.895393
     56          1           0       10.768227   -3.082201   -0.339803
     57          1           0       10.701194   -3.383139    1.423091
     58          1           0        9.280337   -2.633315    0.402710
     59          1           0      -11.772541   -0.544521    2.847220
     60          1           0      -10.690770   -1.600532    2.103446
     61          1           0      -12.195845   -2.132106    2.732844
     62          1           0      -13.373369   -2.820839    0.466214
     63          1           0      -11.777076   -3.020001   -0.166333
     64          1           0      -13.010501   -1.996846   -1.069512
     65          1           0        8.776147   -0.324544    0.275504
     66          1           0      -10.151719   -2.022040   -0.341512
     67          1           0       10.515093    1.288023   -2.168913
     68          1           0       11.723778    2.309970   -1.774486
     69          1           0       12.037799    0.898078   -2.933817
     70          1           0      -11.180346    2.653999   -2.165590
     71          1           0      -10.102022    1.117221   -2.449277
     72          1           0       -9.925829    2.342206   -1.038285
     73          1           0       15.003805   -2.826659    0.051186
     74          1           0      -15.061973    1.675847    1.925253
     75          1           0       10.279138    2.430347   -0.170992
     76          1           0       -8.548012    0.702266   -0.163169
     77          1           0        8.944390    4.162435    0.529482
     78          1           0        7.233965    4.315200    0.136750
     79          1           0        7.485974    3.836453    1.608129
     80          1           0       -8.256687   -3.083522   -0.296980
     81          1           0       -8.112806   -2.882655   -2.047317
     82          1           0       -6.780507   -3.439303   -0.852195
     83          1           0        6.919610    0.507208   -0.484917
     84          1           0       -6.343946    0.408845   -0.032471
     85          1           0        5.222462    2.992204    0.463135
     86          1           0       -5.078224   -2.158986   -0.973716
     87          1           0        4.633660    0.107374   -0.335955
     88          1           0       -4.204839    0.722056   -0.099202
     89          1           0        3.602228    3.044695    1.362003
     90          1           0        1.681425    2.996814    0.954054
     91          1           0        3.061775    3.632133   -0.423273
     92          1           0       -3.251095   -3.077429   -0.656895
     93          1           0       -2.375239   -2.281469   -2.392698
     94          1           0       -1.466554   -2.645770   -0.713998
     95          1           0        2.314382   -0.357287   -0.606164
     96          1           0       -1.802943    1.022175   -0.026282
     97          1           0        0.441470    1.580929    0.414912
     98          1           0        0.175682   -1.220019   -0.496554
 ---------------------------------------------------------------------
 Rotational constants (GHZ):           0.2522831           0.0093894           0.0092138
 Standard basis: 6-31G(d,p) (6D, 7F)
 There are   910 symmetry adapted cartesian basis functions of A   symmetry.
 There are   910 symmetry adapted basis functions of A   symmetry.
   910 basis functions,  1568 primitive gaussians,   910 cartesian basis functions
   156 alpha electrons      156 beta electrons
       nuclear repulsion energy      3994.5721460379 Hartrees.
 NAtoms=   98 NActive=   98 NUniq=   98 SFac= 1.00D+00 NAtFMM=   60 NAOKFM=T Big=T
 Integral buffers will be    131072 words long.
 Raffenetti 1 integral format.
 Two-electron integral symmetry is turned on.
 One-electron integrals computed using PRISM.
 NBasis=   910 RedAO= T EigKep=  8.23D-04  NBF=   910
 NBsUse=   910 1.00D-06 EigRej= -1.00D+00 NBFU=   910
 ExpMin= 1.61D-01 ExpMax= 5.48D+03 ExpMxC= 8.25D+02 IAcc=3 IRadAn=         5 AccDes= 0.00D+00
 Harris functional with IExCor=20419 and IRadAn=       5 diagonalized for initial guess.
 HarFok:  IExCor=20419 AccDes= 0.00D+00 IRadAn=         5 IDoV= 1 UseB2=F ITyADJ=14
 ICtDFT=  3500011 ScaDFX=  1.000000  1.000000  1.000000  1.000000
 FoFCou: FMM=F IPFlag=           0 FMFlag=      100000 FMFlg1=        2001
         NFxFlg=           0 DoJE=T BraDBF=F KetDBF=T FulRan=T
         wScrn=  0.000000 ICntrl=       500 IOpCl=  0 I1Cent=   200000004 NGrid=           0
         NMat0=    1 NMatS0=      1 NMatT0=    0 NMatD0=    1 NMtDS0=    0 NMtDT0=    0
 Petite list used in FoFCou.
 Requested convergence on RMS density matrix=1.00D-08 within 128 cycles.
 Requested convergence on MAX density matrix=1.00D-06.
 Requested convergence on             energy=1.00D-06.
 No special actions if energy rises.
 Integral accuracy reduced to 1.0D-05 until final iterations.
 Initial convergence to 1.0D-05 achieved.  Increase integral accuracy.
 SCF Done:  E(RCAM-B3LYP) =  -1706.97935572     A.U. after   15 cycles
            NFock= 15  Conv=0.64D-08     -V/T= 2.0094
 DoSCS=F DFT=T ScalE2(SS,OS)=  1.000000  1.000000
 ExpMin= 1.61D-01 ExpMax= 5.48D+03 ExpMxC= 8.25D+02 IAcc=3 IRadAn=         5 AccDes= 0.00D+00
 HarFok:  IExCor=  205 AccDes= 0.00D+00 IRadAn=         5 IDoV=-2 UseB2=F ITyADJ=14
 ICtDFT= 12500011 ScaDFX=  1.000000  1.000000  1.000000  1.000000
 GSVD:  LWork=       -2100 too small for GESVD, short by        9450 words or        9450 for optimal perf.
 Range of M.O.s used for correlation:    43   910
 NBasis=   910 NAE=   156 NBE=   156 NFC=    42 NFV=     0
 NROrb=    868 NOA=   114 NOB=   114 NVA=   754 NVB=   754
 Orbital symmetries:
       Occupied  (A) (A) (A) (A) (A) (A) (A) (A) (A) (A) (A) (A)
                 (A) (A) (A) (A) (A) (A) (A) (A) (A) (A) (A) (A)
                 (A) (A) (A) (A) (A) (A) (A) (A) (A) (A) (A) (A)
                 (A) (A) (A) (A) (A) (A) (A) (A) (A) (A) (A) (A)
                 (A) (A) (A) (A) (A) (A) (A) (A) (A) (A) (A) (A)
                 (A) (A) (A) (A) (A) (A) (A) (A) (A) (A) (A) (A)
                 (A) (A) (A) (A) (A) (A) (A) (A) (A) (A) (A) (A)
                 (A) (A) (A) (A) (A) (A) (A) (A) (A) (A) (A) (A)
                 (A) (A) (A) (A) (A) (A) (A) (A) (A) (A) (A) (A)
                 (A) (A) (A) (A) (A) (A) (A) (A) (A) (A) (A) (A)
                 (A) (A) (A) (A) (A) (A) (A) (A) (A) (A) (A) (A)
                 (A) (A) (A) (A) (A) (A) (A) (A) (A) (A) (A) (A)
                 (A) (A) (A) (A) (A) (A) (A) (A) (A) (A) (A) (A)
       Virtual   (A) (A) (A) (A) (A) (A) (A) (A) (A) (A) (A) (A)
                 (A) (A) (A) (A) (A) (A) (A) (A) (A) (A) (A) (A)
                 (A) (A) (A) (A) (A) (A) (A) (A) (A) (A) (A) (A)
                 (A) (A) (A) (A) (A) (A) (A) (A) (A) (A) (A) (A)
                 (A) (A) (A) (A) (A) (A) (A) (A) (A) (A) (A) (A)
                 (A) (A) (A) (A) (A) (A) (A) (A) (A) (A) (A) (A)
                 (A) (A) (A) (A) (A) (A) (A) (A) (A) (A) (A) (A)
                 (A) (A) (A) (A) (A) (A) (A) (A) (A) (A) (A) (A)
                 (A) (A) (A) (A) (A) (A) (A) (A) (A) (A) (A) (A)
                 (A) (A) (A) (A) (A) (A) (A) (A) (A) (A) (A) (A)
                 (A) (A) (A) (A) (A) (A) (A) (A) (A) (A) (A) (A)
                 (A) (A) (A) (A) (A) (A) (A) (A) (A) (A) (A) (A)
                 (A) (A) (A) (A) (A) (A) (A) (A) (A) (A) (A) (A)
                 (A) (A) (A) (A) (A) (A) (A) (A) (A) (A) (A) (A)
                 (A) (A) (A) (A) (A) (A) (A) (A) (A) (A) (A) (A)
                 (A) (A) (A) (A) (A) (A) (A) (A) (A) (A) (A) (A)
                 (A) (A) (A) (A) (A) (A) (A) (A) (A) (A) (A) (A)
                 (A) (A) (A) (A) (A) (A) (A) (A) (A) (A) (A) (A)
                 (A) (A) (A) (A) (A) (A) (A) (A) (A) (A) (A) (A)
                 (A) (A) (A) (A) (A) (A) (A) (A) (A) (A) (A) (A)
                 (A) (A) (A) (A) (A) (A) (A) (A) (A) (A) (A) (A)
                 (A) (A) (A) (A) (A) (A) (A) (A) (A) (A) (A) (A)
                 (A) (A) (A) (A) (A) (A) (A) (A) (A) (A) (A) (A)
                 (A) (A) (A) (A) (A) (A) (A) (A) (A) (A) (A) (A)
                 (A) (A) (A) (A) (A) (A) (A) (A) (A) (A) (A) (A)
                 (A) (A) (A) (A) (A) (A) (A) (A) (A) (A) (A) (A)
                 (A) (A) (A) (A) (A) (A) (A) (A) (A) (A) (A) (A)
                 (A) (A) (A) (A) (A) (A) (A) (A) (A) (A) (A) (A)
                 (A) (A) (A) (A) (A) (A) (A) (A) (A) (A) (A) (A)
                 (A) (A) (A) (A) (A) (A) (A) (A) (A) (A) (A) (A)
                 (A) (A) (A) (A) (A) (A) (A) (A) (A) (A) (A) (A)
                 (A) (A) (A) (A) (A) (A) (A) (A) (A) (A) (A) (A)
                 (A) (A) (A) (A) (A) (A) (A) (A) (A) (A) (A) (A)
                 (A) (A) (A) (A) (A) (A) (A) (A) (A) (A) (A) (A)
                 (A) (A) (A) (A) (A) (A) (A) (A) (A) (A) (A) (A)
                 (A) (A) (A) (A) (A) (A) (A) (A) (A) (A) (A) (A)
                 (A) (A) (A) (A) (A) (A) (A) (A) (A) (A) (A) (A)
                 (A) (A) (A) (A) (A) (A) (A) (A) (A) (A) (A) (A)
                 (A) (A) (A) (A) (A) (A) (A) (A) (A) (A) (A) (A)
                 (A) (A) (A) (A) (A) (A) (A) (A) (A) (A) (A) (A)
                 (A) (A) (A) (A) (A) (A) (A) (A) (A) (A) (A) (A)
                 (A) (A) (A) (A) (A) (A) (A) (A) (A) (A) (A) (A)
                 (A) (A) (A) (A) (A) (A) (A) (A) (A) (A) (A) (A)
                 (A) (A) (A) (A) (A) (A) (A) (A) (A) (A) (A) (A)
                 (A) (A) (A) (A) (A) (A) (A) (A) (A) (A) (A) (A)
                 (A) (A) (A) (A) (A) (A) (A) (A) (A) (A) (A) (A)
                 (A) (A) (A) (A) (A) (A) (A) (A) (A) (A) (A) (A)
                 (A) (A) (A) (A) (A) (A) (A) (A) (A) (A) (A) (A)
                 (A) (A) (A) (A) (A) (A) (A) (A) (A) (A) (A) (A)
                 (A) (A) (A) (A) (A) (A) (A) (A) (A) (A) (A) (A)
                 (A) (A) (A) (A) (A) (A) (A) (A) (A) (A) (A) (A)
                 (A) (A) (A) (A) (A) (A) (A) (A) (A) (A) (A) (A)
                 (A) (A) (A) (A) (A) (A) (A) (A) (A) (A) (A) (A)
                 (A) (A) (A) (A) (A) (A) (A) (A) (A) (A) (A) (A)
                 (A) (A) (A) (A) (A) (A) (A) (A) (A) (A) (A) (A)
                 (A) (A) (A) (A) (A) (A) (A) (A) (A) (A) (A) (A)
                 (A) (A) (A) (A) (A) (A) (A) (A) (A) (A) (A) (A)
                 (A) (A) (A) (A) (A) (A) (A) (A) (A) (A) (A) (A)
                 (A) (A) (A) (A) (A) (A) (A) (A) (A) (A) (A) (A)
                 (A) (A) (A) (A) (A) (A) (A) (A) (A) (A) (A) (A)
                 (A) (A) (A) (A) (A) (A) (A) (A) (A) (A) (A) (A)
                 (A) (A) (A) (A) (A) (A) (A) (A) (A) (A) (A) (A)
                 (A) (A) (A) (A) (A) (A) (A) (A) (A) (A)
     4 initial guesses have been made.
 Convergence on wavefunction:    0.001000000000000
 Iteration     1 Dimension     4 NMult     0 NNew      4
 CISAX will form     4 AO SS matrices at one time.
 Iteration     2 Dimension     6 NMult     4 NNew      2
 Iteration     3 Dimension     8 NMult     6 NNew      2
 Iteration     4 Dimension    10 NMult     8 NNew      2
 Iteration     5 Dimension    12 NMult    10 NNew      2
 Iteration     6 Dimension    14 NMult    12 NNew      2
 ***********************************************************************
 Excited states from <AA,BB:AA,BB> singles matrix:
 ***********************************************************************
 
 Ground to excited state transition densities written to RWF  633
 Ground to excited state transition electric dipole moments (Au):
       state          X           Y           Z        Dip. S.      Osc.
         1        -8.2571     -1.2963     -0.4095     70.0283      3.5539
 Ground to excited state transition velocity dipole moments (Au):
       state          X           Y           Z        Dip. S.      Osc.
         1         0.6037      0.0944      0.0306      0.3743      3.2784
 Ground to excited state transition magnetic dipole moments (Au):
       state          X           Y           Z
         1         0.0949     -0.3236     -0.6238
 Ground to excited state transition velocity quadrupole moments (Au):
       state          XX          YY          ZZ          XY          XZ          YZ
         1         1.7880      0.2141     -0.0052      0.3382     -0.1424     -0.0340
 <0|del|b> * <b|rxdel|0> + <0|del|b> * <b|delr+rdel|0>
 Rotatory Strengths (R) in cgs (10**-40 erg-esu-cm/Gauss)
       state          XX          YY          ZZ    R(velocity)    E-M Angle
         1      -120.0217     34.0116    157.1236     23.7045       88.99
 1/2[<0|r|b>*<b|rxdel|0> + (<0|rxdel|b>*<b|r|0>)*]
 Rotatory Strengths (R) in cgs (10**-40 erg-esu-cm/Gauss)
       state          XX          YY          ZZ     R(length)
         1       553.9387   -296.6834   -180.6432     25.5374
  1/2[<0|del|b>*<b|r|0> + (<0|r|b>*<b|del|0>)*] (Au)
       state          X           Y           Z        Dip. S.   Osc.(frdel)
         1        -4.9851     -0.1224     -0.0125      5.1200      3.4133

 Excitation energies and oscillator strengths:
 
 Excited State   1:      Singlet-A      2.0714 eV  598.54 nm  f=3.5539  <S**2>=0.000
     155 ->158         0.13538
     156 ->157         0.69667
     156 <-157        -0.10325
 This state for optimization and/or second-order correction.
 Total Energy, E(TD-HF/TD-DFT) =  -1706.90323194    
 Copying the excited state density for this state as the 1-particle RhoCI density.
 SavETr:  write IOETrn=   770 NScale= 10 NData=  16 NLR=1 NState=    1 LETran=      28.

 **********************************************************************

            Population analysis using the SCF density.

 **********************************************************************

 Orbital symmetries:
       Occupied  (A) (A) (A) (A) (A) (A) (A) (A) (A) (A) (A) (A)
                 (A) (A) (A) (A) (A) (A) (A) (A) (A) (A) (A) (A)
                 (A) (A) (A) (A) (A) (A) (A) (A) (A) (A) (A) (A)
                 (A) (A) (A) (A) (A) (A) (A) (A) (A) (A) (A) (A)
                 (A) (A) (A) (A) (A) (A) (A) (A) (A) (A) (A) (A)
                 (A) (A) (A) (A) (A) (A) (A) (A) (A) (A) (A) (A)
                 (A) (A) (A) (A) (A) (A) (A) (A) (A) (A) (A) (A)
                 (A) (A) (A) (A) (A) (A) (A) (A) (A) (A) (A) (A)
                 (A) (A) (A) (A) (A) (A) (A) (A) (A) (A) (A) (A)
                 (A) (A) (A) (A) (A) (A) (A) (A) (A) (A) (A) (A)
                 (A) (A) (A) (A) (A) (A) (A) (A) (A) (A) (A) (A)
                 (A) (A) (A) (A) (A) (A) (A) (A) (A) (A) (A) (A)
                 (A) (A) (A) (A) (A) (A) (A) (A) (A) (A) (A) (A)
       Virtual   (A) (A) (A) (A) (A) (A) (A) (A) (A) (A) (A) (A)
                 (A) (A) (A) (A) (A) (A) (A) (A) (A) (A) (A) (A)
                 (A) (A) (A) (A) (A) (A) (A) (A) (A) (A) (A) (A)
                 (A) (A) (A) (A) (A) (A) (A) (A) (A) (A) (A) (A)
                 (A) (A) (A) (A) (A) (A) (A) (A) (A) (A) (A) (A)
                 (A) (A) (A) (A) (A) (A) (A) (A) (A) (A) (A) (A)
                 (A) (A) (A) (A) (A) (A) (A) (A) (A) (A) (A) (A)
                 (A) (A) (A) (A) (A) (A) (A) (A) (A) (A) (A) (A)
                 (A) (A) (A) (A) (A) (A) (A) (A) (A) (A) (A) (A)
                 (A) (A) (A) (A) (A) (A) (A) (A) (A) (A) (A) (A)
                 (A) (A) (A) (A) (A) (A) (A) (A) (A) (A) (A) (A)
                 (A) (A) (A) (A) (A) (A) (A) (A) (A) (A) (A) (A)
                 (A) (A) (A) (A) (A) (A) (A) (A) (A) (A) (A) (A)
                 (A) (A) (A) (A) (A) (A) (A) (A) (A) (A) (A) (A)
                 (A) (A) (A) (A) (A) (A) (A) (A) (A) (A) (A) (A)
                 (A) (A) (A) (A) (A) (A) (A) (A) (A) (A) (A) (A)
                 (A) (A) (A) (A) (A) (A) (A) (A) (A) (A) (A) (A)
                 (A) (A) (A) (A) (A) (A) (A) (A) (A) (A) (A) (A)
                 (A) (A) (A) (A) (A) (A) (A) (A) (A) (A) (A) (A)
                 (A) (A) (A) (A) (A) (A) (A) (A) (A) (A) (A) (A)
                 (A) (A) (A) (A) (A) (A) (A) (A) (A) (A) (A) (A)
                 (A) (A) (A) (A) (A) (A) (A) (A) (A) (A) (A) (A)
                 (A) (A) (A) (A) (A) (A) (A) (A) (A) (A) (A) (A)
                 (A) (A) (A) (A) (A) (A) (A) (A) (A) (A) (A) (A)
                 (A) (A) (A) (A) (A) (A) (A) (A) (A) (A) (A) (A)
                 (A) (A) (A) (A) (A) (A) (A) (A) (A) (A) (A) (A)
                 (A) (A) (A) (A) (A) (A) (A) (A) (A) (A) (A) (A)
                 (A) (A) (A) (A) (A) (A) (A) (A) (A) (A) (A) (A)
                 (A) (A) (A) (A) (A) (A) (A) (A) (A) (A) (A) (A)
                 (A) (A) (A) (A) (A) (A) (A) (A) (A) (A) (A) (A)
                 (A) (A) (A) (A) (A) (A) (A) (A) (A) (A) (A) (A)
                 (A) (A) (A) (A) (A) (A) (A) (A) (A) (A) (A) (A)
                 (A) (A) (A) (A) (A) (A) (A) (A) (A) (A) (A) (A)
                 (A) (A) (A) (A) (A) (A) (A) (A) (A) (A) (A) (A)
                 (A) (A) (A) (A) (A) (A) (A) (A) (A) (A) (A) (A)
                 (A) (A) (A) (A) (A) (A) (A) (A) (A) (A) (A) (A)
                 (A) (A) (A) (A) (A) (A) (A) (A) (A) (A) (A) (A)
                 (A) (A) (A) (A) (A) (A) (A) (A) (A) (A) (A) (A)
                 (A) (A) (A) (A) (A) (A) (A) (A) (A) (A) (A) (A)
                 (A) (A) (A) (A) (A) (A) (A) (A) (A) (A) (A) (A)
                 (A) (A) (A) (A) (A) (A) (A) (A) (A) (A) (A) (A)
                 (A) (A) (A) (A) (A) (A) (A) (A) (A) (A) (A) (A)
                 (A) (A) (A) (A) (A) (A) (A) (A) (A) (A) (A) (A)
                 (A) (A) (A) (A) (A) (A) (A) (A) (A) (A) (A) (A)
                 (A) (A) (A) (A) (A) (A) (A) (A) (A) (A) (A) (A)
                 (A) (A) (A) (A) (A) (A) (A) (A) (A) (A) (A) (A)
                 (A) (A) (A) (A) (A) (A) (A) (A) (A) (A) (A) (A)
                 (A) (A) (A) (A) (A) (A) (A) (A) (A) (A) (A) (A)
                 (A) (A) (A) (A) (A) (A) (A) (A) (A) (A) (A) (A)
                 (A) (A) (A) (A) (A) (A) (A) (A) (A) (A) (A) (A)
                 (A) (A) (A) (A) (A) (A) (A) (A) (A) (A) (A) (A)
                 (A) (A) (A) (A) (A) (A) (A) (A) (A) (A) (A) (A)
                 (A) (A) (A) (A) (A) (A) (A) (A) (A) (A) (A) (A)
                 (A) (A) (A) (A) (A) (A) (A) (A) (A) (A) (A) (A)
                 (A) (A) (A) (A) (A) (A) (A) (A) (A) (A) (A) (A)
                 (A) (A) (A) (A) (A) (A) (A) (A) (A) (A) (A) (A)
                 (A) (A) (A) (A) (A) (A) (A) (A) (A) (A) (A) (A)
                 (A) (A) (A) (A) (A) (A) (A) (A) (A) (A) (A) (A)
                 (A) (A) (A) (A) (A) (A) (A) (A) (A) (A) (A) (A)
                 (A) (A) (A) (A) (A) (A) (A) (A) (A) (A) (A) (A)
                 (A) (A) (A) (A) (A) (A) (A) (A) (A) (A) (A) (A)
                 (A) (A) (A) (A) (A) (A) (A) (A) (A) (A) (A) (A)
                 (A) (A) (A) (A) (A) (A) (A) (A) (A) (A)
 The electronic state is 1-A.
 Alpha  occ. eigenvalues --  -19.22080 -19.21625 -10.30076 -10.29529 -10.28815
 Alpha  occ. eigenvalues --  -10.28432 -10.27903 -10.27578 -10.27480 -10.27273
 Alpha  occ. eigenvalues --  -10.26986 -10.26951 -10.26797 -10.26630 -10.26503
 Alpha  occ. eigenvalues --  -10.26441 -10.26186 -10.26039 -10.25966 -10.25898
 Alpha  occ. eigenvalues --  -10.25872 -10.25838 -10.25536 -10.25477 -10.25458
 Alpha  occ. eigenvalues --  -10.25423 -10.25376 -10.25291 -10.25283 -10.25158
 Alpha  occ. eigenvalues --  -10.25102 -10.25006 -10.24874 -10.24841 -10.24767
 Alpha  occ. eigenvalues --  -10.24699 -10.24634 -10.24590 -10.24514 -10.24341
 Alpha  occ. eigenvalues --  -10.23469 -10.23219  -1.13964  -1.09357  -0.93991
 Alpha  occ. eigenvalues --   -0.93194  -0.92308  -0.91815  -0.90757  -0.89830
 Alpha  occ. eigenvalues --   -0.87981  -0.87417  -0.86350  -0.85304  -0.84490
 Alpha  occ. eigenvalues --   -0.83192  -0.81439  -0.79782  -0.79431  -0.78030
 Alpha  occ. eigenvalues --   -0.76311  -0.76272  -0.76063  -0.75875  -0.75533
 Alpha  occ. eigenvalues --   -0.75424  -0.75154  -0.74685  -0.73418  -0.70942
 Alpha  occ. eigenvalues --   -0.69087  -0.67825  -0.66544  -0.65523  -0.64236
 Alpha  occ. eigenvalues --   -0.63771  -0.62345  -0.61871  -0.60688  -0.60477
 Alpha  occ. eigenvalues --   -0.60253  -0.59827  -0.58939  -0.57812  -0.56431
 Alpha  occ. eigenvalues --   -0.56123  -0.55558  -0.55025  -0.54740  -0.53384
 Alpha  occ. eigenvalues --   -0.53092  -0.52688  -0.51598  -0.51381  -0.50702
 Alpha  occ. eigenvalues --   -0.50543  -0.50109  -0.49690  -0.49265  -0.48853
 Alpha  occ. eigenvalues --   -0.48541  -0.48254  -0.48051  -0.47985  -0.47470
 Alpha  occ. eigenvalues --   -0.47343  -0.46917  -0.46433  -0.46302  -0.45895
 Alpha  occ. eigenvalues --   -0.45726  -0.45621  -0.45314  -0.44978  -0.44731
 Alpha  occ. eigenvalues --   -0.44688  -0.44284  -0.44023  -0.43676  -0.43295
 Alpha  occ. eigenvalues --   -0.43183  -0.42668  -0.42541  -0.42235  -0.41724
 Alpha  occ. eigenvalues --   -0.41464  -0.41423  -0.41082  -0.41011  -0.40918
 Alpha  occ. eigenvalues --   -0.40742  -0.40502  -0.40369  -0.40190  -0.39155
 Alpha  occ. eigenvalues --   -0.38907  -0.38551  -0.38105  -0.37949  -0.37767
 Alpha  occ. eigenvalues --   -0.37710  -0.37320  -0.37113  -0.36557  -0.35619
 Alpha  occ. eigenvalues --   -0.35338  -0.34477  -0.33929  -0.32696  -0.30885
 Alpha  occ. eigenvalues --   -0.30755  -0.30018  -0.28347  -0.26503  -0.22773
 Alpha  occ. eigenvalues --   -0.18480
 Alpha virt. eigenvalues --   -0.05886  -0.00562   0.03172   0.06491   0.08930
 Alpha virt. eigenvalues --    0.10802   0.11046   0.11826   0.12065   0.12193
 Alpha virt. eigenvalues --    0.12324   0.12956   0.13112   0.13419   0.13899
 Alpha virt. eigenvalues --    0.14252   0.14545   0.14981   0.15202   0.15407
 Alpha virt. eigenvalues --    0.15765   0.16046   0.16532   0.16749   0.16905
 Alpha virt. eigenvalues --    0.16983   0.17741   0.17829   0.18075   0.18135
 Alpha virt. eigenvalues --    0.18220   0.18629   0.18835   0.19175   0.19291
 Alpha virt. eigenvalues --    0.19572   0.20076   0.20361   0.20538   0.20789
 Alpha virt. eigenvalues --    0.21188   0.21269   0.21750   0.21933   0.22207
 Alpha virt. eigenvalues --    0.22482   0.22687   0.23133   0.23429   0.23746
 Alpha virt. eigenvalues --    0.24145   0.24307   0.24618   0.24901   0.25007
 Alpha virt. eigenvalues --    0.25345   0.26032   0.26171   0.26207   0.26479
 Alpha virt. eigenvalues --    0.26827   0.27176   0.27740   0.27785   0.28035
 Alpha virt. eigenvalues --    0.28413   0.28922   0.29168   0.29381   0.29793
 Alpha virt. eigenvalues --    0.30191   0.30416   0.30588   0.31152   0.31358
 Alpha virt. eigenvalues --    0.31835   0.32143   0.32735   0.33024   0.33415
 Alpha virt. eigenvalues --    0.33927   0.34198   0.34533   0.34826   0.35593
 Alpha virt. eigenvalues --    0.36157   0.36646   0.37072   0.38174   0.38345
 Alpha virt. eigenvalues --    0.38842   0.40418   0.41215   0.41997   0.43404
 Alpha virt. eigenvalues --    0.44142   0.44195   0.44918   0.45489   0.45958
 Alpha virt. eigenvalues --    0.47108   0.48621   0.48751   0.49365   0.50006
 Alpha virt. eigenvalues --    0.50659   0.52585   0.53416   0.54020   0.54878
 Alpha virt. eigenvalues --    0.55217   0.56065   0.56306   0.56817   0.57134
 Alpha virt. eigenvalues --    0.57503   0.57744   0.57961   0.58335   0.58945
 Alpha virt. eigenvalues --    0.59358   0.59837   0.59944   0.60415   0.60813
 Alpha virt. eigenvalues --    0.61339   0.61572   0.61699   0.61948   0.62057
 Alpha virt. eigenvalues --    0.62428   0.63216   0.63690   0.63945   0.64243
 Alpha virt. eigenvalues --    0.64502   0.64607   0.65452   0.65484   0.65775
 Alpha virt. eigenvalues --    0.65980   0.66722   0.66814   0.67048   0.67416
 Alpha virt. eigenvalues --    0.67468   0.68031   0.68202   0.68387   0.68768
 Alpha virt. eigenvalues --    0.69050   0.69104   0.69578   0.69907   0.70228
 Alpha virt. eigenvalues --    0.70453   0.70901   0.71857   0.72095   0.72309
 Alpha virt. eigenvalues --    0.72774   0.73025   0.73103   0.73433   0.73685
 Alpha virt. eigenvalues --    0.74159   0.74676   0.75272   0.75653   0.75972
 Alpha virt. eigenvalues --    0.76549   0.77057   0.77312   0.77501   0.77909
 Alpha virt. eigenvalues --    0.78100   0.78489   0.79062   0.79071   0.79202
 Alpha virt. eigenvalues --    0.79523   0.79738   0.80602   0.81114   0.81677
 Alpha virt. eigenvalues --    0.81853   0.82190   0.82480   0.82611   0.82879
 Alpha virt. eigenvalues --    0.83813   0.84049   0.84573   0.84893   0.85115
 Alpha virt. eigenvalues --    0.85232   0.85396   0.85646   0.85876   0.86449
 Alpha virt. eigenvalues --    0.86605   0.86945   0.87488   0.87524   0.87820
 Alpha virt. eigenvalues --    0.88235   0.88337   0.89262   0.89294   0.89605
 Alpha virt. eigenvalues --    0.89864   0.89965   0.90313   0.90761   0.91173
 Alpha virt. eigenvalues --    0.91508   0.91577   0.91662   0.92213   0.92557
 Alpha virt. eigenvalues --    0.92747   0.92847   0.93203   0.93606   0.93974
 Alpha virt. eigenvalues --    0.94235   0.94305   0.94526   0.94965   0.95154
 Alpha virt. eigenvalues --    0.95300   0.95665   0.95806   0.96041   0.96386
 Alpha virt. eigenvalues --    0.97235   0.97422   0.97465   0.97507   0.97724
 Alpha virt. eigenvalues --    0.97973   0.98752   0.98951   0.99120   0.99794
 Alpha virt. eigenvalues --    1.00001   1.01284   1.01502   1.01598   1.02124
 Alpha virt. eigenvalues --    1.02768   1.03068   1.03194   1.03553   1.03907
 Alpha virt. eigenvalues --    1.04112   1.04212   1.04347   1.04768   1.05362
 Alpha virt. eigenvalues --    1.06115   1.06652   1.06666   1.07308   1.07736
 Alpha virt. eigenvalues --    1.07878   1.08328   1.08909   1.08999   1.09782
 Alpha virt. eigenvalues --    1.10291   1.10381   1.11552   1.11861   1.12414
 Alpha virt. eigenvalues --    1.12764   1.13381   1.13805   1.14141   1.15008
 Alpha virt. eigenvalues --    1.15386   1.15908   1.16180   1.16835   1.17259
 Alpha virt. eigenvalues --    1.18867   1.19317   1.20270   1.20449   1.21508
 Alpha virt. eigenvalues --    1.21961   1.22432   1.23376   1.24436   1.25313
 Alpha virt. eigenvalues --    1.25769   1.27876   1.28600   1.29194   1.29650
 Alpha virt. eigenvalues --    1.29904   1.30335   1.32188   1.32408   1.33534
 Alpha virt. eigenvalues --    1.34328   1.36180   1.36458   1.36616   1.36825
 Alpha virt. eigenvalues --    1.37308   1.38117   1.39383   1.40292   1.40790
 Alpha virt. eigenvalues --    1.41126   1.41733   1.41893   1.42832   1.43190
 Alpha virt. eigenvalues --    1.43563   1.44543   1.44853   1.44951   1.45866
 Alpha virt. eigenvalues --    1.46085   1.46305   1.46704   1.48335   1.48802
 Alpha virt. eigenvalues --    1.49491   1.50827   1.51440   1.51681   1.52284
 Alpha virt. eigenvalues --    1.52512   1.54657   1.55384   1.55712   1.56758
 Alpha virt. eigenvalues --    1.57159   1.57767   1.58615   1.59439   1.60144
 Alpha virt. eigenvalues --    1.60547   1.60866   1.61557   1.62303   1.62622
 Alpha virt. eigenvalues --    1.63459   1.63888   1.65045   1.65953   1.65999
 Alpha virt. eigenvalues --    1.67146   1.68258   1.68410   1.69327   1.70270
 Alpha virt. eigenvalues --    1.71755   1.73917   1.74107   1.74621   1.76333
 Alpha virt. eigenvalues --    1.76510   1.77213   1.78693   1.78939   1.79181
 Alpha virt. eigenvalues --    1.79411   1.79883   1.79951   1.81514   1.82352
 Alpha virt. eigenvalues --    1.83300   1.83714   1.83819   1.84334   1.84610
 Alpha virt. eigenvalues --    1.85878   1.86169   1.86313   1.86500   1.86823
 Alpha virt. eigenvalues --    1.87388   1.87620   1.88343   1.88504   1.88610
 Alpha virt. eigenvalues --    1.89618   1.89844   1.90626   1.90679   1.91280
 Alpha virt. eigenvalues --    1.91324   1.91565   1.92473   1.92597   1.93367
 Alpha virt. eigenvalues --    1.93726   1.93861   1.94387   1.95207   1.95228
 Alpha virt. eigenvalues --    1.95351   1.95781   1.95856   1.97068   1.97187
 Alpha virt. eigenvalues --    1.97431   1.97737   1.98403   1.98762   1.99128
 Alpha virt. eigenvalues --    1.99528   2.00096   2.00469   2.00734   2.00858
 Alpha virt. eigenvalues --    2.02112   2.03196   2.03244   2.03643   2.03850
 Alpha virt. eigenvalues --    2.04840   2.04928   2.05232   2.05475   2.06742
 Alpha virt. eigenvalues --    2.07214   2.07606   2.08639   2.08869   2.09210
 Alpha virt. eigenvalues --    2.09418   2.10171   2.10517   2.10953   2.11182
 Alpha virt. eigenvalues --    2.11819   2.12147   2.12557   2.12638   2.13005
 Alpha virt. eigenvalues --    2.13064   2.13493   2.13686   2.14647   2.15158
 Alpha virt. eigenvalues --    2.15240   2.15314   2.15823   2.16416   2.16673
 Alpha virt. eigenvalues --    2.17052   2.17401   2.17639   2.18103   2.18509
 Alpha virt. eigenvalues --    2.18713   2.19216   2.19580   2.19631   2.20400
 Alpha virt. eigenvalues --    2.20895   2.21319   2.21897   2.22331   2.22616
 Alpha virt. eigenvalues --    2.23133   2.23991   2.24079   2.24484   2.24882
 Alpha virt. eigenvalues --    2.25378   2.25795   2.26002   2.26530   2.27155
 Alpha virt. eigenvalues --    2.27721   2.28552   2.29139   2.29718   2.30022
 Alpha virt. eigenvalues --    2.30827   2.31019   2.31880   2.31891   2.32475
 Alpha virt. eigenvalues --    2.32939   2.33393   2.34339   2.34517   2.34969
 Alpha virt. eigenvalues --    2.35166   2.35537   2.35994   2.36584   2.37237
 Alpha virt. eigenvalues --    2.37330   2.38680   2.38834   2.39207   2.39473
 Alpha virt. eigenvalues --    2.39901   2.40755   2.41325   2.41435   2.41974
 Alpha virt. eigenvalues --    2.42462   2.42661   2.42765   2.43281   2.44418
 Alpha virt. eigenvalues --    2.44642   2.45105   2.45225   2.45507   2.45871
 Alpha virt. eigenvalues --    2.47270   2.47343   2.47646   2.48040   2.48545
 Alpha virt. eigenvalues --    2.48698   2.49008   2.49714   2.50731   2.51439
 Alpha virt. eigenvalues --    2.51851   2.52650   2.52837   2.53630   2.54010
 Alpha virt. eigenvalues --    2.54088   2.54335   2.54791   2.54971   2.56160
 Alpha virt. eigenvalues --    2.56318   2.56476   2.56859   2.57164   2.57937
 Alpha virt. eigenvalues --    2.58722   2.59254   2.60092   2.60382   2.61445
 Alpha virt. eigenvalues --    2.62085   2.62514   2.62837   2.63381   2.63780
 Alpha virt. eigenvalues --    2.63948   2.64362   2.65206   2.65268   2.65967
 Alpha virt. eigenvalues --    2.66551   2.67122   2.67412   2.68442   2.68865
 Alpha virt. eigenvalues --    2.69154   2.69576   2.70110   2.70279   2.70823
 Alpha virt. eigenvalues --    2.71699   2.71959   2.73083   2.73391   2.73746
 Alpha virt. eigenvalues --    2.73854   2.74383   2.74777   2.75098   2.75700
 Alpha virt. eigenvalues --    2.76300   2.77056   2.77145   2.77521   2.78408
 Alpha virt. eigenvalues --    2.78675   2.78835   2.79631   2.79817   2.79834
 Alpha virt. eigenvalues --    2.80675   2.81051   2.81576   2.81903   2.82159
 Alpha virt. eigenvalues --    2.82251   2.82558   2.83341   2.83642   2.84421
 Alpha virt. eigenvalues --    2.85439   2.85554   2.85929   2.86193   2.87231
 Alpha virt. eigenvalues --    2.87509   2.88184   2.88499   2.89367   2.89746
 Alpha virt. eigenvalues --    2.90096   2.90362   2.91273   2.91846   2.91952
 Alpha virt. eigenvalues --    2.93253   2.94406   2.94658   2.94782   2.95232
 Alpha virt. eigenvalues --    2.95523   2.96705   2.97100   2.97708   2.98009
 Alpha virt. eigenvalues --    2.99351   2.99488   2.99642   3.00479   3.00626
 Alpha virt. eigenvalues --    3.01697   3.01819   3.02649   3.02769   3.04588
 Alpha virt. eigenvalues --    3.04728   3.05090   3.06368   3.06803   3.07237
 Alpha virt. eigenvalues --    3.07460   3.08067   3.08602   3.09239   3.09574
 Alpha virt. eigenvalues --    3.11045   3.12580   3.13033   3.13944   3.16090
 Alpha virt. eigenvalues --    3.17183   3.17598   3.18238   3.19891   3.20294
 Alpha virt. eigenvalues --    3.20697   3.20872   3.21737   3.22055   3.22186
 Alpha virt. eigenvalues --    3.23803   3.24012   3.25879   3.27159   3.27477
 Alpha virt. eigenvalues --    3.29927   3.31593   3.33433   3.38557   3.40273
 Alpha virt. eigenvalues --    3.40366   3.41195   3.42448   3.44339   3.44678
 Alpha virt. eigenvalues --    3.44962   3.45241   3.45965   3.47447   3.47740
 Alpha virt. eigenvalues --    3.47840   3.48378   3.48494   3.49831   3.50394
 Alpha virt. eigenvalues --    3.51083   3.52960   3.53388   3.54415   3.55596
 Alpha virt. eigenvalues --    3.55837   3.56593   3.57888   3.58526   3.58897
 Alpha virt. eigenvalues --    3.59227   3.60054   3.61387   3.61748   3.68129
 Alpha virt. eigenvalues --    3.69013   3.69584   3.70142   3.71490   3.72583
 Alpha virt. eigenvalues --    3.72676   3.73427   3.75054   3.77460   3.78416
 Alpha virt. eigenvalues --    3.82574   3.87251   4.13624   4.19700   4.20739
 Alpha virt. eigenvalues --    4.21745   4.22180   4.22825   4.23359   4.25002
 Alpha virt. eigenvalues --    4.27401   4.30717   4.32205   4.33072   4.35218
 Alpha virt. eigenvalues --    4.37433   4.39405   4.41899   4.42713   4.45564
 Alpha virt. eigenvalues --    4.46657   4.47975   4.48835   4.53414   4.54759
 Alpha virt. eigenvalues --    4.55395   4.55852   4.56768   4.58089   4.62088
 Alpha virt. eigenvalues --    4.63099   4.63974   4.68157   4.68568   4.72896
 Alpha virt. eigenvalues --    4.73920   4.75910   4.79434   4.79836   4.83691
 Alpha virt. eigenvalues --    4.85303   4.87403   4.88351   4.93875
          Condensed to atoms (all electrons):
 Mulliken charges:
               1
     1  O   -0.516424
     2  O   -0.566393
     3  C   -0.013003
     4  C   -0.010767
     5  C   -0.200395
     6  C   -0.178036
     7  C    0.167226
     8  C    0.176647
     9  C    0.081067
    10  C    0.056571
    11  C   -0.203982
    12  C   -0.252092
    13  C    0.000569
    14  C    0.086074
    15  C   -0.306480
    16  C   -0.306507
    17  C   -0.324740
    18  C   -0.303275
    19  C   -0.091540
    20  C   -0.131066
    21  C   -0.368208
    22  C   -0.362815
    23  C   -0.108843
    24  C   -0.102661
    25  C    0.083121
    26  C    0.126239
    27  C   -0.371549
    28  C   -0.392400
    29  C   -0.114054
    30  C   -0.114099
    31  C   -0.107613
    32  C   -0.053078
    33  C   -0.108890
    34  C   -0.131855
    35  C    0.122264
    36  C    0.105276
    37  C   -0.363030
    38  C   -0.346784
    39  C   -0.117488
    40  C   -0.107931
    41  C   -0.066029
    42  C   -0.111809
    43  H    0.102434
    44  H    0.074004
    45  H    0.091550
    46  H    0.103765
    47  H    0.053392
    48  H    0.070559
    49  H    0.122979
    50  H    0.101957
    51  H    0.122519
    52  H    0.090984
    53  H    0.102684
    54  H    0.071819
    55  H    0.115595
    56  H    0.102597
    57  H    0.099249
    58  H    0.102344
    59  H    0.113240
    60  H    0.085994
    61  H    0.087107
    62  H    0.101748
    63  H    0.107396
    64  H    0.084400
    65  H    0.094604
    66  H    0.070929
    67  H    0.132412
    68  H    0.107503
    69  H    0.092512
    70  H    0.095576
    71  H    0.129487
    72  H    0.131218
    73  H    0.302945
    74  H    0.313497
    75  H    0.097757
    76  H    0.065743
    77  H    0.080013
    78  H    0.132801
    79  H    0.118504
    80  H    0.129431
    81  H    0.114369
    82  H    0.090746
    83  H    0.093761
    84  H    0.074446
    85  H    0.095332
    86  H    0.081400
    87  H    0.078439
    88  H    0.069579
    89  H    0.122591
    90  H    0.109996
    91  H    0.096235
    92  H    0.120382
    93  H    0.097049
    94  H    0.112244
    95  H    0.064665
    96  H    0.082632
    97  H    0.064583
    98  H    0.077086
 Sum of Mulliken charges =  -0.00000
 Mulliken charges with hydrogens summed into heavy atoms:
               1
     1  O   -0.213479
     2  O   -0.252896
     3  C   -0.013003
     4  C   -0.010767
     5  C   -0.023958
     6  C    0.017279
     7  C    0.220618
     8  C    0.247206
     9  C    0.081067
    10  C    0.056571
    11  C    0.020955
    12  C   -0.038588
    13  C    0.000569
    14  C    0.086074
    15  C   -0.016383
    16  C   -0.002317
    17  C   -0.038399
    18  C   -0.009732
    19  C    0.003064
    20  C   -0.060136
    21  C   -0.035782
    22  C   -0.006535
    23  C   -0.011086
    24  C   -0.036918
    25  C    0.083121
    26  C    0.126239
    27  C   -0.040231
    28  C   -0.057854
    29  C   -0.020293
    30  C   -0.039653
    31  C   -0.012280
    32  C    0.028322
    33  C   -0.030451
    34  C   -0.062276
    35  C    0.122264
    36  C    0.105276
    37  C   -0.034209
    38  C   -0.017110
    39  C   -0.052822
    40  C   -0.025299
    41  C   -0.001446
    42  C   -0.034723
 Electronic spatial extent (au):  <R**2>=         109717.3942
 Charge=             -0.0000 electrons
 Dipole moment (field-independent basis, Debye):
    X=              1.2290    Y=             -2.2801    Z=              1.6866  Tot=              3.0910
 Quadrupole moment (field-independent basis, Debye-Ang):
   XX=           -253.9036   YY=           -241.7833   ZZ=           -260.2285
   XY=             -2.1773   XZ=             -9.8312   YZ=              1.9895
 Traceless Quadrupole moment (field-independent basis, Debye-Ang):
   XX=             -1.9318   YY=             10.1885   ZZ=             -8.2567
   XY=             -2.1773   XZ=             -9.8312   YZ=              1.9895
 Octapole moment (field-independent basis, Debye-Ang**2):
  XXX=            176.6254  YYY=            -31.0263  ZZZ=             18.5322  XYY=            145.0975
  XXY=           -468.2182  XXZ=            359.7699  XZZ=            -67.6495  YZZ=              1.7985
  YYZ=              3.5275  XYZ=            -17.6995
 Hexadecapole moment (field-independent basis, Debye-Ang**3):
 XXXX=        -144866.7854 YYYY=          -4504.1310 ZZZZ=          -1724.4753 XXXY=          -1381.7378
 XXXZ=          -2484.7115 YYYX=           -320.1169 YYYZ=             -1.9895 ZZZX=           -330.9630
 ZZZY=             32.5531 XXYY=         -23255.0858 XXZZ=         -23323.0237 YYZZ=          -1075.2718
 XXYZ=           -260.9789 YYXZ=            106.8037 ZZXY=           -188.1393
 N-N= 3.994572146038D+03 E-N=-1.194517131470D+04  KE= 1.691046677150D+03
 1\1\GINC-RYZEN-SSD1\SP\RCAM-B3LYP TD-FC\6-31G(d,p)\C40H56O2\PADAWAN\18
 -Jul-2019\0\\# td=(NStates=1) CAM-B3LYP/6-31G(d,p)\\TD\\0,1\O,0,14.739
 6794929,-2.0009830314,-0.2725941824\O,0,-14.6107061346,1.9971150166,1.
 0791174427\C,0,11.2031726633,-1.4291054626,0.9851946805\C,0,-12.377542
 9183,-0.9153831562,0.6972833723\C,0,12.661949761,-1.7109903951,1.17471
 23632\C,0,-13.6929960186,-0.1819462145,0.7880916212\C,0,13.4481128503,
 -1.7440067228,-0.2456481098\C,0,-13.405549848,1.3123098921,0.933004551
 5\C,0,10.906860013,-0.1983074577,0.0515118582\C,0,-11.2747538394,-0.15
 64366506,-0.1488825643\C,0,13.2194324342,-0.4200204871,-0.9804307971\C
 ,0,-12.5929317312,1.8012931364,-0.2013594889\C,0,11.7602218912,0.17927
 83107,-0.8182244654\C,0,-11.4398245775,1.0831149406,-0.6237443704\C,0,
 10.7339544364,-0.9572811691,2.4786712511\C,0,10.4023908591,-2.65408317
 63,0.5994633363\C,0,-11.8507468807,-1.2547151634,2.0722933603\C,0,-12.
 5871552105,-2.2644676687,-0.0350722452\C,0,9.5225174927,0.3664756006,0
 .1111650765\C,0,-10.0052060926,-0.9220749494,-0.2821094959\C,0,11.5027
 561556,1.258981072,-1.9508270727\C,0,-10.5882871167,1.8028297601,-1.63
 61905091\C,0,9.3282267277,1.6901252555,0.0486615062\C,0,-8.7309344904,
 -0.4807000189,-0.348669969\C,0,7.9976288679,2.1798339664,0.2524760226\
 C,0,-7.5115191859,-1.2480031282,-0.5613823072\C,0,7.8384956336,3.66082
 49375,0.6292871127\C,0,-7.6294012371,-2.5883684137,-1.0312618112\C,0,6
 .8626562366,1.4269316342,0.0500325183\C,0,-6.3212148185,-0.5703252944,
 -0.4484437694\C,0,5.5819189059,1.9830725453,0.2486018292\C,0,-5.086177
 1637,-1.1271697899,-0.6620630843\C,0,4.4290116872,1.0894251365,-0.0463
 567207\C,0,-3.9585271497,-0.3942016442,-0.4266054755\C,0,3.1479822892,
 1.5195663476,0.0782119372\C,0,-2.5734628023,-0.8089309721,-0.668715226
 5\C,0,2.8137929463,2.8664743394,0.619279586\C,0,-2.4709558636,-2.30034
 35264,-1.1247937054\C,0,2.107069796,0.5882708911,-0.2517858586\C,0,-1.
 6092628863,0.0611940084,-0.3426882198\C,0,0.7838252115,0.7411169257,-0
 .1799866707\C,0,-0.1801178818,-0.1904666467,-0.4023312031\H,0,13.08557
 71377,-0.9216255727,1.8045861476\H,0,12.8387573747,-2.75325854,1.52100
 9785\H,0,-14.1104340164,-0.6190993518,1.6793688579\H,0,-14.1370271977,
 -0.2391517871,-0.1313449905\H,0,12.7768986969,-2.4187211792,-0.8331138
 694\H,0,-12.8457250045,1.2793419163,1.8713148655\H,0,13.8339979868,0.2
 339459725,-0.6153967207\H,0,13.5170072577,-0.6079161487,-2.0107538064\
 H,0,-13.345319741,2.1129963597,-0.9412468677\H,0,-12.1849644694,2.8890
 339235,-0.0187708411\H,0,10.973570046,-1.7279812271,3.1236070567\H,0,9
 .519910318,-0.8551153105,2.5100677618\H,0,11.1165453965,-0.0843272998,
 2.8977931653\H,0,10.7650927723,-3.0831030843,-0.3765143344\H,0,10.6974
 587488,-3.4067593189,1.3823276728\H,0,9.2772750445,-2.6430056086,0.371
 3838594\H,0,-11.7750191879,-0.5740298969,2.8376840654\H,0,-10.69366220
 52,-1.6209546394,2.0805818422\H,0,-12.1991908121,-2.1597633962,2.70270
 08501\H,0,-13.3765481038,-2.818480544,0.4270808391\H,0,-11.7802132563,
 -3.0103576247,-0.2076078628\H,0,-13.0128391429,-1.9749166836,-1.097782
 5203\H,0,8.7744193449,-0.3324976608,0.2739045115\H,0,-10.15425019,-2.0
 111381777,-0.3694907511\H,0,10.5148727793,1.3105357236,-2.1490569647\H
 ,0,11.7240382328,2.3266136043,-1.741169725\H,0,12.0375454245,0.9296438
 193,-2.9185745465\H,0,-11.1797923802,2.6886644305,-2.1332340444\H,0,-1
 0.1022662046,1.1550695261,-2.436499617\H,0,-9.9257267567,2.361618816,-
 1.0097541314\H,0,15.0007191999,-2.835038831,0.018750155\H,0,-15.062970
 9901,1.6599332934,1.9437054665\H,0,10.2790738264,2.427079616,-0.136596
 8347\H,0,-8.549049641,0.7097255737,-0.1555761836\H,0,8.9451322002,4.15
 07284548,0.5858844294\H,0,7.234889876,4.3095258136,0.1947531293\H,0,7.
 4862678868,3.8116622342,1.6598828263\H,0,-8.2598287769,-3.0741820761,-
 0.3382291119\H,0,-8.1154059116,-2.8507950824,-2.085790468\H,0,-6.78371
 41434,-3.4235968996,-0.8976451985\H,0,6.9185377088,0.5100642214,-0.476
 1454895\H,0,-6.3451814941,0.413388834,-0.0281579408\H,0,5.222559961,2.
 9835640284,0.5035368627\H,0,-5.0806785389,-2.1427819562,-1.0022063706\
 H,0,4.6323264256,0.1096357096,-0.3329053585\H,0,-4.2058819922,0.726221
 9942,-0.0903277518\H,0,3.6021358416,3.0253544254,1.4026235034\H,0,1.68
 14064016,2.9838393659,0.9936339654\H,0,3.0624516252,3.636120237,-0.375
 0405621\H,0,-3.2541465297,-3.0662789199,-0.6968473497\H,0,-2.377416454
 6,-2.2484519072,-2.4220109431\H,0,-1.4693473197,-2.6349310431,-0.74794
 33373\H,0,2.3128526483,-0.3501782988,-0.6096471767\H,0,-1.8038350065,1
 .0240106451,-0.0129652035\H,0,0.4407843774,1.5757430013,0.4359456046\H
 ,0,0.1736391489,-1.2130414681,-0.5117028443\\Version=ES64L-G16RevA.03\
 State=1-A\HF=-1706.9793557\RMSD=6.370e-09\PG=C01 [X(C40H56O2)]\\@


 The arm of the moral universe is long, but it bends toward justice.
 -- Martin Luther King, Jr.
 Job cpu time:       0 days  8 hours 39 minutes 52.5 seconds.
 Elapsed time:       0 days  2 hours 10 minutes 48.1 seconds.
 File lengths (MBytes):  RWF=   3127 Int=      0 D2E=      0 Chk=     84 Scr=      1
 Normal termination of Gaussian 16 at Thu Jul 18 08:41:08 2019.
