 Entering Gaussian System, Link 0=g16
 Input=Geometria-474-.com
 Output=Geometria-474-.log
 Initial command:
 /usr/local/g16/l1.exe "/home/padawan/israel-mol/zeaxanthin/spectra/emi/Gau-30728.inp" -scrdir="/home/padawan/israel-mol/zeaxanthin/spectra/emi/"
 Entering Link 1 = /usr/local/g16/l1.exe PID=     30730.
  
 Copyright (c) 1988,1990,1992,1993,1995,1998,2003,2009,2016,
            Gaussian, Inc.  All Rights Reserved.
  
 This is part of the Gaussian(R) 16 program.  It is based on
 the Gaussian(R) 09 system (copyright 2009, Gaussian, Inc.),
 the Gaussian(R) 03 system (copyright 2003, Gaussian, Inc.),
 the Gaussian(R) 98 system (copyright 1998, Gaussian, Inc.),
 the Gaussian(R) 94 system (copyright 1995, Gaussian, Inc.),
 the Gaussian 92(TM) system (copyright 1992, Gaussian, Inc.),
 the Gaussian 90(TM) system (copyright 1990, Gaussian, Inc.),
 the Gaussian 88(TM) system (copyright 1988, Gaussian, Inc.),
 the Gaussian 86(TM) system (copyright 1986, Carnegie Mellon
 University), and the Gaussian 82(TM) system (copyright 1983,
 Carnegie Mellon University). Gaussian is a federally registered
 trademark of Gaussian, Inc.
  
 This software contains proprietary and confidential information,
 including trade secrets, belonging to Gaussian, Inc.
  
 This software is provided under written license and may be
 used, copied, transmitted, or stored only in accord with that
 written license.
  
 The following legend is applicable only to US Government
 contracts under FAR:
  
                    RESTRICTED RIGHTS LEGEND
  
 Use, reproduction and disclosure by the US Government is
 subject to restrictions as set forth in subparagraphs (a)
 and (c) of the Commercial Computer Software - Restricted
 Rights clause in FAR 52.227-19.
  
 Gaussian, Inc.
 340 Quinnipiac St., Bldg. 40, Wallingford CT 06492
  
  
 ---------------------------------------------------------------
 Warning -- This program may not be used in any manner that
 competes with the business of Gaussian, Inc. or will provide
 assistance to any competitor of Gaussian, Inc.  The licensee
 of this program is prohibited from giving any competitor of
 Gaussian, Inc. access to this program.  By using this program,
 the user acknowledges that Gaussian, Inc. is engaged in the
 business of creating and licensing software in the field of
 computational chemistry and represents and warrants to the
 licensee that it is not a competitor of Gaussian, Inc. and that
 it will not use this program in any manner prohibited above.
 ---------------------------------------------------------------
  

 Cite this work as:
 Gaussian 16, Revision A.03,
 M. J. Frisch, G. W. Trucks, H. B. Schlegel, G. E. Scuseria, 
 M. A. Robb, J. R. Cheeseman, G. Scalmani, V. Barone, 
 G. A. Petersson, H. Nakatsuji, X. Li, M. Caricato, A. V. Marenich, 
 J. Bloino, B. G. Janesko, R. Gomperts, B. Mennucci, H. P. Hratchian, 
 J. V. Ortiz, A. F. Izmaylov, J. L. Sonnenberg, D. Williams-Young, 
 F. Ding, F. Lipparini, F. Egidi, J. Goings, B. Peng, A. Petrone, 
 T. Henderson, D. Ranasinghe, V. G. Zakrzewski, J. Gao, N. Rega, 
 G. Zheng, W. Liang, M. Hada, M. Ehara, K. Toyota, R. Fukuda, 
 J. Hasegawa, M. Ishida, T. Nakajima, Y. Honda, O. Kitao, H. Nakai, 
 T. Vreven, K. Throssell, J. A. Montgomery, Jr., J. E. Peralta, 
 F. Ogliaro, M. J. Bearpark, J. J. Heyd, E. N. Brothers, K. N. Kudin, 
 V. N. Staroverov, T. A. Keith, R. Kobayashi, J. Normand, 
 K. Raghavachari, A. P. Rendell, J. C. Burant, S. S. Iyengar, 
 J. Tomasi, M. Cossi, J. M. Millam, M. Klene, C. Adamo, R. Cammi, 
 J. W. Ochterski, R. L. Martin, K. Morokuma, O. Farkas, 
 J. B. Foresman, and D. J. Fox, Gaussian, Inc., Wallingford CT, 2016.
 
 ******************************************
 Gaussian 16:  ES64L-G16RevA.03 25-Dec-2016
                19-Jul-2019 
 ******************************************
 %nproc=4
 Will use up to    4 processors via shared memory.
 %Mem=2GB
 -------------------------------------
 # td=(NStates=1) CAM-B3LYP/6-31G(d,p)
 -------------------------------------
 1/38=1,172=1/1;
 2/12=2,17=6,18=5,40=1/2;
 3/5=1,6=6,7=101,11=9,25=1,30=1,74=-40/1,2,3,8;
 4//1;
 5/5=2,38=5/2;
 8/6=1,10=2,108=1/1;
 9/41=1,42=1,70=2/14;
 6/7=2,8=2,9=2,10=2/1;
 99/5=1,9=1/99;
 --
 TD
 --
 Symbolic Z-matrix:
 Charge =  0 Multiplicity = 1
 8                     14.85158  -2.06973  -0.10505 
 8                    -14.79663   1.85701   1.04651 
 6                     11.17206  -1.57352   1.02845 
 6                    -12.42931  -1.06984   0.63178 
 6                     12.79194  -1.84559   1.12481 
 6                    -13.70953  -0.30841   0.59722 
 6                     13.43134  -1.89694  -0.23836 
 6                    -13.59878   1.23904   1.02793 
 6                     10.95146  -0.29828   0.00128 
 6                    -11.34347  -0.25755  -0.11162 
 6                     13.2658  -0.58637  -0.98828 
 6                    -12.69385   1.88471  -0.06552 
 6                     11.98844  -0.00905  -0.82201 
 6                    -11.50186   1.01912  -0.45895 
 6                     10.72783  -1.18976   2.40042 
 6                     10.33162  -2.72026   0.47393 
 6                    -11.95477  -1.44541   2.03208 
 6                    -12.74663  -2.43428  -0.17239 
 6                     9.65255   0.34858   0.14655 
 6                    -10.03231  -0.96367  -0.38926 
 6                     11.8694   1.23751  -1.77979 
 6                    -10.62551   1.82093  -1.45929 
 6                     9.32008   1.61598   0.05091 
 6                    -8.82397  -0.4975   -0.26828 
 6                     8.05091   2.28116   0.26482 
 6                    -7.58984  -1.2434   -0.60031 
 6                     8.05318   3.75041   0.46947 
 6                    -7.68551  -2.62052  -0.9855 
 6                     6.92636   1.55662   0.1695 
 6                    -6.41093  -0.57193  -0.39546 
 6                     5.52057   2.05118   0.25442 
 6                    -5.07989  -0.97731  -0.51615 
 6                     4.46515   1.2851   -0.13436 
 6                    -3.94624  -0.28606  -0.37808 
 6                     3.09178   1.7958    0.01861 
 6                    -2.61424  -0.6995   -0.61698 
 6                     2.81918   3.21296   0.21437 
 6                    -2.33937  -2.14264  -0.94182 
 6                     2.21147   0.84051  -0.28106 
 6                    -1.60022   0.16609  -0.40554 
 6                     0.7591    0.87767  -0.12034 
 6                    -0.12905  -0.05011  -0.55228 
 1                     13.3335  -1.14254   1.65182 
 1                     13.03616  -2.53125   1.77239 
 1                    -14.14359  -0.77687   1.52745 
 1                    -14.19213  -0.37618  -0.40521 
 1                     13.09199  -2.79032  -0.7216 
 1                    -12.99349   1.31261   2.0431 
 1                     14.15787   0.07545  -0.46511 
 1                     13.59342  -0.8691   -1.84064 
 1                    -13.34724   2.12728  -0.9785 
 1                    -12.4907   2.88803   0.28561 
 1                     10.82595  -1.87892   3.1531 
 1                     9.5953   -1.23657   2.54015 
 1                     11.13668  -0.29724   2.75887 
 1                     10.53447  -3.03282  -0.54253 
 1                     10.36397  -3.56025   1.01173 
 1                     9.18528  -2.53761   0.52665 
 1                    -11.75739  -0.60256   2.79096 
 1                    -11.05877  -2.12908   2.09625 
 1                    -12.83588  -2.10165   2.42273 
 1                    -13.74323  -2.82814   0.0943 
 1                    -12.1111  -3.37112   0.30783 
 1                    -12.83792  -2.26763  -1.21434 
 1                     8.7583   -0.40037   0.49484 
 1                    -10.22566  -2.05003  -0.47871 
 1                     10.77516   1.47428  -1.87659 
 1                     12.44778   2.10324  -1.40402 
 1                     12.16589   1.00509  -2.69674 
 1                    -11.26166   2.54649  -1.86881 
 1                    -10.07882   1.30993  -2.11484 
 1                    -10.06804   2.44971  -0.88084 
 1                     15.11233  -3.1749   -0.0177 
 1                    -15.35003   1.44607   1.65629 
 1                     10.28178   2.38831  -0.06643 
 1                    -8.68343   0.4488    0.13869 
 1                     9.00833   4.31225   0.27242 
 1                     7.50271   4.15349  -0.27433 
 1                     7.6248    4.23695   1.4248 
 1                    -7.96309  -3.13234  -0.13515 
 1                    -8.20762  -2.8253   -1.88555 
 1                    -6.70787  -3.08316  -1.3205 
 1                     7.13841   0.43143  -0.371 
 1                    -6.44912   0.40775   0.03599 
 1                     5.27239   3.05271   0.70032 
 1                    -4.92676  -2.01991  -0.71252 
 1                     4.54469   0.28657  -0.44772 
 1                    -4.12105   0.71051  -0.17135 
 1                     3.25653   3.75273   1.12702 
 1                     1.85533   3.59838   0.21976 
 1                     3.42617   3.80366  -0.52736 
 1                    -2.33281  -2.94067   0.0224 
 1                    -3.04756  -2.5516   -1.88598 
 1                    -1.38815  -2.33492  -1.37293 
 1                     2.62795  -0.16438  -0.51986 
 1                    -1.62071   1.13832   0.02451 
 1                     0.36694   1.77929   0.21384 
 1                     0.05864  -0.91239  -1.04365 
 
 Stoichiometry    C40H56O2
 Framework group  C1[X(C40H56O2)]
 Deg. of freedom   288
 Full point group                 C1      NOp   1
 Largest Abelian subgroup         C1      NOp   1
 Largest concise Abelian subgroup C1      NOp   1
                         Standard orientation:                         
 ---------------------------------------------------------------------
 Center     Atomic      Atomic             Coordinates (Angstroms)
 Number     Number       Type             X           Y           Z
 ---------------------------------------------------------------------
      1          8           0       14.848837   -2.066088   -0.138177
      2          8           0      -14.799833    1.838418    1.075582
      3          6           0       11.168712   -1.592516    1.003017
      4          6           0      -12.432410   -1.079653    0.603505
      5          6           0       12.788530   -1.866559    1.094791
      6          6           0      -13.712576   -0.317612    0.583530
      7          6           0       13.428680   -1.890580   -0.268777
      8          6           0      -13.601996    1.220879    1.045266
      9          6           0       10.948743   -0.296907    0.001519
     10          6           0      -11.346125   -0.252669   -0.122842
     11          6           0       13.263609   -0.565213   -0.992344
     12          6           0      -12.696435    1.888308   -0.034508
     13          6           0       11.986191    0.008723   -0.815231
     14          6           0      -11.504265    1.030717   -0.444571
     15          6           0       10.723745   -1.236342    2.382170
     16          6           0       10.328532   -2.727851    0.425137
     17          6           0      -11.958660   -1.483278    1.996252
     18          6           0      -12.749349   -2.427671   -0.228049
     19          6           0        9.649778    0.346982    0.159024
     20          6           0      -10.034841   -0.953152   -0.413873
     21          6           0       11.867735    1.274257   -1.747866
     22          6           0      -10.627326    1.852392   -1.428142
     23          6           0        9.317413    1.616058    0.088654
     24          6           0       -8.826552   -0.489574   -0.282898
     25          6           0        8.048163    2.276890    0.315163
     26          6           0       -7.592266   -1.228731   -0.629141
     27          6           0        8.050379    3.741737    0.549258
     28          6           0       -7.687785   -2.597839   -1.041940
     29          6           0        6.923632    1.554472    0.204710
     30          6           0       -6.413446   -0.561566   -0.410210
     31          6           0        5.517818    2.047302    0.298759
     32          6           0       -5.082350   -0.964527   -0.538276
     33          6           0        4.462571    1.289241   -0.105895
     34          6           0       -3.948745   -0.276246   -0.385740
     35          6           0        3.089141    1.796846    0.056525
     36          6           0       -2.616633   -0.684883   -0.632152
     37          6           0        2.816503    3.209803    0.280534
     38          6           0       -2.341654   -2.121227   -0.985727
     39          6           0        2.208957    0.847802   -0.262734
     40          6           0       -1.602696    0.176238   -0.402830
     41          6           0        0.756503    0.881816   -0.102104
     42          6           0       -0.131456   -0.037064   -0.553059
     43          1           0       13.329829   -1.174250    1.636104
     44          1           0       13.032355   -2.565082    1.728625
     45          1           0      -14.147171   -0.804615    1.503934
     46          1           0      -14.194629   -0.365223   -0.420329
     47          1           0       13.089556   -2.774061   -0.770038
     48          1           0      -12.997264    1.274023    2.062040
     49          1           0       14.155423    0.085924   -0.455507
     50          1           0       13.591696   -0.830806   -1.850020
     51          1           0      -13.349307    2.149182   -0.942802
     52          1           0      -12.493427    2.884372    0.336791
     53          1           0       10.821410   -1.940464    3.120921
     54          1           0        9.591130   -1.285882    2.520305
     55          1           0       11.132431   -0.351211    2.758678
     56          1           0       10.531926   -3.019962   -0.597280
     57          1           0       10.360538   -3.578470    0.945991
     58          1           0        9.182163   -2.546227    0.480877
     59          1           0      -11.761662   -0.655834    2.772000
     60          1           0      -11.062728   -2.168139    2.047189
     61          1           0      -12.840023   -2.147168    2.373172
     62          1           0      -13.746118   -2.826744    0.030128
     63          1           0      -12.114122   -3.373993    0.233627
     64          1           0      -12.840056   -2.240133   -1.266503
     65          1           0        8.755299   -0.408764    0.491720
     66          1           0      -10.228189   -2.037491   -0.525211
     67          1           0       10.773555    1.512986   -1.840500
     68          1           0       12.445944    2.132242   -1.354477
     69          1           0       12.164717    1.060268   -2.669134
     70          1           0      -11.263217    2.586057   -1.823367
     71          1           0      -10.080300    1.354612   -2.093507
     72          1           0      -10.070148    2.469403   -0.836883
     73          1           0       15.109489   -3.172806   -0.072883
     74          1           0      -15.353584    1.415357    1.676680
     75          1           0       10.279221    2.390531   -0.012636
     76          1           0       -8.686194    0.448363    0.143061
     77          1           0        9.005665    4.307365    0.364051
     78          1           0        7.500338    4.159688   -0.186613
     79          1           0        7.621497    4.209035    1.513920
     80          1           0       -7.965860   -3.126599   -0.202186
     81          1           0       -8.209404   -2.784489   -1.946209
     82          1           0       -6.709980   -3.053720   -1.385616
     83          1           0        7.135927    0.440334   -0.358151
     84          1           0       -6.451828    0.409255    0.040786
     85          1           0        5.269438    3.039698    0.764523
     86          1           0       -4.929165   -2.002980   -0.755441
     87          1           0        4.542241    0.297194   -0.439185
     88          1           0       -4.123632    0.715986   -0.159146
     89          1           0        3.253370    3.731125    1.204070
     90          1           0        1.852668    3.595093    0.293123
     91          1           0        3.423924    3.815231   -0.448853
     92          1           0       -2.335665   -2.938443   -0.037711
     93          1           0       -3.049341   -2.511125   -1.938296
     94          1           0       -1.390201   -2.304875   -1.420084
     95          1           0        2.625528   -0.152113   -0.521419
     96          1           0       -1.623375    1.139642    0.046633
     97          1           0        0.364193    1.776574    0.249888
     98          1           0        0.056468   -0.889320   -1.061528
 ---------------------------------------------------------------------
 Rotational constants (GHZ):           0.2439817           0.0092543           0.0090549
 Standard basis: 6-31G(d,p) (6D, 7F)
 There are   910 symmetry adapted cartesian basis functions of A   symmetry.
 There are   910 symmetry adapted basis functions of A   symmetry.
   910 basis functions,  1568 primitive gaussians,   910 cartesian basis functions
   156 alpha electrons      156 beta electrons
       nuclear repulsion energy      3968.3184321982 Hartrees.
 NAtoms=   98 NActive=   98 NUniq=   98 SFac= 1.00D+00 NAtFMM=   60 NAOKFM=T Big=T
 Integral buffers will be    131072 words long.
 Raffenetti 1 integral format.
 Two-electron integral symmetry is turned on.
 One-electron integrals computed using PRISM.
 NBasis=   910 RedAO= T EigKep=  8.84D-04  NBF=   910
 NBsUse=   910 1.00D-06 EigRej= -1.00D+00 NBFU=   910
 ExpMin= 1.61D-01 ExpMax= 5.48D+03 ExpMxC= 8.25D+02 IAcc=3 IRadAn=         5 AccDes= 0.00D+00
 Harris functional with IExCor=20419 and IRadAn=       5 diagonalized for initial guess.
 HarFok:  IExCor=20419 AccDes= 0.00D+00 IRadAn=         5 IDoV= 1 UseB2=F ITyADJ=14
 ICtDFT=  3500011 ScaDFX=  1.000000  1.000000  1.000000  1.000000
 FoFCou: FMM=F IPFlag=           0 FMFlag=      100000 FMFlg1=        2001
         NFxFlg=           0 DoJE=T BraDBF=F KetDBF=T FulRan=T
         wScrn=  0.000000 ICntrl=       500 IOpCl=  0 I1Cent=   200000004 NGrid=           0
         NMat0=    1 NMatS0=      1 NMatT0=    0 NMatD0=    1 NMtDS0=    0 NMtDT0=    0
 Petite list used in FoFCou.
 Requested convergence on RMS density matrix=1.00D-08 within 128 cycles.
 Requested convergence on MAX density matrix=1.00D-06.
 Requested convergence on             energy=1.00D-06.
 No special actions if energy rises.
 Integral accuracy reduced to 1.0D-05 until final iterations.
 Initial convergence to 1.0D-05 achieved.  Increase integral accuracy.
 SCF Done:  E(RCAM-B3LYP) =  -1706.98137226     A.U. after   14 cycles
            NFock= 14  Conv=0.28D-08     -V/T= 2.0090
 DoSCS=F DFT=T ScalE2(SS,OS)=  1.000000  1.000000
 ExpMin= 1.61D-01 ExpMax= 5.48D+03 ExpMxC= 8.25D+02 IAcc=3 IRadAn=         5 AccDes= 0.00D+00
 HarFok:  IExCor=  205 AccDes= 0.00D+00 IRadAn=         5 IDoV=-2 UseB2=F ITyADJ=14
 ICtDFT= 12500011 ScaDFX=  1.000000  1.000000  1.000000  1.000000
 GSVD:  LWork=       -2100 too small for GESVD, short by        9450 words or        9450 for optimal perf.
 Range of M.O.s used for correlation:    43   910
 NBasis=   910 NAE=   156 NBE=   156 NFC=    42 NFV=     0
 NROrb=    868 NOA=   114 NOB=   114 NVA=   754 NVB=   754
 Orbital symmetries:
       Occupied  (A) (A) (A) (A) (A) (A) (A) (A) (A) (A) (A) (A)
                 (A) (A) (A) (A) (A) (A) (A) (A) (A) (A) (A) (A)
                 (A) (A) (A) (A) (A) (A) (A) (A) (A) (A) (A) (A)
                 (A) (A) (A) (A) (A) (A) (A) (A) (A) (A) (A) (A)
                 (A) (A) (A) (A) (A) (A) (A) (A) (A) (A) (A) (A)
                 (A) (A) (A) (A) (A) (A) (A) (A) (A) (A) (A) (A)
                 (A) (A) (A) (A) (A) (A) (A) (A) (A) (A) (A) (A)
                 (A) (A) (A) (A) (A) (A) (A) (A) (A) (A) (A) (A)
                 (A) (A) (A) (A) (A) (A) (A) (A) (A) (A) (A) (A)
                 (A) (A) (A) (A) (A) (A) (A) (A) (A) (A) (A) (A)
                 (A) (A) (A) (A) (A) (A) (A) (A) (A) (A) (A) (A)
                 (A) (A) (A) (A) (A) (A) (A) (A) (A) (A) (A) (A)
                 (A) (A) (A) (A) (A) (A) (A) (A) (A) (A) (A) (A)
       Virtual   (A) (A) (A) (A) (A) (A) (A) (A) (A) (A) (A) (A)
                 (A) (A) (A) (A) (A) (A) (A) (A) (A) (A) (A) (A)
                 (A) (A) (A) (A) (A) (A) (A) (A) (A) (A) (A) (A)
                 (A) (A) (A) (A) (A) (A) (A) (A) (A) (A) (A) (A)
                 (A) (A) (A) (A) (A) (A) (A) (A) (A) (A) (A) (A)
                 (A) (A) (A) (A) (A) (A) (A) (A) (A) (A) (A) (A)
                 (A) (A) (A) (A) (A) (A) (A) (A) (A) (A) (A) (A)
                 (A) (A) (A) (A) (A) (A) (A) (A) (A) (A) (A) (A)
                 (A) (A) (A) (A) (A) (A) (A) (A) (A) (A) (A) (A)
                 (A) (A) (A) (A) (A) (A) (A) (A) (A) (A) (A) (A)
                 (A) (A) (A) (A) (A) (A) (A) (A) (A) (A) (A) (A)
                 (A) (A) (A) (A) (A) (A) (A) (A) (A) (A) (A) (A)
                 (A) (A) (A) (A) (A) (A) (A) (A) (A) (A) (A) (A)
                 (A) (A) (A) (A) (A) (A) (A) (A) (A) (A) (A) (A)
                 (A) (A) (A) (A) (A) (A) (A) (A) (A) (A) (A) (A)
                 (A) (A) (A) (A) (A) (A) (A) (A) (A) (A) (A) (A)
                 (A) (A) (A) (A) (A) (A) (A) (A) (A) (A) (A) (A)
                 (A) (A) (A) (A) (A) (A) (A) (A) (A) (A) (A) (A)
                 (A) (A) (A) (A) (A) (A) (A) (A) (A) (A) (A) (A)
                 (A) (A) (A) (A) (A) (A) (A) (A) (A) (A) (A) (A)
                 (A) (A) (A) (A) (A) (A) (A) (A) (A) (A) (A) (A)
                 (A) (A) (A) (A) (A) (A) (A) (A) (A) (A) (A) (A)
                 (A) (A) (A) (A) (A) (A) (A) (A) (A) (A) (A) (A)
                 (A) (A) (A) (A) (A) (A) (A) (A) (A) (A) (A) (A)
                 (A) (A) (A) (A) (A) (A) (A) (A) (A) (A) (A) (A)
                 (A) (A) (A) (A) (A) (A) (A) (A) (A) (A) (A) (A)
                 (A) (A) (A) (A) (A) (A) (A) (A) (A) (A) (A) (A)
                 (A) (A) (A) (A) (A) (A) (A) (A) (A) (A) (A) (A)
                 (A) (A) (A) (A) (A) (A) (A) (A) (A) (A) (A) (A)
                 (A) (A) (A) (A) (A) (A) (A) (A) (A) (A) (A) (A)
                 (A) (A) (A) (A) (A) (A) (A) (A) (A) (A) (A) (A)
                 (A) (A) (A) (A) (A) (A) (A) (A) (A) (A) (A) (A)
                 (A) (A) (A) (A) (A) (A) (A) (A) (A) (A) (A) (A)
                 (A) (A) (A) (A) (A) (A) (A) (A) (A) (A) (A) (A)
                 (A) (A) (A) (A) (A) (A) (A) (A) (A) (A) (A) (A)
                 (A) (A) (A) (A) (A) (A) (A) (A) (A) (A) (A) (A)
                 (A) (A) (A) (A) (A) (A) (A) (A) (A) (A) (A) (A)
                 (A) (A) (A) (A) (A) (A) (A) (A) (A) (A) (A) (A)
                 (A) (A) (A) (A) (A) (A) (A) (A) (A) (A) (A) (A)
                 (A) (A) (A) (A) (A) (A) (A) (A) (A) (A) (A) (A)
                 (A) (A) (A) (A) (A) (A) (A) (A) (A) (A) (A) (A)
                 (A) (A) (A) (A) (A) (A) (A) (A) (A) (A) (A) (A)
                 (A) (A) (A) (A) (A) (A) (A) (A) (A) (A) (A) (A)
                 (A) (A) (A) (A) (A) (A) (A) (A) (A) (A) (A) (A)
                 (A) (A) (A) (A) (A) (A) (A) (A) (A) (A) (A) (A)
                 (A) (A) (A) (A) (A) (A) (A) (A) (A) (A) (A) (A)
                 (A) (A) (A) (A) (A) (A) (A) (A) (A) (A) (A) (A)
                 (A) (A) (A) (A) (A) (A) (A) (A) (A) (A) (A) (A)
                 (A) (A) (A) (A) (A) (A) (A) (A) (A) (A) (A) (A)
                 (A) (A) (A) (A) (A) (A) (A) (A) (A) (A) (A) (A)
                 (A) (A) (A) (A) (A) (A) (A) (A) (A) (A) (A) (A)
                 (A) (A) (A) (A) (A) (A) (A) (A) (A) (A) (A) (A)
                 (A) (A) (A) (A) (A) (A) (A) (A) (A) (A) (A) (A)
                 (A) (A) (A) (A) (A) (A) (A) (A) (A) (A) (A) (A)
                 (A) (A) (A) (A) (A) (A) (A) (A) (A) (A) (A) (A)
                 (A) (A) (A) (A) (A) (A) (A) (A) (A) (A) (A) (A)
                 (A) (A) (A) (A) (A) (A) (A) (A) (A) (A) (A) (A)
                 (A) (A) (A) (A) (A) (A) (A) (A) (A) (A) (A) (A)
                 (A) (A) (A) (A) (A) (A) (A) (A) (A) (A) (A) (A)
                 (A) (A) (A) (A) (A) (A) (A) (A) (A) (A) (A) (A)
                 (A) (A) (A) (A) (A) (A) (A) (A) (A) (A) (A) (A)
                 (A) (A) (A) (A) (A) (A) (A) (A) (A) (A) (A) (A)
                 (A) (A) (A) (A) (A) (A) (A) (A) (A) (A)
     4 initial guesses have been made.
 Convergence on wavefunction:    0.001000000000000
 Iteration     1 Dimension     4 NMult     0 NNew      4
 CISAX will form     4 AO SS matrices at one time.
 Iteration     2 Dimension     6 NMult     4 NNew      2
 Iteration     3 Dimension     8 NMult     6 NNew      2
 Iteration     4 Dimension    10 NMult     8 NNew      2
 Iteration     5 Dimension    12 NMult    10 NNew      2
 Iteration     6 Dimension    14 NMult    12 NNew      2
 ***********************************************************************
 Excited states from <AA,BB:AA,BB> singles matrix:
 ***********************************************************************
 
 Ground to excited state transition densities written to RWF  633
 Ground to excited state transition electric dipole moments (Au):
       state          X           Y           Z        Dip. S.      Osc.
         1        -7.1743     -1.0902     -0.3486     52.7805      3.7351
 Ground to excited state transition velocity dipole moments (Au):
       state          X           Y           Z        Dip. S.      Osc.
         1         0.7347      0.1121      0.0377      0.5537      3.4775
 Ground to excited state transition magnetic dipole moments (Au):
       state          X           Y           Z
         1         0.1697     -0.4090     -0.8800
 Ground to excited state transition velocity quadrupole moments (Au):
       state          XX          YY          ZZ          XY          XZ          YZ
         1        -0.3206      0.2324     -0.0138      0.1073     -0.2349     -0.0181
 <0|del|b> * <b|rxdel|0> + <0|del|b> * <b|delr+rdel|0>
 Rotatory Strengths (R) in cgs (10**-40 erg-esu-cm/Gauss)
       state          XX          YY          ZZ    R(velocity)    E-M Angle
         1      -162.1310    246.7679    219.1955    101.2775       86.43
 1/2[<0|r|b>*<b|rxdel|0> + (<0|rxdel|b>*<b|r|0>)*]
 Rotatory Strengths (R) in cgs (10**-40 erg-esu-cm/Gauss)
       state          XX          YY          ZZ     R(length)
         1       860.8391   -315.3371   -216.9124    109.5299
  1/2[<0|del|b>*<b|r|0> + (<0|r|b>*<b|del|0>)*] (Au)
       state          X           Y           Z        Dip. S.   Osc.(frdel)
         1        -5.2706     -0.1222     -0.0132      5.4059      3.6040

 Excitation energies and oscillator strengths:
 
 Excited State   1:      Singlet-A      2.8885 eV  429.24 nm  f=3.7351  <S**2>=0.000
     155 ->158        -0.20777
     156 ->157         0.66671
 This state for optimization and/or second-order correction.
 Total Energy, E(TD-HF/TD-DFT) =  -1706.87522279    
 Copying the excited state density for this state as the 1-particle RhoCI density.
 SavETr:  write IOETrn=   770 NScale= 10 NData=  16 NLR=1 NState=    1 LETran=      28.

 **********************************************************************

            Population analysis using the SCF density.

 **********************************************************************

 Orbital symmetries:
       Occupied  (A) (A) (A) (A) (A) (A) (A) (A) (A) (A) (A) (A)
                 (A) (A) (A) (A) (A) (A) (A) (A) (A) (A) (A) (A)
                 (A) (A) (A) (A) (A) (A) (A) (A) (A) (A) (A) (A)
                 (A) (A) (A) (A) (A) (A) (A) (A) (A) (A) (A) (A)
                 (A) (A) (A) (A) (A) (A) (A) (A) (A) (A) (A) (A)
                 (A) (A) (A) (A) (A) (A) (A) (A) (A) (A) (A) (A)
                 (A) (A) (A) (A) (A) (A) (A) (A) (A) (A) (A) (A)
                 (A) (A) (A) (A) (A) (A) (A) (A) (A) (A) (A) (A)
                 (A) (A) (A) (A) (A) (A) (A) (A) (A) (A) (A) (A)
                 (A) (A) (A) (A) (A) (A) (A) (A) (A) (A) (A) (A)
                 (A) (A) (A) (A) (A) (A) (A) (A) (A) (A) (A) (A)
                 (A) (A) (A) (A) (A) (A) (A) (A) (A) (A) (A) (A)
                 (A) (A) (A) (A) (A) (A) (A) (A) (A) (A) (A) (A)
       Virtual   (A) (A) (A) (A) (A) (A) (A) (A) (A) (A) (A) (A)
                 (A) (A) (A) (A) (A) (A) (A) (A) (A) (A) (A) (A)
                 (A) (A) (A) (A) (A) (A) (A) (A) (A) (A) (A) (A)
                 (A) (A) (A) (A) (A) (A) (A) (A) (A) (A) (A) (A)
                 (A) (A) (A) (A) (A) (A) (A) (A) (A) (A) (A) (A)
                 (A) (A) (A) (A) (A) (A) (A) (A) (A) (A) (A) (A)
                 (A) (A) (A) (A) (A) (A) (A) (A) (A) (A) (A) (A)
                 (A) (A) (A) (A) (A) (A) (A) (A) (A) (A) (A) (A)
                 (A) (A) (A) (A) (A) (A) (A) (A) (A) (A) (A) (A)
                 (A) (A) (A) (A) (A) (A) (A) (A) (A) (A) (A) (A)
                 (A) (A) (A) (A) (A) (A) (A) (A) (A) (A) (A) (A)
                 (A) (A) (A) (A) (A) (A) (A) (A) (A) (A) (A) (A)
                 (A) (A) (A) (A) (A) (A) (A) (A) (A) (A) (A) (A)
                 (A) (A) (A) (A) (A) (A) (A) (A) (A) (A) (A) (A)
                 (A) (A) (A) (A) (A) (A) (A) (A) (A) (A) (A) (A)
                 (A) (A) (A) (A) (A) (A) (A) (A) (A) (A) (A) (A)
                 (A) (A) (A) (A) (A) (A) (A) (A) (A) (A) (A) (A)
                 (A) (A) (A) (A) (A) (A) (A) (A) (A) (A) (A) (A)
                 (A) (A) (A) (A) (A) (A) (A) (A) (A) (A) (A) (A)
                 (A) (A) (A) (A) (A) (A) (A) (A) (A) (A) (A) (A)
                 (A) (A) (A) (A) (A) (A) (A) (A) (A) (A) (A) (A)
                 (A) (A) (A) (A) (A) (A) (A) (A) (A) (A) (A) (A)
                 (A) (A) (A) (A) (A) (A) (A) (A) (A) (A) (A) (A)
                 (A) (A) (A) (A) (A) (A) (A) (A) (A) (A) (A) (A)
                 (A) (A) (A) (A) (A) (A) (A) (A) (A) (A) (A) (A)
                 (A) (A) (A) (A) (A) (A) (A) (A) (A) (A) (A) (A)
                 (A) (A) (A) (A) (A) (A) (A) (A) (A) (A) (A) (A)
                 (A) (A) (A) (A) (A) (A) (A) (A) (A) (A) (A) (A)
                 (A) (A) (A) (A) (A) (A) (A) (A) (A) (A) (A) (A)
                 (A) (A) (A) (A) (A) (A) (A) (A) (A) (A) (A) (A)
                 (A) (A) (A) (A) (A) (A) (A) (A) (A) (A) (A) (A)
                 (A) (A) (A) (A) (A) (A) (A) (A) (A) (A) (A) (A)
                 (A) (A) (A) (A) (A) (A) (A) (A) (A) (A) (A) (A)
                 (A) (A) (A) (A) (A) (A) (A) (A) (A) (A) (A) (A)
                 (A) (A) (A) (A) (A) (A) (A) (A) (A) (A) (A) (A)
                 (A) (A) (A) (A) (A) (A) (A) (A) (A) (A) (A) (A)
                 (A) (A) (A) (A) (A) (A) (A) (A) (A) (A) (A) (A)
                 (A) (A) (A) (A) (A) (A) (A) (A) (A) (A) (A) (A)
                 (A) (A) (A) (A) (A) (A) (A) (A) (A) (A) (A) (A)
                 (A) (A) (A) (A) (A) (A) (A) (A) (A) (A) (A) (A)
                 (A) (A) (A) (A) (A) (A) (A) (A) (A) (A) (A) (A)
                 (A) (A) (A) (A) (A) (A) (A) (A) (A) (A) (A) (A)
                 (A) (A) (A) (A) (A) (A) (A) (A) (A) (A) (A) (A)
                 (A) (A) (A) (A) (A) (A) (A) (A) (A) (A) (A) (A)
                 (A) (A) (A) (A) (A) (A) (A) (A) (A) (A) (A) (A)
                 (A) (A) (A) (A) (A) (A) (A) (A) (A) (A) (A) (A)
                 (A) (A) (A) (A) (A) (A) (A) (A) (A) (A) (A) (A)
                 (A) (A) (A) (A) (A) (A) (A) (A) (A) (A) (A) (A)
                 (A) (A) (A) (A) (A) (A) (A) (A) (A) (A) (A) (A)
                 (A) (A) (A) (A) (A) (A) (A) (A) (A) (A) (A) (A)
                 (A) (A) (A) (A) (A) (A) (A) (A) (A) (A) (A) (A)
                 (A) (A) (A) (A) (A) (A) (A) (A) (A) (A) (A) (A)
                 (A) (A) (A) (A) (A) (A) (A) (A) (A) (A) (A) (A)
                 (A) (A) (A) (A) (A) (A) (A) (A) (A) (A) (A) (A)
                 (A) (A) (A) (A) (A) (A) (A) (A) (A) (A) (A) (A)
                 (A) (A) (A) (A) (A) (A) (A) (A) (A) (A) (A) (A)
                 (A) (A) (A) (A) (A) (A) (A) (A) (A) (A) (A) (A)
                 (A) (A) (A) (A) (A) (A) (A) (A) (A) (A) (A) (A)
                 (A) (A) (A) (A) (A) (A) (A) (A) (A) (A) (A) (A)
                 (A) (A) (A) (A) (A) (A) (A) (A) (A) (A) (A) (A)
                 (A) (A) (A) (A) (A) (A) (A) (A) (A) (A) (A) (A)
                 (A) (A) (A) (A) (A) (A) (A) (A) (A) (A) (A) (A)
                 (A) (A) (A) (A) (A) (A) (A) (A) (A) (A)
 The electronic state is 1-A.
 Alpha  occ. eigenvalues --  -19.21655 -19.21603 -10.31083 -10.29123 -10.27920
 Alpha  occ. eigenvalues --  -10.27862 -10.27594 -10.27179 -10.27063 -10.26896
 Alpha  occ. eigenvalues --  -10.26734 -10.26641 -10.26579 -10.26294 -10.26216
 Alpha  occ. eigenvalues --  -10.26179 -10.26147 -10.26145 -10.26133 -10.26071
 Alpha  occ. eigenvalues --  -10.26023 -10.25990 -10.25925 -10.25795 -10.25769
 Alpha  occ. eigenvalues --  -10.25670 -10.25143 -10.25117 -10.25112 -10.25008
 Alpha  occ. eigenvalues --  -10.24927 -10.24858 -10.24534 -10.24476 -10.24446
 Alpha  occ. eigenvalues --  -10.24250 -10.24203 -10.23900 -10.23109 -10.22859
 Alpha  occ. eigenvalues --  -10.22498 -10.22390  -1.12960  -1.06340  -0.92972
 Alpha  occ. eigenvalues --   -0.92464  -0.92238  -0.91811  -0.90582  -0.90171
 Alpha  occ. eigenvalues --   -0.87298  -0.86904  -0.86622  -0.85035  -0.84407
 Alpha  occ. eigenvalues --   -0.82887  -0.81848  -0.80290  -0.80061  -0.78703
 Alpha  occ. eigenvalues --   -0.77156  -0.77087  -0.76698  -0.76144  -0.76027
 Alpha  occ. eigenvalues --   -0.75496  -0.75316  -0.74739  -0.73806  -0.70679
 Alpha  occ. eigenvalues --   -0.68579  -0.67419  -0.65963  -0.64984  -0.64222
 Alpha  occ. eigenvalues --   -0.64027  -0.62572  -0.61947  -0.61005  -0.60734
 Alpha  occ. eigenvalues --   -0.59696  -0.58923  -0.58519  -0.57213  -0.56388
 Alpha  occ. eigenvalues --   -0.56078  -0.55730  -0.54972  -0.54161  -0.53153
 Alpha  occ. eigenvalues --   -0.53000  -0.52695  -0.52427  -0.51705  -0.51224
 Alpha  occ. eigenvalues --   -0.51031  -0.50455  -0.50310  -0.49128  -0.49086
 Alpha  occ. eigenvalues --   -0.48914  -0.48607  -0.48404  -0.48195  -0.48031
 Alpha  occ. eigenvalues --   -0.47589  -0.47100  -0.46992  -0.46509  -0.46310
 Alpha  occ. eigenvalues --   -0.46170  -0.45567  -0.45377  -0.45066  -0.44667
 Alpha  occ. eigenvalues --   -0.44454  -0.43952  -0.43445  -0.43082  -0.42906
 Alpha  occ. eigenvalues --   -0.42740  -0.42544  -0.42272  -0.42129  -0.41693
 Alpha  occ. eigenvalues --   -0.41480  -0.41247  -0.41141  -0.40938  -0.40587
 Alpha  occ. eigenvalues --   -0.40543  -0.40174  -0.39765  -0.39543  -0.39359
 Alpha  occ. eigenvalues --   -0.39352  -0.38939  -0.38896  -0.38551  -0.37881
 Alpha  occ. eigenvalues --   -0.37708  -0.36844  -0.36420  -0.36156  -0.36025
 Alpha  occ. eigenvalues --   -0.35231  -0.33819  -0.33007  -0.32204  -0.31214
 Alpha  occ. eigenvalues --   -0.30934  -0.30010  -0.28158  -0.26275  -0.23456
 Alpha  occ. eigenvalues --   -0.20978
 Alpha virt. eigenvalues --   -0.03638  -0.00278   0.03041   0.06374   0.08139
 Alpha virt. eigenvalues --    0.08695   0.10428   0.12120   0.12172   0.12755
 Alpha virt. eigenvalues --    0.13100   0.13714   0.13808   0.14362   0.14593
 Alpha virt. eigenvalues --    0.15231   0.15368   0.15511   0.15695   0.16012
 Alpha virt. eigenvalues --    0.16145   0.16311   0.16618   0.17013   0.17209
 Alpha virt. eigenvalues --    0.17506   0.17781   0.18194   0.18381   0.18628
 Alpha virt. eigenvalues --    0.19047   0.19328   0.19516   0.19858   0.19949
 Alpha virt. eigenvalues --    0.20526   0.20792   0.21028   0.21150   0.21337
 Alpha virt. eigenvalues --    0.21524   0.21898   0.22025   0.22572   0.22996
 Alpha virt. eigenvalues --    0.23127   0.23285   0.23447   0.24081   0.24250
 Alpha virt. eigenvalues --    0.24431   0.24938   0.25154   0.25172   0.25444
 Alpha virt. eigenvalues --    0.25528   0.25746   0.25961   0.26179   0.26242
 Alpha virt. eigenvalues --    0.26596   0.26765   0.26988   0.27226   0.27668
 Alpha virt. eigenvalues --    0.28032   0.28384   0.28838   0.29441   0.29515
 Alpha virt. eigenvalues --    0.29564   0.30075   0.30437   0.30711   0.30986
 Alpha virt. eigenvalues --    0.31090   0.31788   0.32072   0.32383   0.32867
 Alpha virt. eigenvalues --    0.32894   0.33500   0.34089   0.34265   0.35155
 Alpha virt. eigenvalues --    0.35543   0.35993   0.36527   0.37036   0.38051
 Alpha virt. eigenvalues --    0.39393   0.39730   0.40722   0.41641   0.42773
 Alpha virt. eigenvalues --    0.44466   0.44604   0.44941   0.45495   0.46208
 Alpha virt. eigenvalues --    0.46888   0.48068   0.49252   0.49969   0.50404
 Alpha virt. eigenvalues --    0.50879   0.51346   0.52223   0.53456   0.54469
 Alpha virt. eigenvalues --    0.54910   0.55445   0.56399   0.56847   0.57101
 Alpha virt. eigenvalues --    0.57302   0.57635   0.58042   0.58381   0.58690
 Alpha virt. eigenvalues --    0.58858   0.59383   0.59622   0.60166   0.60630
 Alpha virt. eigenvalues --    0.61332   0.61471   0.61750   0.61783   0.61996
 Alpha virt. eigenvalues --    0.62442   0.62913   0.62993   0.63664   0.63944
 Alpha virt. eigenvalues --    0.64416   0.64647   0.65081   0.65466   0.65587
 Alpha virt. eigenvalues --    0.65801   0.66189   0.66594   0.66838   0.67039
 Alpha virt. eigenvalues --    0.67115   0.67238   0.67962   0.68144   0.68682
 Alpha virt. eigenvalues --    0.68868   0.69224   0.69728   0.69989   0.70453
 Alpha virt. eigenvalues --    0.70722   0.71475   0.71840   0.72044   0.72490
 Alpha virt. eigenvalues --    0.72708   0.73393   0.73987   0.74349   0.74613
 Alpha virt. eigenvalues --    0.74732   0.74778   0.75576   0.75783   0.76211
 Alpha virt. eigenvalues --    0.76612   0.76917   0.77293   0.77946   0.78013
 Alpha virt. eigenvalues --    0.78124   0.78835   0.78923   0.79630   0.79808
 Alpha virt. eigenvalues --    0.79914   0.80667   0.80776   0.81449   0.81472
 Alpha virt. eigenvalues --    0.81732   0.82364   0.82686   0.83217   0.83344
 Alpha virt. eigenvalues --    0.83471   0.83808   0.84767   0.84952   0.85210
 Alpha virt. eigenvalues --    0.85315   0.85562   0.86007   0.86334   0.86564
 Alpha virt. eigenvalues --    0.87198   0.87415   0.87701   0.87817   0.88252
 Alpha virt. eigenvalues --    0.88798   0.88971   0.89057   0.89109   0.89749
 Alpha virt. eigenvalues --    0.89899   0.90384   0.90698   0.90806   0.91065
 Alpha virt. eigenvalues --    0.91459   0.91612   0.92295   0.92612   0.92652
 Alpha virt. eigenvalues --    0.93124   0.93176   0.93616   0.94303   0.94429
 Alpha virt. eigenvalues --    0.94518   0.94615   0.94755   0.95576   0.95737
 Alpha virt. eigenvalues --    0.96085   0.96839   0.96908   0.97119   0.97170
 Alpha virt. eigenvalues --    0.97374   0.98287   0.98318   0.98468   0.98854
 Alpha virt. eigenvalues --    0.99085   0.99660   1.00292   1.00621   1.01057
 Alpha virt. eigenvalues --    1.01318   1.01864   1.02033   1.02222   1.02576
 Alpha virt. eigenvalues --    1.02642   1.03110   1.03308   1.04058   1.04592
 Alpha virt. eigenvalues --    1.04731   1.04941   1.05166   1.05424   1.05510
 Alpha virt. eigenvalues --    1.06350   1.06636   1.06891   1.07847   1.08098
 Alpha virt. eigenvalues --    1.08242   1.08398   1.09023   1.09871   1.10089
 Alpha virt. eigenvalues --    1.11028   1.11579   1.11835   1.12229   1.12854
 Alpha virt. eigenvalues --    1.13269   1.13780   1.14294   1.14545   1.15607
 Alpha virt. eigenvalues --    1.15865   1.16292   1.17161   1.17518   1.17732
 Alpha virt. eigenvalues --    1.18524   1.18699   1.19037   1.19766   1.21965
 Alpha virt. eigenvalues --    1.22322   1.23094   1.23707   1.24074   1.24662
 Alpha virt. eigenvalues --    1.24999   1.26322   1.27975   1.29172   1.29654
 Alpha virt. eigenvalues --    1.30036   1.30940   1.31780   1.32921   1.33132
 Alpha virt. eigenvalues --    1.33921   1.35349   1.35972   1.36122   1.36666
 Alpha virt. eigenvalues --    1.37467   1.37924   1.38249   1.39089   1.39440
 Alpha virt. eigenvalues --    1.40620   1.40977   1.41417   1.42731   1.42978
 Alpha virt. eigenvalues --    1.43458   1.44478   1.44643   1.45243   1.45809
 Alpha virt. eigenvalues --    1.46113   1.47213   1.48882   1.49766   1.50165
 Alpha virt. eigenvalues --    1.50894   1.51156   1.52192   1.52755   1.54165
 Alpha virt. eigenvalues --    1.54278   1.54840   1.56213   1.56319   1.57097
 Alpha virt. eigenvalues --    1.57763   1.58319   1.59763   1.59986   1.60730
 Alpha virt. eigenvalues --    1.60973   1.61877   1.62640   1.63476   1.63692
 Alpha virt. eigenvalues --    1.63857   1.64277   1.64444   1.65660   1.66129
 Alpha virt. eigenvalues --    1.66546   1.67513   1.68705   1.68791   1.68805
 Alpha virt. eigenvalues --    1.70128   1.70209   1.70393   1.73157   1.74035
 Alpha virt. eigenvalues --    1.74620   1.76860   1.77578   1.78823   1.79471
 Alpha virt. eigenvalues --    1.79659   1.80649   1.80887   1.81194   1.81618
 Alpha virt. eigenvalues --    1.81641   1.81914   1.83120   1.83989   1.84148
 Alpha virt. eigenvalues --    1.84982   1.85308   1.85643   1.85664   1.86397
 Alpha virt. eigenvalues --    1.86957   1.87044   1.88134   1.88470   1.88583
 Alpha virt. eigenvalues --    1.88850   1.89600   1.90452   1.90570   1.90711
 Alpha virt. eigenvalues --    1.90956   1.91573   1.91655   1.91764   1.92737
 Alpha virt. eigenvalues --    1.93128   1.93448   1.93844   1.93976   1.94514
 Alpha virt. eigenvalues --    1.95445   1.95890   1.96553   1.96738   1.97114
 Alpha virt. eigenvalues --    1.97430   1.97786   1.98229   1.98514   1.98877
 Alpha virt. eigenvalues --    1.99350   1.99482   2.00482   2.00746   2.01597
 Alpha virt. eigenvalues --    2.02957   2.03232   2.04000   2.04148   2.04335
 Alpha virt. eigenvalues --    2.04473   2.05019   2.05407   2.05720   2.06143
 Alpha virt. eigenvalues --    2.06305   2.06934   2.07567   2.09069   2.09435
 Alpha virt. eigenvalues --    2.09624   2.10544   2.10775   2.11020   2.11316
 Alpha virt. eigenvalues --    2.11961   2.12193   2.12274   2.13051   2.13510
 Alpha virt. eigenvalues --    2.14124   2.14334   2.14586   2.14827   2.15323
 Alpha virt. eigenvalues --    2.15450   2.15840   2.16421   2.16856   2.17115
 Alpha virt. eigenvalues --    2.18039   2.18247   2.18440   2.18531   2.19382
 Alpha virt. eigenvalues --    2.19601   2.19690   2.20955   2.21318   2.21823
 Alpha virt. eigenvalues --    2.22563   2.22611   2.23355   2.23738   2.24542
 Alpha virt. eigenvalues --    2.24648   2.24953   2.25269   2.26148   2.26415
 Alpha virt. eigenvalues --    2.26954   2.27247   2.27399   2.27527   2.28119
 Alpha virt. eigenvalues --    2.28290   2.28744   2.29529   2.29907   2.30071
 Alpha virt. eigenvalues --    2.30465   2.31589   2.32501   2.32853   2.33158
 Alpha virt. eigenvalues --    2.33536   2.34472   2.34628   2.34899   2.35357
 Alpha virt. eigenvalues --    2.35715   2.36179   2.36622   2.36782   2.37311
 Alpha virt. eigenvalues --    2.38444   2.38985   2.39530   2.40004   2.40218
 Alpha virt. eigenvalues --    2.40702   2.41357   2.41890   2.42314   2.42615
 Alpha virt. eigenvalues --    2.43052   2.43545   2.43787   2.43883   2.44299
 Alpha virt. eigenvalues --    2.45314   2.45576   2.46021   2.46087   2.46428
 Alpha virt. eigenvalues --    2.47386   2.47671   2.48382   2.49084   2.49812
 Alpha virt. eigenvalues --    2.50314   2.50767   2.51116   2.51699   2.52131
 Alpha virt. eigenvalues --    2.52403   2.52726   2.53689   2.54558   2.54794
 Alpha virt. eigenvalues --    2.54896   2.55019   2.56276   2.56937   2.57113
 Alpha virt. eigenvalues --    2.57688   2.57848   2.58916   2.59046   2.59855
 Alpha virt. eigenvalues --    2.60321   2.60594   2.61394   2.61997   2.62154
 Alpha virt. eigenvalues --    2.62608   2.62792   2.63804   2.64147   2.64370
 Alpha virt. eigenvalues --    2.64967   2.65160   2.65833   2.66016   2.66455
 Alpha virt. eigenvalues --    2.66921   2.67948   2.68119   2.68588   2.70048
 Alpha virt. eigenvalues --    2.70954   2.71081   2.71442   2.71672   2.71891
 Alpha virt. eigenvalues --    2.72506   2.72840   2.73136   2.73459   2.74120
 Alpha virt. eigenvalues --    2.74677   2.75129   2.75750   2.76102   2.76204
 Alpha virt. eigenvalues --    2.76580   2.76869   2.77719   2.78249   2.78765
 Alpha virt. eigenvalues --    2.79312   2.79548   2.79785   2.80120   2.80717
 Alpha virt. eigenvalues --    2.81139   2.82152   2.82342   2.82486   2.83387
 Alpha virt. eigenvalues --    2.83627   2.84809   2.85940   2.86032   2.86556
 Alpha virt. eigenvalues --    2.87294   2.88489   2.88587   2.89008   2.90053
 Alpha virt. eigenvalues --    2.90141   2.90479   2.90542   2.91154   2.92185
 Alpha virt. eigenvalues --    2.92812   2.92949   2.93117   2.94219   2.95123
 Alpha virt. eigenvalues --    2.95332   2.95753   2.96131   2.96442   2.96607
 Alpha virt. eigenvalues --    2.96821   2.98061   2.98207   2.98697   2.99107
 Alpha virt. eigenvalues --    3.00057   3.00573   3.00775   3.02127   3.02886
 Alpha virt. eigenvalues --    3.03062   3.03684   3.05082   3.05179   3.05446
 Alpha virt. eigenvalues --    3.05970   3.06201   3.07666   3.08665   3.09560
 Alpha virt. eigenvalues --    3.10345   3.11510   3.12101   3.12590   3.13127
 Alpha virt. eigenvalues --    3.13712   3.14932   3.15456   3.16732   3.18011
 Alpha virt. eigenvalues --    3.20005   3.20503   3.20578   3.21714   3.22271
 Alpha virt. eigenvalues --    3.22696   3.23398   3.25508   3.26052   3.26396
 Alpha virt. eigenvalues --    3.28187   3.28878   3.29374   3.29736   3.30398
 Alpha virt. eigenvalues --    3.31238   3.34466   3.35632   3.38247   3.38685
 Alpha virt. eigenvalues --    3.39682   3.42233   3.45045   3.45245   3.45938
 Alpha virt. eigenvalues --    3.47479   3.48180   3.48256   3.49355   3.49791
 Alpha virt. eigenvalues --    3.50533   3.53271   3.54012   3.54870   3.55587
 Alpha virt. eigenvalues --    3.55941   3.56984   3.57267   3.58133   3.59571
 Alpha virt. eigenvalues --    3.59887   3.60536   3.61501   3.61729   3.62260
 Alpha virt. eigenvalues --    3.63340   3.63809   3.66571   3.66788   3.67938
 Alpha virt. eigenvalues --    3.70856   3.71588   3.71880   3.75559   3.76476
 Alpha virt. eigenvalues --    3.76781   3.77449   3.77873   3.79190   3.85783
 Alpha virt. eigenvalues --    3.89372   3.91909   4.06051   4.17343   4.19563
 Alpha virt. eigenvalues --    4.20595   4.21137   4.22316   4.23462   4.25904
 Alpha virt. eigenvalues --    4.27534   4.28354   4.30556   4.31945   4.35445
 Alpha virt. eigenvalues --    4.36994   4.39210   4.41544   4.44523   4.44960
 Alpha virt. eigenvalues --    4.47339   4.48403   4.49419   4.54726   4.56066
 Alpha virt. eigenvalues --    4.56464   4.56711   4.57869   4.58554   4.61482
 Alpha virt. eigenvalues --    4.63896   4.65316   4.67289   4.68587   4.70346
 Alpha virt. eigenvalues --    4.72745   4.76585   4.79544   4.80729   4.81278
 Alpha virt. eigenvalues --    4.84441   4.89117   4.89764   4.91542
          Condensed to atoms (all electrons):
 Mulliken charges:
               1
     1  O   -0.578385
     2  O   -0.518986
     3  C   -0.005829
     4  C    0.005519
     5  C   -0.166090
     6  C   -0.197121
     7  C    0.137514
     8  C    0.169915
     9  C    0.062838
    10  C    0.057454
    11  C   -0.187257
    12  C   -0.242501
    13  C    0.027659
    14  C    0.027568
    15  C   -0.309971
    16  C   -0.311369
    17  C   -0.303940
    18  C   -0.321966
    19  C   -0.096382
    20  C   -0.140409
    21  C   -0.361207
    22  C   -0.344374
    23  C   -0.117120
    24  C   -0.070685
    25  C    0.130417
    26  C    0.112192
    27  C   -0.389684
    28  C   -0.384195
    29  C   -0.148882
    30  C   -0.127797
    31  C   -0.115772
    32  C   -0.081362
    33  C   -0.090204
    34  C   -0.091534
    35  C    0.171365
    36  C    0.120841
    37  C   -0.403108
    38  C   -0.361598
    39  C   -0.149568
    40  C   -0.130171
    41  C   -0.104991
    42  C   -0.050059
    43  H    0.099653
    44  H    0.079435
    45  H    0.069507
    46  H    0.105763
    47  H    0.078357
    48  H    0.051853
    49  H    0.109778
    50  H    0.119270
    51  H    0.106056
    52  H    0.110743
    53  H    0.103661
    54  H    0.080872
    55  H    0.117436
    56  H    0.105436
    57  H    0.108563
    58  H    0.086989
    59  H    0.103334
    60  H    0.108410
    61  H    0.082134
    62  H    0.103622
    63  H    0.082048
    64  H    0.122774
    65  H    0.079350
    66  H    0.079280
    67  H    0.108631
    68  H    0.108934
    69  H    0.108815
    70  H    0.105876
    71  H    0.124535
    72  H    0.121691
    73  H    0.296038
    74  H    0.302653
    75  H    0.077879
    76  H    0.082558
    77  H    0.106807
    78  H    0.139237
    79  H    0.112243
    80  H    0.137083
    81  H    0.127397
    82  H    0.101425
    83  H    0.073111
    84  H    0.068112
    85  H    0.086745
    86  H    0.067341
    87  H    0.087508
    88  H    0.066453
    89  H    0.110669
    90  H    0.124706
    91  H    0.128891
    92  H    0.103605
    93  H    0.087064
    94  H    0.120606
    95  H    0.080068
    96  H    0.074214
    97  H    0.077544
    98  H    0.066472
 Sum of Mulliken charges =  -0.00000
 Mulliken charges with hydrogens summed into heavy atoms:
               1
     1  O   -0.282348
     2  O   -0.216333
     3  C   -0.005829
     4  C    0.005519
     5  C    0.012998
     6  C   -0.021851
     7  C    0.215871
     8  C    0.221768
     9  C    0.062838
    10  C    0.057454
    11  C    0.041791
    12  C   -0.025702
    13  C    0.027659
    14  C    0.027568
    15  C   -0.008003
    16  C   -0.010381
    17  C   -0.010062
    18  C   -0.013523
    19  C   -0.017032
    20  C   -0.061128
    21  C   -0.034827
    22  C    0.007728
    23  C   -0.039241
    24  C    0.011873
    25  C    0.130417
    26  C    0.112192
    27  C   -0.031398
    28  C   -0.018289
    29  C   -0.075770
    30  C   -0.059685
    31  C   -0.029027
    32  C   -0.014021
    33  C   -0.002696
    34  C   -0.025081
    35  C    0.171365
    36  C    0.120841
    37  C   -0.038842
    38  C   -0.050324
    39  C   -0.069500
    40  C   -0.055957
    41  C   -0.027448
    42  C    0.016413
 Electronic spatial extent (au):  <R**2>=         111559.4924
 Charge=             -0.0000 electrons
 Dipole moment (field-independent basis, Debye):
    X=             -1.0993    Y=             -1.9890    Z=              0.8652  Tot=              2.4317
 Quadrupole moment (field-independent basis, Debye-Ang):
   XX=           -259.9541   YY=           -235.9204   ZZ=           -258.9732
   XY=             -0.7874   XZ=            -12.1190   YZ=              3.8417
 Traceless Quadrupole moment (field-independent basis, Debye-Ang):
   XX=             -8.3382   YY=             15.6955   ZZ=             -7.3573
   XY=             -0.7874   XZ=            -12.1190   YZ=              3.8417
 Octapole moment (field-independent basis, Debye-Ang**2):
  XXX=           -563.2796  YYY=             -8.6306  ZZZ=             12.2298  XYY=            180.2393
  XXY=           -494.6544  XXZ=            194.6192  XZZ=            -33.4271  YZZ=             -9.8598
  YYZ=              4.5455  XYZ=             -5.6075
 Hexadecapole moment (field-independent basis, Debye-Ang**3):
 XXXX=        -147327.6952 YYYY=          -4677.7138 ZZZZ=          -1553.2487 XXXY=           -865.3242
 XXXZ=          -3169.8906 YYYX=           -476.7959 YYYZ=             29.4733 ZZZX=           -136.4180
 ZZZY=             27.5337 XXYY=         -23197.1252 XXZZ=         -23792.3508 YYZZ=          -1084.8555
 XXYZ=             16.3727 YYXZ=             75.4693 ZZXY=           -202.1742
 N-N= 3.968318432198D+03 E-N=-1.189358944748D+04  KE= 1.691827364133D+03
 1\1\GINC-RYZEN-SSD1\SP\RCAM-B3LYP TD-FC\6-31G(d,p)\C40H56O2\PADAWAN\19
 -Jul-2019\0\\# td=(NStates=1) CAM-B3LYP/6-31G(d,p)\\TD\\0,1\O,0,14.851
 5806831,-2.0697299061,-0.1050474277\O,0,-14.7966347275,1.8570110062,1.
 0465141824\C,0,11.172059552,-1.5735199041,1.0284490059\C,0,-12.4293080
 948,-1.0698386018,0.6317768217\C,0,12.7919427603,-1.8455938555,1.12480
 73727\C,0,-13.7095276718,-0.3084088608,0.5972225343\C,0,13.4313411731,
 -1.8969420163,-0.2383573807\C,0,-13.5987791709,1.2390425654,1.02793404
 44\C,0,10.9514644734,-0.2982774547,0.0012768347\C,0,-11.3434707111,-0.
 2575467616,-0.1116188379\C,0,13.2657970707,-0.5863671218,-0.9882815822
 \C,0,-12.6938518232,1.8847114782,-0.0655159046\C,0,11.9884447135,-0.00
 90505222,-0.8220148445\C,0,-11.5018607811,1.019118541,-0.4589478908\C,
 0,10.7278338244,-1.1897644174,2.4004234263\C,0,10.3316237824,-2.720259
 794,0.4739307831\C,0,-11.9547672827,-1.4454142333,2.0320793389\C,0,-12
 .7466311581,-2.4342846504,-0.1723859766\C,0,9.652550496,0.3485838114,0
 .1465486149\C,0,-10.0323088029,-0.9636691088,-0.389260211\C,0,11.86940
 28203,1.2375089248,-1.779789969\C,0,-10.6255108391,1.8209315703,-1.459
 2928193\C,0,9.3200759126,1.6159778408,0.0509117312\C,0,-8.8239737944,-
 0.4975016991,-0.2682819302\C,0,8.0509141964,2.2811640994,0.2648172567\
 C,0,-7.5898370177,-1.2434026682,-0.6003061996\C,0,8.0531771017,3.75041
 38964,0.4694711311\C,0,-7.6855068477,-2.6205216291,-0.9854972347\C,0,6
 .9263626073,1.5566246035,0.1695044654\C,0,-6.4109337904,-0.5719254544,
 -0.3954584708\C,0,5.5205727713,2.0511793559,0.2544224112\C,0,-5.079886
 5347,-0.9773148044,-0.5161484928\C,0,4.4651453005,1.2851047045,-0.1343
 555206\C,0,-3.9462359206,-0.2860608301,-0.3780806231\C,0,3.0917766687,
 1.7958039714,0.0186059766\C,0,-2.6142368797,-0.699500029,-0.616980053\
 C,0,2.8191834853,3.2129589879,0.2143690949\C,0,-2.3393727053,-2.142637
 7558,-0.9418154075\C,0,2.211470236,0.8405061146,-0.2810587859\C,0,-1.6
 002219822,0.1660944984,-0.4055445055\C,0,0.7591027393,0.8776705811,-0.
 1203407061\C,0,-0.1290527753,-0.0501126113,-0.5522761976\H,0,13.333501
 9302,-1.1425376639,1.6518208711\H,0,13.0361571147,-2.5312463387,1.7723
 949235\H,0,-14.1435873317,-0.7768651284,1.5274536664\H,0,-14.192132708
 3,-0.3761754894,-0.4052123772\H,0,13.091990206,-2.7903183389,-0.721602
 7183\H,0,-12.993489781,1.3126052426,2.0431020442\H,0,14.157870374,0.07
 54501229,-0.4651116922\H,0,13.5934248995,-0.8691022673,-1.8406367947\H
 ,0,-13.347239933,2.1272777879,-0.9785005931\H,0,-12.4906950425,2.88803
 38235,0.285609597\H,0,10.8259452835,-1.8789163206,3.153100006\H,0,9.59
 52978568,-1.2365734563,2.5401507701\H,0,11.1366774097,-0.297238591,2.7
 588692729\H,0,10.53446971,-3.0328180558,-0.5425309361\H,0,10.363965399
 4,-3.5602546685,1.0117306131\H,0,9.1852758446,-2.5376050685,0.52664938
 59\H,0,-11.7573874247,-0.6025627502,2.7909593929\H,0,-11.0587687159,-2
 .1290754514,2.0962534093\H,0,-12.8358844814,-2.1016475847,2.4227328533
 \H,0,-13.7432347725,-2.8281415101,0.0942975608\H,0,-12.1110963446,-3.3
 711237013,0.3078336814\H,0,-12.8379216512,-2.2676259545,-1.2143441764\
 H,0,8.7582977328,-0.4003744484,0.4948366047\H,0,-10.2256573307,-2.0500
 320671,-0.4787116732\H,0,10.7751588079,1.4742820982,-1.876589718\H,0,1
 2.4477806071,2.103241267,-1.4040160096\H,0,12.1658882588,1.005091364,-
 2.6967423632\H,0,-11.2616605671,2.5464902131,-1.8688076018\H,0,-10.078
 8238604,1.3099250116,-2.1148374507\H,0,-10.0680409881,2.4497076249,-0.
 8808412401\H,0,15.112330361,-3.1749028174,-0.0177034903\H,0,-15.350029
 696,1.4460719073,1.6562867247\H,0,10.2817840974,2.3883057386,-0.066429
 818\H,0,-8.6834330793,0.448799481,0.1386932433\H,0,9.0083285199,4.3122
 546075,0.2724230833\H,0,7.5027066577,4.15349021,-0.2743337794\H,0,7.62
 48017402,4.2369547635,1.4247993179\H,0,-7.9630891029,-3.1323378917,-0.
 1351488039\H,0,-8.2076151325,-2.8253025332,-1.885550444\H,0,-6.7078665
 587,-3.0831628562,-1.3204974837\H,0,7.138409696,0.4314263576,-0.371004
 9755\H,0,-6.4491218882,0.4077482699,0.0359884738\H,0,5.2723949445,3.05
 27109431,0.7003165407\H,0,-4.9267631473,-2.019909669,-0.7125174017\H,0
 ,4.5446876618,0.2865734033,-0.4477168397\H,0,-4.1210535094,0.710510423
 ,-0.1713458536\H,0,3.2565312811,3.7527271627,1.1270159426\H,0,1.855333
 7944,3.5983808201,0.2197565777\H,0,3.4261679968,3.8036569907,-0.527355
 7936\H,0,-2.3328143964,-2.9406663586,0.0224045755\H,0,-3.0475634693,-2
 .5516022222,-1.8859773397\H,0,-1.3881491999,-2.3349210421,-1.372925835
 6\H,0,2.6279541584,-0.164379719,-0.5198581978\H,0,-1.6207066937,1.1383
 220762,0.0245085439\H,0,0.3669369927,1.7792933563,0.2138433943\H,0,0.0
 586376488,-0.9123914031,-1.0436460386\\Version=ES64L-G16RevA.03\State=
 1-A\HF=-1706.9813723\RMSD=2.830e-09\PG=C01 [X(C40H56O2)]\\@


 A MAN IS NEVER SO BRILLIANT AS WHEN HE TAKES THE WORDS RIGHT OUT
 OF YOUR MOUTH. -- ARNOT SHEPPARD, JR.
 Job cpu time:       0 days  7 hours 58 minutes 49.5 seconds.
 Elapsed time:       0 days  2 hours  0 minutes 27.3 seconds.
 File lengths (MBytes):  RWF=   3127 Int=      0 D2E=      0 Chk=     84 Scr=      1
 Normal termination of Gaussian 16 at Fri Jul 19 18:56:31 2019.
