 Entering Gaussian System, Link 0=g16
 Input=Geometria-140-.com
 Output=Geometria-140-.log
 Initial command:
 /usr/local/g16/l1.exe "/home/padawan/israel-mol/phycocyanobilin/spectra/abs/Gau-47415.inp" -scrdir="/home/padawan/israel-mol/phycocyanobilin/spectra/abs/"
 Entering Link 1 = /usr/local/g16/l1.exe PID=     47417.
  
 Copyright (c) 1988,1990,1992,1993,1995,1998,2003,2009,2016,
            Gaussian, Inc.  All Rights Reserved.
  
 This is part of the Gaussian(R) 16 program.  It is based on
 the Gaussian(R) 09 system (copyright 2009, Gaussian, Inc.),
 the Gaussian(R) 03 system (copyright 2003, Gaussian, Inc.),
 the Gaussian(R) 98 system (copyright 1998, Gaussian, Inc.),
 the Gaussian(R) 94 system (copyright 1995, Gaussian, Inc.),
 the Gaussian 92(TM) system (copyright 1992, Gaussian, Inc.),
 the Gaussian 90(TM) system (copyright 1990, Gaussian, Inc.),
 the Gaussian 88(TM) system (copyright 1988, Gaussian, Inc.),
 the Gaussian 86(TM) system (copyright 1986, Carnegie Mellon
 University), and the Gaussian 82(TM) system (copyright 1983,
 Carnegie Mellon University). Gaussian is a federally registered
 trademark of Gaussian, Inc.
  
 This software contains proprietary and confidential information,
 including trade secrets, belonging to Gaussian, Inc.
  
 This software is provided under written license and may be
 used, copied, transmitted, or stored only in accord with that
 written license.
  
 The following legend is applicable only to US Government
 contracts under FAR:
  
                    RESTRICTED RIGHTS LEGEND
  
 Use, reproduction and disclosure by the US Government is
 subject to restrictions as set forth in subparagraphs (a)
 and (c) of the Commercial Computer Software - Restricted
 Rights clause in FAR 52.227-19.
  
 Gaussian, Inc.
 340 Quinnipiac St., Bldg. 40, Wallingford CT 06492
  
  
 ---------------------------------------------------------------
 Warning -- This program may not be used in any manner that
 competes with the business of Gaussian, Inc. or will provide
 assistance to any competitor of Gaussian, Inc.  The licensee
 of this program is prohibited from giving any competitor of
 Gaussian, Inc. access to this program.  By using this program,
 the user acknowledges that Gaussian, Inc. is engaged in the
 business of creating and licensing software in the field of
 computational chemistry and represents and warrants to the
 licensee that it is not a competitor of Gaussian, Inc. and that
 it will not use this program in any manner prohibited above.
 ---------------------------------------------------------------
  

 Cite this work as:
 Gaussian 16, Revision A.03,
 M. J. Frisch, G. W. Trucks, H. B. Schlegel, G. E. Scuseria, 
 M. A. Robb, J. R. Cheeseman, G. Scalmani, V. Barone, 
 G. A. Petersson, H. Nakatsuji, X. Li, M. Caricato, A. V. Marenich, 
 J. Bloino, B. G. Janesko, R. Gomperts, B. Mennucci, H. P. Hratchian, 
 J. V. Ortiz, A. F. Izmaylov, J. L. Sonnenberg, D. Williams-Young, 
 F. Ding, F. Lipparini, F. Egidi, J. Goings, B. Peng, A. Petrone, 
 T. Henderson, D. Ranasinghe, V. G. Zakrzewski, J. Gao, N. Rega, 
 G. Zheng, W. Liang, M. Hada, M. Ehara, K. Toyota, R. Fukuda, 
 J. Hasegawa, M. Ishida, T. Nakajima, Y. Honda, O. Kitao, H. Nakai, 
 T. Vreven, K. Throssell, J. A. Montgomery, Jr., J. E. Peralta, 
 F. Ogliaro, M. J. Bearpark, J. J. Heyd, E. N. Brothers, K. N. Kudin, 
 V. N. Staroverov, T. A. Keith, R. Kobayashi, J. Normand, 
 K. Raghavachari, A. P. Rendell, J. C. Burant, S. S. Iyengar, 
 J. Tomasi, M. Cossi, J. M. Millam, M. Klene, C. Adamo, R. Cammi, 
 J. W. Ochterski, R. L. Martin, K. Morokuma, O. Farkas, 
 J. B. Foresman, and D. J. Fox, Gaussian, Inc., Wallingford CT, 2016.
 
 ******************************************
 Gaussian 16:  ES64L-G16RevA.03 25-Dec-2016
                29-Jun-2019 
 ******************************************
 %nproc=4
 Will use up to    4 processors via shared memory.
 %Mem=4GB
 --------------------------
 # td=(NStates=1) B3LYP/SVP
 --------------------------
 1/38=1,172=1/1;
 2/12=2,17=6,18=5,40=1/2;
 3/5=18,7=101,11=9,25=1,30=1,74=-5/1,2,3,8;
 4//1;
 5/5=2,38=5/2;
 8/6=1,10=1,108=1/1;
 9/41=1,42=1,70=2/14;
 6/7=2,8=2,9=2,10=2/1;
 99/5=1,9=1/99;
 --
 TD
 --
 Symbolic Z-matrix:
 Charge =  0 Multiplicity = 1
 8                    -4.45721  -4.79212   1.73826 
 8                     2.9477   -4.76347   1.41452 
 8                     6.91833  -1.70987   1.71643 
 8                     3.59613  -3.01818   0.26518 
 8                     7.54432  -0.60562  -0.10919 
 8                    -2.96429   2.53797  -0.04593 
 7                    -0.28056  -0.51393  -0.60832 
 7                     1.57172   1.81821  -0.46682 
 7                    -3.2845   -3.10532   0.5837 
 7                    -0.84591   2.94452  -0.15669 
 6                     0.67555  -2.49142  -1.29752 
 6                     0.89147  -1.24819  -0.88997 
 6                    -0.72821  -2.65909  -1.32858 
 6                    -1.266    -1.44751  -0.78651 
 6                     3.77573   1.38134  -0.31965 
 6                     2.41844   0.82811  -0.63211 
 6                     2.21611  -0.57773  -0.75621 
 6                     3.55048   2.73371  -0.0089 
 6                     1.7173   -3.48753  -1.76392 
 6                    -5.61712  -2.61265   1.37317 
 6                    -3.64088  -1.90585   0.04604 
 6                     2.09356   3.0054    0.00108 
 6                    -5.07478  -1.61566   0.35693 
 6                     5.15226   0.73629  -0.437 
 6                    -2.64579  -1.15252  -0.58234 
 6                    -1.37374  -3.92671  -1.80717 
 6                    -4.39269  -3.65124   1.22928 
 6                     1.97653  -4.48237  -0.75524 
 6                     5.43417  -0.12768   0.73802 
 6                     4.50086   3.72422   0.28199 
 6                     1.27046   4.13212   0.11824 
 6                    -6.96386  -3.20843   0.99892 
 6                    -5.7983   -0.62701  -0.20809 
 6                    -0.05374   3.99955   0.11737 
 6                    -0.85145   5.19714   0.39352 
 6                    -2.18541   4.76044   0.48853 
 6                     3.01648  -4.06944   0.29455 
 6                    -5.4468    0.44812  -1.08422 
 6                     6.7171   -0.77157   0.67524 
 6                    -3.53751   5.44587   0.63731 
 6                    -2.11555   3.341     0.04538 
 6                    -0.41808   6.65128   0.6808 
 6                    -4.21505   5.78805  -0.71068 
 1                    -0.41244   0.30418  -0.25905 
 1                     2.9311   -1.17951  -0.89366 
 1                     2.62412  -2.9833   -2.06542 
 1                     1.22626  -3.9117   -2.72946 
 1                    -5.52176  -2.27485   2.38851 
 1                     5.39438  -0.08934  -1.21932 
 1                     5.99712   1.49313  -0.36172 
 1                    -2.94095  -0.0012   -0.90011 
 1                     0.51759   1.84748  -0.4459 
 1                    -1.51074  -4.68415  -1.01292 
 1                    -2.48135  -3.7914   -2.21891 
 1                    -0.97999  -4.33289  -2.72861 
 1                    -2.43941  -3.78489   0.55589 
 1                     1.05742  -4.80563  -0.22066 
 1                     2.43764  -5.35976  -1.3106 
 1                     4.85783  -1.0005    0.86624 
 1                     5.4148    0.48788   1.52322 
 1                     4.41566   4.68328  -0.29296 
 1                     5.7616    3.53582   0.32647 
 1                     4.38913   4.17473   1.21331 
 1                     1.61563   5.24239   0.21418 
 1                    -7.7483   -2.49479   1.21968 
 1                    -7.12274  -4.26742   1.47823 
 1                    -7.18035  -3.55406  -0.0434 
 1                    -6.77289  -0.63236  -0.03203 
 1                    -4.8408    1.33738  -0.53588 
 1                    -6.29552   1.03717  -1.63257 
 1                    -4.93254   0.02689  -1.96721 
 1                    -3.4093    6.29338   1.25448 
 1                    -4.27022   4.77571   1.10542 
 1                     0.19695   6.83366   1.57698 
 1                    -1.24031   7.363     0.73944 
 1                     0.06494   7.22119  -0.29382 
 1                    -3.61339   6.41633  -1.38671 
 1                    -5.27809   6.27452  -0.62797 
 1                    -4.35072   4.95578  -1.25439 
 1                     3.34289  -4.23248   2.01903 
 1                     7.77809  -2.14769   1.26039 
 
 Stoichiometry    C33H38N4O6
 Framework group  C1[X(C33H38N4O6)]
 Deg. of freedom   237
 Full point group                 C1      NOp   1
 Largest Abelian subgroup         C1      NOp   1
 Largest concise Abelian subgroup C1      NOp   1
                         Standard orientation:                         
 ---------------------------------------------------------------------
 Center     Atomic      Atomic             Coordinates (Angstroms)
 Number     Number       Type             X           Y           Z
 ---------------------------------------------------------------------
      1          8           0        4.447092   -4.808401   -1.726927
      2          8           0       -2.957969   -4.761513   -1.409009
      3          8           0       -6.921119   -1.699163   -1.720537
      4          8           0       -3.603152   -3.012237   -0.263907
      5          8           0       -7.545900   -0.589533    0.102234
      6          8           0        2.970180    2.529007    0.040427
      7          7           0        0.278793   -0.515317    0.607251
      8          7           0       -1.567849    1.820903    0.459325
      9          7           0        3.277493   -3.116361   -0.576886
     10          7           0        0.852685    2.940815    0.148671
     11          6           0       -0.682537   -2.489060    1.299935
     12          6           0       -0.895193   -1.246197    0.889561
     13          6           0        0.720793   -2.659985    1.332447
     14          6           0        1.261875   -1.450843    0.788204
     15          6           0       -3.772765    1.388941    0.311375
     16          6           0       -2.417040    0.833168    0.626079
     17          6           0       -2.218136   -0.572887    0.753334
     18          6           0       -3.544072    2.740105   -0.002087
     19          6           0       -1.727011   -3.481698    1.767648
     20          6           0        5.611889   -2.630913   -1.365593
     21          6           0        3.636301   -1.916587   -0.041516
     22          6           0       -2.086510    3.008315   -0.011519
     23          6           0        5.071133   -1.630463   -0.351916
     24          6           0       -5.150919    0.747408    0.429031
     25          6           0        2.642514   -1.159565    0.584475
     26          6           0        1.362943   -3.928101    1.814248
     27          6           0        4.384885   -3.666289   -1.220441
     28          6           0       -1.987815   -4.478073    0.760897
     29          6           0       -5.433969   -0.118405   -0.744357
     30          6           0       -4.491873    3.732242   -0.295835
     31          6           0       -1.260644    4.132829   -0.130446
     32          6           0        6.956920   -3.229076   -0.989025
     33          6           0        5.796553   -0.642324    0.211559
     34          6           0        0.063235    3.997131   -0.128261
     35          6           0        0.863992    5.192230   -0.406353
     36          6           0        2.196993    4.752169   -0.499388
     37          6           0       -3.025977   -4.064930   -0.290581
     38          6           0        5.446927    0.435505    1.085112
     39          6           0       -6.718471   -0.759114   -0.681197
     40          6           0        3.550825    5.434072   -0.648586
     41          6           0        2.123426    3.333844   -0.053255
     42          6           0        0.434293    6.646773   -0.697077
     43          6           0        4.228133    5.777525    0.699203
     44          1           0        0.412879    0.301726    0.256333
     45          1           0       -2.934655   -1.172672    0.891515
     46          1           0       -2.632866   -2.974676    2.067366
     47          1           0       -1.237720   -3.904963    2.734473
     48          1           0        5.518118   -2.295054   -2.381731
     49          1           0       -5.395597   -0.075978    1.212924
     50          1           0       -5.993922    1.506086    0.351477
     51          1           0        2.940165   -0.008264    0.900017
     52          1           0       -0.513630    1.847622    0.439168
     53          1           0        1.498762   -4.687565    1.021724
     54          1           0        2.470559   -3.794535    2.226557
     55          1           0        0.967522   -4.331379    2.736240
     56          1           0        2.430775   -3.793870   -0.548287
     57          1           0       -1.069064   -4.804656    0.227722
     58          1           0       -2.451438   -5.353176    1.317770
     59          1           0       -4.859598   -0.992858   -0.870258
     60          1           0       -5.412525    0.495428   -1.530851
     61          1           0       -4.404846    4.692320    0.277130
     62          1           0       -5.753028    3.546728   -0.340891
     63          1           0       -4.378358    4.180491   -1.228031
     64          1           0       -1.603106    5.243713   -0.229027
     65          1           0        7.743220   -2.517768   -1.210697
     66          1           0        7.113659   -4.289469   -1.465948
     67          1           0        7.171783   -3.572992    0.054201
     68          1           0        6.771269   -0.650366    0.036268
     69          1           0        4.843461    1.325021    0.534399
     70          1           0        6.296620    1.023716    1.632862
     71          1           0        4.930990    0.017385    1.968599
     72          1           0        3.425103    6.280562   -1.267664
     73          1           0        4.282310    4.761173   -1.114690
     74          1           0       -0.179610    6.828688   -1.594121
     75          1           0        1.258253    7.356419   -0.756599
     76          1           0       -0.048119    7.219911    0.275952
     77          1           0        3.627444    6.408674    1.373415
     78          1           0        5.292387    6.261299    0.616276
     79          1           0        4.361408    4.946101    1.244789
     80          1           0       -3.351435   -4.230879   -2.014961
     81          1           0       -7.782260   -2.133965   -1.264225
 ---------------------------------------------------------------------
 Rotational constants (GHZ):           0.0753646           0.0554687           0.0339926
 Standard basis: SVP (5D, 7F)
 There are   835 symmetry adapted cartesian basis functions of A   symmetry.
 There are   792 symmetry adapted basis functions of A   symmetry.
   792 basis functions,  1341 primitive gaussians,   835 cartesian basis functions
   156 alpha electrons      156 beta electrons
       nuclear repulsion energy      5058.3567371250 Hartrees.
 NAtoms=   81 NActive=   81 NUniq=   81 SFac= 1.00D+00 NAtFMM=   60 NAOKFM=T Big=T
 Integral buffers will be    131072 words long.
 Regular integral format.
 Two-electron integral symmetry is turned on.
 One-electron integrals computed using PRISM.
 NBasis=   792 RedAO= T EigKep=  3.02D-04  NBF=   792
 NBsUse=   792 1.00D-06 EigRej= -1.00D+00 NBFU=   792
 ExpMin= 1.22D-01 ExpMax= 2.27D+03 ExpMxC= 3.41D+02 IAcc=3 IRadAn=         5 AccDes= 0.00D+00
 Harris functional with IExCor=  402 and IRadAn=       5 diagonalized for initial guess.
 HarFok:  IExCor=  402 AccDes= 0.00D+00 IRadAn=         5 IDoV= 1 UseB2=F ITyADJ=14
 ICtDFT=  3500011 ScaDFX=  1.000000  1.000000  1.000000  1.000000
 FoFCou: FMM=F IPFlag=           0 FMFlag=      100000 FMFlg1=        2001
         NFxFlg=           0 DoJE=T BraDBF=F KetDBF=T FulRan=T
         wScrn=  0.000000 ICntrl=       500 IOpCl=  0 I1Cent=   200000004 NGrid=           0
         NMat0=    1 NMatS0=      1 NMatT0=    0 NMatD0=    1 NMtDS0=    0 NMtDT0=    0
 Petite list used in FoFCou.
 Requested convergence on RMS density matrix=1.00D-08 within 128 cycles.
 Requested convergence on MAX density matrix=1.00D-06.
 Requested convergence on             energy=1.00D-06.
 No special actions if energy rises.
 Integral accuracy reduced to 1.0D-05 until final iterations.
 Initial convergence to 1.0D-05 achieved.  Increase integral accuracy.
 SCF Done:  E(RB3LYP) =  -1949.06951491     A.U. after   17 cycles
            NFock= 17  Conv=0.47D-08     -V/T= 2.0098
 DoSCS=F DFT=T ScalE2(SS,OS)=  1.000000  1.000000
 ExpMin= 1.22D-01 ExpMax= 2.27D+03 ExpMxC= 3.41D+02 IAcc=3 IRadAn=         5 AccDes= 0.00D+00
 HarFok:  IExCor=  205 AccDes= 0.00D+00 IRadAn=         5 IDoV=-2 UseB2=F ITyADJ=14
 ICtDFT= 12500011 ScaDFX=  1.000000  1.000000  1.000000  1.000000
 GSVD:  LWork=       -2193 too small for GESVD, short by        9890 words or        9890 for optimal perf.
 Range of M.O.s used for correlation:    44   792
 NBasis=   792 NAE=   156 NBE=   156 NFC=    43 NFV=     0
 NROrb=    749 NOA=   113 NOB=   113 NVA=   636 NVB=   636

 **** Warning!!: The smallest alpha delta epsilon is  0.75104774D-01

 Orbital symmetries:
       Occupied  (A) (A) (A) (A) (A) (A) (A) (A) (A) (A) (A) (A)
                 (A) (A) (A) (A) (A) (A) (A) (A) (A) (A) (A) (A)
                 (A) (A) (A) (A) (A) (A) (A) (A) (A) (A) (A) (A)
                 (A) (A) (A) (A) (A) (A) (A) (A) (A) (A) (A) (A)
                 (A) (A) (A) (A) (A) (A) (A) (A) (A) (A) (A) (A)
                 (A) (A) (A) (A) (A) (A) (A) (A) (A) (A) (A) (A)
                 (A) (A) (A) (A) (A) (A) (A) (A) (A) (A) (A) (A)
                 (A) (A) (A) (A) (A) (A) (A) (A) (A) (A) (A) (A)
                 (A) (A) (A) (A) (A) (A) (A) (A) (A) (A) (A) (A)
                 (A) (A) (A) (A) (A) (A) (A) (A) (A) (A) (A) (A)
                 (A) (A) (A) (A) (A) (A) (A) (A) (A) (A) (A) (A)
                 (A) (A) (A) (A) (A) (A) (A) (A) (A) (A) (A) (A)
                 (A) (A) (A) (A) (A) (A) (A) (A) (A) (A) (A) (A)
       Virtual   (A) (A) (A) (A) (A) (A) (A) (A) (A) (A) (A) (A)
                 (A) (A) (A) (A) (A) (A) (A) (A) (A) (A) (A) (A)
                 (A) (A) (A) (A) (A) (A) (A) (A) (A) (A) (A) (A)
                 (A) (A) (A) (A) (A) (A) (A) (A) (A) (A) (A) (A)
                 (A) (A) (A) (A) (A) (A) (A) (A) (A) (A) (A) (A)
                 (A) (A) (A) (A) (A) (A) (A) (A) (A) (A) (A) (A)
                 (A) (A) (A) (A) (A) (A) (A) (A) (A) (A) (A) (A)
                 (A) (A) (A) (A) (A) (A) (A) (A) (A) (A) (A) (A)
                 (A) (A) (A) (A) (A) (A) (A) (A) (A) (A) (A) (A)
                 (A) (A) (A) (A) (A) (A) (A) (A) (A) (A) (A) (A)
                 (A) (A) (A) (A) (A) (A) (A) (A) (A) (A) (A) (A)
                 (A) (A) (A) (A) (A) (A) (A) (A) (A) (A) (A) (A)
                 (A) (A) (A) (A) (A) (A) (A) (A) (A) (A) (A) (A)
                 (A) (A) (A) (A) (A) (A) (A) (A) (A) (A) (A) (A)
                 (A) (A) (A) (A) (A) (A) (A) (A) (A) (A) (A) (A)
                 (A) (A) (A) (A) (A) (A) (A) (A) (A) (A) (A) (A)
                 (A) (A) (A) (A) (A) (A) (A) (A) (A) (A) (A) (A)
                 (A) (A) (A) (A) (A) (A) (A) (A) (A) (A) (A) (A)
                 (A) (A) (A) (A) (A) (A) (A) (A) (A) (A) (A) (A)
                 (A) (A) (A) (A) (A) (A) (A) (A) (A) (A) (A) (A)
                 (A) (A) (A) (A) (A) (A) (A) (A) (A) (A) (A) (A)
                 (A) (A) (A) (A) (A) (A) (A) (A) (A) (A) (A) (A)
                 (A) (A) (A) (A) (A) (A) (A) (A) (A) (A) (A) (A)
                 (A) (A) (A) (A) (A) (A) (A) (A) (A) (A) (A) (A)
                 (A) (A) (A) (A) (A) (A) (A) (A) (A) (A) (A) (A)
                 (A) (A) (A) (A) (A) (A) (A) (A) (A) (A) (A) (A)
                 (A) (A) (A) (A) (A) (A) (A) (A) (A) (A) (A) (A)
                 (A) (A) (A) (A) (A) (A) (A) (A) (A) (A) (A) (A)
                 (A) (A) (A) (A) (A) (A) (A) (A) (A) (A) (A) (A)
                 (A) (A) (A) (A) (A) (A) (A) (A) (A) (A) (A) (A)
                 (A) (A) (A) (A) (A) (A) (A) (A) (A) (A) (A) (A)
                 (A) (A) (A) (A) (A) (A) (A) (A) (A) (A) (A) (A)
                 (A) (A) (A) (A) (A) (A) (A) (A) (A) (A) (A) (A)
                 (A) (A) (A) (A) (A) (A) (A) (A) (A) (A) (A) (A)
                 (A) (A) (A) (A) (A) (A) (A) (A) (A) (A) (A) (A)
                 (A) (A) (A) (A) (A) (A) (A) (A) (A) (A) (A) (A)
                 (A) (A) (A) (A) (A) (A) (A) (A) (A) (A) (A) (A)
                 (A) (A) (A) (A) (A) (A) (A) (A) (A) (A) (A) (A)
                 (A) (A) (A) (A) (A) (A) (A) (A) (A) (A) (A) (A)
                 (A) (A) (A) (A) (A) (A) (A) (A) (A) (A) (A) (A)
                 (A) (A) (A) (A) (A) (A) (A) (A) (A) (A) (A) (A)
                 (A) (A) (A) (A) (A) (A) (A) (A) (A) (A) (A) (A)
                 (A) (A) (A) (A) (A) (A) (A) (A) (A) (A) (A) (A)
                 (A) (A) (A) (A) (A) (A) (A) (A) (A) (A) (A) (A)
                 (A) (A) (A) (A) (A) (A) (A) (A) (A) (A) (A) (A)
                 (A) (A) (A) (A) (A) (A) (A) (A) (A) (A) (A) (A)
                 (A) (A) (A) (A) (A) (A) (A) (A) (A) (A) (A) (A)
                 (A) (A) (A) (A) (A) (A) (A) (A) (A) (A) (A) (A)
                 (A) (A) (A) (A) (A) (A) (A) (A) (A) (A) (A) (A)
                 (A) (A) (A) (A) (A) (A) (A) (A) (A) (A) (A) (A)
                 (A) (A) (A) (A) (A) (A) (A) (A) (A) (A) (A) (A)
                 (A) (A) (A) (A) (A) (A) (A) (A) (A) (A) (A) (A)
                 (A) (A) (A) (A) (A) (A) (A) (A) (A) (A) (A) (A)
     4 initial guesses have been made.
 Convergence on wavefunction:    0.001000000000000
 Iteration     1 Dimension     4 NMult     0 NNew      4
 CISAX will form     4 AO SS matrices at one time.
 Iteration     2 Dimension     6 NMult     4 NNew      2
 Iteration     3 Dimension     8 NMult     6 NNew      2
 Iteration     4 Dimension    10 NMult     8 NNew      2
 Iteration     5 Dimension    12 NMult    10 NNew      2
 Iteration     6 Dimension    14 NMult    12 NNew      2
 ***********************************************************************
 Excited states from <AA,BB:AA,BB> singles matrix:
 ***********************************************************************
 
 Ground to excited state transition densities written to RWF  633
 Ground to excited state transition electric dipole moments (Au):
       state          X           Y           Z        Dip. S.      Osc.
         1         1.0235     -2.6457      0.2449      8.1070      0.3760
 Ground to excited state transition velocity dipole moments (Au):
       state          X           Y           Z        Dip. S.      Osc.
         1        -0.0694      0.1779     -0.0162      0.0367      0.3520
 Ground to excited state transition magnetic dipole moments (Au):
       state          X           Y           Z
         1        -0.2843     -0.5397     -2.1809
 Ground to excited state transition velocity quadrupole moments (Au):
       state          XX          YY          ZZ          XY          XZ          YZ
         1        -0.3943      0.6089     -0.0750      0.4539      0.0252     -0.0133
 <0|del|b> * <b|rxdel|0> + <0|del|b> * <b|delr+rdel|0>
 Rotatory Strengths (R) in cgs (10**-40 erg-esu-cm/Gauss)
       state          XX          YY          ZZ    R(velocity)    E-M Angle
         1      -368.4078    322.1610   -369.7684   -138.6718       95.41
 1/2[<0|r|b>*<b|rxdel|0> + (<0|rxdel|b>*<b|r|0>)*]
 Rotatory Strengths (R) in cgs (10**-40 erg-esu-cm/Gauss)
       state          XX          YY          ZZ     R(length)
         1       205.7583  -1009.6860    377.6916   -142.0787
  1/2[<0|del|b>*<b|r|0> + (<0|r|b>*<b|del|0>)*] (Au)
       state          X           Y           Z        Dip. S.   Osc.(frdel)
         1        -0.0710     -0.4707     -0.0040      0.5457      0.3638

 Excitation energies and oscillator strengths:
 
 Excited State   1:      Singlet-A      1.8930 eV  654.98 nm  f=0.3760  <S**2>=0.000
     156 ->157         0.70529
     156 <-157        -0.11020
 This state for optimization and/or second-order correction.
 Total Energy, E(TD-HF/TD-DFT) =  -1948.99995027    
 Copying the excited state density for this state as the 1-particle RhoCI density.
 SavETr:  write IOETrn=   770 NScale= 10 NData=  16 NLR=1 NState=    1 LETran=      28.

 **********************************************************************

            Population analysis using the SCF density.

 **********************************************************************

 Orbital symmetries:
       Occupied  (A) (A) (A) (A) (A) (A) (A) (A) (A) (A) (A) (A)
                 (A) (A) (A) (A) (A) (A) (A) (A) (A) (A) (A) (A)
                 (A) (A) (A) (A) (A) (A) (A) (A) (A) (A) (A) (A)
                 (A) (A) (A) (A) (A) (A) (A) (A) (A) (A) (A) (A)
                 (A) (A) (A) (A) (A) (A) (A) (A) (A) (A) (A) (A)
                 (A) (A) (A) (A) (A) (A) (A) (A) (A) (A) (A) (A)
                 (A) (A) (A) (A) (A) (A) (A) (A) (A) (A) (A) (A)
                 (A) (A) (A) (A) (A) (A) (A) (A) (A) (A) (A) (A)
                 (A) (A) (A) (A) (A) (A) (A) (A) (A) (A) (A) (A)
                 (A) (A) (A) (A) (A) (A) (A) (A) (A) (A) (A) (A)
                 (A) (A) (A) (A) (A) (A) (A) (A) (A) (A) (A) (A)
                 (A) (A) (A) (A) (A) (A) (A) (A) (A) (A) (A) (A)
                 (A) (A) (A) (A) (A) (A) (A) (A) (A) (A) (A) (A)
       Virtual   (A) (A) (A) (A) (A) (A) (A) (A) (A) (A) (A) (A)
                 (A) (A) (A) (A) (A) (A) (A) (A) (A) (A) (A) (A)
                 (A) (A) (A) (A) (A) (A) (A) (A) (A) (A) (A) (A)
                 (A) (A) (A) (A) (A) (A) (A) (A) (A) (A) (A) (A)
                 (A) (A) (A) (A) (A) (A) (A) (A) (A) (A) (A) (A)
                 (A) (A) (A) (A) (A) (A) (A) (A) (A) (A) (A) (A)
                 (A) (A) (A) (A) (A) (A) (A) (A) (A) (A) (A) (A)
                 (A) (A) (A) (A) (A) (A) (A) (A) (A) (A) (A) (A)
                 (A) (A) (A) (A) (A) (A) (A) (A) (A) (A) (A) (A)
                 (A) (A) (A) (A) (A) (A) (A) (A) (A) (A) (A) (A)
                 (A) (A) (A) (A) (A) (A) (A) (A) (A) (A) (A) (A)
                 (A) (A) (A) (A) (A) (A) (A) (A) (A) (A) (A) (A)
                 (A) (A) (A) (A) (A) (A) (A) (A) (A) (A) (A) (A)
                 (A) (A) (A) (A) (A) (A) (A) (A) (A) (A) (A) (A)
                 (A) (A) (A) (A) (A) (A) (A) (A) (A) (A) (A) (A)
                 (A) (A) (A) (A) (A) (A) (A) (A) (A) (A) (A) (A)
                 (A) (A) (A) (A) (A) (A) (A) (A) (A) (A) (A) (A)
                 (A) (A) (A) (A) (A) (A) (A) (A) (A) (A) (A) (A)
                 (A) (A) (A) (A) (A) (A) (A) (A) (A) (A) (A) (A)
                 (A) (A) (A) (A) (A) (A) (A) (A) (A) (A) (A) (A)
                 (A) (A) (A) (A) (A) (A) (A) (A) (A) (A) (A) (A)
                 (A) (A) (A) (A) (A) (A) (A) (A) (A) (A) (A) (A)
                 (A) (A) (A) (A) (A) (A) (A) (A) (A) (A) (A) (A)
                 (A) (A) (A) (A) (A) (A) (A) (A) (A) (A) (A) (A)
                 (A) (A) (A) (A) (A) (A) (A) (A) (A) (A) (A) (A)
                 (A) (A) (A) (A) (A) (A) (A) (A) (A) (A) (A) (A)
                 (A) (A) (A) (A) (A) (A) (A) (A) (A) (A) (A) (A)
                 (A) (A) (A) (A) (A) (A) (A) (A) (A) (A) (A) (A)
                 (A) (A) (A) (A) (A) (A) (A) (A) (A) (A) (A) (A)
                 (A) (A) (A) (A) (A) (A) (A) (A) (A) (A) (A) (A)
                 (A) (A) (A) (A) (A) (A) (A) (A) (A) (A) (A) (A)
                 (A) (A) (A) (A) (A) (A) (A) (A) (A) (A) (A) (A)
                 (A) (A) (A) (A) (A) (A) (A) (A) (A) (A) (A) (A)
                 (A) (A) (A) (A) (A) (A) (A) (A) (A) (A) (A) (A)
                 (A) (A) (A) (A) (A) (A) (A) (A) (A) (A) (A) (A)
                 (A) (A) (A) (A) (A) (A) (A) (A) (A) (A) (A) (A)
                 (A) (A) (A) (A) (A) (A) (A) (A) (A) (A) (A) (A)
                 (A) (A) (A) (A) (A) (A) (A) (A) (A) (A) (A) (A)
                 (A) (A) (A) (A) (A) (A) (A) (A) (A) (A) (A) (A)
                 (A) (A) (A) (A) (A) (A) (A) (A) (A) (A) (A) (A)
                 (A) (A) (A) (A) (A) (A) (A) (A) (A) (A) (A) (A)
                 (A) (A) (A) (A) (A) (A) (A) (A) (A) (A) (A) (A)
                 (A) (A) (A) (A) (A) (A) (A) (A) (A) (A) (A) (A)
                 (A) (A) (A) (A) (A) (A) (A) (A) (A) (A) (A) (A)
                 (A) (A) (A) (A) (A) (A) (A) (A) (A) (A) (A) (A)
                 (A) (A) (A) (A) (A) (A) (A) (A) (A) (A) (A) (A)
                 (A) (A) (A) (A) (A) (A) (A) (A) (A) (A) (A) (A)
                 (A) (A) (A) (A) (A) (A) (A) (A) (A) (A) (A) (A)
                 (A) (A) (A) (A) (A) (A) (A) (A) (A) (A) (A) (A)
                 (A) (A) (A) (A) (A) (A) (A) (A) (A) (A) (A) (A)
                 (A) (A) (A) (A) (A) (A) (A) (A) (A) (A) (A) (A)
                 (A) (A) (A) (A) (A) (A) (A) (A) (A) (A) (A) (A)
                 (A) (A) (A) (A) (A) (A) (A) (A) (A) (A) (A) (A)
 The electronic state is 1-A.
 Alpha  occ. eigenvalues --  -19.19831 -19.16780 -19.14803 -19.13424 -19.10825
 Alpha  occ. eigenvalues --  -19.08975 -14.38218 -14.36999 -14.36622 -14.27526
 Alpha  occ. eigenvalues --  -10.33928 -10.30790 -10.29201 -10.24944 -10.24728
 Alpha  occ. eigenvalues --  -10.24543 -10.24042 -10.23681 -10.22666 -10.22320
 Alpha  occ. eigenvalues --  -10.21509 -10.21342 -10.21236 -10.21217 -10.21046
 Alpha  occ. eigenvalues --  -10.20961 -10.20809 -10.20757 -10.20378 -10.20296
 Alpha  occ. eigenvalues --  -10.20254 -10.20072 -10.19661 -10.19315 -10.19252
 Alpha  occ. eigenvalues --  -10.19165 -10.18959 -10.18774 -10.18659 -10.18568
 Alpha  occ. eigenvalues --  -10.18508 -10.18017 -10.17431  -1.14477  -1.10504
 Alpha  occ. eigenvalues --   -1.03719  -1.03482  -1.01862  -0.99557  -0.99540
 Alpha  occ. eigenvalues --   -0.98655  -0.95238  -0.91901  -0.84597  -0.83154
 Alpha  occ. eigenvalues --   -0.82001  -0.81223  -0.79930  -0.79565  -0.78715
 Alpha  occ. eigenvalues --   -0.78427  -0.76623  -0.75373  -0.74183  -0.72932
 Alpha  occ. eigenvalues --   -0.71655  -0.70465  -0.69683  -0.68614  -0.67885
 Alpha  occ. eigenvalues --   -0.67294  -0.66159  -0.64035  -0.63007  -0.62555
 Alpha  occ. eigenvalues --   -0.61207  -0.59627  -0.58913  -0.57719  -0.57098
 Alpha  occ. eigenvalues --   -0.56326  -0.55749  -0.54445  -0.54277  -0.53657
 Alpha  occ. eigenvalues --   -0.53386  -0.52824  -0.52054  -0.51474  -0.51037
 Alpha  occ. eigenvalues --   -0.50586  -0.49864  -0.49020  -0.48282  -0.48151
 Alpha  occ. eigenvalues --   -0.47452  -0.46945  -0.46580  -0.46165  -0.45588
 Alpha  occ. eigenvalues --   -0.45051  -0.44785  -0.44294  -0.44190  -0.43942
 Alpha  occ. eigenvalues --   -0.43778  -0.43372  -0.43231  -0.43027  -0.42870
 Alpha  occ. eigenvalues --   -0.42551  -0.42018  -0.41837  -0.41406  -0.41151
 Alpha  occ. eigenvalues --   -0.41034  -0.40566  -0.40530  -0.40186  -0.40051
 Alpha  occ. eigenvalues --   -0.39886  -0.39329  -0.39042  -0.38792  -0.38665
 Alpha  occ. eigenvalues --   -0.38119  -0.37819  -0.37545  -0.36841  -0.36674
 Alpha  occ. eigenvalues --   -0.35964  -0.35815  -0.35152  -0.35069  -0.34895
 Alpha  occ. eigenvalues --   -0.34711  -0.34352  -0.34056  -0.33875  -0.33565
 Alpha  occ. eigenvalues --   -0.32848  -0.31985  -0.31500  -0.30400  -0.29231
 Alpha  occ. eigenvalues --   -0.28691  -0.26970  -0.26597  -0.26211  -0.25338
 Alpha  occ. eigenvalues --   -0.24864  -0.24539  -0.23686  -0.22841  -0.21210
 Alpha  occ. eigenvalues --   -0.17958
 Alpha virt. eigenvalues --   -0.10447  -0.05273  -0.03805  -0.02340  -0.00367
 Alpha virt. eigenvalues --    0.01552   0.01722   0.02368   0.03361   0.03790
 Alpha virt. eigenvalues --    0.04329   0.04469   0.05225   0.05741   0.06510
 Alpha virt. eigenvalues --    0.06751   0.07452   0.07811   0.08140   0.08274
 Alpha virt. eigenvalues --    0.08384   0.08643   0.09125   0.09243   0.09733
 Alpha virt. eigenvalues --    0.10025   0.10164   0.11055   0.11140   0.11525
 Alpha virt. eigenvalues --    0.11668   0.11826   0.12280   0.12442   0.12578
 Alpha virt. eigenvalues --    0.13031   0.13265   0.13581   0.13706   0.13905
 Alpha virt. eigenvalues --    0.14130   0.14741   0.15681   0.16004   0.16415
 Alpha virt. eigenvalues --    0.16659   0.16820   0.17278   0.18168   0.18438
 Alpha virt. eigenvalues --    0.18736   0.19283   0.19456   0.19837   0.20394
 Alpha virt. eigenvalues --    0.20573   0.21189   0.21488   0.21783   0.22338
 Alpha virt. eigenvalues --    0.22830   0.23532   0.23684   0.23826   0.24100
 Alpha virt. eigenvalues --    0.24557   0.25005   0.25327   0.25984   0.26514
 Alpha virt. eigenvalues --    0.26680   0.27098   0.27240   0.28073   0.28610
 Alpha virt. eigenvalues --    0.28985   0.29156   0.30312   0.30610   0.31298
 Alpha virt. eigenvalues --    0.31818   0.32125   0.32558   0.33493   0.33810
 Alpha virt. eigenvalues --    0.34547   0.34642   0.35247   0.35673   0.36288
 Alpha virt. eigenvalues --    0.36824   0.37744   0.38503   0.38533   0.39052
 Alpha virt. eigenvalues --    0.39525   0.39868   0.40493   0.40865   0.41354
 Alpha virt. eigenvalues --    0.41585   0.41747   0.42192   0.42448   0.43493
 Alpha virt. eigenvalues --    0.43637   0.43778   0.44397   0.44891   0.45016
 Alpha virt. eigenvalues --    0.45469   0.45830   0.46111   0.46384   0.46445
 Alpha virt. eigenvalues --    0.47068   0.47683   0.48281   0.48428   0.48817
 Alpha virt. eigenvalues --    0.49083   0.49394   0.49583   0.49848   0.50045
 Alpha virt. eigenvalues --    0.50388   0.50764   0.51048   0.51731   0.52237
 Alpha virt. eigenvalues --    0.52487   0.53011   0.53257   0.53420   0.53989
 Alpha virt. eigenvalues --    0.54327   0.54505   0.54937   0.55808   0.55992
 Alpha virt. eigenvalues --    0.56483   0.56964   0.57633   0.57909   0.58151
 Alpha virt. eigenvalues --    0.58694   0.58750   0.59476   0.59800   0.59925
 Alpha virt. eigenvalues --    0.60267   0.60387   0.60738   0.60959   0.61226
 Alpha virt. eigenvalues --    0.61657   0.61810   0.62248   0.62668   0.62843
 Alpha virt. eigenvalues --    0.62913   0.63185   0.63310   0.63433   0.63760
 Alpha virt. eigenvalues --    0.63917   0.64276   0.64441   0.64781   0.64911
 Alpha virt. eigenvalues --    0.65206   0.65504   0.65766   0.66012   0.66265
 Alpha virt. eigenvalues --    0.66588   0.66837   0.66884   0.67118   0.67643
 Alpha virt. eigenvalues --    0.67835   0.67878   0.68217   0.68428   0.68755
 Alpha virt. eigenvalues --    0.68889   0.69029   0.69300   0.69515   0.69613
 Alpha virt. eigenvalues --    0.70035   0.70235   0.70700   0.71047   0.71349
 Alpha virt. eigenvalues --    0.71455   0.71723   0.72147   0.72354   0.72434
 Alpha virt. eigenvalues --    0.72756   0.73020   0.73603   0.73768   0.74187
 Alpha virt. eigenvalues --    0.74408   0.74647   0.74908   0.75338   0.75503
 Alpha virt. eigenvalues --    0.76017   0.76334   0.76686   0.77338   0.77823
 Alpha virt. eigenvalues --    0.78137   0.78537   0.78691   0.79198   0.79359
 Alpha virt. eigenvalues --    0.80247   0.80925   0.81569   0.81698   0.82444
 Alpha virt. eigenvalues --    0.82810   0.83602   0.83978   0.84547   0.85315
 Alpha virt. eigenvalues --    0.86005   0.86720   0.87919   0.88323   0.89062
 Alpha virt. eigenvalues --    0.89673   0.90324   0.90864   0.91052   0.91755
 Alpha virt. eigenvalues --    0.92877   0.94373   0.95446   0.95738   0.96135
 Alpha virt. eigenvalues --    0.96455   0.96689   0.97598   0.97643   0.97860
 Alpha virt. eigenvalues --    0.98282   0.98811   0.99666   1.00008   1.00669
 Alpha virt. eigenvalues --    1.01544   1.01923   1.02420   1.03346   1.03668
 Alpha virt. eigenvalues --    1.04219   1.04644   1.06621   1.07122   1.07346
 Alpha virt. eigenvalues --    1.07704   1.08791   1.09535   1.10212   1.10619
 Alpha virt. eigenvalues --    1.11310   1.11515   1.13011   1.13272   1.14135
 Alpha virt. eigenvalues --    1.14539   1.14726   1.15201   1.15826   1.16922
 Alpha virt. eigenvalues --    1.17252   1.17381   1.18068   1.18840   1.19613
 Alpha virt. eigenvalues --    1.20325   1.20839   1.21212   1.21541   1.22596
 Alpha virt. eigenvalues --    1.23043   1.23692   1.24352   1.25505   1.26042
 Alpha virt. eigenvalues --    1.26849   1.27520   1.28015   1.28761   1.29176
 Alpha virt. eigenvalues --    1.30420   1.30745   1.31641   1.31961   1.32576
 Alpha virt. eigenvalues --    1.33841   1.35025   1.35422   1.35990   1.36544
 Alpha virt. eigenvalues --    1.37197   1.37912   1.38736   1.39404   1.40181
 Alpha virt. eigenvalues --    1.40583   1.41026   1.41334   1.42044   1.42811
 Alpha virt. eigenvalues --    1.43052   1.43480   1.44116   1.44749   1.45931
 Alpha virt. eigenvalues --    1.46361   1.47149   1.47696   1.49239   1.49746
 Alpha virt. eigenvalues --    1.49939   1.50656   1.50727   1.51031   1.51354
 Alpha virt. eigenvalues --    1.51596   1.52575   1.53017   1.53413   1.53937
 Alpha virt. eigenvalues --    1.54460   1.55128   1.55559   1.55777   1.56588
 Alpha virt. eigenvalues --    1.56886   1.57057   1.57447   1.58577   1.58689
 Alpha virt. eigenvalues --    1.59267   1.59506   1.61081   1.63319   1.63607
 Alpha virt. eigenvalues --    1.64290   1.64463   1.64865   1.65469   1.65708
 Alpha virt. eigenvalues --    1.66233   1.66895   1.67265   1.67814   1.67995
 Alpha virt. eigenvalues --    1.68275   1.69173   1.69760   1.69900   1.70439
 Alpha virt. eigenvalues --    1.70937   1.71677   1.72502   1.72588   1.73119
 Alpha virt. eigenvalues --    1.73330   1.73555   1.73934   1.74676   1.75060
 Alpha virt. eigenvalues --    1.75272   1.76061   1.76497   1.76637   1.76696
 Alpha virt. eigenvalues --    1.77418   1.77711   1.77722   1.77779   1.78566
 Alpha virt. eigenvalues --    1.78996   1.79310   1.79463   1.79628   1.80327
 Alpha virt. eigenvalues --    1.80881   1.81555   1.81653   1.81868   1.82318
 Alpha virt. eigenvalues --    1.82420   1.83035   1.83200   1.83615   1.83806
 Alpha virt. eigenvalues --    1.84319   1.84474   1.85160   1.85294   1.85676
 Alpha virt. eigenvalues --    1.86031   1.86754   1.87031   1.87427   1.88154
 Alpha virt. eigenvalues --    1.88800   1.89139   1.89394   1.89982   1.90279
 Alpha virt. eigenvalues --    1.90607   1.91521   1.91835   1.92140   1.92461
 Alpha virt. eigenvalues --    1.93244   1.93422   1.93911   1.94408   1.94658
 Alpha virt. eigenvalues --    1.95060   1.95412   1.95690   1.96488   1.97320
 Alpha virt. eigenvalues --    1.97812   1.98189   1.98714   1.99033   1.99322
 Alpha virt. eigenvalues --    1.99805   2.00358   2.01244   2.01493   2.02234
 Alpha virt. eigenvalues --    2.02505   2.02779   2.03584   2.04117   2.04843
 Alpha virt. eigenvalues --    2.05261   2.05654   2.06299   2.06573   2.07286
 Alpha virt. eigenvalues --    2.07408   2.07948   2.08966   2.09942   2.10689
 Alpha virt. eigenvalues --    2.10907   2.11184   2.12272   2.13324   2.13945
 Alpha virt. eigenvalues --    2.14583   2.15186   2.15817   2.16223   2.16681
 Alpha virt. eigenvalues --    2.17363   2.17748   2.18546   2.19075   2.19723
 Alpha virt. eigenvalues --    2.20384   2.21861   2.22108   2.22760   2.23501
 Alpha virt. eigenvalues --    2.24124   2.24768   2.25075   2.26151   2.27110
 Alpha virt. eigenvalues --    2.27378   2.28384   2.28489   2.29156   2.29782
 Alpha virt. eigenvalues --    2.30007   2.30566   2.32202   2.32866   2.33206
 Alpha virt. eigenvalues --    2.34371   2.35523   2.36227   2.36670   2.37041
 Alpha virt. eigenvalues --    2.37791   2.38130   2.38740   2.39144   2.39542
 Alpha virt. eigenvalues --    2.40073   2.40361   2.41229   2.42085   2.42708
 Alpha virt. eigenvalues --    2.43374   2.43871   2.44219   2.45026   2.45790
 Alpha virt. eigenvalues --    2.46122   2.46908   2.48092   2.48499   2.49622
 Alpha virt. eigenvalues --    2.50239   2.50825   2.51777   2.52264   2.52409
 Alpha virt. eigenvalues --    2.52944   2.54185   2.54386   2.54883   2.56742
 Alpha virt. eigenvalues --    2.57372   2.57975   2.58144   2.58596   2.59086
 Alpha virt. eigenvalues --    2.59300   2.59913   2.60720   2.61975   2.63204
 Alpha virt. eigenvalues --    2.63459   2.64119   2.64314   2.66307   2.66852
 Alpha virt. eigenvalues --    2.67330   2.67968   2.68214   2.69898   2.70268
 Alpha virt. eigenvalues --    2.70898   2.71017   2.71795   2.72618   2.74067
 Alpha virt. eigenvalues --    2.74237   2.74860   2.75483   2.75928   2.76609
 Alpha virt. eigenvalues --    2.77302   2.77669   2.78038   2.79770   2.81841
 Alpha virt. eigenvalues --    2.82471   2.82983   2.83679   2.83688   2.84292
 Alpha virt. eigenvalues --    2.85122   2.85945   2.86528   2.87215   2.88704
 Alpha virt. eigenvalues --    2.89419   2.89734   2.89948   2.90431   2.91117
 Alpha virt. eigenvalues --    2.91690   2.92433   2.92672   2.93289   2.93482
 Alpha virt. eigenvalues --    2.94265   2.94668   2.96611   2.97157   2.97520
 Alpha virt. eigenvalues --    2.98133   2.98349   2.99557   3.01435   3.02072
 Alpha virt. eigenvalues --    3.03095   3.03312   3.06178   3.06731   3.07231
 Alpha virt. eigenvalues --    3.08377   3.08700   3.10785   3.11813   3.13023
 Alpha virt. eigenvalues --    3.13253   3.14073   3.14578   3.17556   3.18839
 Alpha virt. eigenvalues --    3.20634   3.21226   3.22443   3.24315   3.24652
 Alpha virt. eigenvalues --    3.24986   3.25702   3.26187   3.27624   3.33491
 Alpha virt. eigenvalues --    3.40666   3.41786   3.45601   3.45747   3.51742
 Alpha virt. eigenvalues --    3.53090   3.53657   3.59832   3.63034   3.65873
 Alpha virt. eigenvalues --    3.66427   3.67822   3.71383   3.74239   3.79023
 Alpha virt. eigenvalues --    3.82781
          Condensed to atoms (all electrons):
 Mulliken charges:
               1
     1  O   -0.253508
     2  O   -0.094822
     3  O   -0.289798
     4  O   -0.214323
     5  O   -0.170789
     6  O   -0.156251
     7  N    0.016075
     8  N   -0.054772
     9  N   -0.122202
    10  N   -0.264252
    11  C   -0.130353
    12  C    0.040722
    13  C   -0.141446
    14  C    0.058561
    15  C   -0.086816
    16  C    0.091247
    17  C    0.103820
    18  C   -0.051294
    19  C    0.123556
    20  C    0.022990
    21  C    0.100940
    22  C    0.113797
    23  C   -0.007795
    24  C    0.057282
    25  C   -0.202028
    26  C    0.030865
    27  C    0.084365
    28  C    0.033897
    29  C    0.094209
    30  C    0.030917
    31  C   -0.178568
    32  C    0.015751
    33  C   -0.079149
    34  C    0.104174
    35  C   -0.100308
    36  C   -0.200827
    37  C    0.099347
    38  C   -0.006962
    39  C    0.087150
    40  C    0.133533
    41  C    0.078790
    42  C    0.035758
    43  C    0.016146
    44  H    0.041762
    45  H   -0.143573
    46  H    0.007447
    47  H    0.021644
    48  H    0.044118
    49  H    0.031814
    50  H    0.020696
    51  H    0.073410
    52  H    0.150430
    53  H    0.025243
    54  H    0.028882
    55  H    0.017938
    56  H    0.176101
    57  H    0.044990
    58  H    0.042853
    59  H    0.031653
    60  H   -0.012100
    61  H    0.013913
    62  H    0.035387
    63  H   -0.007342
    64  H    0.009219
    65  H    0.024290
    66  H    0.042765
    67  H    0.012622
    68  H   -0.066011
    69  H    0.112925
    70  H    0.008288
    71  H    0.029129
    72  H   -0.014912
    73  H    0.005618
    74  H    0.039770
    75  H    0.006345
    76  H    0.029556
    77  H   -0.000046
    78  H    0.018484
    79  H   -0.013960
    80  H    0.140687
    81  H    0.202336
 Sum of Mulliken charges =  -0.00000
 Mulliken charges with hydrogens summed into heavy atoms:
               1
     1  O   -0.253508
     2  O    0.045865
     3  O   -0.087463
     4  O   -0.214323
     5  O   -0.170789
     6  O   -0.156251
     7  N    0.057837
     8  N    0.095659
     9  N    0.053899
    10  N   -0.264252
    11  C   -0.130353
    12  C    0.040722
    13  C   -0.141446
    14  C    0.058561
    15  C   -0.086816
    16  C    0.091247
    17  C   -0.039753
    18  C   -0.051294
    19  C    0.152647
    20  C    0.067108
    21  C    0.100940
    22  C    0.113797
    23  C   -0.007795
    24  C    0.109792
    25  C   -0.128618
    26  C    0.102928
    27  C    0.084365
    28  C    0.121740
    29  C    0.113762
    30  C    0.072876
    31  C   -0.169349
    32  C    0.095427
    33  C   -0.145160
    34  C    0.104174
    35  C   -0.100308
    36  C   -0.200827
    37  C    0.099347
    38  C    0.143380
    39  C    0.087150
    40  C    0.124239
    41  C    0.078790
    42  C    0.111429
    43  C    0.020623
 Electronic spatial extent (au):  <R**2>=          30469.7225
 Charge=             -0.0000 electrons
 Dipole moment (field-independent basis, Debye):
    X=             -1.9125    Y=              0.1611    Z=              0.5548  Tot=              1.9979
 Quadrupole moment (field-independent basis, Debye-Ang):
   XX=           -256.9668   YY=           -237.4000   ZZ=           -255.7154
   XY=             14.0660   XZ=             10.9204   YZ=            -16.6103
 Traceless Quadrupole moment (field-independent basis, Debye-Ang):
   XX=             -6.9394   YY=             12.6274   ZZ=             -5.6880
   XY=             14.0660   XZ=             10.9204   YZ=            -16.6103
 Octapole moment (field-independent basis, Debye-Ang**2):
  XXX=             90.2980  YYY=            131.6025  ZZZ=            -20.3819  XYY=           -176.6801
  XXY=              6.1063  XXZ=            -26.3664  XZZ=            -23.1222  YZZ=            -24.8796
  YYZ=             47.8930  XYZ=            -29.7764
 Hexadecapole moment (field-independent basis, Debye-Ang**3):
 XXXX=         -22373.5305 YYYY=         -16448.0013 ZZZZ=          -1511.2502 XXXY=            588.9311
 XXXZ=            506.3338 YYYX=            851.6983 YYYZ=           -456.2926 ZZZX=             62.8565
 ZZZY=             47.0764 XXYY=          -6523.2338 XXZZ=          -4103.8580 YYZZ=          -3102.4973
 XXYZ=           -164.2043 YYXZ=            285.6581 ZZXY=            172.0800
 N-N= 5.058356737125D+03 E-N=-1.464877160194D+04  KE= 1.930122355239D+03
 1\1\GINC-RYZEN-SSD1\SP\RB3LYP TD-FC\SVP\C33H38N4O6\PADAWAN\30-Jun-2019
 \0\\# td=(NStates=1) B3LYP/SVP\\TD\\0,1\O,0,-4.4572058414,-4.792119293
 1,1.7382591895\O,0,2.9476953676,-4.7634708963,1.4145193837\O,0,6.91833
 22146,-1.709868528,1.7164318637\O,0,3.5961313459,-3.0181809433,0.26517
 93763\O,0,7.5443231843,-0.6056219415,-0.1091904883\O,0,-2.9642867575,2
 .5379711946,-0.0459294975\N,0,-0.2805624379,-0.5139307429,-0.608319468
 1\N,0,1.5717248552,1.8182142002,-0.4668183439\N,0,-3.2844953925,-3.105
 3195788,0.583696841\N,0,-0.8459059935,2.9445248707,-0.156690693\C,0,0.
 6755487873,-2.4914245808,-1.2975218353\C,0,0.8914680806,-1.2481947706,
 -0.8899715525\C,0,-0.7282071458,-2.6590897984,-1.3285830577\C,0,-1.265
 9987061,-1.4475083927,-0.7865101169\C,0,3.7757255139,1.3813426196,-0.3
 196481812\C,0,2.4184425373,0.8281141432,-0.6321147701\C,0,2.2161086152
 ,-0.5777339192,-0.7562078658\C,0,3.5504788848,2.7337113793,-0.00890166
 31\C,0,1.7173028828,-3.4875340192,-1.7639165927\C,0,-5.6171210473,-2.6
 126531749,1.3731672567\C,0,-3.6408761505,-1.9058456466,0.0460383888\C,
 0,2.0935636166,3.0053969679,0.0010826313\C,0,-5.0747836747,-1.61565706
 89,0.3569343323\C,0,5.1522637045,0.7362932993,-0.4369967561\C,0,-2.645
 7855408,-1.1525220238,-0.5823386483\C,0,-1.3737353112,-3.926707173,-1.
 8071739611\C,0,-4.3926867355,-3.6512436301,1.2292820428\C,0,1.97652812
 88,-4.4823704567,-0.7552383796\C,0,5.4341732936,-0.1276788318,0.738021
 9083\C,0,4.5008558718,3.7242236537,0.2819903828\C,0,1.2704582872,4.132
 1176193,0.1182419437\C,0,-6.9638575164,-3.2084282226,0.998919358\C,0,-
 5.7982984323,-0.6270074306,-0.2080922836\C,0,-0.053740363,3.9995546271
 ,0.1173703626\C,0,-0.8514461063,5.1971408071,0.393523981\C,0,-2.185413
 8676,4.760442167,0.4885302559\C,0,3.0164844897,-4.0694435635,0.2945508
 541\C,0,-5.4467993407,0.4481200406,-1.0842194889\C,0,6.7171042766,-0.7
 715654406,0.6752406467\C,0,-3.5375095103,5.4458708853,0.6373145466\C,0
 ,-2.1155549918,3.3409962909,0.0453754623\C,0,-0.4180759451,6.651278995
 9,0.6808031701\C,0,-4.2150500419,5.7880472096,-0.7106818439\H,0,-0.412
 4388088,0.3041761232,-0.2590464579\H,0,2.9310971243,-1.1795099531,-0.8
 936588745\H,0,2.6241236633,-2.9833030372,-2.0654189766\H,0,1.226259405
 2,-3.9117030879,-2.729455312\H,0,-5.5217639826,-2.2748458737,2.3885110
 116\H,0,5.3943797482,-0.0893442179,-1.2193150845\H,0,5.9971216778,1.49
 31336227,-0.3617174713\H,0,-2.9409521909,-0.0011956234,-0.9001129169\H
 ,0,0.5175880905,1.8474759306,-0.4459040625\H,0,-1.5107366649,-4.684150
 5193,-1.0129220979\H,0,-2.4813517649,-3.7913968417,-2.2189112113\H,0,-
 0.9799879499,-4.3328914635,-2.7286064636\H,0,-2.4394076986,-3.78489463
 79,0.5558928363\H,0,1.0574215489,-4.8056330458,-0.2206557831\H,0,2.437
 6429501,-5.3597586844,-1.3105955735\H,0,4.857830204,-1.0004961007,0.86
 62372099\H,0,5.4147956792,0.4878832249,1.5232167924\H,0,4.4156590862,4
 .6832787953,-0.2929592786\H,0,5.7616027831,3.5358163008,0.3264691701\H
 ,0,4.3891283302,4.1747329814,1.2133126352\H,0,1.6156273947,5.242394169
 ,0.214181205\H,0,-7.7482976014,-2.494785473,1.2196766617\H,0,-7.122737
 9181,-4.2674245084,1.4782301909\H,0,-7.1803462186,-3.5540631698,-0.043
 4027511\H,0,-6.7728946312,-0.6323635677,-0.0320312752\H,0,-4.840798921
 7,1.3373779347,-0.5358774358\H,0,-6.2955213818,1.0371713454,-1.6325699
 355\H,0,-4.9325417497,0.0268895352,-1.9672079335\H,0,-3.4093008094,6.2
 93381994,1.2544831523\H,0,-4.2702247,4.7757067029,1.1054226801\H,0,0.1
 969542607,6.8336553254,1.5769804305\H,0,-1.2403054138,7.3630029958,0.7
 394432007\H,0,0.0649356812,7.2211906196,-0.2938230481\H,0,-3.613391635
 ,6.4163275159,-1.3867064867\H,0,-5.2780896321,6.274520193,-0.627967938
 5\H,0,-4.3507195931,4.95577707,-1.2543851769\H,0,3.3428895955,-4.23247
 74779,2.0190305401\H,0,7.7780850532,-2.1476854208,1.2603862012\\Versio
 n=ES64L-G16RevA.03\State=1-A\HF=-1949.0695149\RMSD=4.700e-09\PG=C01 [X
 (C33H38N4O6)]\\@


 A SOLDIER'S LIFE IS A LIFE OF HONOR, BUT A DOG WOULD NOT LEAD IT.
 -- PRINCE RUPERT, FOUNDER OF THE HUDSON'S BAY COMPANY
 Job cpu time:       0 days 17 hours  4 minutes 47.5 seconds.
 Elapsed time:       0 days  4 hours 17 minutes 22.3 seconds.
 File lengths (MBytes):  RWF=   2591 Int=      0 D2E=      0 Chk=     65 Scr=      1
 Normal termination of Gaussian 16 at Sun Jun 30 01:51:44 2019.
