 Entering Gaussian System, Link 0=g16
 Input=Geometria-110-.com
 Output=Geometria-110-.log
 Initial command:
 /usr/local/g16/l1.exe "/home/padawan/israel-mol/phycocyanobilin/spectra/abs/Gau-43748.inp" -scrdir="/home/padawan/israel-mol/phycocyanobilin/spectra/abs/"
 Entering Link 1 = /usr/local/g16/l1.exe PID=     43750.
  
 Copyright (c) 1988,1990,1992,1993,1995,1998,2003,2009,2016,
            Gaussian, Inc.  All Rights Reserved.
  
 This is part of the Gaussian(R) 16 program.  It is based on
 the Gaussian(R) 09 system (copyright 2009, Gaussian, Inc.),
 the Gaussian(R) 03 system (copyright 2003, Gaussian, Inc.),
 the Gaussian(R) 98 system (copyright 1998, Gaussian, Inc.),
 the Gaussian(R) 94 system (copyright 1995, Gaussian, Inc.),
 the Gaussian 92(TM) system (copyright 1992, Gaussian, Inc.),
 the Gaussian 90(TM) system (copyright 1990, Gaussian, Inc.),
 the Gaussian 88(TM) system (copyright 1988, Gaussian, Inc.),
 the Gaussian 86(TM) system (copyright 1986, Carnegie Mellon
 University), and the Gaussian 82(TM) system (copyright 1983,
 Carnegie Mellon University). Gaussian is a federally registered
 trademark of Gaussian, Inc.
  
 This software contains proprietary and confidential information,
 including trade secrets, belonging to Gaussian, Inc.
  
 This software is provided under written license and may be
 used, copied, transmitted, or stored only in accord with that
 written license.
  
 The following legend is applicable only to US Government
 contracts under FAR:
  
                    RESTRICTED RIGHTS LEGEND
  
 Use, reproduction and disclosure by the US Government is
 subject to restrictions as set forth in subparagraphs (a)
 and (c) of the Commercial Computer Software - Restricted
 Rights clause in FAR 52.227-19.
  
 Gaussian, Inc.
 340 Quinnipiac St., Bldg. 40, Wallingford CT 06492
  
  
 ---------------------------------------------------------------
 Warning -- This program may not be used in any manner that
 competes with the business of Gaussian, Inc. or will provide
 assistance to any competitor of Gaussian, Inc.  The licensee
 of this program is prohibited from giving any competitor of
 Gaussian, Inc. access to this program.  By using this program,
 the user acknowledges that Gaussian, Inc. is engaged in the
 business of creating and licensing software in the field of
 computational chemistry and represents and warrants to the
 licensee that it is not a competitor of Gaussian, Inc. and that
 it will not use this program in any manner prohibited above.
 ---------------------------------------------------------------
  

 Cite this work as:
 Gaussian 16, Revision A.03,
 M. J. Frisch, G. W. Trucks, H. B. Schlegel, G. E. Scuseria, 
 M. A. Robb, J. R. Cheeseman, G. Scalmani, V. Barone, 
 G. A. Petersson, H. Nakatsuji, X. Li, M. Caricato, A. V. Marenich, 
 J. Bloino, B. G. Janesko, R. Gomperts, B. Mennucci, H. P. Hratchian, 
 J. V. Ortiz, A. F. Izmaylov, J. L. Sonnenberg, D. Williams-Young, 
 F. Ding, F. Lipparini, F. Egidi, J. Goings, B. Peng, A. Petrone, 
 T. Henderson, D. Ranasinghe, V. G. Zakrzewski, J. Gao, N. Rega, 
 G. Zheng, W. Liang, M. Hada, M. Ehara, K. Toyota, R. Fukuda, 
 J. Hasegawa, M. Ishida, T. Nakajima, Y. Honda, O. Kitao, H. Nakai, 
 T. Vreven, K. Throssell, J. A. Montgomery, Jr., J. E. Peralta, 
 F. Ogliaro, M. J. Bearpark, J. J. Heyd, E. N. Brothers, K. N. Kudin, 
 V. N. Staroverov, T. A. Keith, R. Kobayashi, J. Normand, 
 K. Raghavachari, A. P. Rendell, J. C. Burant, S. S. Iyengar, 
 J. Tomasi, M. Cossi, J. M. Millam, M. Klene, C. Adamo, R. Cammi, 
 J. W. Ochterski, R. L. Martin, K. Morokuma, O. Farkas, 
 J. B. Foresman, and D. J. Fox, Gaussian, Inc., Wallingford CT, 2016.
 
 ******************************************
 Gaussian 16:  ES64L-G16RevA.03 25-Dec-2016
                29-Jun-2019 
 ******************************************
 %nproc=4
 Will use up to    4 processors via shared memory.
 %Mem=4GB
 --------------------------
 # td=(NStates=1) B3LYP/SVP
 --------------------------
 1/38=1,172=1/1;
 2/12=2,17=6,18=5,40=1/2;
 3/5=18,7=101,11=9,25=1,30=1,74=-5/1,2,3,8;
 4//1;
 5/5=2,38=5/2;
 8/6=1,10=1,108=1/1;
 9/41=1,42=1,70=2/14;
 6/7=2,8=2,9=2,10=2/1;
 99/5=1,9=1/99;
 --
 TD
 --
 Symbolic Z-matrix:
 Charge =  0 Multiplicity = 1
 8                    -4.41953  -4.83516   1.77992 
 8                     2.97796  -4.72266   1.34688 
 8                     6.91004  -1.53654   1.91764 
 8                     3.84218  -3.1826    0.00789 
 8                     7.52812  -0.74558  -0.12194 
 8                    -2.98006   2.43287  -0.18091 
 7                    -0.33166  -0.58883  -0.66542 
 7                     1.57757   1.78903  -0.32284 
 7                    -3.47131  -3.0905    0.56574 
 7                    -0.73837   2.91458  -0.11493 
 6                     0.65843  -2.41279  -1.34889 
 6                     0.88739  -1.09341  -0.9653 
 6                    -0.76277  -2.6498   -1.298 
 6                    -1.37982  -1.49699  -0.80315 
 6                     3.79315   1.4701   -0.33787 
 6                     2.4738    0.82344  -0.55156 
 6                     2.12307  -0.53703  -0.80244 
 6                     3.53757   2.7635   -0.05759 
 6                     1.65362  -3.40961  -1.9359 
 6                    -5.51318  -2.56365   1.38463 
 6                    -3.61964  -1.81587   0.04643 
 6                     2.13523   2.98802  -0.05975 
 6                    -5.11489  -1.48223   0.39802 
 6                     5.17698   0.78453  -0.36471 
 6                    -2.66447  -1.08259  -0.45393 
 6                    -1.39195  -3.99763  -1.71089 
 6                    -4.47064  -3.72275   1.269 
 6                     2.04951  -4.51007  -0.8749 
 6                     5.31597  -0.15095   0.80497 
 6                     4.58197   3.84842   0.29426 
 6                     1.30919   4.10427   0.16944 
 6                    -6.89309  -3.13371   1.12595 
 6                    -5.89517  -0.46284  -0.1025 
 6                    -0.05179   4.08326   0.07137 
 6                    -0.95041   5.22892   0.49699 
 6                    -2.14469   4.69572   0.33432 
 6                     2.99937  -4.04797   0.22916 
 6                    -5.48647   0.49289  -1.03561 
 6                     6.72597  -0.86075   0.84436 
 6                    -3.58473   5.27217   0.45811 
 6                    -2.0609    3.25114  -0.00833 
 6                    -0.44675   6.57821   0.82784 
 6                    -4.16149   5.69272  -0.83217 
 1                    -0.45175   0.1483   -0.13821 
 1                     2.98163  -1.3606   -0.8652 
 1                     2.51304  -3.04709  -2.25211 
 1                     1.23605  -3.90871  -2.76273 
 1                    -5.63251  -2.20502   2.40498 
 1                     5.09299  -0.07739  -1.18843 
 1                     5.90187   1.49784  -0.55019 
 1                    -2.77038   0.02225  -0.64682 
 1                     0.59674   1.81433  -0.76743 
 1                    -1.19801  -4.85815  -1.01924 
 1                    -2.48077  -3.96349  -1.81421 
 1                    -1.09051  -4.25356  -2.80517 
 1                    -2.72109  -3.77772   0.29332 
 1                     1.16321  -4.85206  -0.42073 
 1                     2.59186  -5.31158  -1.37913 
 1                     4.61448  -1.03829   0.71464 
 1                     5.08131   0.27179   1.8592 
 1                     4.94599   4.72236  -0.51382 
 1                     5.53414   3.23746   0.5767 
 1                     4.11207   4.69479   1.11426 
 1                     1.65077   5.12196   0.13947 
 1                    -7.61329  -2.40246   1.32109 
 1                    -6.94594  -4.05836   1.85544 
 1                    -7.07402  -3.33353  -0.05105 
 1                    -6.90894  -0.46082   0.35429 
 1                    -4.75282   1.28795  -0.542 
 1                    -6.34571   0.9477   -1.46861 
 1                    -4.88367  -0.06277  -1.84112 
 1                    -3.58294   6.19322   1.20206 
 1                    -4.3362    4.50459   0.99388 
 1                     0.32729   6.38558   1.56472 
 1                    -1.12994   7.39832   1.20235 
 1                     0.11682   7.06342   0.04221 
 1                    -3.70283   6.60434  -1.39688 
 1                    -5.22672   5.82788  -0.58159 
 1                    -4.24706   4.97131  -1.69404 
 1                     3.79034  -4.42428   1.86733 
 1                     7.9347   -1.90614   2.02638 
 
 Stoichiometry    C33H38N4O6
 Framework group  C1[X(C33H38N4O6)]
 Deg. of freedom   237
 Full point group                 C1      NOp   1
 Largest Abelian subgroup         C1      NOp   1
 Largest concise Abelian subgroup C1      NOp   1
                         Standard orientation:                         
 ---------------------------------------------------------------------
 Center     Atomic      Atomic             Coordinates (Angstroms)
 Number     Number       Type             X           Y           Z
 ---------------------------------------------------------------------
      1          8           0       -4.395402   -4.860773    1.768059
      2          8           0        3.001544   -4.708804    1.337772
      3          8           0        6.916742   -1.503298    1.915989
      4          8           0        3.858152   -3.161685    0.002035
      5          8           0        7.531361   -0.705203   -0.121862
      6          8           0       -2.993256    2.418430   -0.178344
      7          7           0       -0.328948   -0.588461   -0.667730
      8          7           0        1.567715    1.798675   -0.319945
      9          7           0       -3.455905   -3.108852    0.557544
     10          7           0       -0.754132    2.911714   -0.110665
     11          6           0        0.670877   -2.405909   -1.354359
     12          6           0        0.892816   -1.086093   -0.968163
     13          6           0       -0.749080   -2.650438   -1.304414
     14          6           0       -1.372307   -1.501822   -0.807568
     15          6           0        3.784937    1.491349   -0.334823
     16          6           0        2.469055    0.838221   -0.550202
     17          6           0        2.125520   -0.523581   -0.803816
     18          6           0        3.522512    2.782859   -0.052148
     19          6           0        1.671455   -3.396389   -1.942944
     20          6           0       -5.500768   -2.594246    1.376745
     21          6           0       -3.610718   -1.834018    0.040631
     22          6           0        2.119020    3.000047   -0.054365
     23          6           0       -5.107800   -1.508874    0.392347
     24          6           0        5.172337    0.813065   -0.362502
     25          6           0       -2.659217   -1.094799   -0.457988
     26          6           0       -1.371071   -4.000745   -1.720108
     27          6           0       -4.452154   -3.747664    1.259248
     28          6           0        2.072733   -4.496808   -0.883917
     29          6           0        5.315827   -0.123919    0.805428
     30          6           0        4.561121    3.872533    0.302138
     31          6           0        1.287089    4.111536    0.176682
     32          6           0       -6.877596   -3.171009    1.116503
     33          6           0       -5.893228   -0.492612   -0.106485
     34          6           0       -0.073733    4.083605    0.078104
     35          6           0       -0.978462    5.223738    0.505620
     36          6           0       -2.169890    4.684614    0.341519
     37          6           0        3.019806   -4.031872    0.221357
     38          6           0       -5.489220    0.467034   -1.037623
     39          6           0        6.729496   -0.826423    0.843939
     40          6           0       -3.612967    5.253304    0.465912
     41          6           0       -2.078442    3.241153   -0.003877
     42          6           0       -0.481969    6.575001    0.839223
     43          6           0       -4.191486    5.673306   -0.823758
     44          1           0       -0.453067    0.147017   -0.139158
     45          1           0        2.988394   -1.342532   -0.867854
     46          1           0        2.529081   -3.028783   -2.258158
     47          1           0        1.256777   -3.896082   -2.770868
     48          1           0       -5.622304   -2.238203    2.397744
     49          1           0        5.093128   -0.047701   -1.187905
     50          1           0        5.893559    1.530512   -0.546362
     51          1           0       -2.770830    0.009832   -0.648798
     52          1           0        0.586915    1.819706   -0.764815
     53          1           0       -1.172867   -4.861560   -1.030041
     54          1           0       -2.460024   -3.972094   -1.823732
     55          1           0       -1.067935   -4.252996   -2.814773
     56          1           0       -2.702007   -3.791626    0.284065
     57          1           0        1.188087   -4.844288   -0.430703
     58          1           0        2.619433   -5.294506   -1.389499
     59          1           0        4.619006   -1.014734    0.713159
     60          1           0        5.078612    0.295569    1.860387
     61          1           0        4.920838    4.749918   -0.504142
     62          1           0        5.516371    3.266014    0.583736
     63          1           0        4.086530    4.714871    1.123600
     64          1           0        1.623357    5.131049    0.148787
     65          1           0       -7.601674   -2.443902    1.312792
     66          1           0       -6.925858   -4.097324    1.844196
     67          1           0       -7.057083   -3.369512   -0.060946
     68          1           0       -6.907147   -0.496758    0.349959
     69          1           0       -4.759894    1.264965   -0.542231
     70          1           0       -6.350672    0.918179   -1.470044
     71          1           0       -4.883251   -0.083927   -1.843981
     72          1           0       -3.616229    6.172920    1.211628
     73          1           0       -4.360593    4.480780    0.999956
     74          1           0        0.292817    6.385001    1.575999
     75          1           0       -1.169563    7.390806    1.215072
     76          1           0        0.079320    7.064657    0.054721
     77          1           0       -3.737402    6.588390   -1.386555
     78          1           0       -5.257491    5.802418   -0.573284
     79          1           0       -4.272995    4.953116   -1.687034
     80          1           0        3.812187   -4.407185    1.859065
     81          1           0        7.943281   -1.867750    2.024372
 ---------------------------------------------------------------------
 Rotational constants (GHZ):           0.0758310           0.0550506           0.0340694
 Standard basis: SVP (5D, 7F)
 There are   835 symmetry adapted cartesian basis functions of A   symmetry.
 There are   792 symmetry adapted basis functions of A   symmetry.
   792 basis functions,  1341 primitive gaussians,   835 cartesian basis functions
   156 alpha electrons      156 beta electrons
       nuclear repulsion energy      5047.9812434252 Hartrees.
 NAtoms=   81 NActive=   81 NUniq=   81 SFac= 1.00D+00 NAtFMM=   60 NAOKFM=T Big=T
 Integral buffers will be    131072 words long.
 Regular integral format.
 Two-electron integral symmetry is turned on.
 One-electron integrals computed using PRISM.
 NBasis=   792 RedAO= T EigKep=  3.09D-04  NBF=   792
 NBsUse=   792 1.00D-06 EigRej= -1.00D+00 NBFU=   792
 ExpMin= 1.22D-01 ExpMax= 2.27D+03 ExpMxC= 3.41D+02 IAcc=3 IRadAn=         5 AccDes= 0.00D+00
 Harris functional with IExCor=  402 and IRadAn=       5 diagonalized for initial guess.
 HarFok:  IExCor=  402 AccDes= 0.00D+00 IRadAn=         5 IDoV= 1 UseB2=F ITyADJ=14
 ICtDFT=  3500011 ScaDFX=  1.000000  1.000000  1.000000  1.000000
 FoFCou: FMM=F IPFlag=           0 FMFlag=      100000 FMFlg1=        2001
         NFxFlg=           0 DoJE=T BraDBF=F KetDBF=T FulRan=T
         wScrn=  0.000000 ICntrl=       500 IOpCl=  0 I1Cent=   200000004 NGrid=           0
         NMat0=    1 NMatS0=      1 NMatT0=    0 NMatD0=    1 NMtDS0=    0 NMtDT0=    0
 Petite list used in FoFCou.
 Requested convergence on RMS density matrix=1.00D-08 within 128 cycles.
 Requested convergence on MAX density matrix=1.00D-06.
 Requested convergence on             energy=1.00D-06.
 No special actions if energy rises.
 Integral accuracy reduced to 1.0D-05 until final iterations.
 Initial convergence to 1.0D-05 achieved.  Increase integral accuracy.
 SCF Done:  E(RB3LYP) =  -1949.15436768     A.U. after   16 cycles
            NFock= 16  Conv=0.93D-08     -V/T= 2.0106
 DoSCS=F DFT=T ScalE2(SS,OS)=  1.000000  1.000000
 ExpMin= 1.22D-01 ExpMax= 2.27D+03 ExpMxC= 3.41D+02 IAcc=3 IRadAn=         5 AccDes= 0.00D+00
 HarFok:  IExCor=  205 AccDes= 0.00D+00 IRadAn=         5 IDoV=-2 UseB2=F ITyADJ=14
 ICtDFT= 12500011 ScaDFX=  1.000000  1.000000  1.000000  1.000000
 GSVD:  LWork=       -2193 too small for GESVD, short by        9890 words or        9890 for optimal perf.
 Range of M.O.s used for correlation:    44   792
 NBasis=   792 NAE=   156 NBE=   156 NFC=    43 NFV=     0
 NROrb=    749 NOA=   113 NOB=   113 NVA=   636 NVB=   636

 **** Warning!!: The smallest alpha delta epsilon is  0.76287577D-01

 Orbital symmetries:
       Occupied  (A) (A) (A) (A) (A) (A) (A) (A) (A) (A) (A) (A)
                 (A) (A) (A) (A) (A) (A) (A) (A) (A) (A) (A) (A)
                 (A) (A) (A) (A) (A) (A) (A) (A) (A) (A) (A) (A)
                 (A) (A) (A) (A) (A) (A) (A) (A) (A) (A) (A) (A)
                 (A) (A) (A) (A) (A) (A) (A) (A) (A) (A) (A) (A)
                 (A) (A) (A) (A) (A) (A) (A) (A) (A) (A) (A) (A)
                 (A) (A) (A) (A) (A) (A) (A) (A) (A) (A) (A) (A)
                 (A) (A) (A) (A) (A) (A) (A) (A) (A) (A) (A) (A)
                 (A) (A) (A) (A) (A) (A) (A) (A) (A) (A) (A) (A)
                 (A) (A) (A) (A) (A) (A) (A) (A) (A) (A) (A) (A)
                 (A) (A) (A) (A) (A) (A) (A) (A) (A) (A) (A) (A)
                 (A) (A) (A) (A) (A) (A) (A) (A) (A) (A) (A) (A)
                 (A) (A) (A) (A) (A) (A) (A) (A) (A) (A) (A) (A)
       Virtual   (A) (A) (A) (A) (A) (A) (A) (A) (A) (A) (A) (A)
                 (A) (A) (A) (A) (A) (A) (A) (A) (A) (A) (A) (A)
                 (A) (A) (A) (A) (A) (A) (A) (A) (A) (A) (A) (A)
                 (A) (A) (A) (A) (A) (A) (A) (A) (A) (A) (A) (A)
                 (A) (A) (A) (A) (A) (A) (A) (A) (A) (A) (A) (A)
                 (A) (A) (A) (A) (A) (A) (A) (A) (A) (A) (A) (A)
                 (A) (A) (A) (A) (A) (A) (A) (A) (A) (A) (A) (A)
                 (A) (A) (A) (A) (A) (A) (A) (A) (A) (A) (A) (A)
                 (A) (A) (A) (A) (A) (A) (A) (A) (A) (A) (A) (A)
                 (A) (A) (A) (A) (A) (A) (A) (A) (A) (A) (A) (A)
                 (A) (A) (A) (A) (A) (A) (A) (A) (A) (A) (A) (A)
                 (A) (A) (A) (A) (A) (A) (A) (A) (A) (A) (A) (A)
                 (A) (A) (A) (A) (A) (A) (A) (A) (A) (A) (A) (A)
                 (A) (A) (A) (A) (A) (A) (A) (A) (A) (A) (A) (A)
                 (A) (A) (A) (A) (A) (A) (A) (A) (A) (A) (A) (A)
                 (A) (A) (A) (A) (A) (A) (A) (A) (A) (A) (A) (A)
                 (A) (A) (A) (A) (A) (A) (A) (A) (A) (A) (A) (A)
                 (A) (A) (A) (A) (A) (A) (A) (A) (A) (A) (A) (A)
                 (A) (A) (A) (A) (A) (A) (A) (A) (A) (A) (A) (A)
                 (A) (A) (A) (A) (A) (A) (A) (A) (A) (A) (A) (A)
                 (A) (A) (A) (A) (A) (A) (A) (A) (A) (A) (A) (A)
                 (A) (A) (A) (A) (A) (A) (A) (A) (A) (A) (A) (A)
                 (A) (A) (A) (A) (A) (A) (A) (A) (A) (A) (A) (A)
                 (A) (A) (A) (A) (A) (A) (A) (A) (A) (A) (A) (A)
                 (A) (A) (A) (A) (A) (A) (A) (A) (A) (A) (A) (A)
                 (A) (A) (A) (A) (A) (A) (A) (A) (A) (A) (A) (A)
                 (A) (A) (A) (A) (A) (A) (A) (A) (A) (A) (A) (A)
                 (A) (A) (A) (A) (A) (A) (A) (A) (A) (A) (A) (A)
                 (A) (A) (A) (A) (A) (A) (A) (A) (A) (A) (A) (A)
                 (A) (A) (A) (A) (A) (A) (A) (A) (A) (A) (A) (A)
                 (A) (A) (A) (A) (A) (A) (A) (A) (A) (A) (A) (A)
                 (A) (A) (A) (A) (A) (A) (A) (A) (A) (A) (A) (A)
                 (A) (A) (A) (A) (A) (A) (A) (A) (A) (A) (A) (A)
                 (A) (A) (A) (A) (A) (A) (A) (A) (A) (A) (A) (A)
                 (A) (A) (A) (A) (A) (A) (A) (A) (A) (A) (A) (A)
                 (A) (A) (A) (A) (A) (A) (A) (A) (A) (A) (A) (A)
                 (A) (A) (A) (A) (A) (A) (A) (A) (A) (A) (A) (A)
                 (A) (A) (A) (A) (A) (A) (A) (A) (A) (A) (A) (A)
                 (A) (A) (A) (A) (A) (A) (A) (A) (A) (A) (A) (A)
                 (A) (A) (A) (A) (A) (A) (A) (A) (A) (A) (A) (A)
                 (A) (A) (A) (A) (A) (A) (A) (A) (A) (A) (A) (A)
                 (A) (A) (A) (A) (A) (A) (A) (A) (A) (A) (A) (A)
                 (A) (A) (A) (A) (A) (A) (A) (A) (A) (A) (A) (A)
                 (A) (A) (A) (A) (A) (A) (A) (A) (A) (A) (A) (A)
                 (A) (A) (A) (A) (A) (A) (A) (A) (A) (A) (A) (A)
                 (A) (A) (A) (A) (A) (A) (A) (A) (A) (A) (A) (A)
                 (A) (A) (A) (A) (A) (A) (A) (A) (A) (A) (A) (A)
                 (A) (A) (A) (A) (A) (A) (A) (A) (A) (A) (A) (A)
                 (A) (A) (A) (A) (A) (A) (A) (A) (A) (A) (A) (A)
                 (A) (A) (A) (A) (A) (A) (A) (A) (A) (A) (A) (A)
                 (A) (A) (A) (A) (A) (A) (A) (A) (A) (A) (A) (A)
                 (A) (A) (A) (A) (A) (A) (A) (A) (A) (A) (A) (A)
                 (A) (A) (A) (A) (A) (A) (A) (A) (A) (A) (A) (A)
     4 initial guesses have been made.
 Convergence on wavefunction:    0.001000000000000
 Iteration     1 Dimension     4 NMult     0 NNew      4
 CISAX will form     4 AO SS matrices at one time.
 Iteration     2 Dimension     6 NMult     4 NNew      2
 Iteration     3 Dimension     8 NMult     6 NNew      2
 Iteration     4 Dimension    10 NMult     8 NNew      2
 Iteration     5 Dimension    12 NMult    10 NNew      2
 Iteration     6 Dimension    14 NMult    12 NNew      2
 Iteration     7 Dimension    16 NMult    14 NNew      2
 ***********************************************************************
 Excited states from <AA,BB:AA,BB> singles matrix:
 ***********************************************************************
 
 Ground to excited state transition densities written to RWF  633
 Ground to excited state transition electric dipole moments (Au):
       state          X           Y           Z        Dip. S.      Osc.
         1         0.8566      2.7566      0.2473      8.3938      0.4035
 Ground to excited state transition velocity dipole moments (Au):
       state          X           Y           Z        Dip. S.      Osc.
         1        -0.0619     -0.1908     -0.0177      0.0406      0.3750
 Ground to excited state transition magnetic dipole moments (Au):
       state          X           Y           Z
         1        -0.3500      0.5395     -2.3527
 Ground to excited state transition velocity quadrupole moments (Au):
       state          XX          YY          ZZ          XY          XZ          YZ
         1         0.4020     -0.6131      0.0825      0.3953     -0.0485     -0.0064
 <0|del|b> * <b|rxdel|0> + <0|del|b> * <b|delr+rdel|0>
 Rotatory Strengths (R) in cgs (10**-40 erg-esu-cm/Gauss)
       state          XX          YY          ZZ    R(velocity)    E-M Angle
         1      -380.1901    346.9808   -355.0846   -129.4313       94.62
 1/2[<0|r|b>*<b|rxdel|0> + (<0|rxdel|b>*<b|r|0>)*]
 Rotatory Strengths (R) in cgs (10**-40 erg-esu-cm/Gauss)
       state          XX          YY          ZZ     R(length)
         1       212.0456  -1051.6385    411.3686   -142.7415
  1/2[<0|del|b>*<b|r|0> + (<0|r|b>*<b|del|0>)*] (Au)
       state          X           Y           Z        Dip. S.   Osc.(frdel)
         1        -0.0530     -0.5260     -0.0044      0.5835      0.3890

 Excitation energies and oscillator strengths:
 
 Excited State   1:      Singlet-A      1.9620 eV  631.91 nm  f=0.4035  <S**2>=0.000
     156 ->157         0.70701
     156 <-157        -0.12243
 This state for optimization and/or second-order correction.
 Total Energy, E(TD-HF/TD-DFT) =  -1949.08226397    
 Copying the excited state density for this state as the 1-particle RhoCI density.
 SavETr:  write IOETrn=   770 NScale= 10 NData=  16 NLR=1 NState=    1 LETran=      28.

 **********************************************************************

            Population analysis using the SCF density.

 **********************************************************************

 Orbital symmetries:
       Occupied  (A) (A) (A) (A) (A) (A) (A) (A) (A) (A) (A) (A)
                 (A) (A) (A) (A) (A) (A) (A) (A) (A) (A) (A) (A)
                 (A) (A) (A) (A) (A) (A) (A) (A) (A) (A) (A) (A)
                 (A) (A) (A) (A) (A) (A) (A) (A) (A) (A) (A) (A)
                 (A) (A) (A) (A) (A) (A) (A) (A) (A) (A) (A) (A)
                 (A) (A) (A) (A) (A) (A) (A) (A) (A) (A) (A) (A)
                 (A) (A) (A) (A) (A) (A) (A) (A) (A) (A) (A) (A)
                 (A) (A) (A) (A) (A) (A) (A) (A) (A) (A) (A) (A)
                 (A) (A) (A) (A) (A) (A) (A) (A) (A) (A) (A) (A)
                 (A) (A) (A) (A) (A) (A) (A) (A) (A) (A) (A) (A)
                 (A) (A) (A) (A) (A) (A) (A) (A) (A) (A) (A) (A)
                 (A) (A) (A) (A) (A) (A) (A) (A) (A) (A) (A) (A)
                 (A) (A) (A) (A) (A) (A) (A) (A) (A) (A) (A) (A)
       Virtual   (A) (A) (A) (A) (A) (A) (A) (A) (A) (A) (A) (A)
                 (A) (A) (A) (A) (A) (A) (A) (A) (A) (A) (A) (A)
                 (A) (A) (A) (A) (A) (A) (A) (A) (A) (A) (A) (A)
                 (A) (A) (A) (A) (A) (A) (A) (A) (A) (A) (A) (A)
                 (A) (A) (A) (A) (A) (A) (A) (A) (A) (A) (A) (A)
                 (A) (A) (A) (A) (A) (A) (A) (A) (A) (A) (A) (A)
                 (A) (A) (A) (A) (A) (A) (A) (A) (A) (A) (A) (A)
                 (A) (A) (A) (A) (A) (A) (A) (A) (A) (A) (A) (A)
                 (A) (A) (A) (A) (A) (A) (A) (A) (A) (A) (A) (A)
                 (A) (A) (A) (A) (A) (A) (A) (A) (A) (A) (A) (A)
                 (A) (A) (A) (A) (A) (A) (A) (A) (A) (A) (A) (A)
                 (A) (A) (A) (A) (A) (A) (A) (A) (A) (A) (A) (A)
                 (A) (A) (A) (A) (A) (A) (A) (A) (A) (A) (A) (A)
                 (A) (A) (A) (A) (A) (A) (A) (A) (A) (A) (A) (A)
                 (A) (A) (A) (A) (A) (A) (A) (A) (A) (A) (A) (A)
                 (A) (A) (A) (A) (A) (A) (A) (A) (A) (A) (A) (A)
                 (A) (A) (A) (A) (A) (A) (A) (A) (A) (A) (A) (A)
                 (A) (A) (A) (A) (A) (A) (A) (A) (A) (A) (A) (A)
                 (A) (A) (A) (A) (A) (A) (A) (A) (A) (A) (A) (A)
                 (A) (A) (A) (A) (A) (A) (A) (A) (A) (A) (A) (A)
                 (A) (A) (A) (A) (A) (A) (A) (A) (A) (A) (A) (A)
                 (A) (A) (A) (A) (A) (A) (A) (A) (A) (A) (A) (A)
                 (A) (A) (A) (A) (A) (A) (A) (A) (A) (A) (A) (A)
                 (A) (A) (A) (A) (A) (A) (A) (A) (A) (A) (A) (A)
                 (A) (A) (A) (A) (A) (A) (A) (A) (A) (A) (A) (A)
                 (A) (A) (A) (A) (A) (A) (A) (A) (A) (A) (A) (A)
                 (A) (A) (A) (A) (A) (A) (A) (A) (A) (A) (A) (A)
                 (A) (A) (A) (A) (A) (A) (A) (A) (A) (A) (A) (A)
                 (A) (A) (A) (A) (A) (A) (A) (A) (A) (A) (A) (A)
                 (A) (A) (A) (A) (A) (A) (A) (A) (A) (A) (A) (A)
                 (A) (A) (A) (A) (A) (A) (A) (A) (A) (A) (A) (A)
                 (A) (A) (A) (A) (A) (A) (A) (A) (A) (A) (A) (A)
                 (A) (A) (A) (A) (A) (A) (A) (A) (A) (A) (A) (A)
                 (A) (A) (A) (A) (A) (A) (A) (A) (A) (A) (A) (A)
                 (A) (A) (A) (A) (A) (A) (A) (A) (A) (A) (A) (A)
                 (A) (A) (A) (A) (A) (A) (A) (A) (A) (A) (A) (A)
                 (A) (A) (A) (A) (A) (A) (A) (A) (A) (A) (A) (A)
                 (A) (A) (A) (A) (A) (A) (A) (A) (A) (A) (A) (A)
                 (A) (A) (A) (A) (A) (A) (A) (A) (A) (A) (A) (A)
                 (A) (A) (A) (A) (A) (A) (A) (A) (A) (A) (A) (A)
                 (A) (A) (A) (A) (A) (A) (A) (A) (A) (A) (A) (A)
                 (A) (A) (A) (A) (A) (A) (A) (A) (A) (A) (A) (A)
                 (A) (A) (A) (A) (A) (A) (A) (A) (A) (A) (A) (A)
                 (A) (A) (A) (A) (A) (A) (A) (A) (A) (A) (A) (A)
                 (A) (A) (A) (A) (A) (A) (A) (A) (A) (A) (A) (A)
                 (A) (A) (A) (A) (A) (A) (A) (A) (A) (A) (A) (A)
                 (A) (A) (A) (A) (A) (A) (A) (A) (A) (A) (A) (A)
                 (A) (A) (A) (A) (A) (A) (A) (A) (A) (A) (A) (A)
                 (A) (A) (A) (A) (A) (A) (A) (A) (A) (A) (A) (A)
                 (A) (A) (A) (A) (A) (A) (A) (A) (A) (A) (A) (A)
                 (A) (A) (A) (A) (A) (A) (A) (A) (A) (A) (A) (A)
                 (A) (A) (A) (A) (A) (A) (A) (A) (A) (A) (A) (A)
                 (A) (A) (A) (A) (A) (A) (A) (A) (A) (A) (A) (A)
 The electronic state is 1-A.
 Alpha  occ. eigenvalues --  -19.21394 -19.20717 -19.14121 -19.11705 -19.11424
 Alpha  occ. eigenvalues --  -19.09317 -14.37175 -14.36532 -14.35920 -14.27641
 Alpha  occ. eigenvalues --  -10.33964 -10.32089 -10.29345 -10.25150 -10.24455
 Alpha  occ. eigenvalues --  -10.23643 -10.23569 -10.23490 -10.22905 -10.22656
 Alpha  occ. eigenvalues --  -10.22043 -10.21800 -10.21773 -10.21436 -10.21118
 Alpha  occ. eigenvalues --  -10.20683 -10.20523 -10.20242 -10.20148 -10.20067
 Alpha  occ. eigenvalues --  -10.19986 -10.19910 -10.19825 -10.19818 -10.19517
 Alpha  occ. eigenvalues --  -10.19516 -10.19421 -10.19004 -10.18491 -10.17956
 Alpha  occ. eigenvalues --  -10.17901 -10.17853 -10.17462  -1.12986  -1.10461
 Alpha  occ. eigenvalues --   -1.03189  -1.01919  -1.00021  -0.99582  -0.99101
 Alpha  occ. eigenvalues --   -0.98047  -0.95261  -0.90951  -0.82944  -0.82014
 Alpha  occ. eigenvalues --   -0.81723  -0.81143  -0.79746  -0.79030  -0.78323
 Alpha  occ. eigenvalues --   -0.77279  -0.76761  -0.75937  -0.74982  -0.72448
 Alpha  occ. eigenvalues --   -0.70532  -0.70157  -0.69367  -0.68980  -0.67427
 Alpha  occ. eigenvalues --   -0.67166  -0.65855  -0.63729  -0.62638  -0.62069
 Alpha  occ. eigenvalues --   -0.60801  -0.60047  -0.58656  -0.58135  -0.56776
 Alpha  occ. eigenvalues --   -0.56377  -0.55601  -0.55051  -0.53878  -0.52940
 Alpha  occ. eigenvalues --   -0.52276  -0.51831  -0.51518  -0.50919  -0.50023
 Alpha  occ. eigenvalues --   -0.49756  -0.49322  -0.48444  -0.48239  -0.47898
 Alpha  occ. eigenvalues --   -0.47441  -0.46926  -0.46362  -0.46017  -0.45354
 Alpha  occ. eigenvalues --   -0.44980  -0.44646  -0.44032  -0.43897  -0.43546
 Alpha  occ. eigenvalues --   -0.43365  -0.43083  -0.42692  -0.42042  -0.41822
 Alpha  occ. eigenvalues --   -0.41642  -0.41597  -0.41058  -0.40674  -0.40637
 Alpha  occ. eigenvalues --   -0.40345  -0.40152  -0.40014  -0.39877  -0.39652
 Alpha  occ. eigenvalues --   -0.39283  -0.38986  -0.38823  -0.38423  -0.38189
 Alpha  occ. eigenvalues --   -0.37897  -0.37822  -0.37557  -0.37087  -0.36959
 Alpha  occ. eigenvalues --   -0.36290  -0.35723  -0.35491  -0.34883  -0.34736
 Alpha  occ. eigenvalues --   -0.34241  -0.34180  -0.33596  -0.32634  -0.32227
 Alpha  occ. eigenvalues --   -0.31974  -0.31344  -0.30927  -0.30016  -0.29658
 Alpha  occ. eigenvalues --   -0.27070  -0.26625  -0.26515  -0.26393  -0.25637
 Alpha  occ. eigenvalues --   -0.25400  -0.24624  -0.23648  -0.23349  -0.21783
 Alpha  occ. eigenvalues --   -0.18121
 Alpha virt. eigenvalues --   -0.10492  -0.05137  -0.03378  -0.01774  -0.00341
 Alpha virt. eigenvalues --    0.00031   0.01141   0.02306   0.02703   0.03468
 Alpha virt. eigenvalues --    0.03561   0.03892   0.04731   0.05459   0.06234
 Alpha virt. eigenvalues --    0.06816   0.07452   0.08132   0.08549   0.08823
 Alpha virt. eigenvalues --    0.08994   0.09238   0.09448   0.09565   0.09767
 Alpha virt. eigenvalues --    0.09923   0.10484   0.10676   0.10796   0.10955
 Alpha virt. eigenvalues --    0.11381   0.11932   0.12126   0.12612   0.13017
 Alpha virt. eigenvalues --    0.13327   0.13384   0.13933   0.14570   0.14625
 Alpha virt. eigenvalues --    0.14691   0.14973   0.15411   0.15481   0.15754
 Alpha virt. eigenvalues --    0.16334   0.16931   0.17516   0.17924   0.18196
 Alpha virt. eigenvalues --    0.18361   0.18562   0.19583   0.19847   0.19979
 Alpha virt. eigenvalues --    0.20152   0.20363   0.21190   0.21529   0.22295
 Alpha virt. eigenvalues --    0.22510   0.23093   0.23154   0.23726   0.23948
 Alpha virt. eigenvalues --    0.24479   0.24632   0.24675   0.25324   0.26080
 Alpha virt. eigenvalues --    0.26757   0.27123   0.27380   0.27776   0.28093
 Alpha virt. eigenvalues --    0.28364   0.28933   0.29611   0.30260   0.30721
 Alpha virt. eigenvalues --    0.31734   0.32483   0.32968   0.33490   0.33588
 Alpha virt. eigenvalues --    0.34228   0.35087   0.35746   0.36326   0.36857
 Alpha virt. eigenvalues --    0.37075   0.37862   0.38151   0.38394   0.39427
 Alpha virt. eigenvalues --    0.39555   0.40158   0.40989   0.41561   0.42024
 Alpha virt. eigenvalues --    0.42192   0.42558   0.42732   0.42922   0.43556
 Alpha virt. eigenvalues --    0.43602   0.44008   0.44081   0.44537   0.44743
 Alpha virt. eigenvalues --    0.45085   0.45501   0.45878   0.46235   0.46330
 Alpha virt. eigenvalues --    0.46584   0.47210   0.47390   0.47793   0.48448
 Alpha virt. eigenvalues --    0.48604   0.48807   0.49188   0.49529   0.49847
 Alpha virt. eigenvalues --    0.49980   0.50220   0.50766   0.51203   0.51476
 Alpha virt. eigenvalues --    0.51693   0.52151   0.52662   0.53091   0.53496
 Alpha virt. eigenvalues --    0.54155   0.54256   0.54667   0.54991   0.55352
 Alpha virt. eigenvalues --    0.55709   0.56638   0.57040   0.57179   0.57808
 Alpha virt. eigenvalues --    0.58088   0.58417   0.58794   0.59057   0.59164
 Alpha virt. eigenvalues --    0.59841   0.60145   0.60288   0.60705   0.60971
 Alpha virt. eigenvalues --    0.61156   0.61423   0.61750   0.61929   0.62021
 Alpha virt. eigenvalues --    0.62209   0.62498   0.62903   0.63149   0.63251
 Alpha virt. eigenvalues --    0.63485   0.63654   0.63802   0.63924   0.64205
 Alpha virt. eigenvalues --    0.64710   0.65066   0.65294   0.65572   0.65748
 Alpha virt. eigenvalues --    0.66136   0.66361   0.66555   0.66616   0.66866
 Alpha virt. eigenvalues --    0.67069   0.67154   0.67481   0.67637   0.68092
 Alpha virt. eigenvalues --    0.68323   0.68650   0.68836   0.69069   0.69365
 Alpha virt. eigenvalues --    0.69760   0.70006   0.70417   0.70623   0.71069
 Alpha virt. eigenvalues --    0.71283   0.71708   0.71743   0.72255   0.72520
 Alpha virt. eigenvalues --    0.72742   0.72933   0.73370   0.73701   0.73780
 Alpha virt. eigenvalues --    0.73965   0.74375   0.74869   0.75115   0.75548
 Alpha virt. eigenvalues --    0.75961   0.76387   0.76513   0.77100   0.77159
 Alpha virt. eigenvalues --    0.77989   0.78657   0.79149   0.80156   0.80305
 Alpha virt. eigenvalues --    0.80778   0.81195   0.81563   0.81980   0.82664
 Alpha virt. eigenvalues --    0.83257   0.84084   0.84849   0.85214   0.85982
 Alpha virt. eigenvalues --    0.86359   0.87283   0.88072   0.88978   0.89714
 Alpha virt. eigenvalues --    0.89808   0.90294   0.90655   0.91166   0.92099
 Alpha virt. eigenvalues --    0.92351   0.93159   0.93230   0.93411   0.93926
 Alpha virt. eigenvalues --    0.94411   0.94926   0.95165   0.95783   0.96273
 Alpha virt. eigenvalues --    0.97115   0.97871   0.99099   0.99533   1.00019
 Alpha virt. eigenvalues --    1.00637   1.00731   1.01599   1.02548   1.03835
 Alpha virt. eigenvalues --    1.03997   1.04905   1.05274   1.05541   1.06602
 Alpha virt. eigenvalues --    1.08144   1.09432   1.09509   1.10014   1.10558
 Alpha virt. eigenvalues --    1.10921   1.11807   1.12417   1.13566   1.14002
 Alpha virt. eigenvalues --    1.14296   1.15392   1.16086   1.16747   1.17781
 Alpha virt. eigenvalues --    1.18276   1.18931   1.19306   1.19805   1.20098
 Alpha virt. eigenvalues --    1.21485   1.21815   1.22264   1.22623   1.22847
 Alpha virt. eigenvalues --    1.23430   1.24131   1.24854   1.25374   1.26128
 Alpha virt. eigenvalues --    1.26692   1.27271   1.28091   1.28674   1.28862
 Alpha virt. eigenvalues --    1.29773   1.30090   1.31791   1.32229   1.32848
 Alpha virt. eigenvalues --    1.33648   1.34034   1.34417   1.36052   1.37069
 Alpha virt. eigenvalues --    1.37889   1.38765   1.38830   1.39418   1.40403
 Alpha virt. eigenvalues --    1.41208   1.42029   1.42611   1.43034   1.43441
 Alpha virt. eigenvalues --    1.44013   1.44234   1.44624   1.45046   1.45394
 Alpha virt. eigenvalues --    1.45914   1.46245   1.47335   1.47619   1.48193
 Alpha virt. eigenvalues --    1.49038   1.49371   1.49563   1.50575   1.50762
 Alpha virt. eigenvalues --    1.51344   1.51780   1.52702   1.53765   1.54009
 Alpha virt. eigenvalues --    1.54424   1.54773   1.55251   1.55869   1.56336
 Alpha virt. eigenvalues --    1.56916   1.57535   1.58019   1.58734   1.59320
 Alpha virt. eigenvalues --    1.59820   1.61154   1.61652   1.62083   1.63393
 Alpha virt. eigenvalues --    1.63816   1.64068   1.64480   1.64796   1.65173
 Alpha virt. eigenvalues --    1.66197   1.66696   1.67002   1.67532   1.67983
 Alpha virt. eigenvalues --    1.68801   1.68846   1.69356   1.69562   1.69873
 Alpha virt. eigenvalues --    1.70063   1.70450   1.70840   1.71155   1.72040
 Alpha virt. eigenvalues --    1.72389   1.72749   1.73081   1.73502   1.74333
 Alpha virt. eigenvalues --    1.74658   1.75175   1.75433   1.75644   1.76176
 Alpha virt. eigenvalues --    1.76394   1.76764   1.77193   1.77909   1.77986
 Alpha virt. eigenvalues --    1.78072   1.78938   1.79027   1.79637   1.80319
 Alpha virt. eigenvalues --    1.80733   1.81122   1.81257   1.81421   1.81971
 Alpha virt. eigenvalues --    1.82413   1.82769   1.83079   1.83220   1.83359
 Alpha virt. eigenvalues --    1.83846   1.84344   1.84685   1.85166   1.85574
 Alpha virt. eigenvalues --    1.85725   1.86322   1.86366   1.87060   1.87372
 Alpha virt. eigenvalues --    1.88066   1.88692   1.88869   1.89106   1.90002
 Alpha virt. eigenvalues --    1.90319   1.90882   1.91134   1.91267   1.92151
 Alpha virt. eigenvalues --    1.92374   1.92958   1.93236   1.93415   1.93982
 Alpha virt. eigenvalues --    1.94657   1.95194   1.95374   1.95782   1.96135
 Alpha virt. eigenvalues --    1.96783   1.96928   1.97829   1.97887   1.98432
 Alpha virt. eigenvalues --    1.99191   1.99857   2.00370   2.00914   2.00959
 Alpha virt. eigenvalues --    2.01819   2.02722   2.03071   2.03295   2.03747
 Alpha virt. eigenvalues --    2.04233   2.04873   2.05442   2.05637   2.05988
 Alpha virt. eigenvalues --    2.06559   2.06840   2.07656   2.08348   2.08880
 Alpha virt. eigenvalues --    2.09971   2.10091   2.10647   2.11918   2.12439
 Alpha virt. eigenvalues --    2.13147   2.13853   2.14486   2.14693   2.15029
 Alpha virt. eigenvalues --    2.15830   2.16415   2.17152   2.17300   2.17497
 Alpha virt. eigenvalues --    2.18264   2.18547   2.19165   2.20144   2.20705
 Alpha virt. eigenvalues --    2.20783   2.22371   2.22807   2.23849   2.24317
 Alpha virt. eigenvalues --    2.24911   2.26143   2.26986   2.27376   2.27812
 Alpha virt. eigenvalues --    2.27959   2.28633   2.29122   2.30249   2.30871
 Alpha virt. eigenvalues --    2.31075   2.32964   2.33103   2.33668   2.34279
 Alpha virt. eigenvalues --    2.34508   2.35706   2.36072   2.37176   2.37398
 Alpha virt. eigenvalues --    2.38561   2.38792   2.39953   2.40941   2.41145
 Alpha virt. eigenvalues --    2.42068   2.42666   2.42861   2.43339   2.44450
 Alpha virt. eigenvalues --    2.45175   2.45779   2.47252   2.47824   2.48368
 Alpha virt. eigenvalues --    2.48908   2.49296   2.49969   2.50901   2.51299
 Alpha virt. eigenvalues --    2.51900   2.53586   2.54232   2.54742   2.55192
 Alpha virt. eigenvalues --    2.56384   2.57147   2.57926   2.59116   2.60072
 Alpha virt. eigenvalues --    2.60506   2.62042   2.62318   2.62795   2.63902
 Alpha virt. eigenvalues --    2.64475   2.65179   2.65427   2.66174   2.66442
 Alpha virt. eigenvalues --    2.67118   2.67527   2.68313   2.68938   2.69537
 Alpha virt. eigenvalues --    2.70890   2.71574   2.71864   2.72527   2.73215
 Alpha virt. eigenvalues --    2.73486   2.74045   2.74930   2.75602   2.75900
 Alpha virt. eigenvalues --    2.76252   2.76714   2.76884   2.77974   2.78860
 Alpha virt. eigenvalues --    2.79890   2.80315   2.81166   2.82277   2.82587
 Alpha virt. eigenvalues --    2.83771   2.84896   2.85676   2.86036   2.87178
 Alpha virt. eigenvalues --    2.87500   2.87762   2.88232   2.88982   2.89181
 Alpha virt. eigenvalues --    2.90696   2.90877   2.92309   2.92335   2.92687
 Alpha virt. eigenvalues --    2.93792   2.94542   2.95243   2.95427   2.96154
 Alpha virt. eigenvalues --    2.96417   2.97167   2.98865   2.99230   3.00072
 Alpha virt. eigenvalues --    3.00927   3.01171   3.02917   3.03634   3.04082
 Alpha virt. eigenvalues --    3.05770   3.06599   3.06975   3.08489   3.10183
 Alpha virt. eigenvalues --    3.11363   3.13243   3.15752   3.16239   3.17173
 Alpha virt. eigenvalues --    3.17708   3.18326   3.19176   3.21968   3.22115
 Alpha virt. eigenvalues --    3.23213   3.23993   3.25907   3.26674   3.31661
 Alpha virt. eigenvalues --    3.35001   3.40573   3.42422   3.43926   3.46999
 Alpha virt. eigenvalues --    3.50814   3.52199   3.55473   3.59573   3.62708
 Alpha virt. eigenvalues --    3.63668   3.64708   3.65925   3.67570   3.70701
 Alpha virt. eigenvalues --    3.70844
          Condensed to atoms (all electrons):
 Mulliken charges:
               1
     1  O   -0.222950
     2  O   -0.144180
     3  O   -0.182768
     4  O   -0.264215
     5  O   -0.288060
     6  O   -0.237946
     7  N    0.001033
     8  N   -0.053887
     9  N   -0.143448
    10  N   -0.299009
    11  C   -0.136628
    12  C    0.057944
    13  C   -0.153374
    14  C    0.078329
    15  C   -0.094661
    16  C    0.027289
    17  C   -0.120034
    18  C   -0.066062
    19  C    0.231864
    20  C   -0.082114
    21  C    0.152154
    22  C    0.103215
    23  C   -0.038206
    24  C    0.157382
    25  C   -0.153786
    26  C    0.022529
    27  C    0.161990
    28  C    0.030861
    29  C   -0.085191
    30  C   -0.061902
    31  C   -0.093666
    32  C   -0.003976
    33  C   -0.129078
    34  C    0.023174
    35  C   -0.067812
    36  C   -0.162086
    37  C    0.111753
    38  C    0.048776
    39  C    0.147052
    40  C    0.024000
    41  C    0.147321
    42  C    0.105777
    43  C   -0.011659
    44  H    0.072361
    45  H    0.070020
    46  H   -0.041026
    47  H   -0.019434
    48  H    0.036783
    49  H    0.036987
    50  H    0.000408
    51  H    0.044945
    52  H    0.176053
    53  H    0.050172
    54  H    0.017027
    55  H    0.039441
    56  H    0.130006
    57  H    0.008932
    58  H    0.044567
    59  H    0.061231
    60  H    0.034717
    61  H    0.049628
    62  H    0.046033
    63  H    0.045626
    64  H   -0.038474
    65  H   -0.001258
    66  H    0.053660
    67  H    0.020434
    68  H   -0.013517
    69  H    0.117153
    70  H   -0.000295
    71  H    0.033481
    72  H    0.005557
    73  H    0.031770
    74  H    0.012516
    75  H    0.026041
    76  H    0.017990
    77  H    0.018331
    78  H    0.005825
    79  H    0.017967
    80  H    0.208691
    81  H    0.243905
 Sum of Mulliken charges =  -0.00000
 Mulliken charges with hydrogens summed into heavy atoms:
               1
     1  O   -0.222950
     2  O    0.064511
     3  O    0.061137
     4  O   -0.264215
     5  O   -0.288060
     6  O   -0.237946
     7  N    0.073394
     8  N    0.122166
     9  N   -0.013442
    10  N   -0.299009
    11  C   -0.136628
    12  C    0.057944
    13  C   -0.153374
    14  C    0.078329
    15  C   -0.094661
    16  C    0.027289
    17  C   -0.050013
    18  C   -0.066062
    19  C    0.171405
    20  C   -0.045331
    21  C    0.152154
    22  C    0.103215
    23  C   -0.038206
    24  C    0.194777
    25  C   -0.108841
    26  C    0.129169
    27  C    0.161990
    28  C    0.084361
    29  C    0.010757
    30  C    0.079385
    31  C   -0.132141
    32  C    0.068861
    33  C   -0.142595
    34  C    0.023174
    35  C   -0.067812
    36  C   -0.162086
    37  C    0.111753
    38  C    0.199115
    39  C    0.147052
    40  C    0.061327
    41  C    0.147321
    42  C    0.162323
    43  C    0.030464
 Electronic spatial extent (au):  <R**2>=          30431.9978
 Charge=             -0.0000 electrons
 Dipole moment (field-independent basis, Debye):
    X=              3.5799    Y=             -0.6501    Z=              0.6903  Tot=              3.7033
 Quadrupole moment (field-independent basis, Debye-Ang):
   XX=           -251.7871   YY=           -237.3739   ZZ=           -251.8566
   XY=            -21.3924   XZ=             24.1206   YZ=             10.0079
 Traceless Quadrupole moment (field-independent basis, Debye-Ang):
   XX=             -4.7813   YY=              9.6320   ZZ=             -4.8507
   XY=            -21.3924   XZ=             24.1206   YZ=             10.0079
 Octapole moment (field-independent basis, Debye-Ang**2):
  XXX=             36.1946  YYY=            100.5324  ZZZ=             23.4363  XYY=            218.7337
  XXY=            -30.5868  XXZ=            166.6558  XZZ=             59.1103  YZZ=            -38.8321
  YYZ=            -42.6796  XYZ=            -81.4360
 Hexadecapole moment (field-independent basis, Debye-Ang**3):
 XXXX=         -21992.9171 YYYY=         -16150.4804 ZZZZ=          -1582.6228 XXXY=          -1071.2177
 XXXZ=           1417.6238 YYYX=           -965.8195 YYYZ=            392.2949 ZZZX=            122.6196
 ZZZY=            -71.2064 XXYY=          -6579.1173 XXZZ=          -3795.7428 YYZZ=          -3060.1358
 XXYZ=           -213.7990 YYXZ=            330.1261 ZZXY=           -256.6190
 N-N= 5.047981243425D+03 E-N=-1.462776521378D+04  KE= 1.928763074749D+03
 1\1\GINC-RYZEN-SSD1\SP\RB3LYP TD-FC\SVP\C33H38N4O6\PADAWAN\29-Jun-2019
 \0\\# td=(NStates=1) B3LYP/SVP\\TD\\0,1\O,0,-4.419532074,-4.8351635976
 ,1.7799233559\O,0,2.9779583939,-4.7226568149,1.3468826201\O,0,6.910041
 3855,-1.5365411952,1.9176419847\O,0,3.8421759504,-3.1825973849,0.00789
 36478\O,0,7.5281215642,-0.7455759369,-0.1219417635\O,0,-2.9800583346,2
 .4328706846,-0.1809129959\N,0,-0.3316575475,-0.5888282326,-0.665415177
 7\N,0,1.5775654392,1.7890312819,-0.3228439465\N,0,-3.4713140744,-3.090
 4980966,0.5657350448\N,0,-0.7383652394,2.9145818764,-0.1149265166\C,0,
 0.6584270751,-2.412786717,-1.3488869718\C,0,0.8873876726,-1.093409292,
 -0.9652990852\C,0,-0.7627706022,-2.6497988693,-1.2979999994\C,0,-1.379
 8200882,-1.4969933412,-0.8031517811\C,0,3.793147256,1.4701014954,-0.33
 78700034\C,0,2.4737980728,0.8234436762,-0.5515567143\C,0,2.1230693112,
 -0.5370298488,-0.8024424892\C,0,3.5375675937,2.7635043586,-0.057586531
 6\C,0,1.6536165142,-3.4096062264,-1.9359037914\C,0,-5.5131806533,-2.56
 36482744,1.3846284028\C,0,-3.6196440273,-1.8158666487,0.0464284278\C,0
 ,2.135227783,2.9880152297,-0.0597534523\C,0,-5.1148876851,-1.482233726
 6,0.3980184407\C,0,5.1769761757,0.7845281228,-0.3647095274\C,0,-2.6644
 674089,-1.0825850301,-0.453925807\C,0,-1.3919471324,-3.9976342657,-1.7
 108943331\C,0,-4.4706445313,-3.7227507808,1.2689960142\C,0,2.049505426
 5,-4.510073227,-0.8749003458\C,0,5.3159714734,-0.150951159,0.804968603
 \C,0,4.5819739836,3.8484160729,0.29426161\C,0,1.3091921606,4.104274835
 ,0.1694370632\C,0,-6.8930904396,-3.1337107509,1.1259520613\C,0,-5.8951
 681193,-0.462841014,-0.1025017246\C,0,-0.051790168,4.0832629979,0.0713
 657622\C,0,-0.9504060023,5.2289239854,0.496994328\C,0,-2.1446897952,4.
 6957156944,0.3343248354\C,0,2.9993727786,-4.0479714162,0.2291643154\C,
 0,-5.4864733081,0.4928945181,-1.0356146285\C,0,6.7259651627,-0.8607543
 595,0.8443575584\C,0,-3.5847342327,5.2721735156,0.4581066258\C,0,-2.06
 08995263,3.251137305,-0.0083299082\C,0,-0.4467488124,6.5782116892,0.82
 78378736\C,0,-4.1614946864,5.6927176767,-0.8321739931\H,0,-0.451752740
 2,0.1483005357,-0.1382143747\H,0,2.9816321778,-1.3605980619,-0.8651960
 282\H,0,2.5130425552,-3.0470894158,-2.2521076455\H,0,1.2360503843,-3.9
 087127889,-2.7627286394\H,0,-5.6325050567,-2.205018891,2.4049826588\H,
 0,5.0929896092,-0.0773930228,-1.1884319962\H,0,5.9018721528,1.49784409
 37,-0.5501863182\H,0,-2.7703751332,0.0222467209,-0.6468175874\H,0,0.59
 67360053,1.8143326163,-0.7674262147\H,0,-1.1980053917,-4.858147919,-1.
 01924273\H,0,-2.4807717069,-3.9634940514,-1.8142107413\H,0,-1.09050900
 2,-4.2535635308,-2.8051741204\H,0,-2.7210858664,-3.7777239208,0.293316
 5787\H,0,1.1632121279,-4.8520576883,-0.4207257901\H,0,2.5918583716,-5.
 3115838669,-1.3791324271\H,0,4.6144758686,-1.0382898801,0.7146420504\H
 ,0,5.0813123308,0.2717916158,1.8592003907\H,0,4.9459921195,4.722362703
 7,-0.5138213648\H,0,5.5341400368,3.2374564648,0.5767041936\H,0,4.11207
 06245,4.6947949876,1.1142627302\H,0,1.6507709091,5.1219621258,0.139473
 7343\H,0,-7.613294101,-2.4024562401,1.3210868027\H,0,-6.9459402383,-4.
 0583636023,1.8554379117\H,0,-7.0740155856,-3.3335311166,-0.0510535162\
 H,0,-6.9089382355,-0.4608164129,0.3542873566\H,0,-4.7528201238,1.28795
 29922,-0.5419980479\H,0,-6.3457064003,0.9477023985,-1.4686135399\H,0,-
 4.8836668622,-0.0627694307,-1.8411153242\H,0,-3.5829381731,6.193221978
 ,1.2020579098\H,0,-4.3362012976,4.5045895912,0.993881526\H,0,0.3272872
 94,6.385580518,1.5647192044\H,0,-1.1299443777,7.3983165272,1.202349491
 3\H,0,0.1168208697,7.063424843,0.0422105553\H,0,-3.7028305789,6.604336
 3167,-1.3968775039\H,0,-5.2267244955,5.8278755286,-0.581593301\H,0,-4.
 247059227,4.9713086232,-1.6940391423\H,0,3.7903443409,-4.4242766579,1.
 8673253695\H,0,7.9347007148,-1.9061412664,2.0263828009\\Version=ES64L-
 G16RevA.03\State=1-A\HF=-1949.1543677\RMSD=9.278e-09\PG=C01 [X(C33H38N
 4O6)]\\@


 THERE'S A SUCKER BORN EVERY MINUTE

              -- PHINEAS TAYLOR (P.T.) BARNUM
 Job cpu time:       0 days 17 hours 53 minutes 15.7 seconds.
 Elapsed time:       0 days  4 hours 29 minutes 34.4 seconds.
 File lengths (MBytes):  RWF=   2591 Int=      0 D2E=      0 Chk=     65 Scr=      1
 Normal termination of Gaussian 16 at Sat Jun 29 08:03:09 2019.
