 Entering Gaussian System, Link 0=g16
 Input=Geometria-407-.com
 Output=Geometria-407-.log
 Initial command:
 /usr/local/g16/l1.exe "/home/padawan/israel-mol/phycocyanobilin/spectra/abs/Gau-84649.inp" -scrdir="/home/padawan/israel-mol/phycocyanobilin/spectra/abs/"
 Entering Link 1 = /usr/local/g16/l1.exe PID=     84651.
  
 Copyright (c) 1988,1990,1992,1993,1995,1998,2003,2009,2016,
            Gaussian, Inc.  All Rights Reserved.
  
 This is part of the Gaussian(R) 16 program.  It is based on
 the Gaussian(R) 09 system (copyright 2009, Gaussian, Inc.),
 the Gaussian(R) 03 system (copyright 2003, Gaussian, Inc.),
 the Gaussian(R) 98 system (copyright 1998, Gaussian, Inc.),
 the Gaussian(R) 94 system (copyright 1995, Gaussian, Inc.),
 the Gaussian 92(TM) system (copyright 1992, Gaussian, Inc.),
 the Gaussian 90(TM) system (copyright 1990, Gaussian, Inc.),
 the Gaussian 88(TM) system (copyright 1988, Gaussian, Inc.),
 the Gaussian 86(TM) system (copyright 1986, Carnegie Mellon
 University), and the Gaussian 82(TM) system (copyright 1983,
 Carnegie Mellon University). Gaussian is a federally registered
 trademark of Gaussian, Inc.
  
 This software contains proprietary and confidential information,
 including trade secrets, belonging to Gaussian, Inc.
  
 This software is provided under written license and may be
 used, copied, transmitted, or stored only in accord with that
 written license.
  
 The following legend is applicable only to US Government
 contracts under FAR:
  
                    RESTRICTED RIGHTS LEGEND
  
 Use, reproduction and disclosure by the US Government is
 subject to restrictions as set forth in subparagraphs (a)
 and (c) of the Commercial Computer Software - Restricted
 Rights clause in FAR 52.227-19.
  
 Gaussian, Inc.
 340 Quinnipiac St., Bldg. 40, Wallingford CT 06492
  
  
 ---------------------------------------------------------------
 Warning -- This program may not be used in any manner that
 competes with the business of Gaussian, Inc. or will provide
 assistance to any competitor of Gaussian, Inc.  The licensee
 of this program is prohibited from giving any competitor of
 Gaussian, Inc. access to this program.  By using this program,
 the user acknowledges that Gaussian, Inc. is engaged in the
 business of creating and licensing software in the field of
 computational chemistry and represents and warrants to the
 licensee that it is not a competitor of Gaussian, Inc. and that
 it will not use this program in any manner prohibited above.
 ---------------------------------------------------------------
  

 Cite this work as:
 Gaussian 16, Revision A.03,
 M. J. Frisch, G. W. Trucks, H. B. Schlegel, G. E. Scuseria, 
 M. A. Robb, J. R. Cheeseman, G. Scalmani, V. Barone, 
 G. A. Petersson, H. Nakatsuji, X. Li, M. Caricato, A. V. Marenich, 
 J. Bloino, B. G. Janesko, R. Gomperts, B. Mennucci, H. P. Hratchian, 
 J. V. Ortiz, A. F. Izmaylov, J. L. Sonnenberg, D. Williams-Young, 
 F. Ding, F. Lipparini, F. Egidi, J. Goings, B. Peng, A. Petrone, 
 T. Henderson, D. Ranasinghe, V. G. Zakrzewski, J. Gao, N. Rega, 
 G. Zheng, W. Liang, M. Hada, M. Ehara, K. Toyota, R. Fukuda, 
 J. Hasegawa, M. Ishida, T. Nakajima, Y. Honda, O. Kitao, H. Nakai, 
 T. Vreven, K. Throssell, J. A. Montgomery, Jr., J. E. Peralta, 
 F. Ogliaro, M. J. Bearpark, J. J. Heyd, E. N. Brothers, K. N. Kudin, 
 V. N. Staroverov, T. A. Keith, R. Kobayashi, J. Normand, 
 K. Raghavachari, A. P. Rendell, J. C. Burant, S. S. Iyengar, 
 J. Tomasi, M. Cossi, J. M. Millam, M. Klene, C. Adamo, R. Cammi, 
 J. W. Ochterski, R. L. Martin, K. Morokuma, O. Farkas, 
 J. B. Foresman, and D. J. Fox, Gaussian, Inc., Wallingford CT, 2016.
 
 ******************************************
 Gaussian 16:  ES64L-G16RevA.03 25-Dec-2016
                 6-Jul-2019 
 ******************************************
 %nproc=4
 Will use up to    4 processors via shared memory.
 %Mem=4GB
 --------------------------
 # td=(NStates=1) B3LYP/SVP
 --------------------------
 1/38=1,172=1/1;
 2/12=2,17=6,18=5,40=1/2;
 3/5=18,7=101,11=9,25=1,30=1,74=-5/1,2,3,8;
 4//1;
 5/5=2,38=5/2;
 8/6=1,10=1,108=1/1;
 9/41=1,42=1,70=2/14;
 6/7=2,8=2,9=2,10=2/1;
 99/5=1,9=1/99;
 --
 TD
 --
 Symbolic Z-matrix:
 Charge =  0 Multiplicity = 1
 8                    -4.55645  -4.81609   1.81128 
 8                     3.12835  -4.87664   1.10582 
 8                     7.09995  -1.43426   2.0089 
 8                     3.77951  -3.15432  -0.07461 
 8                     7.77073  -0.49814   0.051 
 8                    -3.11805   2.58007  -0.17231 
 7                    -0.33833  -0.50685  -0.4304 
 7                     1.66122   1.87302  -0.38022 
 7                    -3.40838  -3.22313   0.65379 
 7                    -0.70302   2.86459   0.00951 
 6                     0.54375  -2.36466  -1.35833 
 6                     0.85646  -1.09336  -0.88276 
 6                    -0.82007  -2.58973  -1.30078 
 6                    -1.39514  -1.44736  -0.79146 
 6                     3.81035   1.34898  -0.30901 
 6                     2.44023   0.74283  -0.51829 
 6                     2.15765  -0.50385  -0.86473 
 6                     3.67557   2.71963  -0.01747 
 6                     1.6349   -3.3528   -1.91773 
 6                    -5.54557  -2.66167   1.34481 
 6                    -3.65002  -1.93127   0.10073 
 6                     2.22328   2.94518  -0.00508 
 6                    -5.03756  -1.5688    0.40123 
 6                     5.17021   0.63798  -0.37899 
 6                    -2.7666   -1.01698  -0.49646 
 6                    -1.64505  -3.7277   -1.9172 
 6                    -4.52733  -3.72264   1.29844 
 6                     1.9617   -4.47645  -0.85254 
 6                     5.38051  -0.2454    0.82744 
 6                     4.56869   3.80501   0.44648 
 6                     1.36322   4.1275    0.24776 
 6                    -6.96653  -3.19501   1.232 
 6                    -5.86966  -0.64021  -0.03848 
 6                    -0.0139    4.01969   0.25564 
 6                    -0.96519   5.22326   0.43059 
 6                    -2.16913   4.71368   0.3521 
 6                     2.99536  -4.04712   0.06607 
 6                    -5.59008   0.51577  -1.05658 
 6                     6.80592  -0.79192   0.76608 
 6                    -3.55155   5.24956   0.34215 
 6                    -2.09958   3.22003  -0.00994 
 6                    -0.49642   6.70049   0.57294 
 6                    -4.02445   5.60352  -1.12853 
 1                    -0.43374   0.34238   0.015 
 1                     2.85449  -1.34238  -0.97189 
 1                     2.51563  -2.75058  -2.18452 
 1                     1.18005  -3.73532  -2.89766 
 1                    -5.3662   -2.22603   2.48178 
 1                     5.14158   0.01119  -1.30007 
 1                     6.04639   1.20623  -0.54123 
 1                    -3.05797   0.00579  -0.6704 
 1                     0.64135   1.73943  -0.41664 
 1                    -1.46126  -4.58072  -1.17227 
 1                    -2.7527   -3.57896  -1.99447 
 1                    -1.23136  -3.84259  -2.78137 
 1                    -2.49348  -3.63012   0.68004 
 1                     1.02457  -4.89212  -0.22904 
 1                     2.33182  -5.27451  -1.33896 
 1                     4.79133  -0.98192   0.76134 
 1                     5.1418    0.27688   1.92106 
 1                     4.19174   4.6775   -0.1817 
 1                     5.76554   3.35755   0.08181 
 1                     4.54733   4.07427   1.46296 
 1                     2.02964   5.0674    0.67738 
 1                    -7.62269  -2.3846    1.7255 
 1                    -7.10969  -4.03306   1.91903 
 1                    -7.21256  -3.63025   0.2094 
 1                    -6.76194  -0.84123   0.47848 
 1                    -5.06532   1.37471  -0.63321 
 1                    -6.64341   0.76727  -1.42506 
 1                    -5.18507   0.07261  -2.12696 
 1                    -3.55621   6.14896   0.98573 
 1                    -4.2381    4.69372   0.92305 
 1                     0.36661   6.65724   1.16202 
 1                    -1.25932   7.25812   0.87205 
 1                    -0.10594   7.09015  -0.49622 
 1                    -3.53621   6.32869  -1.84382 
 1                    -5.20271   6.13114  -1.05571 
 1                    -4.36482   4.5847   -1.67323 
 1                     3.94942  -4.63378   1.58258 
 1                     7.91559  -1.79912   1.94144 
 
 Stoichiometry    C33H38N4O6
 Framework group  C1[X(C33H38N4O6)]
 Deg. of freedom   237
 Full point group                 C1      NOp   1
 Largest Abelian subgroup         C1      NOp   1
 Largest concise Abelian subgroup C1      NOp   1
                         Standard orientation:                         
 ---------------------------------------------------------------------
 Center     Atomic      Atomic             Coordinates (Angstroms)
 Number     Number       Type             X           Y           Z
 ---------------------------------------------------------------------
      1          8           0        4.669967   -4.716395   -1.786380
      2          8           0       -3.007571   -4.966915   -1.044668
      3          8           0       -7.070144   -1.636434   -1.962556
      4          8           0       -3.697521   -3.250370    0.122056
      5          8           0       -7.756110   -0.698680   -0.010705
      6          8           0        3.050951    2.659549    0.132207
      7          7           0        0.352534   -0.494900    0.433070
      8          7           0       -1.707643    1.832350    0.369152
      9          7           0        3.486492   -3.142115   -0.639044
     10          7           0        0.628638    2.880305   -0.041132
     11          6           0       -0.477478   -2.365526    1.383019
     12          6           0       -0.824811   -1.107372    0.896630
     13          6           0        0.891395   -2.556132    1.321315
     14          6           0        1.434716   -1.404441    0.798298
     15          6           0       -3.842902    1.252745    0.313001
     16          6           0       -2.456774    0.683974    0.521774
     17          6           0       -2.140768   -0.551597    0.878940
     18          6           0       -3.744631    2.623478    0.007593
     19          6           0       -1.540445   -3.375773    1.957023
     20          6           0        5.605514   -2.532871   -1.345388
     21          6           0        3.697324   -1.839131   -0.099640
     22          6           0       -2.298672    2.886033   -0.013732
     23          6           0        5.073772   -1.444192   -0.410072
     24          6           0       -5.183741    0.507859    0.396179
     25          6           0        2.793364   -0.941972    0.492777
     26          6           0        1.748019   -3.666494    1.944883
     27          6           0        4.615051   -3.619080   -1.284017
     28          6           0       -1.842970   -4.517804    0.904282
     29          6           0       -5.376604   -0.392395   -0.800657
     30          6           0       -4.667347    3.681024   -0.462683
     31          6           0       -1.470362    4.087465   -0.281997
     32          6           0        7.040171   -3.028496   -1.234025
     33          6           0        5.883685   -0.490322    0.016754
     34          6           0       -0.090983    4.014903   -0.295232
     35          6           0        0.828325    5.240688   -0.486232
     36          6           0        2.045286    4.762910   -0.408409
     37          6           0       -2.891344   -4.124117   -0.013623
     38          6           0        5.579015    0.668025    1.024910
     39          6           0       -6.787239   -0.974628   -0.727388
     40          6           0        3.413526    5.334110   -0.410067
     41          6           0        2.015689    3.271592   -0.031616
     42          6           0        0.321180    6.703957   -0.640695
     43          6           0        3.883647    5.714453    1.054905
     44          1           0        0.424160    0.352094   -0.020969
     45          1           0       -2.815375   -1.406616    0.997444
     46          1           0       -2.435159   -2.793732    2.222061
     47          1           0       -1.071623   -3.736893    2.938484
     48          1           0        5.410020   -2.113128   -2.485671
     49          1           0       -5.134992   -0.108949    1.323141
     50          1           0       -6.073497    1.055036    0.556977
     51          1           0        3.059155    0.089576    0.655456
     52          1           0       -0.684526    1.725294    0.402125
     53          1           0        1.582909   -4.531200    1.209097
     54          1           0        2.851812   -3.488672    2.015556
     55          1           0        1.341219   -3.783483    2.812034
     56          1           0        2.582238   -3.572648   -0.657094
     57          1           0       -0.898233   -4.915414    0.280484
     58          1           0       -2.190349   -5.320284    1.400117
     59          1           0       -4.768435   -1.112899   -0.730168
     60          1           0       -5.156189    0.125098   -1.900373
     61          1           0       -4.310150    4.568992    0.155262
     62          1           0       -5.850704    3.206635   -0.088150
     63          1           0       -4.657376    3.940777   -1.481810
     64          1           0       -2.162570    5.005729   -0.717584
     65          1           0        7.673136   -2.206419   -1.738382
     66          1           0        7.201770   -3.869295   -1.913572
     67          1           0        7.301787   -3.447258   -0.208415
     68          1           0        6.778557   -0.673472   -0.502372
     69          1           0        5.030524    1.509055    0.595691
     70          1           0        6.627146    0.950035    1.386043
     71          1           0        5.190216    0.225144    2.101406
     72          1           0        3.392265    6.226984   -1.062336
     73          1           0        4.111555    4.790378   -0.988754
     74          1           0       -0.543042    6.632836   -1.225309
     75          1           0        1.068187    7.277994   -0.948723
     76          1           0       -0.074470    7.093930    0.426452
     77          1           0        3.380108    6.433845    1.765403
     78          1           0        5.047646    6.271348    0.971505
     79          1           0        4.252446    4.710072    1.607844
     80          1           0       -3.836689   -4.749848   -1.519934
     81          1           0       -7.875845   -2.021394   -1.887782
 ---------------------------------------------------------------------
 Rotational constants (GHZ):           0.0760258           0.0536977           0.0336383
 Standard basis: SVP (5D, 7F)
 There are   835 symmetry adapted cartesian basis functions of A   symmetry.
 There are   792 symmetry adapted basis functions of A   symmetry.
   792 basis functions,  1341 primitive gaussians,   835 cartesian basis functions
   156 alpha electrons      156 beta electrons
       nuclear repulsion energy      5028.3064187091 Hartrees.
 NAtoms=   81 NActive=   81 NUniq=   81 SFac= 1.00D+00 NAtFMM=   60 NAOKFM=T Big=T
 Integral buffers will be    131072 words long.
 Regular integral format.
 Two-electron integral symmetry is turned on.
 One-electron integrals computed using PRISM.
 NBasis=   792 RedAO= T EigKep=  3.15D-04  NBF=   792
 NBsUse=   792 1.00D-06 EigRej= -1.00D+00 NBFU=   792
 ExpMin= 1.22D-01 ExpMax= 2.27D+03 ExpMxC= 3.41D+02 IAcc=3 IRadAn=         5 AccDes= 0.00D+00
 Harris functional with IExCor=  402 and IRadAn=       5 diagonalized for initial guess.
 HarFok:  IExCor=  402 AccDes= 0.00D+00 IRadAn=         5 IDoV= 1 UseB2=F ITyADJ=14
 ICtDFT=  3500011 ScaDFX=  1.000000  1.000000  1.000000  1.000000
 FoFCou: FMM=F IPFlag=           0 FMFlag=      100000 FMFlg1=        2001
         NFxFlg=           0 DoJE=T BraDBF=F KetDBF=T FulRan=T
         wScrn=  0.000000 ICntrl=       500 IOpCl=  0 I1Cent=   200000004 NGrid=           0
         NMat0=    1 NMatS0=      1 NMatT0=    0 NMatD0=    1 NMtDS0=    0 NMtDT0=    0
 Petite list used in FoFCou.
 Requested convergence on RMS density matrix=1.00D-08 within 128 cycles.
 Requested convergence on MAX density matrix=1.00D-06.
 Requested convergence on             energy=1.00D-06.
 No special actions if energy rises.
 Integral accuracy reduced to 1.0D-05 until final iterations.
 Initial convergence to 1.0D-05 achieved.  Increase integral accuracy.
 SCF Done:  E(RB3LYP) =  -1949.08501431     A.U. after   16 cycles
            NFock= 16  Conv=0.45D-08     -V/T= 2.0106
 DoSCS=F DFT=T ScalE2(SS,OS)=  1.000000  1.000000
 ExpMin= 1.22D-01 ExpMax= 2.27D+03 ExpMxC= 3.41D+02 IAcc=3 IRadAn=         5 AccDes= 0.00D+00
 HarFok:  IExCor=  205 AccDes= 0.00D+00 IRadAn=         5 IDoV=-2 UseB2=F ITyADJ=14
 ICtDFT= 12500011 ScaDFX=  1.000000  1.000000  1.000000  1.000000
 GSVD:  LWork=       -2193 too small for GESVD, short by        9890 words or        9890 for optimal perf.
 Range of M.O.s used for correlation:    44   792
 NBasis=   792 NAE=   156 NBE=   156 NFC=    43 NFV=     0
 NROrb=    749 NOA=   113 NOB=   113 NVA=   636 NVB=   636

 **** Warning!!: The smallest alpha delta epsilon is  0.84960524D-01

 Orbital symmetries:
       Occupied  (A) (A) (A) (A) (A) (A) (A) (A) (A) (A) (A) (A)
                 (A) (A) (A) (A) (A) (A) (A) (A) (A) (A) (A) (A)
                 (A) (A) (A) (A) (A) (A) (A) (A) (A) (A) (A) (A)
                 (A) (A) (A) (A) (A) (A) (A) (A) (A) (A) (A) (A)
                 (A) (A) (A) (A) (A) (A) (A) (A) (A) (A) (A) (A)
                 (A) (A) (A) (A) (A) (A) (A) (A) (A) (A) (A) (A)
                 (A) (A) (A) (A) (A) (A) (A) (A) (A) (A) (A) (A)
                 (A) (A) (A) (A) (A) (A) (A) (A) (A) (A) (A) (A)
                 (A) (A) (A) (A) (A) (A) (A) (A) (A) (A) (A) (A)
                 (A) (A) (A) (A) (A) (A) (A) (A) (A) (A) (A) (A)
                 (A) (A) (A) (A) (A) (A) (A) (A) (A) (A) (A) (A)
                 (A) (A) (A) (A) (A) (A) (A) (A) (A) (A) (A) (A)
                 (A) (A) (A) (A) (A) (A) (A) (A) (A) (A) (A) (A)
       Virtual   (A) (A) (A) (A) (A) (A) (A) (A) (A) (A) (A) (A)
                 (A) (A) (A) (A) (A) (A) (A) (A) (A) (A) (A) (A)
                 (A) (A) (A) (A) (A) (A) (A) (A) (A) (A) (A) (A)
                 (A) (A) (A) (A) (A) (A) (A) (A) (A) (A) (A) (A)
                 (A) (A) (A) (A) (A) (A) (A) (A) (A) (A) (A) (A)
                 (A) (A) (A) (A) (A) (A) (A) (A) (A) (A) (A) (A)
                 (A) (A) (A) (A) (A) (A) (A) (A) (A) (A) (A) (A)
                 (A) (A) (A) (A) (A) (A) (A) (A) (A) (A) (A) (A)
                 (A) (A) (A) (A) (A) (A) (A) (A) (A) (A) (A) (A)
                 (A) (A) (A) (A) (A) (A) (A) (A) (A) (A) (A) (A)
                 (A) (A) (A) (A) (A) (A) (A) (A) (A) (A) (A) (A)
                 (A) (A) (A) (A) (A) (A) (A) (A) (A) (A) (A) (A)
                 (A) (A) (A) (A) (A) (A) (A) (A) (A) (A) (A) (A)
                 (A) (A) (A) (A) (A) (A) (A) (A) (A) (A) (A) (A)
                 (A) (A) (A) (A) (A) (A) (A) (A) (A) (A) (A) (A)
                 (A) (A) (A) (A) (A) (A) (A) (A) (A) (A) (A) (A)
                 (A) (A) (A) (A) (A) (A) (A) (A) (A) (A) (A) (A)
                 (A) (A) (A) (A) (A) (A) (A) (A) (A) (A) (A) (A)
                 (A) (A) (A) (A) (A) (A) (A) (A) (A) (A) (A) (A)
                 (A) (A) (A) (A) (A) (A) (A) (A) (A) (A) (A) (A)
                 (A) (A) (A) (A) (A) (A) (A) (A) (A) (A) (A) (A)
                 (A) (A) (A) (A) (A) (A) (A) (A) (A) (A) (A) (A)
                 (A) (A) (A) (A) (A) (A) (A) (A) (A) (A) (A) (A)
                 (A) (A) (A) (A) (A) (A) (A) (A) (A) (A) (A) (A)
                 (A) (A) (A) (A) (A) (A) (A) (A) (A) (A) (A) (A)
                 (A) (A) (A) (A) (A) (A) (A) (A) (A) (A) (A) (A)
                 (A) (A) (A) (A) (A) (A) (A) (A) (A) (A) (A) (A)
                 (A) (A) (A) (A) (A) (A) (A) (A) (A) (A) (A) (A)
                 (A) (A) (A) (A) (A) (A) (A) (A) (A) (A) (A) (A)
                 (A) (A) (A) (A) (A) (A) (A) (A) (A) (A) (A) (A)
                 (A) (A) (A) (A) (A) (A) (A) (A) (A) (A) (A) (A)
                 (A) (A) (A) (A) (A) (A) (A) (A) (A) (A) (A) (A)
                 (A) (A) (A) (A) (A) (A) (A) (A) (A) (A) (A) (A)
                 (A) (A) (A) (A) (A) (A) (A) (A) (A) (A) (A) (A)
                 (A) (A) (A) (A) (A) (A) (A) (A) (A) (A) (A) (A)
                 (A) (A) (A) (A) (A) (A) (A) (A) (A) (A) (A) (A)
                 (A) (A) (A) (A) (A) (A) (A) (A) (A) (A) (A) (A)
                 (A) (A) (A) (A) (A) (A) (A) (A) (A) (A) (A) (A)
                 (A) (A) (A) (A) (A) (A) (A) (A) (A) (A) (A) (A)
                 (A) (A) (A) (A) (A) (A) (A) (A) (A) (A) (A) (A)
                 (A) (A) (A) (A) (A) (A) (A) (A) (A) (A) (A) (A)
                 (A) (A) (A) (A) (A) (A) (A) (A) (A) (A) (A) (A)
                 (A) (A) (A) (A) (A) (A) (A) (A) (A) (A) (A) (A)
                 (A) (A) (A) (A) (A) (A) (A) (A) (A) (A) (A) (A)
                 (A) (A) (A) (A) (A) (A) (A) (A) (A) (A) (A) (A)
                 (A) (A) (A) (A) (A) (A) (A) (A) (A) (A) (A) (A)
                 (A) (A) (A) (A) (A) (A) (A) (A) (A) (A) (A) (A)
                 (A) (A) (A) (A) (A) (A) (A) (A) (A) (A) (A) (A)
                 (A) (A) (A) (A) (A) (A) (A) (A) (A) (A) (A) (A)
                 (A) (A) (A) (A) (A) (A) (A) (A) (A) (A) (A) (A)
                 (A) (A) (A) (A) (A) (A) (A) (A) (A) (A) (A) (A)
                 (A) (A) (A) (A) (A) (A) (A) (A) (A) (A) (A) (A)
                 (A) (A) (A) (A) (A) (A) (A) (A) (A) (A) (A) (A)
     4 initial guesses have been made.
 Convergence on wavefunction:    0.001000000000000
 Iteration     1 Dimension     4 NMult     0 NNew      4
 CISAX will form     4 AO SS matrices at one time.
 Iteration     2 Dimension     6 NMult     4 NNew      2
 Iteration     3 Dimension     8 NMult     6 NNew      2
 Iteration     4 Dimension    10 NMult     8 NNew      2
 Iteration     5 Dimension    12 NMult    10 NNew      2
 Iteration     6 Dimension    14 NMult    12 NNew      2
 Iteration     7 Dimension    16 NMult    14 NNew      2
 ***********************************************************************
 Excited states from <AA,BB:AA,BB> singles matrix:
 ***********************************************************************
 
 Ground to excited state transition densities written to RWF  633
 Ground to excited state transition electric dipole moments (Au):
       state          X           Y           Z        Dip. S.      Osc.
         1        -1.1451      2.5063     -0.2082      7.6362      0.3907
 Ground to excited state transition velocity dipole moments (Au):
       state          X           Y           Z        Dip. S.      Osc.
         1         0.0871     -0.1853      0.0147      0.0422      0.3662
 Ground to excited state transition magnetic dipole moments (Au):
       state          X           Y           Z
         1         0.3302      0.6622      2.2353
 Ground to excited state transition velocity quadrupole moments (Au):
       state          XX          YY          ZZ          XY          XZ          YZ
         1         0.4890     -0.6285      0.0885     -0.4006     -0.0844      0.0119
 <0|del|b> * <b|rxdel|0> + <0|del|b> * <b|delr+rdel|0>
 Rotatory Strengths (R) in cgs (10**-40 erg-esu-cm/Gauss)
       state          XX          YY          ZZ    R(velocity)    E-M Angle
         1      -512.9466    316.2086   -365.6044   -187.4475       97.25
 1/2[<0|r|b>*<b|rxdel|0> + (<0|rxdel|b>*<b|r|0>)*]
 Rotatory Strengths (R) in cgs (10**-40 erg-esu-cm/Gauss)
       state          XX          YY          ZZ     R(length)
         1       267.3997  -1173.6954    329.1003   -192.3985
  1/2[<0|del|b>*<b|r|0> + (<0|r|b>*<b|del|0>)*] (Au)
       state          X           Y           Z        Dip. S.   Osc.(frdel)
         1        -0.0998     -0.4645     -0.0031      0.5674      0.3783

 Excitation energies and oscillator strengths:
 
 Excited State   1:      Singlet-A      2.0886 eV  593.62 nm  f=0.3907  <S**2>=0.000
     156 ->157         0.70565
 This state for optimization and/or second-order correction.
 Total Energy, E(TD-HF/TD-DFT) =  -1949.00825918    
 Copying the excited state density for this state as the 1-particle RhoCI density.
 SavETr:  write IOETrn=   770 NScale= 10 NData=  16 NLR=1 NState=    1 LETran=      28.

 **********************************************************************

            Population analysis using the SCF density.

 **********************************************************************

 Orbital symmetries:
       Occupied  (A) (A) (A) (A) (A) (A) (A) (A) (A) (A) (A) (A)
                 (A) (A) (A) (A) (A) (A) (A) (A) (A) (A) (A) (A)
                 (A) (A) (A) (A) (A) (A) (A) (A) (A) (A) (A) (A)
                 (A) (A) (A) (A) (A) (A) (A) (A) (A) (A) (A) (A)
                 (A) (A) (A) (A) (A) (A) (A) (A) (A) (A) (A) (A)
                 (A) (A) (A) (A) (A) (A) (A) (A) (A) (A) (A) (A)
                 (A) (A) (A) (A) (A) (A) (A) (A) (A) (A) (A) (A)
                 (A) (A) (A) (A) (A) (A) (A) (A) (A) (A) (A) (A)
                 (A) (A) (A) (A) (A) (A) (A) (A) (A) (A) (A) (A)
                 (A) (A) (A) (A) (A) (A) (A) (A) (A) (A) (A) (A)
                 (A) (A) (A) (A) (A) (A) (A) (A) (A) (A) (A) (A)
                 (A) (A) (A) (A) (A) (A) (A) (A) (A) (A) (A) (A)
                 (A) (A) (A) (A) (A) (A) (A) (A) (A) (A) (A) (A)
       Virtual   (A) (A) (A) (A) (A) (A) (A) (A) (A) (A) (A) (A)
                 (A) (A) (A) (A) (A) (A) (A) (A) (A) (A) (A) (A)
                 (A) (A) (A) (A) (A) (A) (A) (A) (A) (A) (A) (A)
                 (A) (A) (A) (A) (A) (A) (A) (A) (A) (A) (A) (A)
                 (A) (A) (A) (A) (A) (A) (A) (A) (A) (A) (A) (A)
                 (A) (A) (A) (A) (A) (A) (A) (A) (A) (A) (A) (A)
                 (A) (A) (A) (A) (A) (A) (A) (A) (A) (A) (A) (A)
                 (A) (A) (A) (A) (A) (A) (A) (A) (A) (A) (A) (A)
                 (A) (A) (A) (A) (A) (A) (A) (A) (A) (A) (A) (A)
                 (A) (A) (A) (A) (A) (A) (A) (A) (A) (A) (A) (A)
                 (A) (A) (A) (A) (A) (A) (A) (A) (A) (A) (A) (A)
                 (A) (A) (A) (A) (A) (A) (A) (A) (A) (A) (A) (A)
                 (A) (A) (A) (A) (A) (A) (A) (A) (A) (A) (A) (A)
                 (A) (A) (A) (A) (A) (A) (A) (A) (A) (A) (A) (A)
                 (A) (A) (A) (A) (A) (A) (A) (A) (A) (A) (A) (A)
                 (A) (A) (A) (A) (A) (A) (A) (A) (A) (A) (A) (A)
                 (A) (A) (A) (A) (A) (A) (A) (A) (A) (A) (A) (A)
                 (A) (A) (A) (A) (A) (A) (A) (A) (A) (A) (A) (A)
                 (A) (A) (A) (A) (A) (A) (A) (A) (A) (A) (A) (A)
                 (A) (A) (A) (A) (A) (A) (A) (A) (A) (A) (A) (A)
                 (A) (A) (A) (A) (A) (A) (A) (A) (A) (A) (A) (A)
                 (A) (A) (A) (A) (A) (A) (A) (A) (A) (A) (A) (A)
                 (A) (A) (A) (A) (A) (A) (A) (A) (A) (A) (A) (A)
                 (A) (A) (A) (A) (A) (A) (A) (A) (A) (A) (A) (A)
                 (A) (A) (A) (A) (A) (A) (A) (A) (A) (A) (A) (A)
                 (A) (A) (A) (A) (A) (A) (A) (A) (A) (A) (A) (A)
                 (A) (A) (A) (A) (A) (A) (A) (A) (A) (A) (A) (A)
                 (A) (A) (A) (A) (A) (A) (A) (A) (A) (A) (A) (A)
                 (A) (A) (A) (A) (A) (A) (A) (A) (A) (A) (A) (A)
                 (A) (A) (A) (A) (A) (A) (A) (A) (A) (A) (A) (A)
                 (A) (A) (A) (A) (A) (A) (A) (A) (A) (A) (A) (A)
                 (A) (A) (A) (A) (A) (A) (A) (A) (A) (A) (A) (A)
                 (A) (A) (A) (A) (A) (A) (A) (A) (A) (A) (A) (A)
                 (A) (A) (A) (A) (A) (A) (A) (A) (A) (A) (A) (A)
                 (A) (A) (A) (A) (A) (A) (A) (A) (A) (A) (A) (A)
                 (A) (A) (A) (A) (A) (A) (A) (A) (A) (A) (A) (A)
                 (A) (A) (A) (A) (A) (A) (A) (A) (A) (A) (A) (A)
                 (A) (A) (A) (A) (A) (A) (A) (A) (A) (A) (A) (A)
                 (A) (A) (A) (A) (A) (A) (A) (A) (A) (A) (A) (A)
                 (A) (A) (A) (A) (A) (A) (A) (A) (A) (A) (A) (A)
                 (A) (A) (A) (A) (A) (A) (A) (A) (A) (A) (A) (A)
                 (A) (A) (A) (A) (A) (A) (A) (A) (A) (A) (A) (A)
                 (A) (A) (A) (A) (A) (A) (A) (A) (A) (A) (A) (A)
                 (A) (A) (A) (A) (A) (A) (A) (A) (A) (A) (A) (A)
                 (A) (A) (A) (A) (A) (A) (A) (A) (A) (A) (A) (A)
                 (A) (A) (A) (A) (A) (A) (A) (A) (A) (A) (A) (A)
                 (A) (A) (A) (A) (A) (A) (A) (A) (A) (A) (A) (A)
                 (A) (A) (A) (A) (A) (A) (A) (A) (A) (A) (A) (A)
                 (A) (A) (A) (A) (A) (A) (A) (A) (A) (A) (A) (A)
                 (A) (A) (A) (A) (A) (A) (A) (A) (A) (A) (A) (A)
                 (A) (A) (A) (A) (A) (A) (A) (A) (A) (A) (A) (A)
                 (A) (A) (A) (A) (A) (A) (A) (A) (A) (A) (A) (A)
                 (A) (A) (A) (A) (A) (A) (A) (A) (A) (A) (A) (A)
 The electronic state is 1-A.
 Alpha  occ. eigenvalues --  -19.19682 -19.16380 -19.14784 -19.14228 -19.10741
 Alpha  occ. eigenvalues --  -19.10718 -14.37236 -14.36713 -14.36699 -14.28979
 Alpha  occ. eigenvalues --  -10.33774 -10.33169 -10.28818 -10.26388 -10.24601
 Alpha  occ. eigenvalues --  -10.24530 -10.23888 -10.23330 -10.23060 -10.22769
 Alpha  occ. eigenvalues --  -10.22677 -10.22566 -10.21815 -10.21771 -10.21513
 Alpha  occ. eigenvalues --  -10.21185 -10.20974 -10.20694 -10.20431 -10.20184
 Alpha  occ. eigenvalues --  -10.20068 -10.19944 -10.19766 -10.19750 -10.19704
 Alpha  occ. eigenvalues --  -10.19424 -10.19309 -10.19284 -10.19161 -10.18974
 Alpha  occ. eigenvalues --  -10.18912 -10.18395 -10.17198  -1.12696  -1.08143
 Alpha  occ. eigenvalues --   -1.03893  -1.02870  -1.01553  -1.00939  -0.99939
 Alpha  occ. eigenvalues --   -0.96340  -0.94826  -0.90090  -0.82899  -0.82677
 Alpha  occ. eigenvalues --   -0.82138  -0.81939  -0.79894  -0.79106  -0.78651
 Alpha  occ. eigenvalues --   -0.77853  -0.76017  -0.74466  -0.73584  -0.72747
 Alpha  occ. eigenvalues --   -0.71368  -0.70045  -0.69362  -0.68628  -0.67870
 Alpha  occ. eigenvalues --   -0.67573  -0.65980  -0.65056  -0.62169  -0.61651
 Alpha  occ. eigenvalues --   -0.60832  -0.59710  -0.58327  -0.57686  -0.57513
 Alpha  occ. eigenvalues --   -0.56654  -0.56117  -0.54931  -0.53826  -0.53061
 Alpha  occ. eigenvalues --   -0.52812  -0.52034  -0.51152  -0.51038  -0.50421
 Alpha  occ. eigenvalues --   -0.50080  -0.49424  -0.48814  -0.48127  -0.47788
 Alpha  occ. eigenvalues --   -0.47438  -0.46599  -0.46228  -0.45848  -0.45440
 Alpha  occ. eigenvalues --   -0.45037  -0.44690  -0.44320  -0.43809  -0.43475
 Alpha  occ. eigenvalues --   -0.43239  -0.42978  -0.42514  -0.42456  -0.42250
 Alpha  occ. eigenvalues --   -0.41748  -0.41587  -0.41296  -0.41162  -0.40961
 Alpha  occ. eigenvalues --   -0.40806  -0.40577  -0.40044  -0.39923  -0.39632
 Alpha  occ. eigenvalues --   -0.39422  -0.39250  -0.39079  -0.38956  -0.38467
 Alpha  occ. eigenvalues --   -0.38361  -0.38067  -0.37775  -0.36970  -0.36470
 Alpha  occ. eigenvalues --   -0.36067  -0.35861  -0.35389  -0.35205  -0.34990
 Alpha  occ. eigenvalues --   -0.34519  -0.34172  -0.33444  -0.33289  -0.33076
 Alpha  occ. eigenvalues --   -0.32616  -0.32099  -0.31029  -0.30704  -0.30484
 Alpha  occ. eigenvalues --   -0.28958  -0.27804  -0.26901  -0.26074  -0.25781
 Alpha  occ. eigenvalues --   -0.25540  -0.24939  -0.23721  -0.23175  -0.21462
 Alpha  occ. eigenvalues --   -0.18535
 Alpha virt. eigenvalues --   -0.10039  -0.04980  -0.03678  -0.03000  -0.01697
 Alpha virt. eigenvalues --   -0.00521   0.02224   0.02466   0.03142   0.03955
 Alpha virt. eigenvalues --    0.04134   0.05506   0.05705   0.06381   0.06799
 Alpha virt. eigenvalues --    0.07037   0.07224   0.07501   0.07999   0.08085
 Alpha virt. eigenvalues --    0.08234   0.08372   0.08763   0.09020   0.09230
 Alpha virt. eigenvalues --    0.09566   0.09946   0.09953   0.10453   0.10839
 Alpha virt. eigenvalues --    0.10985   0.11469   0.11832   0.12081   0.12473
 Alpha virt. eigenvalues --    0.12567   0.13064   0.13347   0.13784   0.14170
 Alpha virt. eigenvalues --    0.14999   0.15163   0.15461   0.15514   0.15959
 Alpha virt. eigenvalues --    0.16251   0.16766   0.17799   0.17817   0.18026
 Alpha virt. eigenvalues --    0.18702   0.19050   0.19159   0.19507   0.19836
 Alpha virt. eigenvalues --    0.20322   0.20633   0.21037   0.21394   0.21507
 Alpha virt. eigenvalues --    0.21969   0.22257   0.22981   0.23174   0.23409
 Alpha virt. eigenvalues --    0.23793   0.24007   0.24395   0.24786   0.25813
 Alpha virt. eigenvalues --    0.26008   0.26676   0.27079   0.27713   0.28040
 Alpha virt. eigenvalues --    0.28350   0.28645   0.29263   0.29596   0.30468
 Alpha virt. eigenvalues --    0.31102   0.31659   0.31911   0.32596   0.33320
 Alpha virt. eigenvalues --    0.33885   0.34381   0.35723   0.35827   0.36508
 Alpha virt. eigenvalues --    0.36885   0.37778   0.38103   0.38307   0.38858
 Alpha virt. eigenvalues --    0.39198   0.39408   0.39995   0.40422   0.40733
 Alpha virt. eigenvalues --    0.41179   0.41510   0.42043   0.42147   0.42736
 Alpha virt. eigenvalues --    0.42959   0.43676   0.44080   0.44559   0.45034
 Alpha virt. eigenvalues --    0.45203   0.45567   0.45680   0.46372   0.46621
 Alpha virt. eigenvalues --    0.46879   0.47078   0.47321   0.47932   0.48094
 Alpha virt. eigenvalues --    0.48443   0.48648   0.49437   0.49669   0.49909
 Alpha virt. eigenvalues --    0.50238   0.50546   0.50614   0.51624   0.52089
 Alpha virt. eigenvalues --    0.52242   0.52631   0.52837   0.53294   0.53451
 Alpha virt. eigenvalues --    0.53961   0.54604   0.54691   0.55015   0.55129
 Alpha virt. eigenvalues --    0.55597   0.55814   0.56453   0.56661   0.56773
 Alpha virt. eigenvalues --    0.57056   0.57515   0.57902   0.58168   0.58473
 Alpha virt. eigenvalues --    0.59130   0.59371   0.59473   0.60063   0.60218
 Alpha virt. eigenvalues --    0.60903   0.61030   0.61262   0.61383   0.61609
 Alpha virt. eigenvalues --    0.62081   0.62475   0.62697   0.62843   0.63171
 Alpha virt. eigenvalues --    0.63268   0.63469   0.63615   0.63870   0.64171
 Alpha virt. eigenvalues --    0.64344   0.64418   0.64870   0.65044   0.65533
 Alpha virt. eigenvalues --    0.65687   0.65883   0.66046   0.66447   0.66515
 Alpha virt. eigenvalues --    0.66777   0.67044   0.67435   0.67615   0.68219
 Alpha virt. eigenvalues --    0.68303   0.68395   0.68800   0.69232   0.69303
 Alpha virt. eigenvalues --    0.69500   0.69645   0.69914   0.69960   0.70267
 Alpha virt. eigenvalues --    0.70556   0.71057   0.71261   0.71804   0.72009
 Alpha virt. eigenvalues --    0.72291   0.72633   0.72899   0.73100   0.73451
 Alpha virt. eigenvalues --    0.74409   0.74784   0.75055   0.75438   0.75672
 Alpha virt. eigenvalues --    0.76042   0.76769   0.77461   0.77573   0.77865
 Alpha virt. eigenvalues --    0.78280   0.78576   0.79017   0.79431   0.80016
 Alpha virt. eigenvalues --    0.80540   0.81183   0.81399   0.82346   0.82958
 Alpha virt. eigenvalues --    0.83435   0.84375   0.85415   0.85881   0.86201
 Alpha virt. eigenvalues --    0.86614   0.86859   0.87943   0.88478   0.89460
 Alpha virt. eigenvalues --    0.89992   0.90975   0.91410   0.91849   0.92366
 Alpha virt. eigenvalues --    0.92413   0.92525   0.93534   0.93719   0.94848
 Alpha virt. eigenvalues --    0.95403   0.95539   0.96648   0.96771   0.97080
 Alpha virt. eigenvalues --    0.97786   0.98256   0.98804   0.99193   0.99760
 Alpha virt. eigenvalues --    1.00546   1.00991   1.01428   1.02644   1.03222
 Alpha virt. eigenvalues --    1.04358   1.04795   1.05199   1.05922   1.06133
 Alpha virt. eigenvalues --    1.08128   1.08433   1.09687   1.10119   1.10546
 Alpha virt. eigenvalues --    1.11075   1.11469   1.11833   1.12289   1.13180
 Alpha virt. eigenvalues --    1.13541   1.14534   1.15917   1.16385   1.16643
 Alpha virt. eigenvalues --    1.17199   1.17833   1.18619   1.19344   1.19960
 Alpha virt. eigenvalues --    1.20337   1.20945   1.21832   1.22332   1.22793
 Alpha virt. eigenvalues --    1.23523   1.24709   1.24764   1.25635   1.26042
 Alpha virt. eigenvalues --    1.26760   1.27182   1.28713   1.29178   1.30264
 Alpha virt. eigenvalues --    1.30386   1.31371   1.32136   1.32895   1.33041
 Alpha virt. eigenvalues --    1.33739   1.34224   1.34555   1.35973   1.36224
 Alpha virt. eigenvalues --    1.36761   1.36852   1.37309   1.37687   1.38792
 Alpha virt. eigenvalues --    1.39403   1.40025   1.40299   1.41852   1.43280
 Alpha virt. eigenvalues --    1.44103   1.44247   1.44609   1.45805   1.46135
 Alpha virt. eigenvalues --    1.46510   1.47264   1.47715   1.48151   1.49031
 Alpha virt. eigenvalues --    1.49221   1.49757   1.50432   1.50456   1.50788
 Alpha virt. eigenvalues --    1.51480   1.51694   1.51955   1.52028   1.52853
 Alpha virt. eigenvalues --    1.53356   1.53699   1.54592   1.55555   1.55745
 Alpha virt. eigenvalues --    1.56023   1.56237   1.57055   1.59285   1.59392
 Alpha virt. eigenvalues --    1.59990   1.60803   1.61437   1.62007   1.62648
 Alpha virt. eigenvalues --    1.63125   1.63382   1.63968   1.64590   1.64936
 Alpha virt. eigenvalues --    1.65267   1.65754   1.66162   1.66652   1.67020
 Alpha virt. eigenvalues --    1.67506   1.67714   1.68022   1.68873   1.69370
 Alpha virt. eigenvalues --    1.69913   1.70321   1.70370   1.70833   1.71255
 Alpha virt. eigenvalues --    1.71388   1.71927   1.72156   1.72645   1.72783
 Alpha virt. eigenvalues --    1.73007   1.73380   1.73641   1.74262   1.74951
 Alpha virt. eigenvalues --    1.75365   1.75480   1.75894   1.76192   1.76613
 Alpha virt. eigenvalues --    1.76909   1.77369   1.77537   1.77883   1.78653
 Alpha virt. eigenvalues --    1.79041   1.79533   1.79621   1.80834   1.80981
 Alpha virt. eigenvalues --    1.81434   1.81738   1.81862   1.82152   1.82491
 Alpha virt. eigenvalues --    1.82970   1.84015   1.84254   1.84725   1.85213
 Alpha virt. eigenvalues --    1.85252   1.85458   1.86462   1.86606   1.87350
 Alpha virt. eigenvalues --    1.87608   1.88294   1.89004   1.89525   1.90076
 Alpha virt. eigenvalues --    1.90305   1.90607   1.91233   1.91634   1.92342
 Alpha virt. eigenvalues --    1.92364   1.92578   1.93392   1.94071   1.94748
 Alpha virt. eigenvalues --    1.95055   1.95807   1.96019   1.96361   1.96659
 Alpha virt. eigenvalues --    1.97369   1.97833   1.98416   1.99653   2.00267
 Alpha virt. eigenvalues --    2.00650   2.00940   2.01343   2.02189   2.02656
 Alpha virt. eigenvalues --    2.02903   2.03017   2.03541   2.03600   2.04543
 Alpha virt. eigenvalues --    2.05108   2.05553   2.06123   2.06835   2.07143
 Alpha virt. eigenvalues --    2.07623   2.07957   2.08184   2.08719   2.09522
 Alpha virt. eigenvalues --    2.10021   2.10823   2.11290   2.11483   2.12350
 Alpha virt. eigenvalues --    2.13287   2.13819   2.14109   2.14755   2.14948
 Alpha virt. eigenvalues --    2.15870   2.16106   2.17173   2.18597   2.19085
 Alpha virt. eigenvalues --    2.20021   2.20584   2.21025   2.21715   2.22284
 Alpha virt. eigenvalues --    2.23121   2.24157   2.24859   2.25225   2.26690
 Alpha virt. eigenvalues --    2.27036   2.27253   2.27707   2.28012   2.29007
 Alpha virt. eigenvalues --    2.29846   2.29907   2.30497   2.31536   2.31961
 Alpha virt. eigenvalues --    2.32297   2.32935   2.33390   2.34298   2.34545
 Alpha virt. eigenvalues --    2.34645   2.35425   2.36136   2.36545   2.36899
 Alpha virt. eigenvalues --    2.37231   2.38859   2.39737   2.40665   2.41214
 Alpha virt. eigenvalues --    2.42913   2.42983   2.43012   2.43128   2.44001
 Alpha virt. eigenvalues --    2.44273   2.44678   2.45902   2.46880   2.47451
 Alpha virt. eigenvalues --    2.48227   2.48515   2.48829   2.50722   2.51285
 Alpha virt. eigenvalues --    2.52054   2.52426   2.52753   2.53358   2.53750
 Alpha virt. eigenvalues --    2.54605   2.57388   2.58376   2.59294   2.59516
 Alpha virt. eigenvalues --    2.61065   2.61557   2.62232   2.62443   2.62882
 Alpha virt. eigenvalues --    2.63524   2.63913   2.64639   2.66030   2.66794
 Alpha virt. eigenvalues --    2.66952   2.67214   2.67778   2.68178   2.68860
 Alpha virt. eigenvalues --    2.69373   2.69877   2.70490   2.71101   2.71382
 Alpha virt. eigenvalues --    2.71544   2.72459   2.73488   2.73912   2.74944
 Alpha virt. eigenvalues --    2.75318   2.75808   2.76312   2.76574   2.76832
 Alpha virt. eigenvalues --    2.78643   2.79895   2.80260   2.80964   2.81381
 Alpha virt. eigenvalues --    2.82584   2.82798   2.84606   2.85175   2.85714
 Alpha virt. eigenvalues --    2.86408   2.86610   2.87316   2.87930   2.88745
 Alpha virt. eigenvalues --    2.89080   2.89979   2.90584   2.93368   2.93797
 Alpha virt. eigenvalues --    2.95462   2.95945   2.96197   2.97281   2.98260
 Alpha virt. eigenvalues --    2.98789   2.98906   2.99174   2.99754   3.01799
 Alpha virt. eigenvalues --    3.02346   3.02794   3.03465   3.03967   3.06703
 Alpha virt. eigenvalues --    3.08379   3.09664   3.10352   3.12007   3.12286
 Alpha virt. eigenvalues --    3.13458   3.14462   3.14825   3.16571   3.16780
 Alpha virt. eigenvalues --    3.17704   3.19046   3.20355   3.20720   3.20834
 Alpha virt. eigenvalues --    3.22531   3.23664   3.25171   3.28555   3.31251
 Alpha virt. eigenvalues --    3.33621   3.38088   3.44233   3.47929   3.49098
 Alpha virt. eigenvalues --    3.51065   3.55566   3.56964   3.57023   3.58190
 Alpha virt. eigenvalues --    3.63884   3.64382   3.68583   3.71610   3.75547
 Alpha virt. eigenvalues --    3.83234
          Condensed to atoms (all electrons):
 Mulliken charges:
               1
     1  O   -0.200562
     2  O   -0.174801
     3  O   -0.204664
     4  O   -0.217989
     5  O   -0.232479
     6  O   -0.207302
     7  N   -0.120329
     8  N    0.032382
     9  N   -0.118846
    10  N   -0.366038
    11  C   -0.147582
    12  C    0.030250
    13  C   -0.192862
    14  C    0.084546
    15  C   -0.111169
    16  C    0.145269
    17  C   -0.089362
    18  C   -0.104732
    19  C    0.074338
    20  C   -0.118966
    21  C    0.098570
    22  C   -0.007350
    23  C   -0.034051
    24  C    0.101264
    25  C   -0.081389
    26  C    0.162628
    27  C    0.103590
    28  C    0.070649
    29  C    0.079640
    30  C    0.016932
    31  C   -0.169733
    32  C    0.049589
    33  C   -0.098960
    34  C    0.128692
    35  C   -0.123887
    36  C   -0.203561
    37  C    0.105044
    38  C    0.016465
    39  C    0.164472
    40  C    0.161677
    41  C    0.190397
    42  C    0.189144
    43  C   -0.106341
    44  H    0.094948
    45  H    0.025800
    46  H    0.019510
    47  H    0.021595
    48  H    0.072343
    49  H    0.013874
    50  H    0.002285
    51  H    0.019840
    52  H    0.124887
    53  H    0.018703
    54  H    0.041852
    55  H   -0.023866
    56  H    0.121195
    57  H    0.068607
    58  H    0.015775
    59  H   -0.050747
    60  H    0.078385
    61  H    0.045642
    62  H    0.047677
    63  H    0.039537
    64  H    0.022053
    65  H    0.031169
    66  H    0.022880
    67  H    0.035477
    68  H   -0.040942
    69  H    0.094801
    70  H    0.011972
    71  H    0.043686
    72  H   -0.024042
    73  H   -0.007789
    74  H    0.000110
    75  H   -0.018835
    76  H    0.034970
    77  H    0.042829
    78  H    0.004122
    79  H    0.053142
    80  H    0.190377
    81  H    0.133596
 Sum of Mulliken charges =  -0.00000
 Mulliken charges with hydrogens summed into heavy atoms:
               1
     1  O   -0.200562
     2  O    0.015575
     3  O   -0.071067
     4  O   -0.217989
     5  O   -0.232479
     6  O   -0.207302
     7  N   -0.025380
     8  N    0.157269
     9  N    0.002350
    10  N   -0.366038
    11  C   -0.147582
    12  C    0.030250
    13  C   -0.192862
    14  C    0.084546
    15  C   -0.111169
    16  C    0.145269
    17  C   -0.063562
    18  C   -0.104732
    19  C    0.115443
    20  C   -0.046623
    21  C    0.098570
    22  C   -0.007350
    23  C   -0.034051
    24  C    0.117423
    25  C   -0.061549
    26  C    0.199317
    27  C    0.103590
    28  C    0.155031
    29  C    0.107278
    30  C    0.149787
    31  C   -0.147679
    32  C    0.139115
    33  C   -0.139901
    34  C    0.128692
    35  C   -0.123887
    36  C   -0.203561
    37  C    0.105044
    38  C    0.166924
    39  C    0.164472
    40  C    0.129845
    41  C    0.190397
    42  C    0.205389
    43  C   -0.006248
 Electronic spatial extent (au):  <R**2>=          30811.8830
 Charge=             -0.0000 electrons
 Dipole moment (field-independent basis, Debye):
    X=             -2.5208    Y=             -1.3523    Z=              0.0194  Tot=              2.8607
 Quadrupole moment (field-independent basis, Debye-Ang):
   XX=           -263.2707   YY=           -242.7850   ZZ=           -252.9630
   XY=             14.9629   XZ=             11.5624   YZ=            -13.6471
 Traceless Quadrupole moment (field-independent basis, Debye-Ang):
   XX=            -10.2644   YY=             10.2212   ZZ=              0.0432
   XY=             14.9629   XZ=             11.5624   YZ=            -13.6471
 Octapole moment (field-independent basis, Debye-Ang**2):
  XXX=             90.8193  YYY=             43.6583  ZZZ=            -16.2280  XYY=           -206.1005
  XXY=            -45.0311  XXZ=            -81.8184  XZZ=            -32.3439  YZZ=            -26.1341
  YYZ=             35.9633  XYZ=            -50.6860
 Hexadecapole moment (field-independent basis, Debye-Ang**3):
 XXXX=         -23730.4264 YYYY=         -16329.6350 ZZZZ=          -1642.2301 XXXY=            666.1480
 XXXZ=            630.7401 YYYX=            948.8089 YYYZ=           -345.3192 ZZZX=             53.8241
 ZZZY=             27.8833 XXYY=          -6621.8810 XXZZ=          -4035.5118 YYZZ=          -3044.2011
 XXYZ=              9.0562 YYXZ=            335.0267 ZZXY=            180.2224
 N-N= 5.028306418709D+03 E-N=-1.458771188257D+04  KE= 1.928712274207D+03
 1\1\GINC-RYZEN-SSD1\SP\RB3LYP TD-FC\SVP\C33H38N4O6\PADAWAN\06-Jul-2019
 \0\\# td=(NStates=1) B3LYP/SVP\\TD\\0,1\O,0,-4.5564457654,-4.816091690
 4,1.8112764912\O,0,3.1283534334,-4.8766422134,1.1058185137\O,0,7.09995
 03764,-1.4342609672,2.0089011106\O,0,3.7795096838,-3.1543245577,-0.074
 6146031\O,0,7.7707258246,-0.4981411934,0.0509955303\O,0,-3.118052134,2
 .580065404,-0.1723121358\N,0,-0.3383282145,-0.5068500348,-0.4304016764
 \N,0,1.6612238051,1.8730196808,-0.3802196841\N,0,-3.4083777808,-3.2231
 313599,0.6537938507\N,0,-0.7030217051,2.8645868769,0.0095059267\C,0,0.
 543745607,-2.3646619045,-1.3583279159\C,0,0.8564645803,-1.093359287,-0
 .8827608314\C,0,-0.8200663317,-2.5897328627,-1.3007802774\C,0,-1.39514
 16204,-1.4473583777,-0.791460612\C,0,3.8103489762,1.3489793832,-0.3090
 071171\C,0,2.4402347165,0.7428256144,-0.5182933879\C,0,2.1576527696,-0
 .5038465305,-0.8647287179\C,0,3.675571394,2.7196299712,-0.0174725202\C
 ,0,1.634904643,-3.3528005459,-1.9177319742\C,0,-5.5455738926,-2.661668
 0764,1.3448144214\C,0,-3.6500170646,-1.9312681888,0.1007338584\C,0,2.2
 232765879,2.9451809463,-0.0050779848\C,0,-5.0375599523,-1.5688023834,0
 .4012287618\C,0,5.1702054986,0.6379834683,-0.3789909555\C,0,-2.7665976
 22,-1.0169784694,-0.4964600604\C,0,-1.6450524429,-3.727697272,-1.91720
 49642\C,0,-4.5273301998,-3.7226407698,1.2984389585\C,0,1.9616966457,-4
 .4764498647,-0.8525381096\C,0,5.3805079271,-0.245400604,0.8274408502\C
 ,0,4.5686926555,3.8050117325,0.4464768315\C,0,1.3632175632,4.127497157
 2,0.247764896\C,0,-6.9665277834,-3.1950068805,1.2320026664\C,0,-5.8696
 555681,-0.6402087508,-0.0384753219\C,0,-0.0138963786,4.0196866403,0.25
 564419\C,0,-0.9651874804,5.2232634193,0.4305876874\C,0,-2.1691322394,4
 .7136774905,0.3520966126\C,0,2.9953623775,-4.0471213312,0.0660680058\C
 ,0,-5.5900836692,0.5157668053,-1.0565767247\C,0,6.8059231585,-0.791917
 4758,0.7660797306\C,0,-3.5515509144,5.2495612543,0.3421450296\C,0,-2.0
 995833946,3.2200341947,-0.0099400692\C,0,-0.4964237799,6.7004939174,0.
 572942384\C,0,-4.024450982,5.6035187568,-1.1285336291\H,0,-0.433740939
 ,0.3423799436,0.0150009468\H,0,2.8544894635,-1.3423762397,-0.971886697
 3\H,0,2.5156328142,-2.7505797649,-2.1845208868\H,0,1.1800547848,-3.735
 3154491,-2.8976621327\H,0,-5.366198426,-2.2260309922,2.4817803385\H,0,
 5.1415844686,0.0111858351,-1.3000731603\H,0,6.0463866043,1.2062349328,
 -0.5412254221\H,0,-3.0579738931,0.0057850747,-0.6703999456\H,0,0.64135
 04667,1.7394251255,-0.4166411362\H,0,-1.4612617174,-4.5807201762,-1.17
 22680325\H,0,-2.7526988996,-3.5789555976,-1.9944687671\H,0,-1.23136308
 74,-3.8425924336,-2.7813717402\H,0,-2.4934831061,-3.6301191603,0.68003
 52505\H,0,1.0245682635,-4.8921216947,-0.2290366212\H,0,2.331822368,-5.
 2745101595,-1.3389584097\H,0,4.7913335544,-0.9819242435,0.7613367199\H
 ,0,5.1417983794,0.2768821248,1.9210565764\H,0,4.191736694,4.6774982172
 ,-0.1816981525\H,0,5.7655431771,3.357548474,0.0818147047\H,0,4.5473341
 508,4.0742729354,1.4629575997\H,0,2.0296387959,5.0673966693,0.67737752
 47\H,0,-7.6226850401,-2.3846044549,1.7254972437\H,0,-7.109686613,-4.03
 3061072,1.9190342713\H,0,-7.2125594399,-3.6302507886,0.2094025295\H,0,
 -6.7619435361,-0.8412344547,0.4784797759\H,0,-5.0653213739,1.374711668
 1,-0.6332071688\H,0,-6.6434061703,0.7672743557,-1.4250591844\H,0,-5.18
 50670022,0.0726141076,-2.1269639091\H,0,-3.5562054998,6.1489575516,0.9
 857262766\H,0,-4.2381014876,4.6937185041,0.9230544432\H,0,0.3666112264
 ,6.6572376837,1.1620189344\H,0,-1.259317315,7.2581225078,0.872046461\H
 ,0,-0.1059414065,7.0901475153,-0.4962232881\H,0,-3.5362139172,6.328688
 752,-1.8438221983\H,0,-5.2027120943,6.1311358546,-1.0557107128\H,0,-4.
 3648210032,4.5846999623,-1.6732270611\H,0,3.9494202485,-4.633777608,1.
 5825768947\H,0,7.9155888036,-1.7991205644,1.941444307\\Version=ES64L-G
 16RevA.03\State=1-A\HF=-1949.0850143\RMSD=4.539e-09\PG=C01 [X(C33H38N4
 O6)]\\@


 IF AT FIRST YOU DON'T SUCCEED, TRY, TRY AGAIN.
 THEN GIVE UP;
 THERE'S NO USE BEING A DAMN FOOL ABOUT IT.

                                 -- W. C. FIELDS
 Job cpu time:       0 days 17 hours 20 minutes 43.1 seconds.
 Elapsed time:       0 days  4 hours 21 minutes 24.7 seconds.
 File lengths (MBytes):  RWF=   2591 Int=      0 D2E=      0 Chk=     65 Scr=      1
 Normal termination of Gaussian 16 at Sat Jul  6 17:23:12 2019.
