 Entering Gaussian System, Link 0=g16
 Input=Geometria-395-.com
 Output=Geometria-395-.log
 Initial command:
 /usr/local/g16/l1.exe "/home/padawan/israel-mol/phycocyanobilin/spectra/abs/Gau-81746.inp" -scrdir="/home/padawan/israel-mol/phycocyanobilin/spectra/abs/"
 Entering Link 1 = /usr/local/g16/l1.exe PID=     81748.
  
 Copyright (c) 1988,1990,1992,1993,1995,1998,2003,2009,2016,
            Gaussian, Inc.  All Rights Reserved.
  
 This is part of the Gaussian(R) 16 program.  It is based on
 the Gaussian(R) 09 system (copyright 2009, Gaussian, Inc.),
 the Gaussian(R) 03 system (copyright 2003, Gaussian, Inc.),
 the Gaussian(R) 98 system (copyright 1998, Gaussian, Inc.),
 the Gaussian(R) 94 system (copyright 1995, Gaussian, Inc.),
 the Gaussian 92(TM) system (copyright 1992, Gaussian, Inc.),
 the Gaussian 90(TM) system (copyright 1990, Gaussian, Inc.),
 the Gaussian 88(TM) system (copyright 1988, Gaussian, Inc.),
 the Gaussian 86(TM) system (copyright 1986, Carnegie Mellon
 University), and the Gaussian 82(TM) system (copyright 1983,
 Carnegie Mellon University). Gaussian is a federally registered
 trademark of Gaussian, Inc.
  
 This software contains proprietary and confidential information,
 including trade secrets, belonging to Gaussian, Inc.
  
 This software is provided under written license and may be
 used, copied, transmitted, or stored only in accord with that
 written license.
  
 The following legend is applicable only to US Government
 contracts under FAR:
  
                    RESTRICTED RIGHTS LEGEND
  
 Use, reproduction and disclosure by the US Government is
 subject to restrictions as set forth in subparagraphs (a)
 and (c) of the Commercial Computer Software - Restricted
 Rights clause in FAR 52.227-19.
  
 Gaussian, Inc.
 340 Quinnipiac St., Bldg. 40, Wallingford CT 06492
  
  
 ---------------------------------------------------------------
 Warning -- This program may not be used in any manner that
 competes with the business of Gaussian, Inc. or will provide
 assistance to any competitor of Gaussian, Inc.  The licensee
 of this program is prohibited from giving any competitor of
 Gaussian, Inc. access to this program.  By using this program,
 the user acknowledges that Gaussian, Inc. is engaged in the
 business of creating and licensing software in the field of
 computational chemistry and represents and warrants to the
 licensee that it is not a competitor of Gaussian, Inc. and that
 it will not use this program in any manner prohibited above.
 ---------------------------------------------------------------
  

 Cite this work as:
 Gaussian 16, Revision A.03,
 M. J. Frisch, G. W. Trucks, H. B. Schlegel, G. E. Scuseria, 
 M. A. Robb, J. R. Cheeseman, G. Scalmani, V. Barone, 
 G. A. Petersson, H. Nakatsuji, X. Li, M. Caricato, A. V. Marenich, 
 J. Bloino, B. G. Janesko, R. Gomperts, B. Mennucci, H. P. Hratchian, 
 J. V. Ortiz, A. F. Izmaylov, J. L. Sonnenberg, D. Williams-Young, 
 F. Ding, F. Lipparini, F. Egidi, J. Goings, B. Peng, A. Petrone, 
 T. Henderson, D. Ranasinghe, V. G. Zakrzewski, J. Gao, N. Rega, 
 G. Zheng, W. Liang, M. Hada, M. Ehara, K. Toyota, R. Fukuda, 
 J. Hasegawa, M. Ishida, T. Nakajima, Y. Honda, O. Kitao, H. Nakai, 
 T. Vreven, K. Throssell, J. A. Montgomery, Jr., J. E. Peralta, 
 F. Ogliaro, M. J. Bearpark, J. J. Heyd, E. N. Brothers, K. N. Kudin, 
 V. N. Staroverov, T. A. Keith, R. Kobayashi, J. Normand, 
 K. Raghavachari, A. P. Rendell, J. C. Burant, S. S. Iyengar, 
 J. Tomasi, M. Cossi, J. M. Millam, M. Klene, C. Adamo, R. Cammi, 
 J. W. Ochterski, R. L. Martin, K. Morokuma, O. Farkas, 
 J. B. Foresman, and D. J. Fox, Gaussian, Inc., Wallingford CT, 2016.
 
 ******************************************
 Gaussian 16:  ES64L-G16RevA.03 25-Dec-2016
                 6-Jul-2019 
 ******************************************
 %nproc=4
 Will use up to    4 processors via shared memory.
 %Mem=4GB
 --------------------------
 # td=(NStates=1) B3LYP/SVP
 --------------------------
 1/38=1,172=1/1;
 2/12=2,17=6,18=5,40=1/2;
 3/5=18,7=101,11=9,25=1,30=1,74=-5/1,2,3,8;
 4//1;
 5/5=2,38=5/2;
 8/6=1,10=1,108=1/1;
 9/41=1,42=1,70=2/14;
 6/7=2,8=2,9=2,10=2/1;
 99/5=1,9=1/99;
 --
 TD
 --
 Symbolic Z-matrix:
 Charge =  0 Multiplicity = 1
 8                    -4.677    -4.89293   1.79335 
 8                     2.91813  -4.83203   1.26995 
 8                     7.21776  -1.45734   1.86569 
 8                     3.71282  -3.18324   0.05867 
 8                     7.64026  -0.36712  -0.1052 
 8                    -3.05202   2.592    -0.16149 
 7                    -0.25544  -0.67454  -0.47955 
 7                     1.49763   1.76681  -0.3424 
 7                    -3.51505  -3.19882   0.68189 
 7                    -0.68657   3.02246  -0.0687 
 6                     0.71061  -2.57341  -1.42832 
 6                     0.93695  -1.23158  -0.84762 
 6                    -0.79367  -2.78462  -1.21714 
 6                    -1.27439  -1.5832   -0.7309 
 6                     3.79471   1.36271  -0.24077 
 6                     2.46454   0.81907  -0.52165 
 6                     2.27033  -0.52391  -0.67161 
 6                     3.55201   2.7019    0.00557 
 6                     1.63408  -3.57772  -1.96953 
 6                    -5.62891  -2.65802   1.3436 
 6                    -3.63878  -1.88182   0.18958 
 6                     2.10383   3.02238  -0.03201 
 6                    -5.0485   -1.61749   0.46854 
 6                     5.02772   0.59886  -0.451 
 6                    -2.63537  -1.17957  -0.41901 
 6                    -1.38069  -3.92056  -1.91538 
 6                    -4.56519  -3.70205   1.38556 
 6                     2.04121  -4.63737  -0.96257 
 6                     5.35846  -0.19464   0.78876 
 6                     4.62029   3.85241   0.24348 
 6                     1.38216   4.17582   0.11878 
 6                    -7.03089  -3.19182   0.97134 
 6                    -5.8322   -0.53416  -0.05331 
 6                    -0.04371   4.17199   0.20384 
 6                    -0.96241   5.32497   0.44215 
 6                    -2.2226    4.79632   0.20556 
 6                     2.90217  -4.06645   0.20343 
 6                    -5.37929   0.48183  -1.10002 
 6                     6.83291  -0.73053   0.72546 
 6                    -3.50698   5.47318   0.43148 
 6                    -2.05131   3.35999  -0.06634 
 6                    -0.53635   6.63401   0.87425 
 6                    -4.23206   5.95073  -0.91425 
 1                    -0.20557   0.20997  -0.04532 
 1                     3.13308  -1.09379  -0.58342 
 1                     2.47433  -3.20338  -2.39328 
 1                     1.22757  -4.00042  -2.88891 
 1                    -5.6678   -2.45718   2.40966 
 1                     4.83304  -0.15892  -1.2134 
 1                     5.83172   1.13257  -0.64737 
 1                    -2.99286  -0.08954  -0.72686 
 1                     0.51837   1.87353  -0.65546 
 1                    -1.18647  -4.94872  -1.6002 
 1                    -2.48291  -3.88299  -2.03115 
 1                    -0.98223  -4.0734   -3.03678 
 1                    -2.56925  -3.87958   0.32058 
 1                     1.2845   -5.09274  -0.33717 
 1                     2.77743  -5.35351  -1.52449 
 1                     4.80032  -1.29421   1.01193 
 1                     5.10949   0.44342   1.75633 
 1                     4.52588   4.62477  -0.49757 
 1                     5.71599   3.41169   0.07889 
 1                     4.50293   4.25264   1.22638 
 1                     1.85661   5.18326   0.1889 
 1                    -7.66449  -2.41404   1.29013 
 1                    -7.22005  -3.97048   1.69711 
 1                    -7.22236  -3.64945  -0.09573 
 1                    -6.87712  -0.56833   0.35132 
 1                    -4.62484   1.31437  -0.74484 
 1                    -6.47883   1.14671  -1.42939 
 1                    -4.85455   0.00844  -2.01023 
 1                    -3.42506   6.23587   1.13731 
 1                    -4.1507    4.90285   1.16646 
 1                    -0.13125   6.82325   1.91824 
 1                    -1.34951   7.54137   0.95945 
 1                     0.22143   7.04473   0.23767 
 1                    -3.63655   6.73102  -1.35682 
 1                    -5.26355   6.33636  -0.89174 
 1                    -3.96725   5.23584  -1.78959 
 1                     3.75977  -4.30736   1.81708 
 1                     8.11432  -1.64833   1.63775 
 
 Stoichiometry    C33H38N4O6
 Framework group  C1[X(C33H38N4O6)]
 Deg. of freedom   237
 Full point group                 C1      NOp   1
 Largest Abelian subgroup         C1      NOp   1
 Largest concise Abelian subgroup C1      NOp   1
                         Standard orientation:                         
 ---------------------------------------------------------------------
 Center     Atomic      Atomic             Coordinates (Angstroms)
 Number     Number       Type             X           Y           Z
 ---------------------------------------------------------------------
      1          8           0        4.749668   -4.827290   -1.789008
      2          8           0       -2.846862   -4.871957   -1.284625
      3          8           0       -7.191229   -1.556342   -1.887435
      4          8           0       -3.667290   -3.235687   -0.073521
      5          8           0       -7.633679   -0.474303    0.083586
      6          8           0        3.016499    2.632234    0.170004
      7          7           0        0.264559   -0.672997    0.477429
      8          7           0       -1.521740    1.744043    0.338567
      9          7           0        3.561640   -3.150666   -0.678594
     10          7           0        0.645568    3.030073    0.071747
     11          6           0       -0.677518   -2.586121    1.421682
     12          6           0       -0.920935   -1.246887    0.841888
     13          6           0        0.830066   -2.776280    1.214047
     14          6           0        1.295341   -1.567778    0.730344
     15          6           0       -3.812753    1.308352    0.230725
     16          6           0       -2.475901    0.782831    0.514350
     17          6           0       -2.263527   -0.557508    0.663312
     18          6           0       -3.587976    2.651045   -0.013527
     19          6           0       -1.588368   -3.603713    1.959455
     20          6           0        5.669472   -2.579949   -1.334402
     21          6           0        3.665921   -1.832647   -0.184529
     22          6           0       -2.144468    2.991467    0.028045
     23          6           0        5.072549   -1.548536   -0.459647
     24          6           0       -5.035612    0.527295    0.437012
     25          6           0        2.651391   -1.145025    0.422318
     26          6           0        1.430979   -3.904786    1.912509
     27          6           0        4.620395   -3.638533   -1.380179
     28          6           0       -1.978296   -4.667735    0.950309
     29          6           0       -5.352249   -0.269285   -0.804445
     30          6           0       -4.671459    3.786950   -0.252848
     31          6           0       -1.438432    4.154944   -0.119661
     32          6           0        7.077765   -3.094744   -0.959202
     33          6           0        5.839895   -0.455074    0.065357
     34          6           0       -0.012438    4.170917   -0.201140
     35          6           0        0.890826    5.336756   -0.435869
     36          6           0        2.157609    4.825296   -0.196700
     37          6           0       -2.844150   -4.107449   -0.217221
     38          6           0        5.370372    0.553370    1.112050
     39          6           0       -6.819304   -0.825578   -0.745439
     40          6           0        3.433069    5.520107   -0.418648
     41          6           0        2.005513    3.386430    0.073182
     42          6           0        0.447792    6.640267   -0.867598
     43          6           0        4.148121    6.006101    0.929432
     44          1           0        0.203550    0.211227    0.044050
     45          1           0       -3.118088   -1.139160    0.572324
     46          1           0       -2.434762   -3.241495    2.381509
     47          1           0       -1.178346   -4.021799    2.879390
     48          1           0        5.708240   -2.377385   -2.400138
     49          1           0       -4.832382   -0.228590    1.199069
     50          1           0       -5.847394    1.049616    0.631948
     51          1           0        2.993003   -0.050510    0.732260
     52          1           0       -0.544834    1.863929    0.654203
     53          1           0        1.251786   -4.935173    1.595704
     54          1           0        2.532288   -3.852118    2.031087
     55          1           0        1.031874   -4.064393    3.032727
     56          1           0        2.624444   -3.844848   -0.320416
     57          1           0       -1.213804   -5.111897    0.326308
     58          1           0       -2.705939   -5.394622    1.509585
     59          1           0       -4.778416   -1.360781   -1.027429
     60          1           0       -5.109707    0.373250   -1.770685
     61          1           0       -4.589587    4.559704    0.489285
     62          1           0       -5.761370    3.330949   -0.091505
     63          1           0       -4.557191    4.189886   -1.235015
     64          1           0       -1.926588    5.155806   -0.189859
     65          1           0        7.701342   -2.307921   -1.275548
     66          1           0        7.279475   -3.869898   -1.685359
     67          1           0        7.272874   -3.550904    0.107835
     68          1           0        6.886188   -0.474338   -0.336678
     69          1           0        4.605370    1.375800    0.755892
     70          1           0        6.459788    1.233006    1.444914
     71          1           0        4.849957    0.071732    2.020417
     72          1           0        3.342382    6.282387   -1.123837
     73          1           0        4.086451    4.959560   -1.152631
     74          1           0        0.042724    6.825085   -1.912395
     75          1           0        1.248541    7.558879   -0.949746
     76          1           0       -0.317179    7.039756   -0.232468
     77          1           0        3.540781    6.777577    1.371366
     78          1           0        5.174231    6.405968    0.909941
     79          1           0        3.891033    5.286615    1.803311
     80          1           0       -3.694304   -4.358354   -1.833284
     81          1           0       -8.085626   -1.759956   -1.661966
 ---------------------------------------------------------------------
 Rotational constants (GHZ):           0.0730842           0.0540826           0.0331606
 Standard basis: SVP (5D, 7F)
 There are   835 symmetry adapted cartesian basis functions of A   symmetry.
 There are   792 symmetry adapted basis functions of A   symmetry.
   792 basis functions,  1341 primitive gaussians,   835 cartesian basis functions
   156 alpha electrons      156 beta electrons
       nuclear repulsion energy      4997.8308889014 Hartrees.
 NAtoms=   81 NActive=   81 NUniq=   81 SFac= 1.00D+00 NAtFMM=   60 NAOKFM=T Big=T
 Integral buffers will be    131072 words long.
 Regular integral format.
 Two-electron integral symmetry is turned on.
 One-electron integrals computed using PRISM.
 NBasis=   792 RedAO= T EigKep=  3.78D-04  NBF=   792
 NBsUse=   792 1.00D-06 EigRej= -1.00D+00 NBFU=   792
 ExpMin= 1.22D-01 ExpMax= 2.27D+03 ExpMxC= 3.41D+02 IAcc=3 IRadAn=         5 AccDes= 0.00D+00
 Harris functional with IExCor=  402 and IRadAn=       5 diagonalized for initial guess.
 HarFok:  IExCor=  402 AccDes= 0.00D+00 IRadAn=         5 IDoV= 1 UseB2=F ITyADJ=14
 ICtDFT=  3500011 ScaDFX=  1.000000  1.000000  1.000000  1.000000
 FoFCou: FMM=F IPFlag=           0 FMFlag=      100000 FMFlg1=        2001
         NFxFlg=           0 DoJE=T BraDBF=F KetDBF=T FulRan=T
         wScrn=  0.000000 ICntrl=       500 IOpCl=  0 I1Cent=   200000004 NGrid=           0
         NMat0=    1 NMatS0=      1 NMatT0=    0 NMatD0=    1 NMtDS0=    0 NMtDT0=    0
 Petite list used in FoFCou.
 Requested convergence on RMS density matrix=1.00D-08 within 128 cycles.
 Requested convergence on MAX density matrix=1.00D-06.
 Requested convergence on             energy=1.00D-06.
 No special actions if energy rises.
 Integral accuracy reduced to 1.0D-05 until final iterations.
 Initial convergence to 1.0D-05 achieved.  Increase integral accuracy.
 SCF Done:  E(RB3LYP) =  -1949.10270431     A.U. after   16 cycles
            NFock= 16  Conv=0.84D-08     -V/T= 2.0112
 DoSCS=F DFT=T ScalE2(SS,OS)=  1.000000  1.000000
 ExpMin= 1.22D-01 ExpMax= 2.27D+03 ExpMxC= 3.41D+02 IAcc=3 IRadAn=         5 AccDes= 0.00D+00
 HarFok:  IExCor=  205 AccDes= 0.00D+00 IRadAn=         5 IDoV=-2 UseB2=F ITyADJ=14
 ICtDFT= 12500011 ScaDFX=  1.000000  1.000000  1.000000  1.000000
 GSVD:  LWork=       -2193 too small for GESVD, short by        9890 words or        9890 for optimal perf.
 Range of M.O.s used for correlation:    44   792
 NBasis=   792 NAE=   156 NBE=   156 NFC=    43 NFV=     0
 NROrb=    749 NOA=   113 NOB=   113 NVA=   636 NVB=   636

 **** Warning!!: The smallest alpha delta epsilon is  0.71741327D-01

 Orbital symmetries:
       Occupied  (A) (A) (A) (A) (A) (A) (A) (A) (A) (A) (A) (A)
                 (A) (A) (A) (A) (A) (A) (A) (A) (A) (A) (A) (A)
                 (A) (A) (A) (A) (A) (A) (A) (A) (A) (A) (A) (A)
                 (A) (A) (A) (A) (A) (A) (A) (A) (A) (A) (A) (A)
                 (A) (A) (A) (A) (A) (A) (A) (A) (A) (A) (A) (A)
                 (A) (A) (A) (A) (A) (A) (A) (A) (A) (A) (A) (A)
                 (A) (A) (A) (A) (A) (A) (A) (A) (A) (A) (A) (A)
                 (A) (A) (A) (A) (A) (A) (A) (A) (A) (A) (A) (A)
                 (A) (A) (A) (A) (A) (A) (A) (A) (A) (A) (A) (A)
                 (A) (A) (A) (A) (A) (A) (A) (A) (A) (A) (A) (A)
                 (A) (A) (A) (A) (A) (A) (A) (A) (A) (A) (A) (A)
                 (A) (A) (A) (A) (A) (A) (A) (A) (A) (A) (A) (A)
                 (A) (A) (A) (A) (A) (A) (A) (A) (A) (A) (A) (A)
       Virtual   (A) (A) (A) (A) (A) (A) (A) (A) (A) (A) (A) (A)
                 (A) (A) (A) (A) (A) (A) (A) (A) (A) (A) (A) (A)
                 (A) (A) (A) (A) (A) (A) (A) (A) (A) (A) (A) (A)
                 (A) (A) (A) (A) (A) (A) (A) (A) (A) (A) (A) (A)
                 (A) (A) (A) (A) (A) (A) (A) (A) (A) (A) (A) (A)
                 (A) (A) (A) (A) (A) (A) (A) (A) (A) (A) (A) (A)
                 (A) (A) (A) (A) (A) (A) (A) (A) (A) (A) (A) (A)
                 (A) (A) (A) (A) (A) (A) (A) (A) (A) (A) (A) (A)
                 (A) (A) (A) (A) (A) (A) (A) (A) (A) (A) (A) (A)
                 (A) (A) (A) (A) (A) (A) (A) (A) (A) (A) (A) (A)
                 (A) (A) (A) (A) (A) (A) (A) (A) (A) (A) (A) (A)
                 (A) (A) (A) (A) (A) (A) (A) (A) (A) (A) (A) (A)
                 (A) (A) (A) (A) (A) (A) (A) (A) (A) (A) (A) (A)
                 (A) (A) (A) (A) (A) (A) (A) (A) (A) (A) (A) (A)
                 (A) (A) (A) (A) (A) (A) (A) (A) (A) (A) (A) (A)
                 (A) (A) (A) (A) (A) (A) (A) (A) (A) (A) (A) (A)
                 (A) (A) (A) (A) (A) (A) (A) (A) (A) (A) (A) (A)
                 (A) (A) (A) (A) (A) (A) (A) (A) (A) (A) (A) (A)
                 (A) (A) (A) (A) (A) (A) (A) (A) (A) (A) (A) (A)
                 (A) (A) (A) (A) (A) (A) (A) (A) (A) (A) (A) (A)
                 (A) (A) (A) (A) (A) (A) (A) (A) (A) (A) (A) (A)
                 (A) (A) (A) (A) (A) (A) (A) (A) (A) (A) (A) (A)
                 (A) (A) (A) (A) (A) (A) (A) (A) (A) (A) (A) (A)
                 (A) (A) (A) (A) (A) (A) (A) (A) (A) (A) (A) (A)
                 (A) (A) (A) (A) (A) (A) (A) (A) (A) (A) (A) (A)
                 (A) (A) (A) (A) (A) (A) (A) (A) (A) (A) (A) (A)
                 (A) (A) (A) (A) (A) (A) (A) (A) (A) (A) (A) (A)
                 (A) (A) (A) (A) (A) (A) (A) (A) (A) (A) (A) (A)
                 (A) (A) (A) (A) (A) (A) (A) (A) (A) (A) (A) (A)
                 (A) (A) (A) (A) (A) (A) (A) (A) (A) (A) (A) (A)
                 (A) (A) (A) (A) (A) (A) (A) (A) (A) (A) (A) (A)
                 (A) (A) (A) (A) (A) (A) (A) (A) (A) (A) (A) (A)
                 (A) (A) (A) (A) (A) (A) (A) (A) (A) (A) (A) (A)
                 (A) (A) (A) (A) (A) (A) (A) (A) (A) (A) (A) (A)
                 (A) (A) (A) (A) (A) (A) (A) (A) (A) (A) (A) (A)
                 (A) (A) (A) (A) (A) (A) (A) (A) (A) (A) (A) (A)
                 (A) (A) (A) (A) (A) (A) (A) (A) (A) (A) (A) (A)
                 (A) (A) (A) (A) (A) (A) (A) (A) (A) (A) (A) (A)
                 (A) (A) (A) (A) (A) (A) (A) (A) (A) (A) (A) (A)
                 (A) (A) (A) (A) (A) (A) (A) (A) (A) (A) (A) (A)
                 (A) (A) (A) (A) (A) (A) (A) (A) (A) (A) (A) (A)
                 (A) (A) (A) (A) (A) (A) (A) (A) (A) (A) (A) (A)
                 (A) (A) (A) (A) (A) (A) (A) (A) (A) (A) (A) (A)
                 (A) (A) (A) (A) (A) (A) (A) (A) (A) (A) (A) (A)
                 (A) (A) (A) (A) (A) (A) (A) (A) (A) (A) (A) (A)
                 (A) (A) (A) (A) (A) (A) (A) (A) (A) (A) (A) (A)
                 (A) (A) (A) (A) (A) (A) (A) (A) (A) (A) (A) (A)
                 (A) (A) (A) (A) (A) (A) (A) (A) (A) (A) (A) (A)
                 (A) (A) (A) (A) (A) (A) (A) (A) (A) (A) (A) (A)
                 (A) (A) (A) (A) (A) (A) (A) (A) (A) (A) (A) (A)
                 (A) (A) (A) (A) (A) (A) (A) (A) (A) (A) (A) (A)
                 (A) (A) (A) (A) (A) (A) (A) (A) (A) (A) (A) (A)
                 (A) (A) (A) (A) (A) (A) (A) (A) (A) (A) (A) (A)
     4 initial guesses have been made.
 Convergence on wavefunction:    0.001000000000000
 Iteration     1 Dimension     4 NMult     0 NNew      4
 CISAX will form     4 AO SS matrices at one time.
 Iteration     2 Dimension     6 NMult     4 NNew      2
 Iteration     3 Dimension     8 NMult     6 NNew      2
 Iteration     4 Dimension    10 NMult     8 NNew      2
 Iteration     5 Dimension    12 NMult    10 NNew      2
 Iteration     6 Dimension    14 NMult    12 NNew      2
 Iteration     7 Dimension    16 NMult    14 NNew      2
 ***********************************************************************
 Excited states from <AA,BB:AA,BB> singles matrix:
 ***********************************************************************
 
 Ground to excited state transition densities written to RWF  633
 Ground to excited state transition electric dipole moments (Au):
       state          X           Y           Z        Dip. S.      Osc.
         1         0.6955     -2.2752      0.2175      5.7073      0.2421
 Ground to excited state transition velocity dipole moments (Au):
       state          X           Y           Z        Dip. S.      Osc.
         1        -0.0436      0.1403     -0.0149      0.0218      0.2283
 Ground to excited state transition magnetic dipole moments (Au):
       state          X           Y           Z
         1        -0.2080     -0.3419     -1.6445
 Ground to excited state transition velocity quadrupole moments (Au):
       state          XX          YY          ZZ          XY          XZ          YZ
         1        -0.3672      0.5108     -0.0673      0.3551      0.0311     -0.0034
 <0|del|b> * <b|rxdel|0> + <0|del|b> * <b|delr+rdel|0>
 Rotatory Strengths (R) in cgs (10**-40 erg-esu-cm/Gauss)
       state          XX          YY          ZZ    R(velocity)    E-M Angle
         1      -184.2024    216.3372   -192.6284    -53.4979       93.31
 1/2[<0|r|b>*<b|rxdel|0> + (<0|rxdel|b>*<b|r|0>)*]
 Rotatory Strengths (R) in cgs (10**-40 erg-esu-cm/Gauss)
       state          XX          YY          ZZ     R(length)
         1       102.2897   -550.0726    252.8971    -64.9619
  1/2[<0|del|b>*<b|r|0> + (<0|r|b>*<b|del|0>)*] (Au)
       state          X           Y           Z        Dip. S.   Osc.(frdel)
         1        -0.0303     -0.3191     -0.0032      0.3527      0.2351

 Excitation energies and oscillator strengths:
 
 Excited State   1:      Singlet-A      1.7317 eV  715.95 nm  f=0.2421  <S**2>=0.000
     155 ->157         0.11676
     156 ->157         0.69970
 This state for optimization and/or second-order correction.
 Total Energy, E(TD-HF/TD-DFT) =  -1949.03906426    
 Copying the excited state density for this state as the 1-particle RhoCI density.
 SavETr:  write IOETrn=   770 NScale= 10 NData=  16 NLR=1 NState=    1 LETran=      28.

 **********************************************************************

            Population analysis using the SCF density.

 **********************************************************************

 Orbital symmetries:
       Occupied  (A) (A) (A) (A) (A) (A) (A) (A) (A) (A) (A) (A)
                 (A) (A) (A) (A) (A) (A) (A) (A) (A) (A) (A) (A)
                 (A) (A) (A) (A) (A) (A) (A) (A) (A) (A) (A) (A)
                 (A) (A) (A) (A) (A) (A) (A) (A) (A) (A) (A) (A)
                 (A) (A) (A) (A) (A) (A) (A) (A) (A) (A) (A) (A)
                 (A) (A) (A) (A) (A) (A) (A) (A) (A) (A) (A) (A)
                 (A) (A) (A) (A) (A) (A) (A) (A) (A) (A) (A) (A)
                 (A) (A) (A) (A) (A) (A) (A) (A) (A) (A) (A) (A)
                 (A) (A) (A) (A) (A) (A) (A) (A) (A) (A) (A) (A)
                 (A) (A) (A) (A) (A) (A) (A) (A) (A) (A) (A) (A)
                 (A) (A) (A) (A) (A) (A) (A) (A) (A) (A) (A) (A)
                 (A) (A) (A) (A) (A) (A) (A) (A) (A) (A) (A) (A)
                 (A) (A) (A) (A) (A) (A) (A) (A) (A) (A) (A) (A)
       Virtual   (A) (A) (A) (A) (A) (A) (A) (A) (A) (A) (A) (A)
                 (A) (A) (A) (A) (A) (A) (A) (A) (A) (A) (A) (A)
                 (A) (A) (A) (A) (A) (A) (A) (A) (A) (A) (A) (A)
                 (A) (A) (A) (A) (A) (A) (A) (A) (A) (A) (A) (A)
                 (A) (A) (A) (A) (A) (A) (A) (A) (A) (A) (A) (A)
                 (A) (A) (A) (A) (A) (A) (A) (A) (A) (A) (A) (A)
                 (A) (A) (A) (A) (A) (A) (A) (A) (A) (A) (A) (A)
                 (A) (A) (A) (A) (A) (A) (A) (A) (A) (A) (A) (A)
                 (A) (A) (A) (A) (A) (A) (A) (A) (A) (A) (A) (A)
                 (A) (A) (A) (A) (A) (A) (A) (A) (A) (A) (A) (A)
                 (A) (A) (A) (A) (A) (A) (A) (A) (A) (A) (A) (A)
                 (A) (A) (A) (A) (A) (A) (A) (A) (A) (A) (A) (A)
                 (A) (A) (A) (A) (A) (A) (A) (A) (A) (A) (A) (A)
                 (A) (A) (A) (A) (A) (A) (A) (A) (A) (A) (A) (A)
                 (A) (A) (A) (A) (A) (A) (A) (A) (A) (A) (A) (A)
                 (A) (A) (A) (A) (A) (A) (A) (A) (A) (A) (A) (A)
                 (A) (A) (A) (A) (A) (A) (A) (A) (A) (A) (A) (A)
                 (A) (A) (A) (A) (A) (A) (A) (A) (A) (A) (A) (A)
                 (A) (A) (A) (A) (A) (A) (A) (A) (A) (A) (A) (A)
                 (A) (A) (A) (A) (A) (A) (A) (A) (A) (A) (A) (A)
                 (A) (A) (A) (A) (A) (A) (A) (A) (A) (A) (A) (A)
                 (A) (A) (A) (A) (A) (A) (A) (A) (A) (A) (A) (A)
                 (A) (A) (A) (A) (A) (A) (A) (A) (A) (A) (A) (A)
                 (A) (A) (A) (A) (A) (A) (A) (A) (A) (A) (A) (A)
                 (A) (A) (A) (A) (A) (A) (A) (A) (A) (A) (A) (A)
                 (A) (A) (A) (A) (A) (A) (A) (A) (A) (A) (A) (A)
                 (A) (A) (A) (A) (A) (A) (A) (A) (A) (A) (A) (A)
                 (A) (A) (A) (A) (A) (A) (A) (A) (A) (A) (A) (A)
                 (A) (A) (A) (A) (A) (A) (A) (A) (A) (A) (A) (A)
                 (A) (A) (A) (A) (A) (A) (A) (A) (A) (A) (A) (A)
                 (A) (A) (A) (A) (A) (A) (A) (A) (A) (A) (A) (A)
                 (A) (A) (A) (A) (A) (A) (A) (A) (A) (A) (A) (A)
                 (A) (A) (A) (A) (A) (A) (A) (A) (A) (A) (A) (A)
                 (A) (A) (A) (A) (A) (A) (A) (A) (A) (A) (A) (A)
                 (A) (A) (A) (A) (A) (A) (A) (A) (A) (A) (A) (A)
                 (A) (A) (A) (A) (A) (A) (A) (A) (A) (A) (A) (A)
                 (A) (A) (A) (A) (A) (A) (A) (A) (A) (A) (A) (A)
                 (A) (A) (A) (A) (A) (A) (A) (A) (A) (A) (A) (A)
                 (A) (A) (A) (A) (A) (A) (A) (A) (A) (A) (A) (A)
                 (A) (A) (A) (A) (A) (A) (A) (A) (A) (A) (A) (A)
                 (A) (A) (A) (A) (A) (A) (A) (A) (A) (A) (A) (A)
                 (A) (A) (A) (A) (A) (A) (A) (A) (A) (A) (A) (A)
                 (A) (A) (A) (A) (A) (A) (A) (A) (A) (A) (A) (A)
                 (A) (A) (A) (A) (A) (A) (A) (A) (A) (A) (A) (A)
                 (A) (A) (A) (A) (A) (A) (A) (A) (A) (A) (A) (A)
                 (A) (A) (A) (A) (A) (A) (A) (A) (A) (A) (A) (A)
                 (A) (A) (A) (A) (A) (A) (A) (A) (A) (A) (A) (A)
                 (A) (A) (A) (A) (A) (A) (A) (A) (A) (A) (A) (A)
                 (A) (A) (A) (A) (A) (A) (A) (A) (A) (A) (A) (A)
                 (A) (A) (A) (A) (A) (A) (A) (A) (A) (A) (A) (A)
                 (A) (A) (A) (A) (A) (A) (A) (A) (A) (A) (A) (A)
                 (A) (A) (A) (A) (A) (A) (A) (A) (A) (A) (A) (A)
                 (A) (A) (A) (A) (A) (A) (A) (A) (A) (A) (A) (A)
 The electronic state is 1-A.
 Alpha  occ. eigenvalues --  -19.20990 -19.18433 -19.14282 -19.14124 -19.11040
 Alpha  occ. eigenvalues --  -19.09055 -14.37737 -14.37062 -14.36346 -14.29975
 Alpha  occ. eigenvalues --  -10.33194 -10.33165 -10.27692 -10.27251 -10.25373
 Alpha  occ. eigenvalues --  -10.24154 -10.23907 -10.23727 -10.23659 -10.23586
 Alpha  occ. eigenvalues --  -10.23017 -10.22564 -10.21737 -10.21364 -10.21115
 Alpha  occ. eigenvalues --  -10.21073 -10.20933 -10.20899 -10.20555 -10.20509
 Alpha  occ. eigenvalues --  -10.20413 -10.20367 -10.20106 -10.20030 -10.19906
 Alpha  occ. eigenvalues --  -10.19808 -10.19759 -10.19626 -10.19581 -10.19212
 Alpha  occ. eigenvalues --  -10.19029 -10.18791 -10.18403  -1.12001  -1.09504
 Alpha  occ. eigenvalues --   -1.01610  -1.01332  -1.00110  -0.99965  -0.98235
 Alpha  occ. eigenvalues --   -0.97220  -0.93189  -0.92438  -0.83642  -0.82474
 Alpha  occ. eigenvalues --   -0.81047  -0.80461  -0.80141  -0.79095  -0.77385
 Alpha  occ. eigenvalues --   -0.77009  -0.76299  -0.74956  -0.73392  -0.71672
 Alpha  occ. eigenvalues --   -0.70892  -0.69551  -0.69488  -0.68458  -0.67907
 Alpha  occ. eigenvalues --   -0.67504  -0.65723  -0.63495  -0.63003  -0.60724
 Alpha  occ. eigenvalues --   -0.59440  -0.59307  -0.58559  -0.57711  -0.56762
 Alpha  occ. eigenvalues --   -0.56479  -0.55946  -0.55286  -0.54399  -0.53178
 Alpha  occ. eigenvalues --   -0.52224  -0.50889  -0.50824  -0.50386  -0.50139
 Alpha  occ. eigenvalues --   -0.49568  -0.49352  -0.49066  -0.48851  -0.47832
 Alpha  occ. eigenvalues --   -0.47155  -0.46588  -0.46348  -0.45848  -0.45211
 Alpha  occ. eigenvalues --   -0.44925  -0.44639  -0.44315  -0.43959  -0.43476
 Alpha  occ. eigenvalues --   -0.43417  -0.43356  -0.42632  -0.42379  -0.41910
 Alpha  occ. eigenvalues --   -0.41832  -0.41607  -0.41275  -0.41101  -0.40950
 Alpha  occ. eigenvalues --   -0.40805  -0.40413  -0.40218  -0.39848  -0.39501
 Alpha  occ. eigenvalues --   -0.39244  -0.38931  -0.38776  -0.38348  -0.37984
 Alpha  occ. eigenvalues --   -0.37908  -0.37583  -0.37181  -0.37099  -0.36616
 Alpha  occ. eigenvalues --   -0.36322  -0.36259  -0.35441  -0.35135  -0.34785
 Alpha  occ. eigenvalues --   -0.34566  -0.33721  -0.33682  -0.33245  -0.33186
 Alpha  occ. eigenvalues --   -0.32688  -0.31747  -0.31441  -0.29592  -0.29383
 Alpha  occ. eigenvalues --   -0.29051  -0.28787  -0.26355  -0.25761  -0.24711
 Alpha  occ. eigenvalues --   -0.24507  -0.24265  -0.23890  -0.23549  -0.21428
 Alpha  occ. eigenvalues --   -0.18419
 Alpha virt. eigenvalues --   -0.11245  -0.06323  -0.04486  -0.01929  -0.01688
 Alpha virt. eigenvalues --   -0.00212   0.00624   0.01081   0.01708   0.03504
 Alpha virt. eigenvalues --    0.04099   0.04212   0.04864   0.05825   0.05926
 Alpha virt. eigenvalues --    0.06397   0.06579   0.07412   0.07879   0.08053
 Alpha virt. eigenvalues --    0.08344   0.08507   0.08571   0.08788   0.09206
 Alpha virt. eigenvalues --    0.09462   0.09599   0.09913   0.10178   0.10324
 Alpha virt. eigenvalues --    0.10644   0.11451   0.11807   0.12051   0.12378
 Alpha virt. eigenvalues --    0.13079   0.13411   0.13699   0.13773   0.14010
 Alpha virt. eigenvalues --    0.14310   0.14515   0.14562   0.15304   0.15577
 Alpha virt. eigenvalues --    0.15871   0.16271   0.17206   0.17845   0.17963
 Alpha virt. eigenvalues --    0.18597   0.18910   0.19170   0.19283   0.19766
 Alpha virt. eigenvalues --    0.20004   0.20490   0.20798   0.21355   0.22080
 Alpha virt. eigenvalues --    0.22243   0.22722   0.22895   0.23057   0.23330
 Alpha virt. eigenvalues --    0.23814   0.24199   0.24612   0.25263   0.25447
 Alpha virt. eigenvalues --    0.26097   0.27602   0.27840   0.28109   0.28211
 Alpha virt. eigenvalues --    0.28400   0.28730   0.29199   0.30045   0.30473
 Alpha virt. eigenvalues --    0.30889   0.31590   0.31816   0.31974   0.32612
 Alpha virt. eigenvalues --    0.33761   0.34030   0.34319   0.35028   0.35161
 Alpha virt. eigenvalues --    0.35983   0.36094   0.37046   0.37396   0.37866
 Alpha virt. eigenvalues --    0.38839   0.39499   0.40178   0.40829   0.41186
 Alpha virt. eigenvalues --    0.41291   0.41538   0.41770   0.42332   0.42741
 Alpha virt. eigenvalues --    0.42912   0.43184   0.43382   0.43783   0.44534
 Alpha virt. eigenvalues --    0.44744   0.45191   0.45309   0.45653   0.45708
 Alpha virt. eigenvalues --    0.46314   0.47240   0.47521   0.47751   0.48040
 Alpha virt. eigenvalues --    0.48221   0.48709   0.48790   0.49183   0.49593
 Alpha virt. eigenvalues --    0.49681   0.49793   0.50306   0.50602   0.50937
 Alpha virt. eigenvalues --    0.51185   0.51359   0.51894   0.52290   0.52603
 Alpha virt. eigenvalues --    0.53316   0.53880   0.54350   0.54888   0.55251
 Alpha virt. eigenvalues --    0.55427   0.56022   0.56335   0.57262   0.57463
 Alpha virt. eigenvalues --    0.57483   0.58246   0.58361   0.58877   0.59291
 Alpha virt. eigenvalues --    0.59481   0.60047   0.60570   0.60622   0.60753
 Alpha virt. eigenvalues --    0.60826   0.61070   0.61208   0.61340   0.61812
 Alpha virt. eigenvalues --    0.62161   0.62291   0.62589   0.62827   0.63008
 Alpha virt. eigenvalues --    0.63210   0.63319   0.63524   0.63889   0.64077
 Alpha virt. eigenvalues --    0.64407   0.64657   0.65034   0.65128   0.65402
 Alpha virt. eigenvalues --    0.65472   0.65772   0.65851   0.66124   0.66443
 Alpha virt. eigenvalues --    0.66825   0.66978   0.67081   0.67463   0.67661
 Alpha virt. eigenvalues --    0.67860   0.68118   0.68670   0.68828   0.69110
 Alpha virt. eigenvalues --    0.69346   0.69680   0.69782   0.70166   0.70359
 Alpha virt. eigenvalues --    0.70684   0.70794   0.71013   0.71305   0.71620
 Alpha virt. eigenvalues --    0.72128   0.72303   0.72538   0.72794   0.73017
 Alpha virt. eigenvalues --    0.73163   0.73520   0.74015   0.74093   0.74607
 Alpha virt. eigenvalues --    0.74709   0.75591   0.76118   0.76417   0.76586
 Alpha virt. eigenvalues --    0.77166   0.77872   0.78210   0.78436   0.78660
 Alpha virt. eigenvalues --    0.79721   0.79979   0.80589   0.80984   0.81254
 Alpha virt. eigenvalues --    0.81509   0.82589   0.83499   0.84070   0.84943
 Alpha virt. eigenvalues --    0.85958   0.86575   0.87019   0.87434   0.88458
 Alpha virt. eigenvalues --    0.89602   0.89927   0.90137   0.90601   0.90812
 Alpha virt. eigenvalues --    0.91778   0.92189   0.92730   0.93262   0.94287
 Alpha virt. eigenvalues --    0.94489   0.95275   0.95642   0.96031   0.96246
 Alpha virt. eigenvalues --    0.96590   0.97386   0.98212   0.99646   0.99943
 Alpha virt. eigenvalues --    1.00404   1.01026   1.01569   1.02428   1.02919
 Alpha virt. eigenvalues --    1.03626   1.05099   1.05600   1.06166   1.07554
 Alpha virt. eigenvalues --    1.07654   1.08259   1.08901   1.09938   1.10149
 Alpha virt. eigenvalues --    1.11175   1.11359   1.11581   1.12744   1.12827
 Alpha virt. eigenvalues --    1.13416   1.13679   1.13765   1.14502   1.14772
 Alpha virt. eigenvalues --    1.15764   1.16841   1.17589   1.17902   1.17950
 Alpha virt. eigenvalues --    1.18727   1.20011   1.20516   1.22005   1.22678
 Alpha virt. eigenvalues --    1.23553   1.24194   1.25043   1.25443   1.26073
 Alpha virt. eigenvalues --    1.26868   1.27252   1.28225   1.28521   1.29678
 Alpha virt. eigenvalues --    1.30308   1.31082   1.31433   1.32744   1.33717
 Alpha virt. eigenvalues --    1.34027   1.34357   1.34543   1.35409   1.36254
 Alpha virt. eigenvalues --    1.36792   1.37226   1.37395   1.38504   1.39111
 Alpha virt. eigenvalues --    1.39882   1.41090   1.41802   1.42161   1.43203
 Alpha virt. eigenvalues --    1.43958   1.44367   1.44636   1.45281   1.46119
 Alpha virt. eigenvalues --    1.46550   1.47228   1.48025   1.48327   1.48792
 Alpha virt. eigenvalues --    1.49189   1.49848   1.50094   1.50713   1.51210
 Alpha virt. eigenvalues --    1.51686   1.51705   1.52131   1.52675   1.52952
 Alpha virt. eigenvalues --    1.53347   1.53587   1.53798   1.54449   1.54716
 Alpha virt. eigenvalues --    1.55527   1.56334   1.56673   1.57524   1.58162
 Alpha virt. eigenvalues --    1.59133   1.59633   1.60705   1.61308   1.61570
 Alpha virt. eigenvalues --    1.61704   1.62481   1.63007   1.63826   1.64405
 Alpha virt. eigenvalues --    1.64842   1.64970   1.65554   1.66399   1.66784
 Alpha virt. eigenvalues --    1.67153   1.67455   1.68050   1.68704   1.68805
 Alpha virt. eigenvalues --    1.69052   1.69426   1.69956   1.70137   1.71242
 Alpha virt. eigenvalues --    1.71459   1.71794   1.71910   1.72833   1.73168
 Alpha virt. eigenvalues --    1.73430   1.73478   1.74098   1.74579   1.74825
 Alpha virt. eigenvalues --    1.75580   1.76130   1.76251   1.76954   1.77280
 Alpha virt. eigenvalues --    1.77549   1.77967   1.78425   1.79007   1.79686
 Alpha virt. eigenvalues --    1.79900   1.80206   1.80361   1.80926   1.81158
 Alpha virt. eigenvalues --    1.81658   1.82217   1.82516   1.83094   1.83623
 Alpha virt. eigenvalues --    1.83953   1.84240   1.84882   1.85216   1.85347
 Alpha virt. eigenvalues --    1.85533   1.85679   1.86286   1.86678   1.86996
 Alpha virt. eigenvalues --    1.87676   1.87802   1.88358   1.88705   1.89118
 Alpha virt. eigenvalues --    1.89691   1.89880   1.90627   1.90908   1.91223
 Alpha virt. eigenvalues --    1.91544   1.91823   1.92225   1.92727   1.93158
 Alpha virt. eigenvalues --    1.93575   1.94011   1.94463   1.94638   1.94979
 Alpha virt. eigenvalues --    1.95755   1.95936   1.96542   1.97477   1.97617
 Alpha virt. eigenvalues --    1.98681   1.99040   1.99727   2.00777   2.01207
 Alpha virt. eigenvalues --    2.01787   2.02412   2.02608   2.03227   2.03663
 Alpha virt. eigenvalues --    2.04102   2.05082   2.05149   2.05578   2.06166
 Alpha virt. eigenvalues --    2.06402   2.06908   2.07766   2.08578   2.09007
 Alpha virt. eigenvalues --    2.09399   2.10185   2.10599   2.10987   2.11537
 Alpha virt. eigenvalues --    2.12041   2.12405   2.12621   2.13168   2.13441
 Alpha virt. eigenvalues --    2.14985   2.15101   2.15805   2.16668   2.17164
 Alpha virt. eigenvalues --    2.17650   2.18159   2.18513   2.19554   2.19830
 Alpha virt. eigenvalues --    2.21038   2.22090   2.23134   2.23907   2.24247
 Alpha virt. eigenvalues --    2.25664   2.25996   2.26572   2.26667   2.27399
 Alpha virt. eigenvalues --    2.27967   2.28682   2.29710   2.30575   2.31400
 Alpha virt. eigenvalues --    2.31580   2.31819   2.32997   2.33321   2.33595
 Alpha virt. eigenvalues --    2.34054   2.35271   2.35756   2.36283   2.37268
 Alpha virt. eigenvalues --    2.37413   2.39095   2.39636   2.39741   2.39960
 Alpha virt. eigenvalues --    2.41376   2.41554   2.41929   2.42565   2.43068
 Alpha virt. eigenvalues --    2.43989   2.44726   2.45029   2.46451   2.46717
 Alpha virt. eigenvalues --    2.47894   2.48424   2.49169   2.49664   2.50300
 Alpha virt. eigenvalues --    2.50926   2.51376   2.53325   2.53575   2.53900
 Alpha virt. eigenvalues --    2.54481   2.54832   2.55300   2.58195   2.58820
 Alpha virt. eigenvalues --    2.59131   2.59509   2.60497   2.61038   2.62458
 Alpha virt. eigenvalues --    2.62579   2.62875   2.63213   2.64076   2.64336
 Alpha virt. eigenvalues --    2.64908   2.65566   2.66699   2.66832   2.67610
 Alpha virt. eigenvalues --    2.68359   2.68425   2.69510   2.70194   2.71279
 Alpha virt. eigenvalues --    2.71537   2.71684   2.72245   2.73184   2.73899
 Alpha virt. eigenvalues --    2.74005   2.74956   2.75518   2.75623   2.76614
 Alpha virt. eigenvalues --    2.77778   2.79468   2.80408   2.81704   2.82161
 Alpha virt. eigenvalues --    2.82914   2.83583   2.83710   2.84440   2.85912
 Alpha virt. eigenvalues --    2.86108   2.86652   2.87215   2.87813   2.88976
 Alpha virt. eigenvalues --    2.90559   2.90963   2.91061   2.92196   2.92657
 Alpha virt. eigenvalues --    2.93268   2.93795   2.94321   2.94790   2.96352
 Alpha virt. eigenvalues --    2.96483   2.99017   2.99205   2.99385   2.99861
 Alpha virt. eigenvalues --    3.00951   3.01575   3.01683   3.02335   3.03806
 Alpha virt. eigenvalues --    3.04586   3.05611   3.05963   3.07565   3.10918
 Alpha virt. eigenvalues --    3.11119   3.12284   3.13134   3.13728   3.15467
 Alpha virt. eigenvalues --    3.15617   3.16244   3.16332   3.19452   3.19609
 Alpha virt. eigenvalues --    3.20003   3.20820   3.22126   3.23951   3.25716
 Alpha virt. eigenvalues --    3.30582   3.32618   3.39491   3.41418   3.42271
 Alpha virt. eigenvalues --    3.43351   3.48969   3.51517   3.55070   3.59190
 Alpha virt. eigenvalues --    3.59233   3.63691   3.65300   3.65434   3.66344
 Alpha virt. eigenvalues --    3.78119
          Condensed to atoms (all electrons):
 Mulliken charges:
               1
     1  O   -0.273678
     2  O   -0.210021
     3  O   -0.200860
     4  O   -0.249424
     5  O   -0.225842
     6  O   -0.238287
     7  N   -0.023117
     8  N   -0.123359
     9  N   -0.210505
    10  N   -0.307699
    11  C   -0.174767
    12  C    0.016052
    13  C   -0.118016
    14  C    0.104364
    15  C   -0.108917
    16  C    0.088957
    17  C   -0.018396
    18  C   -0.140944
    19  C    0.216443
    20  C   -0.040744
    21  C    0.113864
    22  C    0.146494
    23  C   -0.048778
    24  C    0.271214
    25  C   -0.140018
    26  C    0.013361
    27  C    0.111883
    28  C    0.017098
    29  C   -0.175708
    30  C    0.082186
    31  C   -0.130361
    32  C    0.082570
    33  C   -0.068859
    34  C    0.054700
    35  C   -0.007626
    36  C   -0.172914
    37  C    0.117421
    38  C   -0.088395
    39  C    0.174166
    40  C    0.107132
    41  C    0.189706
    42  C    0.005740
    43  C    0.010455
    44  H    0.111090
    45  H   -0.031125
    46  H   -0.039387
    47  H   -0.015528
    48  H    0.029461
    49  H    0.020680
    50  H   -0.039027
    51  H    0.040387
    52  H    0.155472
    53  H    0.011873
    54  H    0.027984
    55  H    0.033620
    56  H    0.196722
    57  H    0.030009
    58  H    0.062955
    59  H    0.087055
    60  H    0.069728
    61  H    0.024331
    62  H    0.032051
    63  H    0.026017
    64  H   -0.015500
    65  H   -0.002900
    66  H    0.010117
    67  H    0.044076
    68  H    0.002257
    69  H    0.120520
    70  H    0.026269
    71  H    0.050641
    72  H   -0.037548
    73  H    0.010507
    74  H    0.036486
    75  H    0.030069
    76  H    0.019708
    77  H   -0.012704
    78  H    0.030441
    79  H    0.022556
    80  H    0.244034
    81  H    0.160029
 Sum of Mulliken charges =  -0.00000
 Mulliken charges with hydrogens summed into heavy atoms:
               1
     1  O   -0.273678
     2  O    0.034013
     3  O   -0.040831
     4  O   -0.249424
     5  O   -0.225842
     6  O   -0.238287
     7  N    0.087974
     8  N    0.032113
     9  N   -0.013783
    10  N   -0.307699
    11  C   -0.174767
    12  C    0.016052
    13  C   -0.118016
    14  C    0.104364
    15  C   -0.108917
    16  C    0.088957
    17  C   -0.049520
    18  C   -0.140944
    19  C    0.161528
    20  C   -0.011284
    21  C    0.113864
    22  C    0.146494
    23  C   -0.048778
    24  C    0.252866
    25  C   -0.099631
    26  C    0.086838
    27  C    0.111883
    28  C    0.110063
    29  C   -0.018925
    30  C    0.164585
    31  C   -0.145861
    32  C    0.133862
    33  C   -0.066602
    34  C    0.054700
    35  C   -0.007626
    36  C   -0.172914
    37  C    0.117421
    38  C    0.109035
    39  C    0.174166
    40  C    0.080091
    41  C    0.189706
    42  C    0.092004
    43  C    0.050747
 Electronic spatial extent (au):  <R**2>=          31237.8541
 Charge=             -0.0000 electrons
 Dipole moment (field-independent basis, Debye):
    X=             -4.7362    Y=              2.8513    Z=              0.3605  Tot=              5.5400
 Quadrupole moment (field-independent basis, Debye-Ang):
   XX=           -259.1990   YY=           -236.0697   ZZ=           -253.9727
   XY=             21.6603   XZ=             11.6992   YZ=            -17.9905
 Traceless Quadrupole moment (field-independent basis, Debye-Ang):
   XX=             -9.4519   YY=             13.6775   ZZ=             -4.2256
   XY=             21.6603   XZ=             11.6992   YZ=            -17.9905
 Octapole moment (field-independent basis, Debye-Ang**2):
  XXX=            -40.0637  YYY=            209.7897  ZZZ=            -18.8935  XYY=           -198.5031
  XXY=             15.7672  XXZ=            -81.0059  XZZ=            -39.3642  YZZ=            -16.2304
  YYZ=             49.6175  XYZ=            -61.3314
 Hexadecapole moment (field-independent basis, Debye-Ang**3):
 XXXX=         -22638.4830 YYYY=         -16682.8599 ZZZZ=          -1626.6938 XXXY=            902.3926
 XXXZ=            628.2927 YYYX=           1113.5756 YYYZ=           -613.9317 ZZZX=             21.0280
 ZZZY=             17.6825 XXYY=          -6790.2137 XXZZ=          -4085.2757 YYZZ=          -3146.1236
 XXYZ=            -60.2351 YYXZ=            306.6722 ZZXY=            204.2573
 N-N= 4.997830888901D+03 E-N=-1.452608315044D+04  KE= 1.927532713585D+03
 1\1\GINC-RYZEN-SSD1\SP\RB3LYP TD-FC\SVP\C33H38N4O6\PADAWAN\06-Jul-2019
 \0\\# td=(NStates=1) B3LYP/SVP\\TD\\0,1\O,0,-4.6769978206,-4.892929374
 1,1.7933546991\O,0,2.9181324113,-4.832027752,1.2699549273\O,0,7.217762
 1576,-1.4573432754,1.8656867892\O,0,3.7128230151,-3.1832374489,0.05866
 87253\O,0,7.6402627783,-0.3671180911,-0.1052000893\O,0,-3.0520155304,2
 .5919965972,-0.1614910537\N,0,-0.2554399257,-0.6745368035,-0.479546590
 9\N,0,1.4976274454,1.7668090597,-0.3423959017\N,0,-3.5150484478,-3.198
 8189287,0.68188666\N,0,-0.6865700599,3.0224626645,-0.0687018941\C,0,0.
 7106122936,-2.5734127796,-1.4283249156\C,0,0.9369526291,-1.2315831094,
 -0.847617317\C,0,-0.7936736925,-2.7846223516,-1.2171419136\C,0,-1.2743
 895452,-1.5832019621,-0.7309045564\C,0,3.794707412,1.3627107564,-0.240
 7702934\C,0,2.4645371467,0.8190732391,-0.521653724\C,0,2.2703340377,-0
 .5239085367,-0.6716094059\C,0,3.5520090378,2.701898198,0.0055697841\C,
 0,1.634084561,-3.5777230381,-1.9695271537\C,0,-5.6289122264,-2.6580177
 114,1.3436043004\C,0,-3.6387759405,-1.8818232443,0.1895827433\C,0,2.10
 38346437,3.0223786661,-0.0320106781\C,0,-5.0485010464,-1.6174872519,0.
 4685354924\C,0,5.0277212502,0.598859556,-0.4509981562\C,0,-2.635374499
 6,-1.1795747291,-0.4190123156\C,0,-1.3806860063,-3.920556558,-1.915384
 7822\C,0,-4.5651939862,-3.7020487106,1.3855576704\C,0,2.0412145975,-4.
 6373659563,-0.9625691127\C,0,5.3584557219,-0.1946355275,0.7887569818\C
 ,0,4.620287815,3.8524064719,0.2434765315\C,0,1.3821594573,4.1758219897
 ,0.1187819977\C,0,-7.03089422,-3.1918165615,0.9713365998\C,0,-5.832201
 8227,-0.5341581457,-0.0533068051\C,0,-0.0437093599,4.1719918708,0.2038
 390095\C,0,-0.9624072024,5.3249735904,0.4421488435\C,0,-2.222597586,4.
 7963157544,0.2055619591\C,0,2.9021730586,-4.0664532644,0.2034317422\C,
 0,-5.3792925901,0.4818334119,-1.1000210691\C,0,6.8329058568,-0.7305313
 372,0.7254556682\C,0,-3.5069764569,5.4731836166,0.4314839635\C,0,-2.05
 13085672,3.3599881901,-0.0663357088\C,0,-0.5363477723,6.6340072687,0.8
 742525151\C,0,-4.2320617431,5.9507334782,-0.9142522009\H,0,-0.20556812
 17,0.2099667023,-0.0453150848\H,0,3.1330773223,-1.0937913812,-0.583417
 8504\H,0,2.4743286838,-3.2033750444,-2.3932817629\H,0,1.2275695363,-4.
 0004219598,-2.8889112576\H,0,-5.6677985861,-2.4571841075,2.4096631268\
 H,0,4.8330436146,-0.1589211756,-1.2134044934\H,0,5.8317151371,1.132567
 5661,-0.6473660362\H,0,-2.9928573814,-0.0895444582,-0.7268555912\H,0,0
 .5183681685,1.8735285359,-0.6554550176\H,0,-1.1864742386,-4.9487169759
 ,-1.6002008258\H,0,-2.4829119209,-3.8829860006,-2.0311524354\H,0,-0.98
 22281739,-4.073395514,-3.0367772807\H,0,-2.5692506829,-3.8795841068,0.
 3205793049\H,0,1.2845042571,-5.0927417567,-0.3371674342\H,0,2.77742692
 85,-5.3535080593,-1.5244869626\H,0,4.8003244534,-1.2942054716,1.011931
 7794\H,0,5.1094851481,0.4434187785,1.7563301037\H,0,4.5258801083,4.624
 7729447,-0.4975697397\H,0,5.7159882216,3.4116938886,0.0788944126\H,0,4
 .5029297104,4.2526407722,1.2263839423\H,0,1.8566114931,5.1832582554,0.
 1888986768\H,0,-7.6644892205,-2.4140373982,1.2901337074\H,0,-7.2200476
 491,-3.9704848144,1.6971120791\H,0,-7.22236042,-3.6494527088,-0.095727
 9836\H,0,-6.8771150532,-0.568327164,0.3513170596\H,0,-4.6248373255,1.3
 143656335,-0.7448383319\H,0,-6.4788297127,1.1467122995,-1.4293896175\H
 ,0,-4.8545539509,0.00843769,-2.0102322359\H,0,-3.4250623855,6.23586624
 24,1.1373114351\H,0,-4.1507027478,4.9028494171,1.1664587837\H,0,-0.131
 2485596,6.8232542853,1.918244557\H,0,-1.3495063339,7.5413708326,0.9594
 452009\H,0,0.2214313307,7.0447329738,0.2376701012\H,0,-3.6365539512,6.
 731018985,-1.3568234984\H,0,-5.2635481779,6.3363563766,-0.8917443161\H
 ,0,-3.9672512462,5.2358350758,-1.7895886973\H,0,3.7597712836,-4.307364
 9667,1.817080345\H,0,8.1143186766,-1.6483254848,1.637753938\\Version=E
 S64L-G16RevA.03\State=1-A\HF=-1949.1027043\RMSD=8.405e-09\PG=C01 [X(C3
 3H38N4O6)]\\@


 TO DETECT ERRORS, THE PROGRAMMER MUST HAVE A CONNIVING MIND,
 ONE THAT DELIGHTS IN UNCOVERING FLAWS WHERE BEAUTY AND
 PERFECTION WERE ONCE THOUGHT TO LIE.

             -- THE PSYCHOLOGY OF COMPUTER PROGRAMMING
                GERALD M. WEINBERG
 Job cpu time:       0 days 17 hours 23 minutes  9.1 seconds.
 Elapsed time:       0 days  4 hours 22 minutes  0.5 seconds.
 File lengths (MBytes):  RWF=   2591 Int=      0 D2E=      0 Chk=     65 Scr=      1
 Normal termination of Gaussian 16 at Sat Jul  6 04:35:05 2019.
