 Entering Gaussian System, Link 0=g16
 Input=Geometria-35-.com
 Output=Geometria-35-.log
 Initial command:
 /usr/local/g16/l1.exe "/home/padawan/israel-mol/phycocyanobilin/spectra/abs/Gau-33881.inp" -scrdir="/home/padawan/israel-mol/phycocyanobilin/spectra/abs/"
 Entering Link 1 = /usr/local/g16/l1.exe PID=     33883.
  
 Copyright (c) 1988,1990,1992,1993,1995,1998,2003,2009,2016,
            Gaussian, Inc.  All Rights Reserved.
  
 This is part of the Gaussian(R) 16 program.  It is based on
 the Gaussian(R) 09 system (copyright 2009, Gaussian, Inc.),
 the Gaussian(R) 03 system (copyright 2003, Gaussian, Inc.),
 the Gaussian(R) 98 system (copyright 1998, Gaussian, Inc.),
 the Gaussian(R) 94 system (copyright 1995, Gaussian, Inc.),
 the Gaussian 92(TM) system (copyright 1992, Gaussian, Inc.),
 the Gaussian 90(TM) system (copyright 1990, Gaussian, Inc.),
 the Gaussian 88(TM) system (copyright 1988, Gaussian, Inc.),
 the Gaussian 86(TM) system (copyright 1986, Carnegie Mellon
 University), and the Gaussian 82(TM) system (copyright 1983,
 Carnegie Mellon University). Gaussian is a federally registered
 trademark of Gaussian, Inc.
  
 This software contains proprietary and confidential information,
 including trade secrets, belonging to Gaussian, Inc.
  
 This software is provided under written license and may be
 used, copied, transmitted, or stored only in accord with that
 written license.
  
 The following legend is applicable only to US Government
 contracts under FAR:
  
                    RESTRICTED RIGHTS LEGEND
  
 Use, reproduction and disclosure by the US Government is
 subject to restrictions as set forth in subparagraphs (a)
 and (c) of the Commercial Computer Software - Restricted
 Rights clause in FAR 52.227-19.
  
 Gaussian, Inc.
 340 Quinnipiac St., Bldg. 40, Wallingford CT 06492
  
  
 ---------------------------------------------------------------
 Warning -- This program may not be used in any manner that
 competes with the business of Gaussian, Inc. or will provide
 assistance to any competitor of Gaussian, Inc.  The licensee
 of this program is prohibited from giving any competitor of
 Gaussian, Inc. access to this program.  By using this program,
 the user acknowledges that Gaussian, Inc. is engaged in the
 business of creating and licensing software in the field of
 computational chemistry and represents and warrants to the
 licensee that it is not a competitor of Gaussian, Inc. and that
 it will not use this program in any manner prohibited above.
 ---------------------------------------------------------------
  

 Cite this work as:
 Gaussian 16, Revision A.03,
 M. J. Frisch, G. W. Trucks, H. B. Schlegel, G. E. Scuseria, 
 M. A. Robb, J. R. Cheeseman, G. Scalmani, V. Barone, 
 G. A. Petersson, H. Nakatsuji, X. Li, M. Caricato, A. V. Marenich, 
 J. Bloino, B. G. Janesko, R. Gomperts, B. Mennucci, H. P. Hratchian, 
 J. V. Ortiz, A. F. Izmaylov, J. L. Sonnenberg, D. Williams-Young, 
 F. Ding, F. Lipparini, F. Egidi, J. Goings, B. Peng, A. Petrone, 
 T. Henderson, D. Ranasinghe, V. G. Zakrzewski, J. Gao, N. Rega, 
 G. Zheng, W. Liang, M. Hada, M. Ehara, K. Toyota, R. Fukuda, 
 J. Hasegawa, M. Ishida, T. Nakajima, Y. Honda, O. Kitao, H. Nakai, 
 T. Vreven, K. Throssell, J. A. Montgomery, Jr., J. E. Peralta, 
 F. Ogliaro, M. J. Bearpark, J. J. Heyd, E. N. Brothers, K. N. Kudin, 
 V. N. Staroverov, T. A. Keith, R. Kobayashi, J. Normand, 
 K. Raghavachari, A. P. Rendell, J. C. Burant, S. S. Iyengar, 
 J. Tomasi, M. Cossi, J. M. Millam, M. Klene, C. Adamo, R. Cammi, 
 J. W. Ochterski, R. L. Martin, K. Morokuma, O. Farkas, 
 J. B. Foresman, and D. J. Fox, Gaussian, Inc., Wallingford CT, 2016.
 
 ******************************************
 Gaussian 16:  ES64L-G16RevA.03 25-Dec-2016
                27-Jun-2019 
 ******************************************
 %nproc=4
 Will use up to    4 processors via shared memory.
 %Mem=4GB
 --------------------------
 # td=(NStates=1) B3LYP/SVP
 --------------------------
 1/38=1,172=1/1;
 2/12=2,17=6,18=5,40=1/2;
 3/5=18,7=101,11=9,25=1,30=1,74=-5/1,2,3,8;
 4//1;
 5/5=2,38=5/2;
 8/6=1,10=1,108=1/1;
 9/41=1,42=1,70=2/14;
 6/7=2,8=2,9=2,10=2/1;
 99/5=1,9=1/99;
 --
 TD
 --
 Symbolic Z-matrix:
 Charge =  0 Multiplicity = 1
 8                    -4.51612  -4.86272   1.71585 
 8                     2.96191  -4.77965   1.23314 
 8                     7.16422  -1.50776   1.86236 
 8                     3.70078  -2.95096  -0.03642 
 8                     7.96207  -0.39959  -0.00308 
 8                    -3.02651   2.49884  -0.16123 
 7                    -0.35768  -0.6177   -0.4198 
 7                     1.49791   1.77401  -0.25489 
 7                    -3.36397  -3.09921   0.63695 
 7                    -0.76289   2.93202  -0.14575 
 6                     0.49274  -2.4183   -1.37917 
 6                     0.87171  -1.1442   -0.86959 
 6                    -0.83636  -2.65916  -1.20048 
 6                    -1.37892  -1.4611   -0.63758 
 6                     3.78939   1.3742   -0.30829 
 6                     2.42515   0.73316  -0.55923 
 6                     2.11141  -0.53015  -0.80191 
 6                     3.60076   2.71391   0.01639 
 6                     1.54337  -3.45406  -2.0039 
 6                    -5.57197  -2.64782   1.42037 
 6                    -3.66941  -1.79113   0.15062 
 6                     2.22418   2.91701  -0.0169 
 6                    -5.13247  -1.5612    0.38421 
 6                     5.02287   0.58765  -0.41401 
 6                    -2.74054  -0.97489  -0.43583 
 6                    -1.58539  -3.80465  -1.86637 
 6                    -4.47381  -3.69581   1.30917 
 6                     2.02052  -4.53297  -0.98531 
 6                     5.57732  -0.3623    0.79499 
 6                     4.54605   3.72221   0.48322 
 6                     1.36554   4.07566   0.26406 
 6                    -7.03719  -3.1334    1.32593 
 6                    -5.9068   -0.68934  -0.32393 
 6                     0.02768   3.9792    0.11869 
 6                    -0.92566   5.15341   0.45819 
 6                    -2.13873   4.71773   0.30479 
 6                     2.95831  -3.94593   0.14869 
 6                    -5.45135   0.36766  -1.17144 
 6                     7.01414  -0.6945    0.82878 
 6                    -3.57654   5.36849   0.3957 
 6                    -2.11888   3.21726  -0.03334 
 6                    -0.55681   6.58962   0.68774 
 6                    -4.13376   5.83193  -1.05681 
 1                    -0.3964    0.43844  -0.11039 
 1                     3.10228  -1.0825   -1.3018 
 1                     2.44339  -3.11784  -2.42145 
 1                     1.03351  -3.82365  -2.85527 
 1                    -5.10244  -2.13766   2.36802 
 1                     4.94864   0.01971  -1.32027 
 1                     5.93514   1.19292  -0.60889 
 1                    -2.90884  -0.0132   -0.46192 
 1                     0.34339   1.89326  -0.45276 
 1                    -1.63171  -4.62414  -0.88257 
 1                    -2.51797  -3.69136  -2.37599 
 1                    -1.06065  -4.30197  -2.59082 
 1                    -2.48395  -3.65108   0.5258 
 1                     1.22562  -5.02416  -0.4303 
 1                     2.43197  -5.21679  -1.40543 
 1                     4.99286  -1.30867   0.83212 
 1                     5.42402   0.32081   1.83916 
 1                     4.59692   4.62621  -0.24745 
 1                     5.48487   3.35827   0.57087 
 1                     4.        4.09508   1.29776 
 1                     1.81052   4.94339   0.5056 
 1                    -7.55041  -2.0322    1.42546 
 1                    -7.44964  -3.84487   2.08275 
 1                    -7.17875  -3.49912   0.3783 
 1                    -6.91095  -0.77685  -0.17817 
 1                    -4.9148    1.12443  -0.49726 
 1                    -6.2361    0.91366  -1.58904 
 1                    -4.65379   0.0593   -1.91309 
 1                    -3.5041    6.25697   1.16881 
 1                    -4.15335   4.64061   0.93983 
 1                    -0.03492   6.97163   1.70974 
 1                    -1.38594   7.21986   0.84827 
 1                     0.11412   6.91826  -0.08028 
 1                    -3.58426   6.52531  -1.53772 
 1                    -5.13477   6.35382  -0.69902 
 1                    -4.33261   5.00369  -1.69353 
 1                     3.54615  -4.19603   1.957 
 1                     8.17617  -1.74847   2.04457 
 
 Stoichiometry    C33H38N4O6
 Framework group  C1[X(C33H38N4O6)]
 Deg. of freedom   237
 Full point group                 C1      NOp   1
 Largest Abelian subgroup         C1      NOp   1
 Largest concise Abelian subgroup C1      NOp   1
                         Standard orientation:                         
 ---------------------------------------------------------------------
 Center     Atomic      Atomic             Coordinates (Angstroms)
 Number     Number       Type             X           Y           Z
 ---------------------------------------------------------------------
      1          8           0        4.576434   -4.805292   -1.720352
      2          8           0       -2.899518   -4.828639   -1.200342
      3          8           0       -7.151797   -1.619965   -1.819328
      4          8           0       -3.658439   -3.006504    0.066815
      5          8           0       -7.956305   -0.517094    0.046391
      6          8           0        2.989858    2.540321    0.139640
      7          7           0        0.367706   -0.613554    0.422009
      8          7           0       -1.523082    1.750522    0.258454
      9          7           0        3.404282   -3.054951   -0.641564
     10          7           0        0.720154    2.940701    0.134093
     11          6           0       -0.451794   -2.422971    1.391638
     12          6           0       -0.851682   -1.156230    0.879725
     13          6           0        0.879744   -2.645212    1.207074
     14          6           0        1.402110   -1.441362    0.637458
     15          6           0       -3.808245    1.317832    0.324704
     16          6           0       -2.433649    0.697431    0.570919
     17          6           0       -2.100458   -0.560384    0.816234
     18          6           0       -3.640639    2.659011   -0.005382
     19          6           0       -1.484203   -3.471672    2.025092
     20          6           0        5.601587   -2.574375   -1.437574
     21          6           0        3.693181   -1.740951   -0.161136
     22          6           0       -2.266985    2.882090    0.020311
     23          6           0        5.151582   -1.490701   -0.402840
     24          6           0       -5.029680    0.513903    0.439252
     25          6           0        2.755528   -0.936225    0.427255
     26          6           0        1.648569   -3.777491    1.873005
     27          6           0        4.519277   -3.637739   -1.317360
     28          6           0       -1.950768   -4.560822    1.012516
     29          6           0       -5.576339   -0.448071   -0.763774
     30          6           0       -4.602724    3.651956   -0.470813
     31          6           0       -1.426605    4.052065   -0.268819
     32          6           0        7.074138   -3.038414   -1.348882
     33          6           0        5.916734   -0.605339    0.298489
     34          6           0       -0.086783    3.975442   -0.129859
     35          6           0        0.847772    5.162134   -0.478059
     36          6           0        2.067761    4.744553   -0.329309
     37          6           0       -2.902582   -3.991264   -0.118704
     38          6           0        5.450267    0.447856    1.144744
     39          6           0       -7.008361   -0.801105   -0.789232
     40          6           0        3.495541    5.415711   -0.429613
     41          6           0        2.071297    3.245119    0.013921
     42          6           0        0.457043    6.592081   -0.710542
     43          6           0        4.053221    5.892096    1.018522
     44          1           0        0.389601    0.441976    0.108891
     45          1           0       -3.080740   -1.125288    1.322934
     46          1           0       -2.386903   -3.147067    2.446041
     47          1           0       -0.964823   -3.830959    2.875113
     48          1           0        5.120021   -2.074288   -2.384544
     49          1           0       -4.942726   -0.049817    1.347006
     50          1           0       -5.949623    1.106595    0.636694
     51          1           0        2.910031    0.027887    0.449288
     52          1           0       -0.369441    1.887114    0.450127
     53          1           0        1.701843   -4.599572    0.891721
     54          1           0        2.581937   -3.648996    2.377547
     55          1           0        1.134690   -4.279864    2.601740
     56          1           0        2.532900   -3.619099   -0.524150
     57          1           0       -1.151615   -5.042372    0.455153
     58          1           0       -2.350187   -5.249089    1.436970
     59          1           0       -4.978449   -1.386014   -0.800693
     60          1           0       -5.438136    0.233621   -1.810974
     61          1           0       -4.663024    4.557610    0.257091
     62          1           0       -5.536601    3.274189   -0.552532
     63          1           0       -4.066185    4.029892   -1.289326
     64          1           0       -1.885287    4.912450   -0.511014
     65          1           0        7.570867   -1.930258   -1.454656
     66          1           0        7.493060   -3.746425   -2.105388
     67          1           0        7.225681   -3.398818   -0.400759
     68          1           0        6.921306   -0.678822    0.147968
     69          1           0        4.899474    1.194489    0.470756
     70          1           0        6.229102    1.006553    1.556569
     71          1           0        4.660957    0.130533    1.891422
     72          1           0        3.406406    6.300408   -1.205310
     73          1           0        4.080103    4.694392   -0.974202
     74          1           0       -0.075400    6.963024   -1.731173
     75          1           0        1.276161    7.233680   -0.877338
     76          1           0       -0.214739    6.913604    0.059747
     77          1           0        3.496147    6.579095    1.499879
     78          1           0        5.044777    6.427169    0.653965
     79          1           0        4.267194    5.068989    1.656994
     80          1           0       -3.495738   -4.255991   -1.923200
     81          1           0       -8.161062   -1.875887   -1.995654
 ---------------------------------------------------------------------
 Rotational constants (GHZ):           0.0763018           0.0534698           0.0336039
 Standard basis: SVP (5D, 7F)
 There are   835 symmetry adapted cartesian basis functions of A   symmetry.
 There are   792 symmetry adapted basis functions of A   symmetry.
   792 basis functions,  1341 primitive gaussians,   835 cartesian basis functions
   156 alpha electrons      156 beta electrons
       nuclear repulsion energy      5027.7764536355 Hartrees.
 NAtoms=   81 NActive=   81 NUniq=   81 SFac= 1.00D+00 NAtFMM=   60 NAOKFM=T Big=T
 Integral buffers will be    131072 words long.
 Regular integral format.
 Two-electron integral symmetry is turned on.
 One-electron integrals computed using PRISM.
 NBasis=   792 RedAO= T EigKep=  3.53D-04  NBF=   792
 NBsUse=   792 1.00D-06 EigRej= -1.00D+00 NBFU=   792
 ExpMin= 1.22D-01 ExpMax= 2.27D+03 ExpMxC= 3.41D+02 IAcc=3 IRadAn=         5 AccDes= 0.00D+00
 Harris functional with IExCor=  402 and IRadAn=       5 diagonalized for initial guess.
 HarFok:  IExCor=  402 AccDes= 0.00D+00 IRadAn=         5 IDoV= 1 UseB2=F ITyADJ=14
 ICtDFT=  3500011 ScaDFX=  1.000000  1.000000  1.000000  1.000000
 FoFCou: FMM=F IPFlag=           0 FMFlag=      100000 FMFlg1=        2001
         NFxFlg=           0 DoJE=T BraDBF=F KetDBF=T FulRan=T
         wScrn=  0.000000 ICntrl=       500 IOpCl=  0 I1Cent=   200000004 NGrid=           0
         NMat0=    1 NMatS0=      1 NMatT0=    0 NMatD0=    1 NMtDS0=    0 NMtDT0=    0
 Petite list used in FoFCou.
 Requested convergence on RMS density matrix=1.00D-08 within 128 cycles.
 Requested convergence on MAX density matrix=1.00D-06.
 Requested convergence on             energy=1.00D-06.
 No special actions if energy rises.
 Integral accuracy reduced to 1.0D-05 until final iterations.
 Initial convergence to 1.0D-05 achieved.  Increase integral accuracy.
 SCF Done:  E(RB3LYP) =  -1949.05820162     A.U. after   16 cycles
            NFock= 16  Conv=0.46D-08     -V/T= 2.0105
 DoSCS=F DFT=T ScalE2(SS,OS)=  1.000000  1.000000
 ExpMin= 1.22D-01 ExpMax= 2.27D+03 ExpMxC= 3.41D+02 IAcc=3 IRadAn=         5 AccDes= 0.00D+00
 HarFok:  IExCor=  205 AccDes= 0.00D+00 IRadAn=         5 IDoV=-2 UseB2=F ITyADJ=14
 ICtDFT= 12500011 ScaDFX=  1.000000  1.000000  1.000000  1.000000
 GSVD:  LWork=       -2193 too small for GESVD, short by        9890 words or        9890 for optimal perf.
 Range of M.O.s used for correlation:    44   792
 NBasis=   792 NAE=   156 NBE=   156 NFC=    43 NFV=     0
 NROrb=    749 NOA=   113 NOB=   113 NVA=   636 NVB=   636

 **** Warning!!: The smallest alpha delta epsilon is  0.85475687D-01

 Orbital symmetries:
       Occupied  (A) (A) (A) (A) (A) (A) (A) (A) (A) (A) (A) (A)
                 (A) (A) (A) (A) (A) (A) (A) (A) (A) (A) (A) (A)
                 (A) (A) (A) (A) (A) (A) (A) (A) (A) (A) (A) (A)
                 (A) (A) (A) (A) (A) (A) (A) (A) (A) (A) (A) (A)
                 (A) (A) (A) (A) (A) (A) (A) (A) (A) (A) (A) (A)
                 (A) (A) (A) (A) (A) (A) (A) (A) (A) (A) (A) (A)
                 (A) (A) (A) (A) (A) (A) (A) (A) (A) (A) (A) (A)
                 (A) (A) (A) (A) (A) (A) (A) (A) (A) (A) (A) (A)
                 (A) (A) (A) (A) (A) (A) (A) (A) (A) (A) (A) (A)
                 (A) (A) (A) (A) (A) (A) (A) (A) (A) (A) (A) (A)
                 (A) (A) (A) (A) (A) (A) (A) (A) (A) (A) (A) (A)
                 (A) (A) (A) (A) (A) (A) (A) (A) (A) (A) (A) (A)
                 (A) (A) (A) (A) (A) (A) (A) (A) (A) (A) (A) (A)
       Virtual   (A) (A) (A) (A) (A) (A) (A) (A) (A) (A) (A) (A)
                 (A) (A) (A) (A) (A) (A) (A) (A) (A) (A) (A) (A)
                 (A) (A) (A) (A) (A) (A) (A) (A) (A) (A) (A) (A)
                 (A) (A) (A) (A) (A) (A) (A) (A) (A) (A) (A) (A)
                 (A) (A) (A) (A) (A) (A) (A) (A) (A) (A) (A) (A)
                 (A) (A) (A) (A) (A) (A) (A) (A) (A) (A) (A) (A)
                 (A) (A) (A) (A) (A) (A) (A) (A) (A) (A) (A) (A)
                 (A) (A) (A) (A) (A) (A) (A) (A) (A) (A) (A) (A)
                 (A) (A) (A) (A) (A) (A) (A) (A) (A) (A) (A) (A)
                 (A) (A) (A) (A) (A) (A) (A) (A) (A) (A) (A) (A)
                 (A) (A) (A) (A) (A) (A) (A) (A) (A) (A) (A) (A)
                 (A) (A) (A) (A) (A) (A) (A) (A) (A) (A) (A) (A)
                 (A) (A) (A) (A) (A) (A) (A) (A) (A) (A) (A) (A)
                 (A) (A) (A) (A) (A) (A) (A) (A) (A) (A) (A) (A)
                 (A) (A) (A) (A) (A) (A) (A) (A) (A) (A) (A) (A)
                 (A) (A) (A) (A) (A) (A) (A) (A) (A) (A) (A) (A)
                 (A) (A) (A) (A) (A) (A) (A) (A) (A) (A) (A) (A)
                 (A) (A) (A) (A) (A) (A) (A) (A) (A) (A) (A) (A)
                 (A) (A) (A) (A) (A) (A) (A) (A) (A) (A) (A) (A)
                 (A) (A) (A) (A) (A) (A) (A) (A) (A) (A) (A) (A)
                 (A) (A) (A) (A) (A) (A) (A) (A) (A) (A) (A) (A)
                 (A) (A) (A) (A) (A) (A) (A) (A) (A) (A) (A) (A)
                 (A) (A) (A) (A) (A) (A) (A) (A) (A) (A) (A) (A)
                 (A) (A) (A) (A) (A) (A) (A) (A) (A) (A) (A) (A)
                 (A) (A) (A) (A) (A) (A) (A) (A) (A) (A) (A) (A)
                 (A) (A) (A) (A) (A) (A) (A) (A) (A) (A) (A) (A)
                 (A) (A) (A) (A) (A) (A) (A) (A) (A) (A) (A) (A)
                 (A) (A) (A) (A) (A) (A) (A) (A) (A) (A) (A) (A)
                 (A) (A) (A) (A) (A) (A) (A) (A) (A) (A) (A) (A)
                 (A) (A) (A) (A) (A) (A) (A) (A) (A) (A) (A) (A)
                 (A) (A) (A) (A) (A) (A) (A) (A) (A) (A) (A) (A)
                 (A) (A) (A) (A) (A) (A) (A) (A) (A) (A) (A) (A)
                 (A) (A) (A) (A) (A) (A) (A) (A) (A) (A) (A) (A)
                 (A) (A) (A) (A) (A) (A) (A) (A) (A) (A) (A) (A)
                 (A) (A) (A) (A) (A) (A) (A) (A) (A) (A) (A) (A)
                 (A) (A) (A) (A) (A) (A) (A) (A) (A) (A) (A) (A)
                 (A) (A) (A) (A) (A) (A) (A) (A) (A) (A) (A) (A)
                 (A) (A) (A) (A) (A) (A) (A) (A) (A) (A) (A) (A)
                 (A) (A) (A) (A) (A) (A) (A) (A) (A) (A) (A) (A)
                 (A) (A) (A) (A) (A) (A) (A) (A) (A) (A) (A) (A)
                 (A) (A) (A) (A) (A) (A) (A) (A) (A) (A) (A) (A)
                 (A) (A) (A) (A) (A) (A) (A) (A) (A) (A) (A) (A)
                 (A) (A) (A) (A) (A) (A) (A) (A) (A) (A) (A) (A)
                 (A) (A) (A) (A) (A) (A) (A) (A) (A) (A) (A) (A)
                 (A) (A) (A) (A) (A) (A) (A) (A) (A) (A) (A) (A)
                 (A) (A) (A) (A) (A) (A) (A) (A) (A) (A) (A) (A)
                 (A) (A) (A) (A) (A) (A) (A) (A) (A) (A) (A) (A)
                 (A) (A) (A) (A) (A) (A) (A) (A) (A) (A) (A) (A)
                 (A) (A) (A) (A) (A) (A) (A) (A) (A) (A) (A) (A)
                 (A) (A) (A) (A) (A) (A) (A) (A) (A) (A) (A) (A)
                 (A) (A) (A) (A) (A) (A) (A) (A) (A) (A) (A) (A)
                 (A) (A) (A) (A) (A) (A) (A) (A) (A) (A) (A) (A)
                 (A) (A) (A) (A) (A) (A) (A) (A) (A) (A) (A) (A)
     4 initial guesses have been made.
 Convergence on wavefunction:    0.001000000000000
 Iteration     1 Dimension     4 NMult     0 NNew      4
 CISAX will form     4 AO SS matrices at one time.
 Iteration     2 Dimension     6 NMult     4 NNew      2
 Iteration     3 Dimension     8 NMult     6 NNew      2
 Iteration     4 Dimension    10 NMult     8 NNew      2
 Iteration     5 Dimension    12 NMult    10 NNew      2
 Iteration     6 Dimension    14 NMult    12 NNew      2
 ***********************************************************************
 Excited states from <AA,BB:AA,BB> singles matrix:
 ***********************************************************************
 
 Ground to excited state transition densities written to RWF  633
 Ground to excited state transition electric dipole moments (Au):
       state          X           Y           Z        Dip. S.      Osc.
         1        -1.2636      2.5698     -0.2044      8.2422      0.4279
 Ground to excited state transition velocity dipole moments (Au):
       state          X           Y           Z        Dip. S.      Osc.
         1         0.0978     -0.1916      0.0167      0.0465      0.3984
 Ground to excited state transition magnetic dipole moments (Au):
       state          X           Y           Z
         1         0.3130      0.5894      2.2941
 Ground to excited state transition velocity quadrupole moments (Au):
       state          XX          YY          ZZ          XY          XZ          YZ
         1         0.4277     -0.6240      0.0857     -0.4264     -0.0527      0.0253
 <0|del|b> * <b|rxdel|0> + <0|del|b> * <b|delr+rdel|0>
 Rotatory Strengths (R) in cgs (10**-40 erg-esu-cm/Gauss)
       state          XX          YY          ZZ    R(velocity)    E-M Angle
         1      -417.3211    355.9649   -339.0681   -133.4748       94.91
 1/2[<0|r|b>*<b|rxdel|0> + (<0|rxdel|b>*<b|r|0>)*]
 Rotatory Strengths (R) in cgs (10**-40 erg-esu-cm/Gauss)
       state          XX          YY          ZZ     R(length)
         1       279.7331  -1071.0202    331.5459   -153.2471
  1/2[<0|del|b>*<b|r|0> + (<0|r|b>*<b|del|0>)*] (Au)
       state          X           Y           Z        Dip. S.   Osc.(frdel)
         1        -0.1235     -0.4923     -0.0034      0.6193      0.4128

 Excitation energies and oscillator strengths:
 
 Excited State   1:      Singlet-A      2.1189 eV  585.14 nm  f=0.4279  <S**2>=0.000
     156 ->157         0.70601
 This state for optimization and/or second-order correction.
 Total Energy, E(TD-HF/TD-DFT) =  -1948.98033381    
 Copying the excited state density for this state as the 1-particle RhoCI density.
 SavETr:  write IOETrn=   770 NScale= 10 NData=  16 NLR=1 NState=    1 LETran=      28.

 **********************************************************************

            Population analysis using the SCF density.

 **********************************************************************

 Orbital symmetries:
       Occupied  (A) (A) (A) (A) (A) (A) (A) (A) (A) (A) (A) (A)
                 (A) (A) (A) (A) (A) (A) (A) (A) (A) (A) (A) (A)
                 (A) (A) (A) (A) (A) (A) (A) (A) (A) (A) (A) (A)
                 (A) (A) (A) (A) (A) (A) (A) (A) (A) (A) (A) (A)
                 (A) (A) (A) (A) (A) (A) (A) (A) (A) (A) (A) (A)
                 (A) (A) (A) (A) (A) (A) (A) (A) (A) (A) (A) (A)
                 (A) (A) (A) (A) (A) (A) (A) (A) (A) (A) (A) (A)
                 (A) (A) (A) (A) (A) (A) (A) (A) (A) (A) (A) (A)
                 (A) (A) (A) (A) (A) (A) (A) (A) (A) (A) (A) (A)
                 (A) (A) (A) (A) (A) (A) (A) (A) (A) (A) (A) (A)
                 (A) (A) (A) (A) (A) (A) (A) (A) (A) (A) (A) (A)
                 (A) (A) (A) (A) (A) (A) (A) (A) (A) (A) (A) (A)
                 (A) (A) (A) (A) (A) (A) (A) (A) (A) (A) (A) (A)
       Virtual   (A) (A) (A) (A) (A) (A) (A) (A) (A) (A) (A) (A)
                 (A) (A) (A) (A) (A) (A) (A) (A) (A) (A) (A) (A)
                 (A) (A) (A) (A) (A) (A) (A) (A) (A) (A) (A) (A)
                 (A) (A) (A) (A) (A) (A) (A) (A) (A) (A) (A) (A)
                 (A) (A) (A) (A) (A) (A) (A) (A) (A) (A) (A) (A)
                 (A) (A) (A) (A) (A) (A) (A) (A) (A) (A) (A) (A)
                 (A) (A) (A) (A) (A) (A) (A) (A) (A) (A) (A) (A)
                 (A) (A) (A) (A) (A) (A) (A) (A) (A) (A) (A) (A)
                 (A) (A) (A) (A) (A) (A) (A) (A) (A) (A) (A) (A)
                 (A) (A) (A) (A) (A) (A) (A) (A) (A) (A) (A) (A)
                 (A) (A) (A) (A) (A) (A) (A) (A) (A) (A) (A) (A)
                 (A) (A) (A) (A) (A) (A) (A) (A) (A) (A) (A) (A)
                 (A) (A) (A) (A) (A) (A) (A) (A) (A) (A) (A) (A)
                 (A) (A) (A) (A) (A) (A) (A) (A) (A) (A) (A) (A)
                 (A) (A) (A) (A) (A) (A) (A) (A) (A) (A) (A) (A)
                 (A) (A) (A) (A) (A) (A) (A) (A) (A) (A) (A) (A)
                 (A) (A) (A) (A) (A) (A) (A) (A) (A) (A) (A) (A)
                 (A) (A) (A) (A) (A) (A) (A) (A) (A) (A) (A) (A)
                 (A) (A) (A) (A) (A) (A) (A) (A) (A) (A) (A) (A)
                 (A) (A) (A) (A) (A) (A) (A) (A) (A) (A) (A) (A)
                 (A) (A) (A) (A) (A) (A) (A) (A) (A) (A) (A) (A)
                 (A) (A) (A) (A) (A) (A) (A) (A) (A) (A) (A) (A)
                 (A) (A) (A) (A) (A) (A) (A) (A) (A) (A) (A) (A)
                 (A) (A) (A) (A) (A) (A) (A) (A) (A) (A) (A) (A)
                 (A) (A) (A) (A) (A) (A) (A) (A) (A) (A) (A) (A)
                 (A) (A) (A) (A) (A) (A) (A) (A) (A) (A) (A) (A)
                 (A) (A) (A) (A) (A) (A) (A) (A) (A) (A) (A) (A)
                 (A) (A) (A) (A) (A) (A) (A) (A) (A) (A) (A) (A)
                 (A) (A) (A) (A) (A) (A) (A) (A) (A) (A) (A) (A)
                 (A) (A) (A) (A) (A) (A) (A) (A) (A) (A) (A) (A)
                 (A) (A) (A) (A) (A) (A) (A) (A) (A) (A) (A) (A)
                 (A) (A) (A) (A) (A) (A) (A) (A) (A) (A) (A) (A)
                 (A) (A) (A) (A) (A) (A) (A) (A) (A) (A) (A) (A)
                 (A) (A) (A) (A) (A) (A) (A) (A) (A) (A) (A) (A)
                 (A) (A) (A) (A) (A) (A) (A) (A) (A) (A) (A) (A)
                 (A) (A) (A) (A) (A) (A) (A) (A) (A) (A) (A) (A)
                 (A) (A) (A) (A) (A) (A) (A) (A) (A) (A) (A) (A)
                 (A) (A) (A) (A) (A) (A) (A) (A) (A) (A) (A) (A)
                 (A) (A) (A) (A) (A) (A) (A) (A) (A) (A) (A) (A)
                 (A) (A) (A) (A) (A) (A) (A) (A) (A) (A) (A) (A)
                 (A) (A) (A) (A) (A) (A) (A) (A) (A) (A) (A) (A)
                 (A) (A) (A) (A) (A) (A) (A) (A) (A) (A) (A) (A)
                 (A) (A) (A) (A) (A) (A) (A) (A) (A) (A) (A) (A)
                 (A) (A) (A) (A) (A) (A) (A) (A) (A) (A) (A) (A)
                 (A) (A) (A) (A) (A) (A) (A) (A) (A) (A) (A) (A)
                 (A) (A) (A) (A) (A) (A) (A) (A) (A) (A) (A) (A)
                 (A) (A) (A) (A) (A) (A) (A) (A) (A) (A) (A) (A)
                 (A) (A) (A) (A) (A) (A) (A) (A) (A) (A) (A) (A)
                 (A) (A) (A) (A) (A) (A) (A) (A) (A) (A) (A) (A)
                 (A) (A) (A) (A) (A) (A) (A) (A) (A) (A) (A) (A)
                 (A) (A) (A) (A) (A) (A) (A) (A) (A) (A) (A) (A)
                 (A) (A) (A) (A) (A) (A) (A) (A) (A) (A) (A) (A)
                 (A) (A) (A) (A) (A) (A) (A) (A) (A) (A) (A) (A)
 The electronic state is 1-A.
 Alpha  occ. eigenvalues --  -19.21794 -19.19759 -19.15382 -19.12189 -19.10997
 Alpha  occ. eigenvalues --  -19.10622 -14.38249 -14.36916 -14.34373 -14.28734
 Alpha  occ. eigenvalues --  -10.34825 -10.32655 -10.29309 -10.26113 -10.24719
 Alpha  occ. eigenvalues --  -10.23897 -10.23299 -10.22472 -10.22279 -10.22151
 Alpha  occ. eigenvalues --  -10.22125 -10.22049 -10.21375 -10.21057 -10.20972
 Alpha  occ. eigenvalues --  -10.20736 -10.20576 -10.20519 -10.20204 -10.20189
 Alpha  occ. eigenvalues --  -10.20074 -10.19749 -10.19664 -10.19468 -10.19087
 Alpha  occ. eigenvalues --  -10.19002 -10.18870 -10.18411 -10.18022 -10.17879
 Alpha  occ. eigenvalues --  -10.17547 -10.17309 -10.17031  -1.09421  -1.09005
 Alpha  occ. eigenvalues --   -1.04409  -1.01834  -1.01034  -0.98333  -0.96766
 Alpha  occ. eigenvalues --   -0.95562  -0.93448  -0.91469  -0.81999  -0.81767
 Alpha  occ. eigenvalues --   -0.81503  -0.81292  -0.78973  -0.78332  -0.78291
 Alpha  occ. eigenvalues --   -0.77209  -0.76470  -0.75319  -0.73386  -0.72443
 Alpha  occ. eigenvalues --   -0.71870  -0.69844  -0.68769  -0.68650  -0.67793
 Alpha  occ. eigenvalues --   -0.67669  -0.65541  -0.64275  -0.62118  -0.61573
 Alpha  occ. eigenvalues --   -0.60431  -0.59333  -0.58776  -0.57595  -0.57139
 Alpha  occ. eigenvalues --   -0.55621  -0.55022  -0.54385  -0.54206  -0.52786
 Alpha  occ. eigenvalues --   -0.52262  -0.51561  -0.50775  -0.50497  -0.49256
 Alpha  occ. eigenvalues --   -0.49043  -0.48910  -0.47976  -0.47790  -0.47491
 Alpha  occ. eigenvalues --   -0.47098  -0.46542  -0.46434  -0.46009  -0.45804
 Alpha  occ. eigenvalues --   -0.45063  -0.44801  -0.44366  -0.43932  -0.43542
 Alpha  occ. eigenvalues --   -0.43349  -0.42995  -0.42908  -0.42749  -0.42246
 Alpha  occ. eigenvalues --   -0.42019  -0.41823  -0.41691  -0.41551  -0.40971
 Alpha  occ. eigenvalues --   -0.40711  -0.40168  -0.40079  -0.40039  -0.39769
 Alpha  occ. eigenvalues --   -0.39418  -0.39055  -0.38757  -0.38539  -0.38089
 Alpha  occ. eigenvalues --   -0.37926  -0.37382  -0.37274  -0.36936  -0.36632
 Alpha  occ. eigenvalues --   -0.36403  -0.35959  -0.35443  -0.35391  -0.35286
 Alpha  occ. eigenvalues --   -0.34529  -0.34333  -0.34108  -0.33866  -0.33387
 Alpha  occ. eigenvalues --   -0.33012  -0.31890  -0.31060  -0.30362  -0.29759
 Alpha  occ. eigenvalues --   -0.27361  -0.27217  -0.26565  -0.26024  -0.25251
 Alpha  occ. eigenvalues --   -0.24749  -0.24278  -0.23566  -0.23335  -0.21591
 Alpha  occ. eigenvalues --   -0.18074
 Alpha virt. eigenvalues --   -0.09526  -0.04501  -0.03152  -0.02837  -0.01391
 Alpha virt. eigenvalues --    0.00067   0.00555   0.01708   0.02199   0.02545
 Alpha virt. eigenvalues --    0.04291   0.04583   0.05138   0.05601   0.06007
 Alpha virt. eigenvalues --    0.06257   0.06983   0.07581   0.07849   0.08013
 Alpha virt. eigenvalues --    0.08273   0.08806   0.09253   0.09564   0.10281
 Alpha virt. eigenvalues --    0.10425   0.10620   0.11161   0.11350   0.11581
 Alpha virt. eigenvalues --    0.11981   0.12460   0.12664   0.13028   0.13361
 Alpha virt. eigenvalues --    0.13455   0.13732   0.14160   0.14327   0.14677
 Alpha virt. eigenvalues --    0.15374   0.15615   0.15738   0.16199   0.16575
 Alpha virt. eigenvalues --    0.16832   0.17070   0.17236   0.17704   0.18253
 Alpha virt. eigenvalues --    0.18596   0.18911   0.19142   0.19391   0.19720
 Alpha virt. eigenvalues --    0.20152   0.20576   0.21255   0.21404   0.21901
 Alpha virt. eigenvalues --    0.21969   0.22434   0.22580   0.22740   0.22960
 Alpha virt. eigenvalues --    0.23384   0.23813   0.24508   0.24585   0.25444
 Alpha virt. eigenvalues --    0.25955   0.26708   0.26919   0.27449   0.28000
 Alpha virt. eigenvalues --    0.28394   0.28952   0.29735   0.30205   0.30528
 Alpha virt. eigenvalues --    0.31376   0.32146   0.32330   0.33095   0.33727
 Alpha virt. eigenvalues --    0.34461   0.34816   0.35457   0.36370   0.36647
 Alpha virt. eigenvalues --    0.36802   0.37342   0.37968   0.38222   0.38618
 Alpha virt. eigenvalues --    0.39401   0.39861   0.40457   0.40714   0.40844
 Alpha virt. eigenvalues --    0.41087   0.41761   0.42215   0.42736   0.43249
 Alpha virt. eigenvalues --    0.43592   0.43749   0.43887   0.44490   0.44653
 Alpha virt. eigenvalues --    0.45059   0.45164   0.45576   0.45859   0.46093
 Alpha virt. eigenvalues --    0.46317   0.46849   0.47094   0.47279   0.47695
 Alpha virt. eigenvalues --    0.47864   0.48278   0.48489   0.49357   0.49527
 Alpha virt. eigenvalues --    0.49691   0.50179   0.50254   0.50641   0.51023
 Alpha virt. eigenvalues --    0.51371   0.51621   0.52227   0.52309   0.52914
 Alpha virt. eigenvalues --    0.53152   0.53475   0.54077   0.54905   0.55625
 Alpha virt. eigenvalues --    0.55692   0.56008   0.56332   0.56614   0.57327
 Alpha virt. eigenvalues --    0.57730   0.57875   0.58060   0.58334   0.58593
 Alpha virt. eigenvalues --    0.59068   0.59384   0.59439   0.59747   0.60160
 Alpha virt. eigenvalues --    0.60342   0.60790   0.60926   0.61204   0.61958
 Alpha virt. eigenvalues --    0.62153   0.62352   0.62698   0.63154   0.63236
 Alpha virt. eigenvalues --    0.63425   0.63762   0.64048   0.64294   0.64718
 Alpha virt. eigenvalues --    0.65103   0.65149   0.65312   0.66009   0.66602
 Alpha virt. eigenvalues --    0.66801   0.67017   0.67159   0.67521   0.67641
 Alpha virt. eigenvalues --    0.68063   0.68424   0.68546   0.68828   0.68884
 Alpha virt. eigenvalues --    0.69340   0.69513   0.69657   0.69850   0.70054
 Alpha virt. eigenvalues --    0.70125   0.70663   0.70955   0.71364   0.71457
 Alpha virt. eigenvalues --    0.71580   0.71915   0.72040   0.72564   0.72658
 Alpha virt. eigenvalues --    0.72980   0.73437   0.73659   0.74027   0.74121
 Alpha virt. eigenvalues --    0.74392   0.74667   0.74896   0.75455   0.75866
 Alpha virt. eigenvalues --    0.76652   0.76753   0.77006   0.77665   0.78286
 Alpha virt. eigenvalues --    0.78491   0.78660   0.79283   0.79436   0.79628
 Alpha virt. eigenvalues --    0.80393   0.80727   0.81160   0.81930   0.82342
 Alpha virt. eigenvalues --    0.83351   0.84088   0.84107   0.85090   0.85664
 Alpha virt. eigenvalues --    0.85912   0.87195   0.87753   0.88943   0.89607
 Alpha virt. eigenvalues --    0.89782   0.90187   0.90929   0.91283   0.91620
 Alpha virt. eigenvalues --    0.92255   0.93055   0.93724   0.93949   0.94413
 Alpha virt. eigenvalues --    0.94966   0.95068   0.95779   0.96398   0.96986
 Alpha virt. eigenvalues --    0.97668   0.98085   0.98612   0.99270   0.99971
 Alpha virt. eigenvalues --    1.00648   1.01447   1.02040   1.02845   1.03954
 Alpha virt. eigenvalues --    1.04242   1.04975   1.05446   1.06502   1.07120
 Alpha virt. eigenvalues --    1.08633   1.09198   1.09630   1.09913   1.10419
 Alpha virt. eigenvalues --    1.11328   1.12110   1.12231   1.12689   1.13000
 Alpha virt. eigenvalues --    1.14397   1.14497   1.15378   1.16266   1.16465
 Alpha virt. eigenvalues --    1.17231   1.18172   1.18685   1.19215   1.20427
 Alpha virt. eigenvalues --    1.21672   1.22024   1.22037   1.22990   1.23704
 Alpha virt. eigenvalues --    1.24100   1.25211   1.25445   1.26814   1.27089
 Alpha virt. eigenvalues --    1.27473   1.27972   1.29008   1.29999   1.30555
 Alpha virt. eigenvalues --    1.30841   1.31998   1.33078   1.33330   1.33667
 Alpha virt. eigenvalues --    1.34145   1.34796   1.35131   1.35480   1.36864
 Alpha virt. eigenvalues --    1.37415   1.37666   1.38996   1.39526   1.40408
 Alpha virt. eigenvalues --    1.41078   1.41639   1.41993   1.42481   1.42825
 Alpha virt. eigenvalues --    1.43159   1.43961   1.44798   1.45445   1.46004
 Alpha virt. eigenvalues --    1.46813   1.47226   1.48473   1.49109   1.49447
 Alpha virt. eigenvalues --    1.49919   1.50672   1.50985   1.51413   1.52037
 Alpha virt. eigenvalues --    1.52443   1.53114   1.53362   1.53801   1.54627
 Alpha virt. eigenvalues --    1.54746   1.55757   1.56133   1.56942   1.57043
 Alpha virt. eigenvalues --    1.57260   1.58152   1.58493   1.58975   1.59441
 Alpha virt. eigenvalues --    1.59742   1.60805   1.61681   1.61932   1.62246
 Alpha virt. eigenvalues --    1.63004   1.63238   1.63648   1.63939   1.64487
 Alpha virt. eigenvalues --    1.64853   1.65666   1.65763   1.66572   1.66669
 Alpha virt. eigenvalues --    1.67884   1.67979   1.68263   1.68540   1.69071
 Alpha virt. eigenvalues --    1.69460   1.69793   1.70998   1.71153   1.71580
 Alpha virt. eigenvalues --    1.72445   1.73066   1.73180   1.73797   1.74318
 Alpha virt. eigenvalues --    1.74628   1.75097   1.75144   1.75547   1.75829
 Alpha virt. eigenvalues --    1.76077   1.76500   1.77313   1.77534   1.77905
 Alpha virt. eigenvalues --    1.78656   1.78900   1.79298   1.79641   1.79761
 Alpha virt. eigenvalues --    1.80275   1.80511   1.81066   1.81571   1.81884
 Alpha virt. eigenvalues --    1.82673   1.82860   1.83490   1.83632   1.83833
 Alpha virt. eigenvalues --    1.84341   1.84792   1.85148   1.85386   1.86076
 Alpha virt. eigenvalues --    1.86709   1.87150   1.87884   1.88392   1.88657
 Alpha virt. eigenvalues --    1.89341   1.89618   1.89973   1.90314   1.90872
 Alpha virt. eigenvalues --    1.91275   1.91482   1.91865   1.92103   1.92687
 Alpha virt. eigenvalues --    1.92976   1.93287   1.94062   1.94401   1.94940
 Alpha virt. eigenvalues --    1.95314   1.95855   1.95967   1.96405   1.96548
 Alpha virt. eigenvalues --    1.97059   1.97264   1.97881   1.98521   1.98874
 Alpha virt. eigenvalues --    1.99755   2.00505   2.00632   2.01837   2.02114
 Alpha virt. eigenvalues --    2.02597   2.02694   2.03144   2.03558   2.03721
 Alpha virt. eigenvalues --    2.04600   2.05270   2.05628   2.06630   2.07456
 Alpha virt. eigenvalues --    2.07945   2.08230   2.08750   2.09025   2.09890
 Alpha virt. eigenvalues --    2.10290   2.10681   2.11186   2.11503   2.12327
 Alpha virt. eigenvalues --    2.12912   2.13175   2.14471   2.14585   2.15087
 Alpha virt. eigenvalues --    2.15512   2.16410   2.17941   2.18263   2.19439
 Alpha virt. eigenvalues --    2.20884   2.21545   2.22063   2.22729   2.23098
 Alpha virt. eigenvalues --    2.23520   2.24283   2.25597   2.25765   2.26150
 Alpha virt. eigenvalues --    2.26266   2.27342   2.28203   2.29169   2.29483
 Alpha virt. eigenvalues --    2.30426   2.30683   2.31124   2.32268   2.32749
 Alpha virt. eigenvalues --    2.33391   2.34282   2.34710   2.34868   2.35882
 Alpha virt. eigenvalues --    2.36588   2.37626   2.37895   2.38414   2.38982
 Alpha virt. eigenvalues --    2.39053   2.40296   2.40525   2.41307   2.42360
 Alpha virt. eigenvalues --    2.42508   2.44243   2.44480   2.44944   2.46037
 Alpha virt. eigenvalues --    2.46498   2.46902   2.48030   2.48333   2.49126
 Alpha virt. eigenvalues --    2.50060   2.50791   2.51425   2.51957   2.52507
 Alpha virt. eigenvalues --    2.52826   2.53665   2.54692   2.55035   2.55783
 Alpha virt. eigenvalues --    2.57218   2.58518   2.58643   2.59701   2.60130
 Alpha virt. eigenvalues --    2.61267   2.62028   2.63560   2.63631   2.64564
 Alpha virt. eigenvalues --    2.64790   2.64884   2.65165   2.66528   2.67472
 Alpha virt. eigenvalues --    2.68267   2.68538   2.68891   2.69451   2.70127
 Alpha virt. eigenvalues --    2.70701   2.71579   2.71654   2.72030   2.72638
 Alpha virt. eigenvalues --    2.73090   2.73437   2.74226   2.74632   2.75307
 Alpha virt. eigenvalues --    2.75870   2.76762   2.77133   2.78449   2.78700
 Alpha virt. eigenvalues --    2.78944   2.79436   2.80220   2.82290   2.83500
 Alpha virt. eigenvalues --    2.83877   2.84462   2.84711   2.85477   2.85979
 Alpha virt. eigenvalues --    2.86191   2.88269   2.89191   2.89715   2.90402
 Alpha virt. eigenvalues --    2.92554   2.92719   2.93523   2.94034   2.94340
 Alpha virt. eigenvalues --    2.95109   2.95834   2.96362   2.97346   2.98147
 Alpha virt. eigenvalues --    2.99659   3.00788   3.00994   3.01437   3.01949
 Alpha virt. eigenvalues --    3.03068   3.05312   3.05901   3.07315   3.08005
 Alpha virt. eigenvalues --    3.08383   3.09074   3.11413   3.12492   3.12709
 Alpha virt. eigenvalues --    3.13800   3.14430   3.15579   3.15769   3.16003
 Alpha virt. eigenvalues --    3.18182   3.19687   3.21004   3.21612   3.21839
 Alpha virt. eigenvalues --    3.24863   3.25430   3.27898   3.30168   3.32153
 Alpha virt. eigenvalues --    3.35029   3.39930   3.42484   3.42714   3.46220
 Alpha virt. eigenvalues --    3.47568   3.49910   3.51575   3.53942   3.56694
 Alpha virt. eigenvalues --    3.59692   3.63026   3.63550   3.65604   3.68035
 Alpha virt. eigenvalues --    3.78678
          Condensed to atoms (all electrons):
 Mulliken charges:
               1
     1  O   -0.232354
     2  O   -0.232573
     3  O   -0.209335
     4  O   -0.255268
     5  O   -0.305121
     6  O   -0.149634
     7  N   -0.104455
     8  N   -0.242075
     9  N   -0.183890
    10  N   -0.329882
    11  C   -0.095021
    12  C    0.062778
    13  C   -0.160127
    14  C    0.068026
    15  C   -0.065523
    16  C    0.059536
    17  C   -0.070427
    18  C   -0.148101
    19  C    0.145649
    20  C   -0.045062
    21  C    0.112974
    22  C    0.097495
    23  C   -0.046333
    24  C    0.083870
    25  C   -0.008008
    26  C    0.092989
    27  C    0.122769
    28  C    0.145058
    29  C   -0.067023
    30  C    0.188729
    31  C   -0.090376
    32  C    0.066090
    33  C   -0.129240
    34  C    0.134985
    35  C   -0.078028
    36  C   -0.207639
    37  C    0.174250
    38  C    0.098940
    39  C    0.173862
    40  C    0.050421
    41  C    0.143756
    42  C    0.078096
    43  C    0.038054
    44  H    0.165697
    45  H    0.066877
    46  H   -0.010908
    47  H   -0.011390
    48  H    0.063109
    49  H    0.008420
    50  H    0.008737
    51  H   -0.086527
    52  H    0.216305
    53  H    0.022750
    54  H    0.033580
    55  H   -0.022298
    56  H    0.146141
    57  H    0.014573
    58  H   -0.056750
    59  H    0.065261
    60  H    0.061821
    61  H    0.024171
    62  H   -0.012183
    63  H    0.015594
    64  H   -0.089739
    65  H    0.042350
    66  H    0.049952
    67  H    0.007972
    68  H   -0.052192
    69  H    0.077358
    70  H   -0.013105
    71  H    0.039943
    72  H    0.002013
    73  H    0.008725
    74  H    0.011706
    75  H   -0.009419
    76  H    0.019349
    77  H   -0.004513
    78  H    0.021352
    79  H    0.024791
    80  H    0.241450
    81  H    0.226195
 Sum of Mulliken charges =  -0.00000
 Mulliken charges with hydrogens summed into heavy atoms:
               1
     1  O   -0.232354
     2  O    0.008877
     3  O    0.016860
     4  O   -0.255268
     5  O   -0.305121
     6  O   -0.149634
     7  N    0.061242
     8  N   -0.025771
     9  N   -0.037749
    10  N   -0.329882
    11  C   -0.095021
    12  C    0.062778
    13  C   -0.160127
    14  C    0.068026
    15  C   -0.065523
    16  C    0.059536
    17  C   -0.003550
    18  C   -0.148101
    19  C    0.123351
    20  C    0.018047
    21  C    0.112974
    22  C    0.097495
    23  C   -0.046333
    24  C    0.101027
    25  C   -0.094535
    26  C    0.127022
    27  C    0.122769
    28  C    0.102881
    29  C    0.060059
    30  C    0.216311
    31  C   -0.180115
    32  C    0.166365
    33  C   -0.181432
    34  C    0.134985
    35  C   -0.078028
    36  C   -0.207639
    37  C    0.174250
    38  C    0.203136
    39  C    0.173862
    40  C    0.061159
    41  C    0.143756
    42  C    0.099733
    43  C    0.079684
 Electronic spatial extent (au):  <R**2>=          30828.7223
 Charge=             -0.0000 electrons
 Dipole moment (field-independent basis, Debye):
    X=             -1.9675    Y=             -0.5954    Z=             -0.7112  Tot=              2.1752
 Quadrupole moment (field-independent basis, Debye-Ang):
   XX=           -253.7916   YY=           -246.5723   ZZ=           -247.7344
   XY=             18.4293   XZ=             22.8694   YZ=            -10.8642
 Traceless Quadrupole moment (field-independent basis, Debye-Ang):
   XX=             -4.4255   YY=              2.7938   ZZ=              1.6317
   XY=             18.4293   XZ=             22.8694   YZ=            -10.8642
 Octapole moment (field-independent basis, Debye-Ang**2):
  XXX=             91.1526  YYY=            102.8729  ZZZ=            -19.3459  XYY=           -183.0337
  XXY=            -31.5480  XXZ=           -148.4293  XZZ=            -63.5424  YZZ=            -41.4149
  YYZ=             44.4799  XYZ=            -63.6474
 Hexadecapole moment (field-independent basis, Debye-Ang**3):
 XXXX=         -23100.9122 YYYY=         -16393.6574 ZZZZ=          -1608.2451 XXXY=            788.3374
 XXXZ=           1391.8692 YYYX=            874.0461 YYYZ=           -408.7273 ZZZX=            139.3026
 ZZZY=             50.2639 XXYY=          -6600.0115 XXZZ=          -3861.3032 YYZZ=          -2987.1022
 XXYZ=            144.1898 YYXZ=            295.5784 ZZXY=            227.7960
 N-N= 5.027776453635D+03 E-N=-1.458746606940D+04  KE= 1.928777034500D+03
 1\1\GINC-RYZEN-SSD1\SP\RB3LYP TD-FC\SVP\C33H38N4O6\PADAWAN\27-Jun-2019
 \0\\# td=(NStates=1) B3LYP/SVP\\TD\\0,1\O,0,-4.516121733,-4.8627163528
 ,1.7158469483\O,0,2.9619067888,-4.7796525145,1.2331412459\O,0,7.164216
 8031,-1.5077583169,1.8623564561\O,0,3.700781811,-2.9509642216,-0.03642
 07837\O,0,7.9620749595,-0.3995913384,-0.0030798773\O,0,-3.0265129801,2
 .4988372812,-0.1612310277\N,0,-0.3576801497,-0.6177011199,-0.419800616
 3\N,0,1.4979074734,1.7740097798,-0.2548871508\N,0,-3.3639733403,-3.099
 2089677,0.6369521665\N,0,-0.7628876917,2.9320236206,-0.1457495989\C,0,
 0.4927405065,-2.418297268,-1.3791700001\C,0,0.8717061044,-1.1442043715
 ,-0.8695895143\C,0,-0.8363579609,-2.6591598054,-1.2004802474\C,0,-1.37
 89199982,-1.4610997519,-0.6375752234\C,0,3.78938688,1.3742019055,-0.30
 82870451\C,0,2.4251532083,0.7331646483,-0.5592274813\C,0,2.1114081451,
 -0.5301491607,-0.8019124362\C,0,3.6007639133,2.7139093991,0.0163908662
 \C,0,1.543365489,-3.4540606719,-2.0039005911\C,0,-5.5719665319,-2.6478
 166913,1.4203719772\C,0,-3.6694090038,-1.7911341754,0.1506188469\C,0,2
 .2241766779,2.917008129,-0.0168991669\C,0,-5.1324694432,-1.5612016234,
 0.3842070596\C,0,5.0228707652,0.5876484348,-0.4140144578\C,0,-2.740535
 0157,-0.974894261,-0.4358339978\C,0,-1.5853864763,-3.8046549678,-1.866
 3698807\C,0,-4.4738148483,-3.6958080865,1.3091700316\C,0,2.0205225283,
 -4.5329655163,-0.9853113869\C,0,5.5773176081,-0.3623022941,0.794987604
 9\C,0,4.5460503912,3.7222134526,0.4832205059\C,0,1.3655377952,4.075661
 9737,0.2640565252\C,0,-7.0371948501,-3.1334007199,1.3259320593\C,0,-5.
 9067992824,-0.6893436643,-0.3239338678\C,0,0.0276777788,3.9792025919,0
 .1186904946\C,0,-0.9256635281,5.1534064336,0.4581904476\C,0,-2.1387291
 991,4.7177278956,0.3047918821\C,0,2.9583086722,-3.9459312122,0.1486862
 676\C,0,-5.4513497958,0.3676619948,-1.1714382108\C,0,7.0141439806,-0.6
 944977339,0.8287760002\C,0,-3.5765434136,5.3684931475,0.3957003851\C,0
 ,-2.1188753238,3.2172639177,-0.0333424094\C,0,-0.5568098185,6.58962283
 03,0.6877438642\C,0,-4.1337619131,5.8319315981,-1.0568064563\H,0,-0.39
 63972046,0.4384395496,-0.1103915925\H,0,3.102284243,-1.0825002521,-1.3
 017996886\H,0,2.4433855895,-3.1178364905,-2.4214545802\H,0,1.033510130
 3,-3.823654283,-2.8552678933\H,0,-5.1024420504,-2.1376621553,2.3680189
 624\H,0,4.9486351737,0.0197066872,-1.3202651795\H,0,5.9351354791,1.192
 9236017,-0.6088921888\H,0,-2.9088389796,-0.0131968235,-0.4619190975\H,
 0,0.3433906708,1.8932605091,-0.4527647486\H,0,-1.6317087621,-4.6241445
 187,-0.8825690626\H,0,-2.5179654262,-3.6913568377,-2.3759869189\H,0,-1
 .0606460157,-4.3019683712,-2.5908226853\H,0,-2.483952153,-3.6510812565
 ,0.525799827\H,0,1.2256183685,-5.024164899,-0.4302967472\H,0,2.4319723
 83,-5.2167943879,-1.4054250564\H,0,4.9928637074,-1.3086669178,0.832123
 7986\H,0,5.4240166013,0.3208065173,1.8391583865\H,0,4.596917212,4.6262
 130887,-0.2474547282\H,0,5.4848651093,3.3582685461,0.5708736106\H,0,3.
 9999994173,4.0950750156,1.29776108\H,0,1.8105168837,4.943394269,0.5056
 003469\H,0,-7.5504078124,-2.0321992144,1.4254572397\H,0,-7.4496406084,
 -3.8448722531,2.082750643\H,0,-7.1787460586,-3.4991176753,0.3782994191
 \H,0,-6.9109484365,-0.7768480161,-0.1781658887\H,0,-4.9147963214,1.124
 4266396,-0.4972635745\H,0,-6.2360954392,0.9136589942,-1.5890355821\H,0
 ,-4.6537938749,0.0593027765,-1.913092522\H,0,-3.5041002893,6.256968352
 6,1.1688145855\H,0,-4.1533530128,4.6406131935,0.9398261204\H,0,-0.0349
 189266,6.9716291228,1.7097437069\H,0,-1.3859399773,7.2198586814,0.8482
 740838\H,0,0.1141205997,6.9182603265,-0.080281694\H,0,-3.5842587217,6.
 5253084139,-1.5377215883\H,0,-5.1347652996,6.3538181228,-0.6990150432\
 H,0,-4.3326077819,5.0036918615,-1.6935290913\H,0,3.5461499215,-4.19603
 38336,1.9570043374\H,0,8.1761748622,-1.7484654988,2.0445746201\\Versio
 n=ES64L-G16RevA.03\State=1-A\HF=-1949.0582016\RMSD=4.596e-09\PG=C01 [X
 (C33H38N4O6)]\\@


 CHILDREN YOU ARE VERY LITTLE,
 AND YOUR BONES ARE VERY BRITTLE;
 IF YOU WOULD GROW GREAT AND STATELY
 YOU MUST TRY TO WALK SEDATELY.
 YOU MUST STILL BE BRIGHT AND QUIET,
 AND CONTENT WITH SIMPLE DIET;
 AND REMAIN, THROUGH ALL BEWILD'RING
 INNOCENT AND HONEST CHILDREN.
     -- A CHILD'S GARDEN OF VERSE,
        ROBERT LOUIS STEVENSON
 Job cpu time:       0 days 16 hours  1 minutes 32.6 seconds.
 Elapsed time:       0 days  4 hours  1 minutes 32.3 seconds.
 File lengths (MBytes):  RWF=   2591 Int=      0 D2E=      0 Chk=     65 Scr=      1
 Normal termination of Gaussian 16 at Thu Jun 27 14:18:00 2019.
