 Entering Gaussian System, Link 0=g16
 Input=Geometria-251-.com
 Output=Geometria-251-.log
 Initial command:
 /usr/local/g16/l1.exe "/home/padawan/israel-mol/phycocyanobilin/spectra/abs/Gau-60709.inp" -scrdir="/home/padawan/israel-mol/phycocyanobilin/spectra/abs/"
 Entering Link 1 = /usr/local/g16/l1.exe PID=     60711.
  
 Copyright (c) 1988,1990,1992,1993,1995,1998,2003,2009,2016,
            Gaussian, Inc.  All Rights Reserved.
  
 This is part of the Gaussian(R) 16 program.  It is based on
 the Gaussian(R) 09 system (copyright 2009, Gaussian, Inc.),
 the Gaussian(R) 03 system (copyright 2003, Gaussian, Inc.),
 the Gaussian(R) 98 system (copyright 1998, Gaussian, Inc.),
 the Gaussian(R) 94 system (copyright 1995, Gaussian, Inc.),
 the Gaussian 92(TM) system (copyright 1992, Gaussian, Inc.),
 the Gaussian 90(TM) system (copyright 1990, Gaussian, Inc.),
 the Gaussian 88(TM) system (copyright 1988, Gaussian, Inc.),
 the Gaussian 86(TM) system (copyright 1986, Carnegie Mellon
 University), and the Gaussian 82(TM) system (copyright 1983,
 Carnegie Mellon University). Gaussian is a federally registered
 trademark of Gaussian, Inc.
  
 This software contains proprietary and confidential information,
 including trade secrets, belonging to Gaussian, Inc.
  
 This software is provided under written license and may be
 used, copied, transmitted, or stored only in accord with that
 written license.
  
 The following legend is applicable only to US Government
 contracts under FAR:
  
                    RESTRICTED RIGHTS LEGEND
  
 Use, reproduction and disclosure by the US Government is
 subject to restrictions as set forth in subparagraphs (a)
 and (c) of the Commercial Computer Software - Restricted
 Rights clause in FAR 52.227-19.
  
 Gaussian, Inc.
 340 Quinnipiac St., Bldg. 40, Wallingford CT 06492
  
  
 ---------------------------------------------------------------
 Warning -- This program may not be used in any manner that
 competes with the business of Gaussian, Inc. or will provide
 assistance to any competitor of Gaussian, Inc.  The licensee
 of this program is prohibited from giving any competitor of
 Gaussian, Inc. access to this program.  By using this program,
 the user acknowledges that Gaussian, Inc. is engaged in the
 business of creating and licensing software in the field of
 computational chemistry and represents and warrants to the
 licensee that it is not a competitor of Gaussian, Inc. and that
 it will not use this program in any manner prohibited above.
 ---------------------------------------------------------------
  

 Cite this work as:
 Gaussian 16, Revision A.03,
 M. J. Frisch, G. W. Trucks, H. B. Schlegel, G. E. Scuseria, 
 M. A. Robb, J. R. Cheeseman, G. Scalmani, V. Barone, 
 G. A. Petersson, H. Nakatsuji, X. Li, M. Caricato, A. V. Marenich, 
 J. Bloino, B. G. Janesko, R. Gomperts, B. Mennucci, H. P. Hratchian, 
 J. V. Ortiz, A. F. Izmaylov, J. L. Sonnenberg, D. Williams-Young, 
 F. Ding, F. Lipparini, F. Egidi, J. Goings, B. Peng, A. Petrone, 
 T. Henderson, D. Ranasinghe, V. G. Zakrzewski, J. Gao, N. Rega, 
 G. Zheng, W. Liang, M. Hada, M. Ehara, K. Toyota, R. Fukuda, 
 J. Hasegawa, M. Ishida, T. Nakajima, Y. Honda, O. Kitao, H. Nakai, 
 T. Vreven, K. Throssell, J. A. Montgomery, Jr., J. E. Peralta, 
 F. Ogliaro, M. J. Bearpark, J. J. Heyd, E. N. Brothers, K. N. Kudin, 
 V. N. Staroverov, T. A. Keith, R. Kobayashi, J. Normand, 
 K. Raghavachari, A. P. Rendell, J. C. Burant, S. S. Iyengar, 
 J. Tomasi, M. Cossi, J. M. Millam, M. Klene, C. Adamo, R. Cammi, 
 J. W. Ochterski, R. L. Martin, K. Morokuma, O. Farkas, 
 J. B. Foresman, and D. J. Fox, Gaussian, Inc., Wallingford CT, 2016.
 
 ******************************************
 Gaussian 16:  ES64L-G16RevA.03 25-Dec-2016
                 2-Jul-2019 
 ******************************************
 %nproc=4
 Will use up to    4 processors via shared memory.
 %Mem=4GB
 --------------------------
 # td=(NStates=1) B3LYP/SVP
 --------------------------
 1/38=1,172=1/1;
 2/12=2,17=6,18=5,40=1/2;
 3/5=18,7=101,11=9,25=1,30=1,74=-5/1,2,3,8;
 4//1;
 5/5=2,38=5/2;
 8/6=1,10=1,108=1/1;
 9/41=1,42=1,70=2/14;
 6/7=2,8=2,9=2,10=2/1;
 99/5=1,9=1/99;
 --
 TD
 --
 Symbolic Z-matrix:
 Charge =  0 Multiplicity = 1
 8                    -4.47236  -4.85483   1.87868 
 8                     3.00787  -5.10007   1.08978 
 8                     6.90535  -1.50688   1.917 
 8                     3.85565  -3.32922  -0.03857 
 8                     7.45825  -0.67942  -0.09106 
 8                    -2.94835   2.32433  -0.2721 
 7                    -0.20671  -0.59444  -0.51707 
 7                     1.5377    1.87947  -0.23362 
 7                    -3.41129  -3.21767   0.64039 
 7                    -0.7637    2.89128  -0.02487 
 6                     0.67367  -2.43034  -1.40656 
 6                     0.95201  -1.14139  -0.97002 
 6                    -0.70755  -2.62072  -1.13442 
 6                    -1.27222  -1.37298  -0.64247 
 6                     3.76192   1.4934   -0.38898 
 6                     2.45378   0.92712  -0.54496 
 6                     2.20176  -0.43805  -0.81103 
 6                     3.62748   2.82533  -0.10408 
 6                     1.65566  -3.33865  -1.94348 
 6                    -5.62604  -2.73865   1.37093 
 6                    -3.55527  -1.85981   0.18654 
 6                     2.11875   3.05571  -0.0184 
 6                    -4.96864  -1.57233   0.45495 
 6                     5.01677   0.72067  -0.35263 
 6                    -2.61959  -0.99026  -0.35247 
 6                    -1.60451  -3.76768  -1.67036 
 6                    -4.52461  -3.76738   1.41365 
 6                     1.88257  -4.52038  -0.97544 
 6                     5.38644   0.02679   0.91762 
 6                     4.65789   3.93626   0.17025 
 6                     1.3352    4.18473   0.29628 
 6                    -7.05153  -3.24916   0.93128 
 6                    -5.77904  -0.54013  -0.07508 
 6                    -0.08082   4.02957   0.30855 
 6                    -0.97045   5.116     0.49554 
 6                    -2.24239   4.72897   0.27367 
 6                     2.97125  -4.22952   0.0425 
 6                    -5.32011   0.5579   -1.05078 
 6                     6.69775  -0.76008   0.84192 
 6                    -3.53023   5.48491   0.33224 
 6                    -2.155     3.19546   0.00028 
 6                    -0.48023   6.58411   0.75146 
 6                    -4.10126   5.68983  -1.12932 
 1                    -0.29345   0.21876   0.12929 
 1                     3.0392   -1.15267  -0.90164 
 1                     2.56922  -2.83339  -2.46885 
 1                     1.26928  -3.8078   -3.00902 
 1                    -5.59324  -2.19872   2.45572 
 1                     5.02155   0.00698  -1.21725 
 1                     5.85761   1.46746  -0.76859 
 1                    -2.98201   0.10128  -0.41888 
 1                     0.5164    1.80503  -0.49366 
 1                    -1.53669  -4.53292  -0.88612 
 1                    -2.69715  -3.41246  -1.77731 
 1                    -1.23163  -4.01201  -2.73887 
 1                    -2.50164  -3.58329   0.97108 
 1                     0.87267  -4.79383  -0.70665 
 1                     2.20943  -5.35923  -1.57236 
 1                     4.59192  -0.52768   1.35007 
 1                     5.52804   0.89182   1.78256 
 1                     4.66548   4.40303  -0.71307 
 1                     5.74278   3.42958   0.04061 
 1                     4.46874   4.55285   1.1134 
 1                     1.56295   5.19706   0.67107 
 1                    -7.76736  -2.21702   0.8052 
 1                    -7.62693  -3.99078   1.38977 
 1                    -6.7563   -3.51397  -0.02359 
 1                    -6.74456  -0.42297   0.27657 
 1                    -4.77749   1.20877  -0.59892 
 1                    -6.39621   1.11958  -1.49725 
 1                    -4.77818  -0.02816  -1.93012 
 1                    -3.41452   6.56966   0.87599 
 1                    -4.3233    4.67818   0.90642 
 1                     0.16834   6.51687   1.60838 
 1                    -1.23307   7.35647   0.70628 
 1                     0.16109   6.86021  -0.19649 
 1                    -3.12749   6.21562  -1.788 
 1                    -5.05335   6.14153  -1.26144 
 1                    -4.20203   4.64757  -1.56333 
 1                     3.41849  -4.98284   1.84913 
 1                     7.67608  -2.08333   1.95569 
 
 Stoichiometry    C33H38N4O6
 Framework group  C1[X(C33H38N4O6)]
 Deg. of freedom   237
 Full point group                 C1      NOp   1
 Largest Abelian subgroup         C1      NOp   1
 Largest concise Abelian subgroup C1      NOp   1
                         Standard orientation:                         
 ---------------------------------------------------------------------
 Center     Atomic      Atomic             Coordinates (Angstroms)
 Number     Number       Type             X           Y           Z
 ---------------------------------------------------------------------
      1          8           0        4.608545   -4.748469   -1.829296
      2          8           0       -2.862709   -5.196356   -1.044372
      3          8           0       -6.858927   -1.723119   -1.911883
      4          8           0       -3.761345   -3.438622    0.064967
      5          8           0       -7.437241   -0.891018    0.087081
      6          8           0        2.880377    2.406563    0.246208
      7          7           0        0.221784   -0.585657    0.518819
      8          7           0       -1.591307    1.835063    0.208423
      9          7           0        3.500340   -3.129256   -0.608829
     10          7           0        0.680909    2.909144   -0.008733
     11          6           0       -0.607537   -2.436420    1.426389
     12          6           0       -0.921586   -1.160380    0.976369
     13          6           0        0.778805   -2.590572    1.157416
     14          6           0        1.308666   -1.332529    0.653137
     15          6           0       -3.803946    1.388070    0.365824
     16          6           0       -2.480543    0.860518    0.528753
     17          6           0       -2.190466   -0.494209    0.809077
     18          6           0       -3.706752    2.720265    0.067361
     19          6           0       -1.564161   -3.366493    1.971777
     20          6           0        5.701559   -2.595514   -1.342338
     21          6           0        3.605480   -1.763293   -0.168846
     22          6           0       -2.205014    2.992190   -0.019383
     23          6           0        5.010503   -1.438860   -0.438980
     24          6           0       -5.036479    0.579943    0.336344
     25          6           0        2.645055   -0.914973    0.360380
     26          6           0        1.707111   -3.706242    1.705897
     27          6           0        4.629600   -3.655265   -1.375429
     28          6           0       -1.756570   -4.564023    1.015744
     29          6           0       -5.384984   -0.137080   -0.927018
     30          6           0       -4.767743    3.798841   -0.219273
     31          6           0       -1.453233    4.139560   -0.344982
     32          6           0        7.140354   -3.061112   -0.896234
     33          6           0        5.790879   -0.378841    0.081107
     34          6           0       -0.033382    4.024251   -0.354431
     35          6           0        0.825493    5.133355   -0.551823
     36          6           0        2.107578    4.784623   -0.324879
     37          6           0       -2.851839   -4.314418   -0.006070
     38          6           0        5.300068    0.715768    1.045061
     39          6           0       -6.673693   -0.959781   -0.844358
     40          6           0        3.373673    5.575927   -0.390115
     41          6           0        2.063115    3.252147   -0.035807
     42          6           0        0.294402    6.584361   -0.823251
     43          6           0        3.937016    5.811836    1.069760
     44          1           0        0.286324    0.222988   -0.135799
     45          1           0       -3.007543   -1.231180    0.906305
     46          1           0       -2.492202   -2.881820    2.491127
     47          1           0       -1.165952   -3.813615    3.042419
     48          1           0        5.654810   -2.067883   -2.432654
     49          1           0       -5.022148   -0.124697    1.208262
     50          1           0       -5.898504    1.306964    0.743873
     51          1           0        2.976492    0.186972    0.415880
     52          1           0       -0.568612    1.792112    0.470101
     53          1           0        1.661785   -4.481088    0.929512
     54          1           0        2.789189   -3.319284    1.810129
     55          1           0        1.340035   -3.950009    2.776539
     56          1           0        2.601741   -3.523747   -0.936528
     57          1           0       -0.739061   -4.811640    0.750658
     58          1           0       -2.060354   -5.405580    1.620980
     59          1           0       -4.574663   -0.673337   -1.353051
     60          1           0       -5.549902    0.714704   -1.800935
     61          1           0       -4.789503    4.274245    0.659192
     62          1           0       -5.838074    3.263131   -0.085367
     63          1           0       -4.594948    4.410806   -1.168556
     64          1           0       -1.708981    5.141167   -0.730360
     65          1           0        7.826675   -2.007961   -0.780152
     66          1           0        7.736952   -3.790877   -1.346572
     67          1           0        6.851608   -3.324326    0.061057
     68          1           0        6.753125   -0.238130   -0.270893
     69          1           0        4.739852    1.346410    0.586068
     70          1           0        6.359404    1.312106    1.486659
     71          1           0        4.773851    0.123720    1.929922
     72          1           0        3.228075    6.651345   -0.945086
     73          1           0        4.189822    4.786016   -0.955279
     74          1           0       -0.351031    6.490081   -1.679998
     75          1           0        1.025131    7.378057   -0.785368
     76          1           0       -0.355534    6.851987    0.121257
     77          1           0        2.948063    6.316699    1.722148
     78          1           0        4.875846    6.291524    1.198047
     79          1           0        4.066618    4.777337    1.514548
     80          1           0       -3.275588   -5.098541   -1.805249
     81          1           0       -7.613067   -2.321432   -1.945301
 ---------------------------------------------------------------------
 Rotational constants (GHZ):           0.0745226           0.0552849           0.0338833
 Standard basis: SVP (5D, 7F)
 There are   835 symmetry adapted cartesian basis functions of A   symmetry.
 There are   792 symmetry adapted basis functions of A   symmetry.
   792 basis functions,  1341 primitive gaussians,   835 cartesian basis functions
   156 alpha electrons      156 beta electrons
       nuclear repulsion energy      5031.4871509769 Hartrees.
 NAtoms=   81 NActive=   81 NUniq=   81 SFac= 1.00D+00 NAtFMM=   60 NAOKFM=T Big=T
 Integral buffers will be    131072 words long.
 Regular integral format.
 Two-electron integral symmetry is turned on.
 One-electron integrals computed using PRISM.
 NBasis=   792 RedAO= T EigKep=  3.39D-04  NBF=   792
 NBsUse=   792 1.00D-06 EigRej= -1.00D+00 NBFU=   792
 ExpMin= 1.22D-01 ExpMax= 2.27D+03 ExpMxC= 3.41D+02 IAcc=3 IRadAn=         5 AccDes= 0.00D+00
 Harris functional with IExCor=  402 and IRadAn=       5 diagonalized for initial guess.
 HarFok:  IExCor=  402 AccDes= 0.00D+00 IRadAn=         5 IDoV= 1 UseB2=F ITyADJ=14
 ICtDFT=  3500011 ScaDFX=  1.000000  1.000000  1.000000  1.000000
 FoFCou: FMM=F IPFlag=           0 FMFlag=      100000 FMFlg1=        2001
         NFxFlg=           0 DoJE=T BraDBF=F KetDBF=T FulRan=T
         wScrn=  0.000000 ICntrl=       500 IOpCl=  0 I1Cent=   200000004 NGrid=           0
         NMat0=    1 NMatS0=      1 NMatT0=    0 NMatD0=    1 NMtDS0=    0 NMtDT0=    0
 Petite list used in FoFCou.
 Requested convergence on RMS density matrix=1.00D-08 within 128 cycles.
 Requested convergence on MAX density matrix=1.00D-06.
 Requested convergence on             energy=1.00D-06.
 No special actions if energy rises.
 Integral accuracy reduced to 1.0D-05 until final iterations.
 Initial convergence to 1.0D-05 achieved.  Increase integral accuracy.
 SCF Done:  E(RB3LYP) =  -1949.08713919     A.U. after   16 cycles
            NFock= 16  Conv=0.71D-08     -V/T= 2.0111
 DoSCS=F DFT=T ScalE2(SS,OS)=  1.000000  1.000000
 ExpMin= 1.22D-01 ExpMax= 2.27D+03 ExpMxC= 3.41D+02 IAcc=3 IRadAn=         5 AccDes= 0.00D+00
 HarFok:  IExCor=  205 AccDes= 0.00D+00 IRadAn=         5 IDoV=-2 UseB2=F ITyADJ=14
 ICtDFT= 12500011 ScaDFX=  1.000000  1.000000  1.000000  1.000000
 GSVD:  LWork=       -2193 too small for GESVD, short by        9890 words or        9890 for optimal perf.
 Range of M.O.s used for correlation:    44   792
 NBasis=   792 NAE=   156 NBE=   156 NFC=    43 NFV=     0
 NROrb=    749 NOA=   113 NOB=   113 NVA=   636 NVB=   636

 **** Warning!!: The smallest alpha delta epsilon is  0.75145533D-01

 Orbital symmetries:
       Occupied  (A) (A) (A) (A) (A) (A) (A) (A) (A) (A) (A) (A)
                 (A) (A) (A) (A) (A) (A) (A) (A) (A) (A) (A) (A)
                 (A) (A) (A) (A) (A) (A) (A) (A) (A) (A) (A) (A)
                 (A) (A) (A) (A) (A) (A) (A) (A) (A) (A) (A) (A)
                 (A) (A) (A) (A) (A) (A) (A) (A) (A) (A) (A) (A)
                 (A) (A) (A) (A) (A) (A) (A) (A) (A) (A) (A) (A)
                 (A) (A) (A) (A) (A) (A) (A) (A) (A) (A) (A) (A)
                 (A) (A) (A) (A) (A) (A) (A) (A) (A) (A) (A) (A)
                 (A) (A) (A) (A) (A) (A) (A) (A) (A) (A) (A) (A)
                 (A) (A) (A) (A) (A) (A) (A) (A) (A) (A) (A) (A)
                 (A) (A) (A) (A) (A) (A) (A) (A) (A) (A) (A) (A)
                 (A) (A) (A) (A) (A) (A) (A) (A) (A) (A) (A) (A)
                 (A) (A) (A) (A) (A) (A) (A) (A) (A) (A) (A) (A)
       Virtual   (A) (A) (A) (A) (A) (A) (A) (A) (A) (A) (A) (A)
                 (A) (A) (A) (A) (A) (A) (A) (A) (A) (A) (A) (A)
                 (A) (A) (A) (A) (A) (A) (A) (A) (A) (A) (A) (A)
                 (A) (A) (A) (A) (A) (A) (A) (A) (A) (A) (A) (A)
                 (A) (A) (A) (A) (A) (A) (A) (A) (A) (A) (A) (A)
                 (A) (A) (A) (A) (A) (A) (A) (A) (A) (A) (A) (A)
                 (A) (A) (A) (A) (A) (A) (A) (A) (A) (A) (A) (A)
                 (A) (A) (A) (A) (A) (A) (A) (A) (A) (A) (A) (A)
                 (A) (A) (A) (A) (A) (A) (A) (A) (A) (A) (A) (A)
                 (A) (A) (A) (A) (A) (A) (A) (A) (A) (A) (A) (A)
                 (A) (A) (A) (A) (A) (A) (A) (A) (A) (A) (A) (A)
                 (A) (A) (A) (A) (A) (A) (A) (A) (A) (A) (A) (A)
                 (A) (A) (A) (A) (A) (A) (A) (A) (A) (A) (A) (A)
                 (A) (A) (A) (A) (A) (A) (A) (A) (A) (A) (A) (A)
                 (A) (A) (A) (A) (A) (A) (A) (A) (A) (A) (A) (A)
                 (A) (A) (A) (A) (A) (A) (A) (A) (A) (A) (A) (A)
                 (A) (A) (A) (A) (A) (A) (A) (A) (A) (A) (A) (A)
                 (A) (A) (A) (A) (A) (A) (A) (A) (A) (A) (A) (A)
                 (A) (A) (A) (A) (A) (A) (A) (A) (A) (A) (A) (A)
                 (A) (A) (A) (A) (A) (A) (A) (A) (A) (A) (A) (A)
                 (A) (A) (A) (A) (A) (A) (A) (A) (A) (A) (A) (A)
                 (A) (A) (A) (A) (A) (A) (A) (A) (A) (A) (A) (A)
                 (A) (A) (A) (A) (A) (A) (A) (A) (A) (A) (A) (A)
                 (A) (A) (A) (A) (A) (A) (A) (A) (A) (A) (A) (A)
                 (A) (A) (A) (A) (A) (A) (A) (A) (A) (A) (A) (A)
                 (A) (A) (A) (A) (A) (A) (A) (A) (A) (A) (A) (A)
                 (A) (A) (A) (A) (A) (A) (A) (A) (A) (A) (A) (A)
                 (A) (A) (A) (A) (A) (A) (A) (A) (A) (A) (A) (A)
                 (A) (A) (A) (A) (A) (A) (A) (A) (A) (A) (A) (A)
                 (A) (A) (A) (A) (A) (A) (A) (A) (A) (A) (A) (A)
                 (A) (A) (A) (A) (A) (A) (A) (A) (A) (A) (A) (A)
                 (A) (A) (A) (A) (A) (A) (A) (A) (A) (A) (A) (A)
                 (A) (A) (A) (A) (A) (A) (A) (A) (A) (A) (A) (A)
                 (A) (A) (A) (A) (A) (A) (A) (A) (A) (A) (A) (A)
                 (A) (A) (A) (A) (A) (A) (A) (A) (A) (A) (A) (A)
                 (A) (A) (A) (A) (A) (A) (A) (A) (A) (A) (A) (A)
                 (A) (A) (A) (A) (A) (A) (A) (A) (A) (A) (A) (A)
                 (A) (A) (A) (A) (A) (A) (A) (A) (A) (A) (A) (A)
                 (A) (A) (A) (A) (A) (A) (A) (A) (A) (A) (A) (A)
                 (A) (A) (A) (A) (A) (A) (A) (A) (A) (A) (A) (A)
                 (A) (A) (A) (A) (A) (A) (A) (A) (A) (A) (A) (A)
                 (A) (A) (A) (A) (A) (A) (A) (A) (A) (A) (A) (A)
                 (A) (A) (A) (A) (A) (A) (A) (A) (A) (A) (A) (A)
                 (A) (A) (A) (A) (A) (A) (A) (A) (A) (A) (A) (A)
                 (A) (A) (A) (A) (A) (A) (A) (A) (A) (A) (A) (A)
                 (A) (A) (A) (A) (A) (A) (A) (A) (A) (A) (A) (A)
                 (A) (A) (A) (A) (A) (A) (A) (A) (A) (A) (A) (A)
                 (A) (A) (A) (A) (A) (A) (A) (A) (A) (A) (A) (A)
                 (A) (A) (A) (A) (A) (A) (A) (A) (A) (A) (A) (A)
                 (A) (A) (A) (A) (A) (A) (A) (A) (A) (A) (A) (A)
                 (A) (A) (A) (A) (A) (A) (A) (A) (A) (A) (A) (A)
                 (A) (A) (A) (A) (A) (A) (A) (A) (A) (A) (A) (A)
                 (A) (A) (A) (A) (A) (A) (A) (A) (A) (A) (A) (A)
     4 initial guesses have been made.
 Convergence on wavefunction:    0.001000000000000
 Iteration     1 Dimension     4 NMult     0 NNew      4
 CISAX will form     4 AO SS matrices at one time.
 Iteration     2 Dimension     6 NMult     4 NNew      2
 Iteration     3 Dimension     8 NMult     6 NNew      2
 Iteration     4 Dimension    10 NMult     8 NNew      2
 Iteration     5 Dimension    12 NMult    10 NNew      2
 Iteration     6 Dimension    14 NMult    12 NNew      2
 Iteration     7 Dimension    16 NMult    14 NNew      2
 ***********************************************************************
 Excited states from <AA,BB:AA,BB> singles matrix:
 ***********************************************************************
 
 Ground to excited state transition densities written to RWF  633
 Ground to excited state transition electric dipole moments (Au):
       state          X           Y           Z        Dip. S.      Osc.
         1        -0.9256      2.5618     -0.2148      7.4660      0.3426
 Ground to excited state transition velocity dipole moments (Au):
       state          X           Y           Z        Dip. S.      Osc.
         1         0.0651     -0.1693      0.0147      0.0331      0.3206
 Ground to excited state transition magnetic dipole moments (Au):
       state          X           Y           Z
         1         0.2974      0.5633      2.2722
 Ground to excited state transition velocity quadrupole moments (Au):
       state          XX          YY          ZZ          XY          XZ          YZ
         1         0.5169     -0.6606      0.0747     -0.4251     -0.0431      0.0178
 <0|del|b> * <b|rxdel|0> + <0|del|b> * <b|delr+rdel|0>
 Rotatory Strengths (R) in cgs (10**-40 erg-esu-cm/Gauss)
       state          XX          YY          ZZ    R(velocity)    E-M Angle
         1      -387.8823    308.8654   -358.7396   -145.9188       95.70
 1/2[<0|r|b>*<b|rxdel|0> + (<0|rxdel|b>*<b|r|0>)*]
 Rotatory Strengths (R) in cgs (10**-40 erg-esu-cm/Gauss)
       state          XX          YY          ZZ     R(length)
         1       194.6775  -1020.4650    345.1159   -160.2239
  1/2[<0|del|b>*<b|r|0> + (<0|r|b>*<b|del|0>)*] (Au)
       state          X           Y           Z        Dip. S.   Osc.(frdel)
         1        -0.0603     -0.4336     -0.0032      0.4970      0.3313

 Excitation energies and oscillator strengths:
 
 Excited State   1:      Singlet-A      1.8730 eV  661.95 nm  f=0.3426  <S**2>=0.000
     156 ->157         0.70756
     156 <-157        -0.10937
 This state for optimization and/or second-order correction.
 Total Energy, E(TD-HF/TD-DFT) =  -1949.01830710    
 Copying the excited state density for this state as the 1-particle RhoCI density.
 SavETr:  write IOETrn=   770 NScale= 10 NData=  16 NLR=1 NState=    1 LETran=      28.

 **********************************************************************

            Population analysis using the SCF density.

 **********************************************************************

 Orbital symmetries:
       Occupied  (A) (A) (A) (A) (A) (A) (A) (A) (A) (A) (A) (A)
                 (A) (A) (A) (A) (A) (A) (A) (A) (A) (A) (A) (A)
                 (A) (A) (A) (A) (A) (A) (A) (A) (A) (A) (A) (A)
                 (A) (A) (A) (A) (A) (A) (A) (A) (A) (A) (A) (A)
                 (A) (A) (A) (A) (A) (A) (A) (A) (A) (A) (A) (A)
                 (A) (A) (A) (A) (A) (A) (A) (A) (A) (A) (A) (A)
                 (A) (A) (A) (A) (A) (A) (A) (A) (A) (A) (A) (A)
                 (A) (A) (A) (A) (A) (A) (A) (A) (A) (A) (A) (A)
                 (A) (A) (A) (A) (A) (A) (A) (A) (A) (A) (A) (A)
                 (A) (A) (A) (A) (A) (A) (A) (A) (A) (A) (A) (A)
                 (A) (A) (A) (A) (A) (A) (A) (A) (A) (A) (A) (A)
                 (A) (A) (A) (A) (A) (A) (A) (A) (A) (A) (A) (A)
                 (A) (A) (A) (A) (A) (A) (A) (A) (A) (A) (A) (A)
       Virtual   (A) (A) (A) (A) (A) (A) (A) (A) (A) (A) (A) (A)
                 (A) (A) (A) (A) (A) (A) (A) (A) (A) (A) (A) (A)
                 (A) (A) (A) (A) (A) (A) (A) (A) (A) (A) (A) (A)
                 (A) (A) (A) (A) (A) (A) (A) (A) (A) (A) (A) (A)
                 (A) (A) (A) (A) (A) (A) (A) (A) (A) (A) (A) (A)
                 (A) (A) (A) (A) (A) (A) (A) (A) (A) (A) (A) (A)
                 (A) (A) (A) (A) (A) (A) (A) (A) (A) (A) (A) (A)
                 (A) (A) (A) (A) (A) (A) (A) (A) (A) (A) (A) (A)
                 (A) (A) (A) (A) (A) (A) (A) (A) (A) (A) (A) (A)
                 (A) (A) (A) (A) (A) (A) (A) (A) (A) (A) (A) (A)
                 (A) (A) (A) (A) (A) (A) (A) (A) (A) (A) (A) (A)
                 (A) (A) (A) (A) (A) (A) (A) (A) (A) (A) (A) (A)
                 (A) (A) (A) (A) (A) (A) (A) (A) (A) (A) (A) (A)
                 (A) (A) (A) (A) (A) (A) (A) (A) (A) (A) (A) (A)
                 (A) (A) (A) (A) (A) (A) (A) (A) (A) (A) (A) (A)
                 (A) (A) (A) (A) (A) (A) (A) (A) (A) (A) (A) (A)
                 (A) (A) (A) (A) (A) (A) (A) (A) (A) (A) (A) (A)
                 (A) (A) (A) (A) (A) (A) (A) (A) (A) (A) (A) (A)
                 (A) (A) (A) (A) (A) (A) (A) (A) (A) (A) (A) (A)
                 (A) (A) (A) (A) (A) (A) (A) (A) (A) (A) (A) (A)
                 (A) (A) (A) (A) (A) (A) (A) (A) (A) (A) (A) (A)
                 (A) (A) (A) (A) (A) (A) (A) (A) (A) (A) (A) (A)
                 (A) (A) (A) (A) (A) (A) (A) (A) (A) (A) (A) (A)
                 (A) (A) (A) (A) (A) (A) (A) (A) (A) (A) (A) (A)
                 (A) (A) (A) (A) (A) (A) (A) (A) (A) (A) (A) (A)
                 (A) (A) (A) (A) (A) (A) (A) (A) (A) (A) (A) (A)
                 (A) (A) (A) (A) (A) (A) (A) (A) (A) (A) (A) (A)
                 (A) (A) (A) (A) (A) (A) (A) (A) (A) (A) (A) (A)
                 (A) (A) (A) (A) (A) (A) (A) (A) (A) (A) (A) (A)
                 (A) (A) (A) (A) (A) (A) (A) (A) (A) (A) (A) (A)
                 (A) (A) (A) (A) (A) (A) (A) (A) (A) (A) (A) (A)
                 (A) (A) (A) (A) (A) (A) (A) (A) (A) (A) (A) (A)
                 (A) (A) (A) (A) (A) (A) (A) (A) (A) (A) (A) (A)
                 (A) (A) (A) (A) (A) (A) (A) (A) (A) (A) (A) (A)
                 (A) (A) (A) (A) (A) (A) (A) (A) (A) (A) (A) (A)
                 (A) (A) (A) (A) (A) (A) (A) (A) (A) (A) (A) (A)
                 (A) (A) (A) (A) (A) (A) (A) (A) (A) (A) (A) (A)
                 (A) (A) (A) (A) (A) (A) (A) (A) (A) (A) (A) (A)
                 (A) (A) (A) (A) (A) (A) (A) (A) (A) (A) (A) (A)
                 (A) (A) (A) (A) (A) (A) (A) (A) (A) (A) (A) (A)
                 (A) (A) (A) (A) (A) (A) (A) (A) (A) (A) (A) (A)
                 (A) (A) (A) (A) (A) (A) (A) (A) (A) (A) (A) (A)
                 (A) (A) (A) (A) (A) (A) (A) (A) (A) (A) (A) (A)
                 (A) (A) (A) (A) (A) (A) (A) (A) (A) (A) (A) (A)
                 (A) (A) (A) (A) (A) (A) (A) (A) (A) (A) (A) (A)
                 (A) (A) (A) (A) (A) (A) (A) (A) (A) (A) (A) (A)
                 (A) (A) (A) (A) (A) (A) (A) (A) (A) (A) (A) (A)
                 (A) (A) (A) (A) (A) (A) (A) (A) (A) (A) (A) (A)
                 (A) (A) (A) (A) (A) (A) (A) (A) (A) (A) (A) (A)
                 (A) (A) (A) (A) (A) (A) (A) (A) (A) (A) (A) (A)
                 (A) (A) (A) (A) (A) (A) (A) (A) (A) (A) (A) (A)
                 (A) (A) (A) (A) (A) (A) (A) (A) (A) (A) (A) (A)
                 (A) (A) (A) (A) (A) (A) (A) (A) (A) (A) (A) (A)
 The electronic state is 1-A.
 Alpha  occ. eigenvalues --  -19.18140 -19.18047 -19.13822 -19.12309 -19.11832
 Alpha  occ. eigenvalues --  -19.11131 -14.37402 -14.36201 -14.36003 -14.28001
 Alpha  occ. eigenvalues --  -10.34751 -10.31961 -10.29822 -10.27018 -10.24644
 Alpha  occ. eigenvalues --  -10.24541 -10.22977 -10.22898 -10.22834 -10.22304
 Alpha  occ. eigenvalues --  -10.22115 -10.21947 -10.21913 -10.21873 -10.21322
 Alpha  occ. eigenvalues --  -10.21116 -10.21064 -10.20590 -10.20444 -10.20247
 Alpha  occ. eigenvalues --  -10.20224 -10.20142 -10.19952 -10.19869 -10.19823
 Alpha  occ. eigenvalues --  -10.19753 -10.19543 -10.19453 -10.19270 -10.19256
 Alpha  occ. eigenvalues --  -10.19184 -10.19019 -10.18846  -1.09965  -1.09732
 Alpha  occ. eigenvalues --   -1.05435  -1.02382  -1.00529  -0.99946  -0.99759
 Alpha  occ. eigenvalues --   -0.98922  -0.93004  -0.90798  -0.82975  -0.82372
 Alpha  occ. eigenvalues --   -0.80395  -0.79798  -0.78765  -0.78216  -0.77600
 Alpha  occ. eigenvalues --   -0.76936  -0.76154  -0.74673  -0.73383  -0.72042
 Alpha  occ. eigenvalues --   -0.71220  -0.69953  -0.68766  -0.68364  -0.67868
 Alpha  occ. eigenvalues --   -0.67393  -0.65606  -0.64281  -0.63748  -0.62152
 Alpha  occ. eigenvalues --   -0.61637  -0.60110  -0.58511  -0.56635  -0.56372
 Alpha  occ. eigenvalues --   -0.55817  -0.55215  -0.54451  -0.53468  -0.52933
 Alpha  occ. eigenvalues --   -0.52312  -0.51344  -0.51149  -0.50249  -0.49208
 Alpha  occ. eigenvalues --   -0.49001  -0.48255  -0.47486  -0.47346  -0.47144
 Alpha  occ. eigenvalues --   -0.46954  -0.46450  -0.45842  -0.45649  -0.45458
 Alpha  occ. eigenvalues --   -0.44650  -0.44343  -0.44225  -0.44024  -0.43700
 Alpha  occ. eigenvalues --   -0.43178  -0.42708  -0.42539  -0.42281  -0.42010
 Alpha  occ. eigenvalues --   -0.41934  -0.41558  -0.41288  -0.40850  -0.40604
 Alpha  occ. eigenvalues --   -0.40444  -0.40177  -0.39848  -0.39512  -0.39227
 Alpha  occ. eigenvalues --   -0.39011  -0.38884  -0.38610  -0.38112  -0.38012
 Alpha  occ. eigenvalues --   -0.37274  -0.37247  -0.36825  -0.36658  -0.36607
 Alpha  occ. eigenvalues --   -0.35824  -0.35063  -0.34874  -0.34473  -0.34169
 Alpha  occ. eigenvalues --   -0.33610  -0.33493  -0.33365  -0.33100  -0.32816
 Alpha  occ. eigenvalues --   -0.32280  -0.32180  -0.32076  -0.29615  -0.28956
 Alpha  occ. eigenvalues --   -0.27741  -0.27269  -0.27006  -0.26320  -0.25645
 Alpha  occ. eigenvalues --   -0.25131  -0.24569  -0.24139  -0.22994  -0.21321
 Alpha  occ. eigenvalues --   -0.17609
 Alpha virt. eigenvalues --   -0.10094  -0.05895  -0.04032  -0.02793  -0.00822
 Alpha virt. eigenvalues --    0.00639   0.02935   0.03437   0.03700   0.04061
 Alpha virt. eigenvalues --    0.04232   0.04911   0.05373   0.05479   0.06109
 Alpha virt. eigenvalues --    0.06478   0.06707   0.07064   0.07655   0.07905
 Alpha virt. eigenvalues --    0.07966   0.08273   0.08434   0.08887   0.08936
 Alpha virt. eigenvalues --    0.09415   0.09700   0.10120   0.10316   0.11142
 Alpha virt. eigenvalues --    0.11239   0.11337   0.11482   0.11863   0.12545
 Alpha virt. eigenvalues --    0.12956   0.13190   0.13309   0.13783   0.14011
 Alpha virt. eigenvalues --    0.14207   0.14546   0.14944   0.15121   0.15273
 Alpha virt. eigenvalues --    0.15586   0.16226   0.16867   0.17798   0.18048
 Alpha virt. eigenvalues --    0.18715   0.18805   0.18936   0.19353   0.19660
 Alpha virt. eigenvalues --    0.20302   0.20634   0.20971   0.21259   0.21604
 Alpha virt. eigenvalues --    0.22387   0.22620   0.23282   0.23621   0.23932
 Alpha virt. eigenvalues --    0.24329   0.24783   0.25089   0.25291   0.25692
 Alpha virt. eigenvalues --    0.26328   0.26573   0.26992   0.27661   0.28103
 Alpha virt. eigenvalues --    0.28603   0.29135   0.29872   0.30161   0.30585
 Alpha virt. eigenvalues --    0.30846   0.31692   0.32418   0.32876   0.33872
 Alpha virt. eigenvalues --    0.34272   0.35004   0.35593   0.35995   0.36439
 Alpha virt. eigenvalues --    0.36772   0.37599   0.37828   0.38316   0.38799
 Alpha virt. eigenvalues --    0.39707   0.39926   0.40408   0.40735   0.40994
 Alpha virt. eigenvalues --    0.41332   0.41815   0.42342   0.42610   0.42890
 Alpha virt. eigenvalues --    0.43053   0.44015   0.44360   0.44569   0.44814
 Alpha virt. eigenvalues --    0.45090   0.45328   0.45849   0.46146   0.46598
 Alpha virt. eigenvalues --    0.46800   0.47575   0.47947   0.48181   0.48373
 Alpha virt. eigenvalues --    0.48617   0.48928   0.49132   0.49508   0.49710
 Alpha virt. eigenvalues --    0.50154   0.50567   0.50712   0.51040   0.51363
 Alpha virt. eigenvalues --    0.51660   0.52306   0.52727   0.53422   0.53644
 Alpha virt. eigenvalues --    0.54097   0.54295   0.54890   0.55007   0.55318
 Alpha virt. eigenvalues --    0.56065   0.56113   0.56443   0.56931   0.56999
 Alpha virt. eigenvalues --    0.57049   0.57581   0.57892   0.58121   0.58341
 Alpha virt. eigenvalues --    0.58734   0.59124   0.59683   0.60099   0.60454
 Alpha virt. eigenvalues --    0.60521   0.61267   0.61478   0.61684   0.61759
 Alpha virt. eigenvalues --    0.61921   0.62012   0.62221   0.62430   0.62686
 Alpha virt. eigenvalues --    0.63130   0.63539   0.63861   0.64174   0.64371
 Alpha virt. eigenvalues --    0.64404   0.64749   0.64975   0.65543   0.65715
 Alpha virt. eigenvalues --    0.65908   0.66306   0.66580   0.66665   0.66869
 Alpha virt. eigenvalues --    0.67079   0.67188   0.67390   0.67503   0.68067
 Alpha virt. eigenvalues --    0.68372   0.68599   0.68880   0.68958   0.69137
 Alpha virt. eigenvalues --    0.69485   0.69708   0.69981   0.70124   0.70291
 Alpha virt. eigenvalues --    0.70436   0.70491   0.71069   0.71131   0.71640
 Alpha virt. eigenvalues --    0.71868   0.72173   0.72491   0.73328   0.73675
 Alpha virt. eigenvalues --    0.73971   0.74139   0.74592   0.74913   0.75572
 Alpha virt. eigenvalues --    0.75947   0.76419   0.77127   0.77206   0.77680
 Alpha virt. eigenvalues --    0.77966   0.78123   0.78715   0.78920   0.79338
 Alpha virt. eigenvalues --    0.79579   0.80346   0.81129   0.81886   0.82057
 Alpha virt. eigenvalues --    0.82861   0.83580   0.84170   0.84563   0.85264
 Alpha virt. eigenvalues --    0.86314   0.86512   0.87268   0.87592   0.88730
 Alpha virt. eigenvalues --    0.89954   0.90605   0.91690   0.91975   0.92285
 Alpha virt. eigenvalues --    0.92732   0.93860   0.94390   0.94867   0.95157
 Alpha virt. eigenvalues --    0.95637   0.95872   0.96521   0.97097   0.97568
 Alpha virt. eigenvalues --    0.97781   0.98345   0.99123   0.99522   0.99899
 Alpha virt. eigenvalues --    1.00498   1.01167   1.02038   1.02677   1.03221
 Alpha virt. eigenvalues --    1.04016   1.04259   1.05072   1.05436   1.06437
 Alpha virt. eigenvalues --    1.06917   1.08133   1.09022   1.09398   1.09592
 Alpha virt. eigenvalues --    1.10195   1.11165   1.11821   1.12216   1.12896
 Alpha virt. eigenvalues --    1.13589   1.14275   1.14599   1.15337   1.16260
 Alpha virt. eigenvalues --    1.16984   1.17490   1.17802   1.18678   1.19674
 Alpha virt. eigenvalues --    1.20725   1.21240   1.22246   1.22555   1.23889
 Alpha virt. eigenvalues --    1.24064   1.24561   1.25397   1.25808   1.26343
 Alpha virt. eigenvalues --    1.26715   1.28081   1.28372   1.29319   1.30008
 Alpha virt. eigenvalues --    1.30272   1.31346   1.31886   1.32942   1.33347
 Alpha virt. eigenvalues --    1.34325   1.34965   1.35171   1.36041   1.36529
 Alpha virt. eigenvalues --    1.36889   1.37340   1.37677   1.39252   1.39686
 Alpha virt. eigenvalues --    1.40414   1.41528   1.41971   1.42877   1.43149
 Alpha virt. eigenvalues --    1.43435   1.44155   1.44800   1.45518   1.45978
 Alpha virt. eigenvalues --    1.46469   1.47542   1.48558   1.48722   1.49124
 Alpha virt. eigenvalues --    1.49537   1.49846   1.50040   1.50477   1.50612
 Alpha virt. eigenvalues --    1.51467   1.51655   1.52865   1.53022   1.53942
 Alpha virt. eigenvalues --    1.54518   1.54896   1.55144   1.55523   1.56384
 Alpha virt. eigenvalues --    1.56612   1.57099   1.58113   1.58400   1.58542
 Alpha virt. eigenvalues --    1.58808   1.60334   1.60979   1.61603   1.61787
 Alpha virt. eigenvalues --    1.62402   1.62592   1.63936   1.64161   1.64914
 Alpha virt. eigenvalues --    1.65115   1.65598   1.65767   1.66374   1.66406
 Alpha virt. eigenvalues --    1.66835   1.67271   1.67691   1.68163   1.68812
 Alpha virt. eigenvalues --    1.69053   1.69327   1.69445   1.70110   1.70213
 Alpha virt. eigenvalues --    1.70678   1.70985   1.71313   1.71896   1.72602
 Alpha virt. eigenvalues --    1.73071   1.73682   1.73985   1.74700   1.74903
 Alpha virt. eigenvalues --    1.75303   1.75921   1.76327   1.76703   1.77103
 Alpha virt. eigenvalues --    1.77613   1.77843   1.78120   1.78480   1.79002
 Alpha virt. eigenvalues --    1.79259   1.79719   1.80176   1.80754   1.80881
 Alpha virt. eigenvalues --    1.81580   1.81864   1.82370   1.82595   1.82856
 Alpha virt. eigenvalues --    1.83433   1.83576   1.83758   1.83856   1.84149
 Alpha virt. eigenvalues --    1.84477   1.84990   1.85443   1.86566   1.87034
 Alpha virt. eigenvalues --    1.87204   1.87301   1.87843   1.88611   1.89034
 Alpha virt. eigenvalues --    1.89307   1.89688   1.90014   1.90788   1.91056
 Alpha virt. eigenvalues --    1.91771   1.91881   1.92537   1.92650   1.93635
 Alpha virt. eigenvalues --    1.93974   1.94846   1.95154   1.95721   1.96409
 Alpha virt. eigenvalues --    1.96697   1.96861   1.97387   1.97810   1.98041
 Alpha virt. eigenvalues --    1.98339   1.98973   1.99018   2.00512   2.00841
 Alpha virt. eigenvalues --    2.01160   2.01548   2.01744   2.02741   2.03543
 Alpha virt. eigenvalues --    2.03899   2.04210   2.05316   2.05526   2.05742
 Alpha virt. eigenvalues --    2.06520   2.06731   2.07434   2.08790   2.09203
 Alpha virt. eigenvalues --    2.09833   2.10157   2.10635   2.10872   2.11132
 Alpha virt. eigenvalues --    2.11435   2.13072   2.13351   2.13890   2.14508
 Alpha virt. eigenvalues --    2.15296   2.15578   2.15944   2.16844   2.17743
 Alpha virt. eigenvalues --    2.17802   2.18981   2.19506   2.19721   2.20815
 Alpha virt. eigenvalues --    2.21217   2.21897   2.22781   2.23447   2.24068
 Alpha virt. eigenvalues --    2.24392   2.24974   2.25528   2.26790   2.26837
 Alpha virt. eigenvalues --    2.28049   2.28526   2.28972   2.29112   2.30111
 Alpha virt. eigenvalues --    2.31053   2.31617   2.32772   2.33218   2.33785
 Alpha virt. eigenvalues --    2.35200   2.35484   2.35951   2.37155   2.37515
 Alpha virt. eigenvalues --    2.38351   2.38607   2.39235   2.39769   2.40406
 Alpha virt. eigenvalues --    2.40754   2.41698   2.42328   2.43165   2.43904
 Alpha virt. eigenvalues --    2.44313   2.44599   2.45157   2.45334   2.45928
 Alpha virt. eigenvalues --    2.46030   2.46640   2.47490   2.48278   2.48663
 Alpha virt. eigenvalues --    2.50187   2.50635   2.52012   2.52341   2.53171
 Alpha virt. eigenvalues --    2.54177   2.55219   2.55504   2.56639   2.56903
 Alpha virt. eigenvalues --    2.57595   2.57833   2.60034   2.61149   2.62465
 Alpha virt. eigenvalues --    2.63198   2.63828   2.64329   2.65084   2.65825
 Alpha virt. eigenvalues --    2.67040   2.67890   2.67950   2.68309   2.68977
 Alpha virt. eigenvalues --    2.69419   2.70029   2.70517   2.70744   2.71435
 Alpha virt. eigenvalues --    2.72564   2.73072   2.73132   2.74736   2.75236
 Alpha virt. eigenvalues --    2.75858   2.76133   2.76505   2.76937   2.77382
 Alpha virt. eigenvalues --    2.78662   2.78894   2.79078   2.80475   2.81249
 Alpha virt. eigenvalues --    2.81646   2.81887   2.82421   2.83203   2.84270
 Alpha virt. eigenvalues --    2.84836   2.85179   2.86251   2.86644   2.86931
 Alpha virt. eigenvalues --    2.87193   2.88333   2.89023   2.90148   2.91102
 Alpha virt. eigenvalues --    2.91874   2.92917   2.93746   2.94070   2.95463
 Alpha virt. eigenvalues --    2.96160   2.96703   2.97550   2.98715   3.00110
 Alpha virt. eigenvalues --    3.00695   3.01146   3.01173   3.03131   3.03884
 Alpha virt. eigenvalues --    3.04710   3.05146   3.05725   3.07929   3.09047
 Alpha virt. eigenvalues --    3.09861   3.10571   3.12332   3.14143   3.14836
 Alpha virt. eigenvalues --    3.17366   3.17695   3.20529   3.21377   3.21982
 Alpha virt. eigenvalues --    3.22535   3.23358   3.24583   3.26559   3.28356
 Alpha virt. eigenvalues --    3.30593   3.37682   3.43797   3.45839   3.49572
 Alpha virt. eigenvalues --    3.50771   3.52945   3.55546   3.56307   3.57213
 Alpha virt. eigenvalues --    3.58494   3.64119   3.66310   3.73929   3.79038
 Alpha virt. eigenvalues --    3.88256
          Condensed to atoms (all electrons):
 Mulliken charges:
               1
     1  O   -0.159978
     2  O   -0.148843
     3  O   -0.170737
     4  O   -0.260283
     5  O   -0.218547
     6  O   -0.175179
     7  N   -0.032177
     8  N   -0.039977
     9  N   -0.218380
    10  N   -0.346886
    11  C   -0.035160
    12  C    0.019218
    13  C   -0.220990
    14  C    0.060740
    15  C   -0.103064
    16  C    0.090373
    17  C   -0.095885
    18  C   -0.152529
    19  C   -0.041905
    20  C   -0.077648
    21  C    0.130173
    22  C    0.119344
    23  C   -0.095249
    24  C    0.061152
    25  C   -0.139348
    26  C    0.056150
    27  C    0.126469
    28  C    0.088808
    29  C    0.009522
    30  C    0.148000
    31  C   -0.137152
    32  C    0.055708
    33  C   -0.108801
    34  C    0.054520
    35  C   -0.113251
    36  C   -0.173665
    37  C    0.185297
    38  C    0.055307
    39  C    0.147376
    40  C   -0.034819
    41  C    0.173439
    42  C    0.095565
    43  C   -0.042660
    44  H    0.146832
    45  H    0.019489
    46  H    0.037020
    47  H    0.014288
    48  H    0.067721
    49  H    0.018561
    50  H    0.025436
    51  H    0.054947
    52  H    0.161967
    53  H    0.024181
    54  H    0.047690
    55  H    0.036769
    56  H    0.139752
    57  H    0.025490
    58  H    0.034906
    59  H    0.018311
    60  H    0.045037
    61  H   -0.010957
    62  H    0.015127
    63  H    0.058936
    64  H   -0.030674
    65  H    0.035210
    66  H    0.032341
    67  H    0.012417
    68  H   -0.023741
    69  H    0.016449
    70  H    0.018716
    71  H    0.055508
    72  H    0.034290
    73  H    0.045104
    74  H    0.031781
    75  H    0.012686
    76  H    0.036741
    77  H    0.027528
    78  H    0.020930
    79  H    0.036534
    80  H    0.137443
    81  H    0.185186
 Sum of Mulliken charges =  -0.00000
 Mulliken charges with hydrogens summed into heavy atoms:
               1
     1  O   -0.159978
     2  O   -0.011400
     3  O    0.014449
     4  O   -0.260283
     5  O   -0.218547
     6  O   -0.175179
     7  N    0.114655
     8  N    0.121990
     9  N   -0.078628
    10  N   -0.346886
    11  C   -0.035160
    12  C    0.019218
    13  C   -0.220990
    14  C    0.060740
    15  C   -0.103064
    16  C    0.090373
    17  C   -0.076396
    18  C   -0.152529
    19  C    0.009403
    20  C   -0.009927
    21  C    0.130173
    22  C    0.119344
    23  C   -0.095249
    24  C    0.105149
    25  C   -0.084401
    26  C    0.164790
    27  C    0.126469
    28  C    0.149204
    29  C    0.072870
    30  C    0.211106
    31  C   -0.167826
    32  C    0.135676
    33  C   -0.132542
    34  C    0.054520
    35  C   -0.113251
    36  C   -0.173665
    37  C    0.185297
    38  C    0.145980
    39  C    0.147376
    40  C    0.044575
    41  C    0.173439
    42  C    0.176773
    43  C    0.042332
 Electronic spatial extent (au):  <R**2>=          30559.5086
 Charge=             -0.0000 electrons
 Dipole moment (field-independent basis, Debye):
    X=             -1.7288    Y=              0.3431    Z=             -1.9484  Tot=              2.6274
 Quadrupole moment (field-independent basis, Debye-Ang):
   XX=           -253.1520   YY=           -237.6536   ZZ=           -251.7409
   XY=             13.9142   XZ=             16.4317   YZ=             -5.1514
 Traceless Quadrupole moment (field-independent basis, Debye-Ang):
   XX=             -5.6365   YY=              9.8619   ZZ=             -4.2254
   XY=             13.9142   XZ=             16.4317   YZ=             -5.1514
 Octapole moment (field-independent basis, Debye-Ang**2):
  XXX=             72.9001  YYY=             73.9864  ZZZ=            -26.7163  XYY=           -182.0208
  XXY=            -17.9757  XXZ=           -125.2574  XZZ=            -68.9340  YZZ=            -50.0240
  YYZ=              1.5933  XYZ=            -67.0050
 Hexadecapole moment (field-independent basis, Debye-Ang**3):
 XXXX=         -21983.8038 YYYY=         -16465.1788 ZZZZ=          -1612.2965 XXXY=            591.1522
 XXXZ=            938.6311 YYYX=            958.4256 YYYZ=           -206.0438 ZZZX=             93.3256
 ZZZY=             83.6386 XXYY=          -6369.7297 XXZZ=          -3910.6134 YYZZ=          -3057.4935
 XXYZ=            247.2024 YYXZ=            369.0319 ZZXY=            229.5041
 N-N= 5.031487150977D+03 E-N=-1.459400372938D+04  KE= 1.927639674932D+03
 1\1\GINC-RYZEN-SSD1\SP\RB3LYP TD-FC\SVP\C33H38N4O6\PADAWAN\02-Jul-2019
 \0\\# td=(NStates=1) B3LYP/SVP\\TD\\0,1\O,0,-4.4723573565,-4.854825563
 8,1.8786832319\O,0,3.0078713852,-5.1000745567,1.0897769095\O,0,6.90535
 09165,-1.5068782289,1.9170019207\O,0,3.8556472975,-3.3292220474,-0.038
 5709987\O,0,7.4582545775,-0.6794193212,-0.0910586752\O,0,-2.9483451633
 ,2.3243298305,-0.2721021148\N,0,-0.2067050522,-0.5944387937,-0.5170703
 432\N,0,1.5377014528,1.8794703258,-0.2336150236\N,0,-3.4112880718,-3.2
 176708139,0.6403925106\N,0,-0.7636977727,2.8912795462,-0.0248675107\C,
 0,0.6736685993,-2.4303384721,-1.4065627394\C,0,0.9520141352,-1.1413940
 905,-0.9700195573\C,0,-0.7075450796,-2.620715961,-1.1344236418\C,0,-1.
 2722193281,-1.37298094,-0.6424657125\C,0,3.7619241337,1.4934038257,-0.
 3889751139\C,0,2.4537760706,0.9271240442,-0.5449560542\C,0,2.20175718,
 -0.4380499508,-0.8110333483\C,0,3.6274765846,2.8253305413,-0.104081181
 \C,0,1.6556567182,-3.3386491307,-1.9434845495\C,0,-5.6260419394,-2.738
 6457742,1.3709270327\C,0,-3.5552675897,-1.8598110431,0.1865424392\C,0,
 2.1187461348,3.0557119994,-0.0183993169\C,0,-4.9686430606,-1.572332736
 5,0.4549541343\C,0,5.0167701551,0.7206717372,-0.3526283192\C,0,-2.6195
 929215,-0.9902557972,-0.352465661\C,0,-1.6045083885,-3.7676812704,-1.6
 703602797\C,0,-4.5246099278,-3.7673752432,1.4136504796\C,0,1.882568732
 9,-4.5203842581,-0.9754403998\C,0,5.3864385202,0.0267866148,0.91761986
 81\C,0,4.6578915754,3.9362648578,0.1702492087\C,0,1.3352047619,4.18473
 28808,0.2962797475\C,0,-7.0515262832,-3.249162296,0.9312825944\C,0,-5.
 7790365062,-0.5401287428,-0.0750789823\C,0,-0.0808230713,4.0295676284,
 0.3085494805\C,0,-0.9704480065,5.1160026933,0.495544183\C,0,-2.2423895
 652,4.7289690197,0.2736687698\C,0,2.9712499663,-4.2295195711,0.0424956
 486\C,0,-5.3201066715,0.5579010187,-1.0507761446\C,0,6.6977523414,-0.7
 600842925,0.8419173143\C,0,-3.5302287822,5.4849147897,0.3322440395\C,0
 ,-2.1549989362,3.1954617375,0.0002809529\C,0,-0.4802321607,6.584112279
 2,0.7514602358\C,0,-4.1012586628,5.6898273876,-1.1293237081\H,0,-0.293
 4469096,0.2187575814,0.1292923759\H,0,3.0391979344,-1.1526672688,-0.90
 16396726\H,0,2.5692181727,-2.8333880457,-2.4688493196\H,0,1.2692837077
 ,-3.8078026979,-3.0090232688\H,0,-5.5932411303,-2.1987182609,2.4557177
 323\H,0,5.0215524654,0.006975414,-1.2172548785\H,0,5.8576077264,1.4674
 610554,-0.7685881584\H,0,-2.9820062963,0.1012846247,-0.4188847941\H,0,
 0.5163979715,1.8050316862,-0.493658838\H,0,-1.5366892601,-4.5329153957
 ,-0.8861194176\H,0,-2.697153345,-3.4124589479,-1.7773070509\H,0,-1.231
 6331144,-4.0120093753,-2.7388674897\H,0,-2.5016439222,-3.5832944778,0.
 9710843554\H,0,0.872673074,-4.7938318657,-0.7066543829\H,0,2.209430128
 8,-5.3592286314,-1.5723617501\H,0,4.5919236134,-0.527678819,1.35006559
 28\H,0,5.5280370033,0.891823619,1.782562727\H,0,4.6654840687,4.4030307
 705,-0.7130712898\H,0,5.7427809009,3.4295756768,0.0406105843\H,0,4.468
 736291,4.5528507932,1.1134026442\H,0,1.5629521272,5.1970596356,0.67106
 68936\H,0,-7.7673595076,-2.2170176963,0.8051952135\H,0,-7.6269283371,-
 3.9907768436,1.389771345\H,0,-6.7563038144,-3.5139691604,-0.0235907699
 \H,0,-6.7445617979,-0.4229726286,0.2765695849\H,0,-4.7774925911,1.2087
 650734,-0.5989237405\H,0,-6.3962114508,1.1195795863,-1.4972464031\H,0,
 -4.7781763131,-0.0281559694,-1.9301242251\H,0,-3.4145213314,6.56965962
 18,0.8759853025\H,0,-4.3233000075,4.6781769499,0.9064227801\H,0,0.1683
 413994,6.5168736473,1.6083835709\H,0,-1.2330746908,7.3564723427,0.7062
 798844\H,0,0.1610852961,6.860214522,-0.1964933151\H,0,-3.1274930451,6.
 2156174448,-1.7879966158\H,0,-5.0533471578,6.1415268937,-1.2614412858\
 H,0,-4.2020347246,4.6475662489,-1.563326071\H,0,3.4184871552,-4.982842
 5145,1.8491335504\H,0,7.6760848532,-2.0833289852,1.9556857312\\Version
 =ES64L-G16RevA.03\State=1-A\HF=-1949.0871392\RMSD=7.062e-09\PG=C01 [X(
 C33H38N4O6)]\\@


 IF MATHEMATICALLY YOU END UP WITH THE INCORRECT ANSWER,
 TRY MULTIPLYING BY THE PAGE NUMBER.
 Job cpu time:       0 days 18 hours  3 minutes 16.2 seconds.
 Elapsed time:       0 days  4 hours 32 minutes  5.9 seconds.
 File lengths (MBytes):  RWF=   2591 Int=      0 D2E=      0 Chk=     65 Scr=      1
 Normal termination of Gaussian 16 at Tue Jul  2 15:21:18 2019.
