 Entering Gaussian System, Link 0=g16
 Input=Geometria-210-.com
 Output=Geometria-210-.log
 Initial command:
 /usr/local/g16/l1.exe "/home/padawan/israel-mol/phycocyanobilin/spectra/abs/Gau-55569.inp" -scrdir="/home/padawan/israel-mol/phycocyanobilin/spectra/abs/"
 Entering Link 1 = /usr/local/g16/l1.exe PID=     55571.
  
 Copyright (c) 1988,1990,1992,1993,1995,1998,2003,2009,2016,
            Gaussian, Inc.  All Rights Reserved.
  
 This is part of the Gaussian(R) 16 program.  It is based on
 the Gaussian(R) 09 system (copyright 2009, Gaussian, Inc.),
 the Gaussian(R) 03 system (copyright 2003, Gaussian, Inc.),
 the Gaussian(R) 98 system (copyright 1998, Gaussian, Inc.),
 the Gaussian(R) 94 system (copyright 1995, Gaussian, Inc.),
 the Gaussian 92(TM) system (copyright 1992, Gaussian, Inc.),
 the Gaussian 90(TM) system (copyright 1990, Gaussian, Inc.),
 the Gaussian 88(TM) system (copyright 1988, Gaussian, Inc.),
 the Gaussian 86(TM) system (copyright 1986, Carnegie Mellon
 University), and the Gaussian 82(TM) system (copyright 1983,
 Carnegie Mellon University). Gaussian is a federally registered
 trademark of Gaussian, Inc.
  
 This software contains proprietary and confidential information,
 including trade secrets, belonging to Gaussian, Inc.
  
 This software is provided under written license and may be
 used, copied, transmitted, or stored only in accord with that
 written license.
  
 The following legend is applicable only to US Government
 contracts under FAR:
  
                    RESTRICTED RIGHTS LEGEND
  
 Use, reproduction and disclosure by the US Government is
 subject to restrictions as set forth in subparagraphs (a)
 and (c) of the Commercial Computer Software - Restricted
 Rights clause in FAR 52.227-19.
  
 Gaussian, Inc.
 340 Quinnipiac St., Bldg. 40, Wallingford CT 06492
  
  
 ---------------------------------------------------------------
 Warning -- This program may not be used in any manner that
 competes with the business of Gaussian, Inc. or will provide
 assistance to any competitor of Gaussian, Inc.  The licensee
 of this program is prohibited from giving any competitor of
 Gaussian, Inc. access to this program.  By using this program,
 the user acknowledges that Gaussian, Inc. is engaged in the
 business of creating and licensing software in the field of
 computational chemistry and represents and warrants to the
 licensee that it is not a competitor of Gaussian, Inc. and that
 it will not use this program in any manner prohibited above.
 ---------------------------------------------------------------
  

 Cite this work as:
 Gaussian 16, Revision A.03,
 M. J. Frisch, G. W. Trucks, H. B. Schlegel, G. E. Scuseria, 
 M. A. Robb, J. R. Cheeseman, G. Scalmani, V. Barone, 
 G. A. Petersson, H. Nakatsuji, X. Li, M. Caricato, A. V. Marenich, 
 J. Bloino, B. G. Janesko, R. Gomperts, B. Mennucci, H. P. Hratchian, 
 J. V. Ortiz, A. F. Izmaylov, J. L. Sonnenberg, D. Williams-Young, 
 F. Ding, F. Lipparini, F. Egidi, J. Goings, B. Peng, A. Petrone, 
 T. Henderson, D. Ranasinghe, V. G. Zakrzewski, J. Gao, N. Rega, 
 G. Zheng, W. Liang, M. Hada, M. Ehara, K. Toyota, R. Fukuda, 
 J. Hasegawa, M. Ishida, T. Nakajima, Y. Honda, O. Kitao, H. Nakai, 
 T. Vreven, K. Throssell, J. A. Montgomery, Jr., J. E. Peralta, 
 F. Ogliaro, M. J. Bearpark, J. J. Heyd, E. N. Brothers, K. N. Kudin, 
 V. N. Staroverov, T. A. Keith, R. Kobayashi, J. Normand, 
 K. Raghavachari, A. P. Rendell, J. C. Burant, S. S. Iyengar, 
 J. Tomasi, M. Cossi, J. M. Millam, M. Klene, C. Adamo, R. Cammi, 
 J. W. Ochterski, R. L. Martin, K. Morokuma, O. Farkas, 
 J. B. Foresman, and D. J. Fox, Gaussian, Inc., Wallingford CT, 2016.
 
 ******************************************
 Gaussian 16:  ES64L-G16RevA.03 25-Dec-2016
                 1-Jul-2019 
 ******************************************
 %nproc=4
 Will use up to    4 processors via shared memory.
 %Mem=4GB
 --------------------------
 # td=(NStates=1) B3LYP/SVP
 --------------------------
 1/38=1,172=1/1;
 2/12=2,17=6,18=5,40=1/2;
 3/5=18,7=101,11=9,25=1,30=1,74=-5/1,2,3,8;
 4//1;
 5/5=2,38=5/2;
 8/6=1,10=1,108=1/1;
 9/41=1,42=1,70=2/14;
 6/7=2,8=2,9=2,10=2/1;
 99/5=1,9=1/99;
 --
 TD
 --
 Symbolic Z-matrix:
 Charge =  0 Multiplicity = 1
 8                    -4.543    -4.674     1.97755 
 8                     2.90442  -4.9421    1.17186 
 8                     7.0597   -1.6555    1.70725 
 8                     3.79229  -3.23931   0.09091 
 8                     7.63482  -0.50716  -0.13701 
 8                    -3.04642   2.3991   -0.3034 
 7                    -0.24623  -0.50037  -0.55399 
 7                     1.57662   1.80387  -0.26497 
 7                    -3.41611  -3.08132   0.7196 
 7                    -0.77872   2.85978  -0.01646 
 6                     0.62151  -2.44147  -1.35867 
 6                     0.98509  -1.19734  -0.91884 
 6                    -0.75729  -2.52961  -1.28258 
 6                    -1.27364  -1.44633  -0.71638 
 6                     3.78576   1.46728  -0.4003 
 6                     2.55977   0.78969  -0.50748 
 6                     2.28401  -0.50284  -0.85064 
 6                     3.60733   2.75924   0.13317 
 6                     1.57308  -3.4622   -1.89908 
 6                    -5.56138  -2.56462   1.31442 
 6                    -3.64208  -1.88578   0.15341 
 6                     2.19387   2.95337   0.0887 
 6                    -5.05407  -1.60387   0.35576 
 6                     5.11411   0.72755  -0.48183 
 6                    -2.61309  -1.03412  -0.45299 
 6                    -1.56709  -3.71244  -1.74294 
 6                    -4.40819  -3.60311   1.38217 
 6                     1.87269  -4.55588  -0.87028 
 6                     5.43902  -0.01509   0.87382 
 6                     4.62561   3.85535   0.45807 
 6                     1.35742   4.0589    0.31739 
 6                    -6.96372  -3.19996   1.06129 
 6                    -5.78969  -0.56281  -0.20692 
 6                    -0.11993   4.01448   0.285 
 6                    -1.01394   5.17509   0.45878 
 6                    -2.26197   4.67444   0.1903 
 6                     2.91905  -4.05876   0.13215 
 6                    -5.35491   0.44073  -1.24264 
 6                     6.76333  -0.72417   0.66039 
 6                    -3.56578   5.31931   0.34645 
 6                    -2.09583   3.20404   0.05073 
 6                    -0.54757   6.44481   0.7882 
 6                    -4.17808   5.67361  -1.03191 
 1                    -0.40123   0.27837   0.13393 
 1                     3.00059  -1.33181  -1.00406 
 1                     2.40188  -3.00832  -2.23547 
 1                     1.21596  -3.85627  -2.83276 
 1                    -5.57775  -1.88163   2.21442 
 1                     4.98315   0.15815  -1.3169 
 1                     6.14007   1.39979  -0.78066 
 1                    -2.93249   0.01785  -0.5314 
 1                     0.52992   1.84518  -0.59117 
 1                    -1.77309  -4.41968  -1.06106 
 1                    -2.66322  -3.52135  -2.10021 
 1                    -1.04621  -4.35481  -2.55984 
 1                    -2.52213  -3.53002   0.94933 
 1                     0.84906  -4.87211  -0.55374 
 1                     2.42251  -5.27189  -1.4898 
 1                     4.71097  -0.73055   1.27915 
 1                     5.31626   0.59764   1.81521 
 1                     4.63657   4.7099   -0.22568 
 1                     5.68102   3.46874   0.34138 
 1                     4.39267   4.44913   1.41599 
 1                     1.71377   4.99532   0.68793 
 1                    -7.92163  -2.55982   1.18386 
 1                    -7.11597  -4.04098   1.90868 
 1                    -7.21181  -3.61626   0.09543 
 1                    -6.74932  -0.31454   0.08273 
 1                    -4.86377   1.1434   -0.62815 
 1                    -6.16169   0.7349   -1.79684 
 1                    -4.58973  -0.04464  -1.68237 
 1                    -3.42248   6.37517   0.81044 
 1                    -4.31425   4.65989   0.84532 
 1                    -0.4035    6.67378   1.98924 
 1                    -1.49648   7.26517   0.65162 
 1                     0.24696   6.88398   0.26361 
 1                    -3.66462   6.68189  -1.629 
 1                    -5.40425   5.64154  -1.08248 
 1                    -4.08538   4.70625  -1.67312 
 1                     3.64278  -4.63631   1.77973 
 1                     7.97207  -1.90527   1.48327 
 
 Stoichiometry    C33H38N4O6
 Framework group  C1[X(C33H38N4O6)]
 Deg. of freedom   237
 Full point group                 C1      NOp   1
 Largest Abelian subgroup         C1      NOp   1
 Largest concise Abelian subgroup C1      NOp   1
                         Standard orientation:                         
 ---------------------------------------------------------------------
 Center     Atomic      Atomic             Coordinates (Angstroms)
 Number     Number       Type             X           Y           Z
 ---------------------------------------------------------------------
      1          8           0        4.588793   -4.634660   -1.962102
      2          8           0       -2.855036   -4.977078   -1.151340
      3          8           0       -7.044546   -1.735986   -1.697236
      4          8           0       -3.760031   -3.279432   -0.076532
      5          8           0       -7.630664   -0.586532    0.142869
      6          8           0        3.019852    2.431296    0.292192
      7          7           0        0.250098   -0.496145    0.555556
      8          7           0       -1.596765    1.787872    0.258577
      9          7           0        3.446019   -3.048911   -0.709729
     10          7           0        0.747333    2.867244    0.004696
     11          6           0       -0.597000   -2.443024    1.368225
     12          6           0       -0.973718   -1.204462    0.923774
     13          6           0        0.782607   -2.517110    1.291732
     14          6           0        1.287375   -1.430728    0.721058
     15          6           0       -3.802216    1.428849    0.396406
     16          6           0       -2.569190    0.764468    0.505557
     17          6           0       -2.279825   -0.523777    0.853576
     18          6           0       -3.637512    2.720515   -0.142169
     19          6           0       -1.537624   -3.471491    1.913109
     20          6           0        5.585496   -2.512241   -1.307712
     21          6           0        3.659820   -1.848901   -0.148304
     22          6           0       -2.226125    2.929505   -0.099216
     23          6           0        5.068704   -1.553100   -0.352515
     24          6           0       -5.122761    0.675665    0.481529
     25          6           0        2.622335   -1.005636    0.455338
     26          6           0        1.604904   -3.689654    1.756239
     27          6           0        4.443141   -3.562926   -1.370803
     28          6           0       -1.826354   -4.572214    0.888723
     29          6           0       -5.440610   -0.075576   -0.871049
     30          6           0       -4.667297    3.804696   -0.470764
     31          6           0       -1.401330    4.042778   -0.332647
     32          6           0        6.994498   -3.131971   -1.052871
     33          6           0        5.793732   -0.502271    0.205729
     34          6           0        0.076412    4.013849   -0.300880
     35          6           0        0.958218    5.183013   -0.479649
     36          6           0        2.211522    4.696424   -0.209904
     37          6           0       -2.878338   -4.089908   -0.115067
     38          6           0        5.349056    0.500710    1.237775
     39          6           0       -6.757360   -0.797561   -0.654156
     40          6           0        3.508475    5.354204   -0.369256
     41          6           0        2.060760    3.224928   -0.064535
     42          6           0        0.478495    6.446524   -0.813745
     43          6           0        4.117740    5.720204    1.007387
     44          1           0        0.396642    0.281489   -0.135472
     45          1           0       -2.987674   -1.359552    1.010601
     46          1           0       -2.370935   -3.024947    2.248180
     47          1           0       -1.175956   -3.858190    2.848113
     48          1           0        5.594313   -1.832618   -2.210366
     49          1           0       -4.985465    0.110906    1.318735
     50          1           0       -6.155506    1.338356    0.778302
     51          1           0        2.930812    0.049892    0.529493
     52          1           0       -0.550392    1.841327    0.584048
     53          1           0        1.817908   -4.397366    1.076997
     54          1           0        2.699161   -3.485790    2.112174
     55          1           0        1.091144   -4.334236    2.575910
     56          1           0        2.556638   -3.507777   -0.937234
     57          1           0       -0.799651   -4.879009    0.572857
     58          1           0       -2.368389   -5.291494    1.511317
     59          1           0       -4.705351   -0.784996   -1.273997
     60          1           0       -5.324695    0.534737   -1.814877
     61          1           0       -4.686807    4.661741    0.209671
     62          1           0       -5.718575    3.407588   -0.352006
     63          1           0       -4.441027    4.397144   -1.431112
     64          1           0       -1.767588    4.973993   -0.706622
     65          1           0        7.945643   -2.482388   -1.178450
     66          1           0        7.155065   -3.974653   -1.897081
     67          1           0        7.247391   -3.541914   -0.085543
     68          1           0        6.750586   -0.245161   -0.085404
     69          1           0        4.850326    1.195839    0.620830
     70          1           0        6.153007    0.805409    1.790394
     71          1           0        4.589185    0.009122    1.679804
     72          1           0        3.353966    6.406707   -0.837265
     73          1           0        4.263512    4.700668   -0.865969
     74          1           0        0.331446    6.669315   -2.015584
     75          1           0        1.418889    7.277239   -0.680863
     76          1           0       -0.320301    6.879439   -0.290432
     77          1           0        3.594118    6.725410    1.600834
     78          1           0        5.344209    5.701088    1.057417
     79          1           0        4.035437    4.754437    1.652389
     80          1           0       -3.596840   -4.681348   -1.759994
     81          1           0       -7.954164   -1.994359   -1.471792
 ---------------------------------------------------------------------
 Rotational constants (GHZ):           0.0766052           0.0545256           0.0340331
 Standard basis: SVP (5D, 7F)
 There are   835 symmetry adapted cartesian basis functions of A   symmetry.
 There are   792 symmetry adapted basis functions of A   symmetry.
   792 basis functions,  1341 primitive gaussians,   835 cartesian basis functions
   156 alpha electrons      156 beta electrons
       nuclear repulsion energy      5047.4058184686 Hartrees.
 NAtoms=   81 NActive=   81 NUniq=   81 SFac= 1.00D+00 NAtFMM=   60 NAOKFM=T Big=T
 Integral buffers will be    131072 words long.
 Regular integral format.
 Two-electron integral symmetry is turned on.
 One-electron integrals computed using PRISM.
 NBasis=   792 RedAO= T EigKep=  3.03D-04  NBF=   792
 NBsUse=   792 1.00D-06 EigRej= -1.00D+00 NBFU=   792
 ExpMin= 1.22D-01 ExpMax= 2.27D+03 ExpMxC= 3.41D+02 IAcc=3 IRadAn=         5 AccDes= 0.00D+00
 Harris functional with IExCor=  402 and IRadAn=       5 diagonalized for initial guess.
 HarFok:  IExCor=  402 AccDes= 0.00D+00 IRadAn=         5 IDoV= 1 UseB2=F ITyADJ=14
 ICtDFT=  3500011 ScaDFX=  1.000000  1.000000  1.000000  1.000000
 FoFCou: FMM=F IPFlag=           0 FMFlag=      100000 FMFlg1=        2001
         NFxFlg=           0 DoJE=T BraDBF=F KetDBF=T FulRan=T
         wScrn=  0.000000 ICntrl=       500 IOpCl=  0 I1Cent=   200000004 NGrid=           0
         NMat0=    1 NMatS0=      1 NMatT0=    0 NMatD0=    1 NMtDS0=    0 NMtDT0=    0
 Petite list used in FoFCou.
 Requested convergence on RMS density matrix=1.00D-08 within 128 cycles.
 Requested convergence on MAX density matrix=1.00D-06.
 Requested convergence on             energy=1.00D-06.
 No special actions if energy rises.
 Integral accuracy reduced to 1.0D-05 until final iterations.
 Initial convergence to 1.0D-05 achieved.  Increase integral accuracy.
 SCF Done:  E(RB3LYP) =  -1949.10176189     A.U. after   17 cycles
            NFock= 17  Conv=0.76D-08     -V/T= 2.0106
 DoSCS=F DFT=T ScalE2(SS,OS)=  1.000000  1.000000
 ExpMin= 1.22D-01 ExpMax= 2.27D+03 ExpMxC= 3.41D+02 IAcc=3 IRadAn=         5 AccDes= 0.00D+00
 HarFok:  IExCor=  205 AccDes= 0.00D+00 IRadAn=         5 IDoV=-2 UseB2=F ITyADJ=14
 ICtDFT= 12500011 ScaDFX=  1.000000  1.000000  1.000000  1.000000
 GSVD:  LWork=       -2193 too small for GESVD, short by        9890 words or        9890 for optimal perf.
 Range of M.O.s used for correlation:    44   792
 NBasis=   792 NAE=   156 NBE=   156 NFC=    43 NFV=     0
 NROrb=    749 NOA=   113 NOB=   113 NVA=   636 NVB=   636

 **** Warning!!: The smallest alpha delta epsilon is  0.71001032D-01

 Orbital symmetries:
       Occupied  (A) (A) (A) (A) (A) (A) (A) (A) (A) (A) (A) (A)
                 (A) (A) (A) (A) (A) (A) (A) (A) (A) (A) (A) (A)
                 (A) (A) (A) (A) (A) (A) (A) (A) (A) (A) (A) (A)
                 (A) (A) (A) (A) (A) (A) (A) (A) (A) (A) (A) (A)
                 (A) (A) (A) (A) (A) (A) (A) (A) (A) (A) (A) (A)
                 (A) (A) (A) (A) (A) (A) (A) (A) (A) (A) (A) (A)
                 (A) (A) (A) (A) (A) (A) (A) (A) (A) (A) (A) (A)
                 (A) (A) (A) (A) (A) (A) (A) (A) (A) (A) (A) (A)
                 (A) (A) (A) (A) (A) (A) (A) (A) (A) (A) (A) (A)
                 (A) (A) (A) (A) (A) (A) (A) (A) (A) (A) (A) (A)
                 (A) (A) (A) (A) (A) (A) (A) (A) (A) (A) (A) (A)
                 (A) (A) (A) (A) (A) (A) (A) (A) (A) (A) (A) (A)
                 (A) (A) (A) (A) (A) (A) (A) (A) (A) (A) (A) (A)
       Virtual   (A) (A) (A) (A) (A) (A) (A) (A) (A) (A) (A) (A)
                 (A) (A) (A) (A) (A) (A) (A) (A) (A) (A) (A) (A)
                 (A) (A) (A) (A) (A) (A) (A) (A) (A) (A) (A) (A)
                 (A) (A) (A) (A) (A) (A) (A) (A) (A) (A) (A) (A)
                 (A) (A) (A) (A) (A) (A) (A) (A) (A) (A) (A) (A)
                 (A) (A) (A) (A) (A) (A) (A) (A) (A) (A) (A) (A)
                 (A) (A) (A) (A) (A) (A) (A) (A) (A) (A) (A) (A)
                 (A) (A) (A) (A) (A) (A) (A) (A) (A) (A) (A) (A)
                 (A) (A) (A) (A) (A) (A) (A) (A) (A) (A) (A) (A)
                 (A) (A) (A) (A) (A) (A) (A) (A) (A) (A) (A) (A)
                 (A) (A) (A) (A) (A) (A) (A) (A) (A) (A) (A) (A)
                 (A) (A) (A) (A) (A) (A) (A) (A) (A) (A) (A) (A)
                 (A) (A) (A) (A) (A) (A) (A) (A) (A) (A) (A) (A)
                 (A) (A) (A) (A) (A) (A) (A) (A) (A) (A) (A) (A)
                 (A) (A) (A) (A) (A) (A) (A) (A) (A) (A) (A) (A)
                 (A) (A) (A) (A) (A) (A) (A) (A) (A) (A) (A) (A)
                 (A) (A) (A) (A) (A) (A) (A) (A) (A) (A) (A) (A)
                 (A) (A) (A) (A) (A) (A) (A) (A) (A) (A) (A) (A)
                 (A) (A) (A) (A) (A) (A) (A) (A) (A) (A) (A) (A)
                 (A) (A) (A) (A) (A) (A) (A) (A) (A) (A) (A) (A)
                 (A) (A) (A) (A) (A) (A) (A) (A) (A) (A) (A) (A)
                 (A) (A) (A) (A) (A) (A) (A) (A) (A) (A) (A) (A)
                 (A) (A) (A) (A) (A) (A) (A) (A) (A) (A) (A) (A)
                 (A) (A) (A) (A) (A) (A) (A) (A) (A) (A) (A) (A)
                 (A) (A) (A) (A) (A) (A) (A) (A) (A) (A) (A) (A)
                 (A) (A) (A) (A) (A) (A) (A) (A) (A) (A) (A) (A)
                 (A) (A) (A) (A) (A) (A) (A) (A) (A) (A) (A) (A)
                 (A) (A) (A) (A) (A) (A) (A) (A) (A) (A) (A) (A)
                 (A) (A) (A) (A) (A) (A) (A) (A) (A) (A) (A) (A)
                 (A) (A) (A) (A) (A) (A) (A) (A) (A) (A) (A) (A)
                 (A) (A) (A) (A) (A) (A) (A) (A) (A) (A) (A) (A)
                 (A) (A) (A) (A) (A) (A) (A) (A) (A) (A) (A) (A)
                 (A) (A) (A) (A) (A) (A) (A) (A) (A) (A) (A) (A)
                 (A) (A) (A) (A) (A) (A) (A) (A) (A) (A) (A) (A)
                 (A) (A) (A) (A) (A) (A) (A) (A) (A) (A) (A) (A)
                 (A) (A) (A) (A) (A) (A) (A) (A) (A) (A) (A) (A)
                 (A) (A) (A) (A) (A) (A) (A) (A) (A) (A) (A) (A)
                 (A) (A) (A) (A) (A) (A) (A) (A) (A) (A) (A) (A)
                 (A) (A) (A) (A) (A) (A) (A) (A) (A) (A) (A) (A)
                 (A) (A) (A) (A) (A) (A) (A) (A) (A) (A) (A) (A)
                 (A) (A) (A) (A) (A) (A) (A) (A) (A) (A) (A) (A)
                 (A) (A) (A) (A) (A) (A) (A) (A) (A) (A) (A) (A)
                 (A) (A) (A) (A) (A) (A) (A) (A) (A) (A) (A) (A)
                 (A) (A) (A) (A) (A) (A) (A) (A) (A) (A) (A) (A)
                 (A) (A) (A) (A) (A) (A) (A) (A) (A) (A) (A) (A)
                 (A) (A) (A) (A) (A) (A) (A) (A) (A) (A) (A) (A)
                 (A) (A) (A) (A) (A) (A) (A) (A) (A) (A) (A) (A)
                 (A) (A) (A) (A) (A) (A) (A) (A) (A) (A) (A) (A)
                 (A) (A) (A) (A) (A) (A) (A) (A) (A) (A) (A) (A)
                 (A) (A) (A) (A) (A) (A) (A) (A) (A) (A) (A) (A)
                 (A) (A) (A) (A) (A) (A) (A) (A) (A) (A) (A) (A)
                 (A) (A) (A) (A) (A) (A) (A) (A) (A) (A) (A) (A)
                 (A) (A) (A) (A) (A) (A) (A) (A) (A) (A) (A) (A)
     4 initial guesses have been made.
 Convergence on wavefunction:    0.001000000000000
 Iteration     1 Dimension     4 NMult     0 NNew      4
 CISAX will form     4 AO SS matrices at one time.
 Iteration     2 Dimension     6 NMult     4 NNew      2
 Iteration     3 Dimension     8 NMult     6 NNew      2
 Iteration     4 Dimension    10 NMult     8 NNew      2
 Iteration     5 Dimension    12 NMult    10 NNew      2
 Iteration     6 Dimension    14 NMult    12 NNew      2
 ***********************************************************************
 Excited states from <AA,BB:AA,BB> singles matrix:
 ***********************************************************************
 
 Ground to excited state transition densities written to RWF  633
 Ground to excited state transition electric dipole moments (Au):
       state          X           Y           Z        Dip. S.      Osc.
         1         1.0002     -2.3651      0.1618      6.6206      0.2794
 Ground to excited state transition velocity dipole moments (Au):
       state          X           Y           Z        Dip. S.      Osc.
         1        -0.0618      0.1450     -0.0114      0.0250      0.2631
 Ground to excited state transition magnetic dipole moments (Au):
       state          X           Y           Z
         1        -0.2530     -0.5581     -2.1763
 Ground to excited state transition velocity quadrupole moments (Au):
       state          XX          YY          ZZ          XY          XZ          YZ
         1        -0.4574      0.5589     -0.0549      0.4287      0.0455     -0.0474
 <0|del|b> * <b|rxdel|0> + <0|del|b> * <b|delr+rdel|0>
 Rotatory Strengths (R) in cgs (10**-40 erg-esu-cm/Gauss)
       state          XX          YY          ZZ    R(velocity)    E-M Angle
         1      -377.8414    269.3046   -344.2342   -150.9237       96.51
 1/2[<0|r|b>*<b|rxdel|0> + (<0|rxdel|b>*<b|r|0>)*]
 Rotatory Strengths (R) in cgs (10**-40 erg-esu-cm/Gauss)
       state          XX          YY          ZZ     R(length)
         1       178.9288   -933.4577    249.0049   -168.5080
  1/2[<0|del|b>*<b|r|0> + (<0|r|b>*<b|del|0>)*] (Au)
       state          X           Y           Z        Dip. S.   Osc.(frdel)
         1        -0.0619     -0.3429     -0.0018      0.4066      0.2711

 Excitation energies and oscillator strengths:
 
 Excited State   1:      Singlet-A      1.7223 eV  719.88 nm  f=0.2794  <S**2>=0.000
     156 ->157         0.70503
     156 <-157        -0.10243
 This state for optimization and/or second-order correction.
 Total Energy, E(TD-HF/TD-DFT) =  -1949.03846904    
 Copying the excited state density for this state as the 1-particle RhoCI density.
 SavETr:  write IOETrn=   770 NScale= 10 NData=  16 NLR=1 NState=    1 LETran=      28.

 **********************************************************************

            Population analysis using the SCF density.

 **********************************************************************

 Orbital symmetries:
       Occupied  (A) (A) (A) (A) (A) (A) (A) (A) (A) (A) (A) (A)
                 (A) (A) (A) (A) (A) (A) (A) (A) (A) (A) (A) (A)
                 (A) (A) (A) (A) (A) (A) (A) (A) (A) (A) (A) (A)
                 (A) (A) (A) (A) (A) (A) (A) (A) (A) (A) (A) (A)
                 (A) (A) (A) (A) (A) (A) (A) (A) (A) (A) (A) (A)
                 (A) (A) (A) (A) (A) (A) (A) (A) (A) (A) (A) (A)
                 (A) (A) (A) (A) (A) (A) (A) (A) (A) (A) (A) (A)
                 (A) (A) (A) (A) (A) (A) (A) (A) (A) (A) (A) (A)
                 (A) (A) (A) (A) (A) (A) (A) (A) (A) (A) (A) (A)
                 (A) (A) (A) (A) (A) (A) (A) (A) (A) (A) (A) (A)
                 (A) (A) (A) (A) (A) (A) (A) (A) (A) (A) (A) (A)
                 (A) (A) (A) (A) (A) (A) (A) (A) (A) (A) (A) (A)
                 (A) (A) (A) (A) (A) (A) (A) (A) (A) (A) (A) (A)
       Virtual   (A) (A) (A) (A) (A) (A) (A) (A) (A) (A) (A) (A)
                 (A) (A) (A) (A) (A) (A) (A) (A) (A) (A) (A) (A)
                 (A) (A) (A) (A) (A) (A) (A) (A) (A) (A) (A) (A)
                 (A) (A) (A) (A) (A) (A) (A) (A) (A) (A) (A) (A)
                 (A) (A) (A) (A) (A) (A) (A) (A) (A) (A) (A) (A)
                 (A) (A) (A) (A) (A) (A) (A) (A) (A) (A) (A) (A)
                 (A) (A) (A) (A) (A) (A) (A) (A) (A) (A) (A) (A)
                 (A) (A) (A) (A) (A) (A) (A) (A) (A) (A) (A) (A)
                 (A) (A) (A) (A) (A) (A) (A) (A) (A) (A) (A) (A)
                 (A) (A) (A) (A) (A) (A) (A) (A) (A) (A) (A) (A)
                 (A) (A) (A) (A) (A) (A) (A) (A) (A) (A) (A) (A)
                 (A) (A) (A) (A) (A) (A) (A) (A) (A) (A) (A) (A)
                 (A) (A) (A) (A) (A) (A) (A) (A) (A) (A) (A) (A)
                 (A) (A) (A) (A) (A) (A) (A) (A) (A) (A) (A) (A)
                 (A) (A) (A) (A) (A) (A) (A) (A) (A) (A) (A) (A)
                 (A) (A) (A) (A) (A) (A) (A) (A) (A) (A) (A) (A)
                 (A) (A) (A) (A) (A) (A) (A) (A) (A) (A) (A) (A)
                 (A) (A) (A) (A) (A) (A) (A) (A) (A) (A) (A) (A)
                 (A) (A) (A) (A) (A) (A) (A) (A) (A) (A) (A) (A)
                 (A) (A) (A) (A) (A) (A) (A) (A) (A) (A) (A) (A)
                 (A) (A) (A) (A) (A) (A) (A) (A) (A) (A) (A) (A)
                 (A) (A) (A) (A) (A) (A) (A) (A) (A) (A) (A) (A)
                 (A) (A) (A) (A) (A) (A) (A) (A) (A) (A) (A) (A)
                 (A) (A) (A) (A) (A) (A) (A) (A) (A) (A) (A) (A)
                 (A) (A) (A) (A) (A) (A) (A) (A) (A) (A) (A) (A)
                 (A) (A) (A) (A) (A) (A) (A) (A) (A) (A) (A) (A)
                 (A) (A) (A) (A) (A) (A) (A) (A) (A) (A) (A) (A)
                 (A) (A) (A) (A) (A) (A) (A) (A) (A) (A) (A) (A)
                 (A) (A) (A) (A) (A) (A) (A) (A) (A) (A) (A) (A)
                 (A) (A) (A) (A) (A) (A) (A) (A) (A) (A) (A) (A)
                 (A) (A) (A) (A) (A) (A) (A) (A) (A) (A) (A) (A)
                 (A) (A) (A) (A) (A) (A) (A) (A) (A) (A) (A) (A)
                 (A) (A) (A) (A) (A) (A) (A) (A) (A) (A) (A) (A)
                 (A) (A) (A) (A) (A) (A) (A) (A) (A) (A) (A) (A)
                 (A) (A) (A) (A) (A) (A) (A) (A) (A) (A) (A) (A)
                 (A) (A) (A) (A) (A) (A) (A) (A) (A) (A) (A) (A)
                 (A) (A) (A) (A) (A) (A) (A) (A) (A) (A) (A) (A)
                 (A) (A) (A) (A) (A) (A) (A) (A) (A) (A) (A) (A)
                 (A) (A) (A) (A) (A) (A) (A) (A) (A) (A) (A) (A)
                 (A) (A) (A) (A) (A) (A) (A) (A) (A) (A) (A) (A)
                 (A) (A) (A) (A) (A) (A) (A) (A) (A) (A) (A) (A)
                 (A) (A) (A) (A) (A) (A) (A) (A) (A) (A) (A) (A)
                 (A) (A) (A) (A) (A) (A) (A) (A) (A) (A) (A) (A)
                 (A) (A) (A) (A) (A) (A) (A) (A) (A) (A) (A) (A)
                 (A) (A) (A) (A) (A) (A) (A) (A) (A) (A) (A) (A)
                 (A) (A) (A) (A) (A) (A) (A) (A) (A) (A) (A) (A)
                 (A) (A) (A) (A) (A) (A) (A) (A) (A) (A) (A) (A)
                 (A) (A) (A) (A) (A) (A) (A) (A) (A) (A) (A) (A)
                 (A) (A) (A) (A) (A) (A) (A) (A) (A) (A) (A) (A)
                 (A) (A) (A) (A) (A) (A) (A) (A) (A) (A) (A) (A)
                 (A) (A) (A) (A) (A) (A) (A) (A) (A) (A) (A) (A)
                 (A) (A) (A) (A) (A) (A) (A) (A) (A) (A) (A) (A)
                 (A) (A) (A) (A) (A) (A) (A) (A) (A) (A) (A) (A)
 The electronic state is 1-A.
 Alpha  occ. eigenvalues --  -19.18841 -19.16679 -19.15390 -19.14015 -19.10819
 Alpha  occ. eigenvalues --  -19.09748 -14.38898 -14.36510 -14.35548 -14.29311
 Alpha  occ. eigenvalues --  -10.34108 -10.32774 -10.28953 -10.26273 -10.25346
 Alpha  occ. eigenvalues --  -10.24097 -10.23704 -10.23451 -10.23421 -10.22790
 Alpha  occ. eigenvalues --  -10.22460 -10.22287 -10.22276 -10.21588 -10.21239
 Alpha  occ. eigenvalues --  -10.21182 -10.21099 -10.20991 -10.20535 -10.20286
 Alpha  occ. eigenvalues --  -10.19883 -10.19869 -10.19857 -10.19795 -10.19665
 Alpha  occ. eigenvalues --  -10.19598 -10.19543 -10.19423 -10.19378 -10.19229
 Alpha  occ. eigenvalues --  -10.19193 -10.18799 -10.15229  -1.11359  -1.08648
 Alpha  occ. eigenvalues --   -1.04592  -1.01895  -0.99647  -0.98414  -0.97887
 Alpha  occ. eigenvalues --   -0.97464  -0.96291  -0.91374  -0.83655  -0.82416
 Alpha  occ. eigenvalues --   -0.82383  -0.80920  -0.80748  -0.78962  -0.78044
 Alpha  occ. eigenvalues --   -0.77254  -0.76508  -0.75859  -0.74580  -0.72661
 Alpha  occ. eigenvalues --   -0.71333  -0.69815  -0.69316  -0.68813  -0.67731
 Alpha  occ. eigenvalues --   -0.67480  -0.65676  -0.64829  -0.63293  -0.60945
 Alpha  occ. eigenvalues --   -0.59822  -0.59337  -0.58806  -0.58013  -0.57422
 Alpha  occ. eigenvalues --   -0.56332  -0.56053  -0.55588  -0.54347  -0.53621
 Alpha  occ. eigenvalues --   -0.52965  -0.52178  -0.51301  -0.50533  -0.50235
 Alpha  occ. eigenvalues --   -0.49900  -0.48858  -0.48742  -0.48359  -0.47950
 Alpha  occ. eigenvalues --   -0.47169  -0.46998  -0.46639  -0.45807  -0.45714
 Alpha  occ. eigenvalues --   -0.45318  -0.44518  -0.44376  -0.44061  -0.43844
 Alpha  occ. eigenvalues --   -0.43609  -0.43051  -0.42786  -0.42747  -0.42019
 Alpha  occ. eigenvalues --   -0.41862  -0.41529  -0.41247  -0.41035  -0.40949
 Alpha  occ. eigenvalues --   -0.40491  -0.40297  -0.40244  -0.39956  -0.39601
 Alpha  occ. eigenvalues --   -0.39480  -0.39425  -0.39057  -0.38641  -0.38276
 Alpha  occ. eigenvalues --   -0.38092  -0.37722  -0.37400  -0.36652  -0.36557
 Alpha  occ. eigenvalues --   -0.36396  -0.36183  -0.35698  -0.35183  -0.34763
 Alpha  occ. eigenvalues --   -0.34232  -0.34055  -0.33866  -0.33724  -0.32664
 Alpha  occ. eigenvalues --   -0.32367  -0.32048  -0.31204  -0.30658  -0.29810
 Alpha  occ. eigenvalues --   -0.29189  -0.27811  -0.26553  -0.25845  -0.25796
 Alpha  occ. eigenvalues --   -0.25248  -0.24551  -0.24152  -0.23271  -0.21204
 Alpha  occ. eigenvalues --   -0.18181
 Alpha virt. eigenvalues --   -0.11081  -0.06966  -0.04894  -0.01952  -0.01479
 Alpha virt. eigenvalues --   -0.00064   0.01710   0.02789   0.02926   0.03734
 Alpha virt. eigenvalues --    0.04169   0.04470   0.05603   0.05948   0.06279
 Alpha virt. eigenvalues --    0.06617   0.07045   0.07452   0.07672   0.07888
 Alpha virt. eigenvalues --    0.08278   0.08626   0.08706   0.09003   0.09074
 Alpha virt. eigenvalues --    0.09596   0.09990   0.10338   0.10665   0.10754
 Alpha virt. eigenvalues --    0.11308   0.11448   0.11772   0.12353   0.12593
 Alpha virt. eigenvalues --    0.12845   0.13029   0.13568   0.14001   0.14103
 Alpha virt. eigenvalues --    0.14473   0.14527   0.14975   0.15367   0.15952
 Alpha virt. eigenvalues --    0.16332   0.16838   0.17000   0.17520   0.17719
 Alpha virt. eigenvalues --    0.17999   0.18636   0.19089   0.19387   0.19532
 Alpha virt. eigenvalues --    0.19945   0.20480   0.20602   0.20809   0.21407
 Alpha virt. eigenvalues --    0.21553   0.21829   0.22822   0.23339   0.23579
 Alpha virt. eigenvalues --    0.23637   0.24346   0.24905   0.25349   0.25861
 Alpha virt. eigenvalues --    0.26372   0.26672   0.27535   0.27987   0.28296
 Alpha virt. eigenvalues --    0.29008   0.29279   0.29772   0.29907   0.30547
 Alpha virt. eigenvalues --    0.30961   0.31521   0.31873   0.32102   0.32872
 Alpha virt. eigenvalues --    0.33403   0.34151   0.34843   0.34934   0.35999
 Alpha virt. eigenvalues --    0.36192   0.36763   0.36981   0.38119   0.38306
 Alpha virt. eigenvalues --    0.38397   0.39315   0.39858   0.40285   0.40779
 Alpha virt. eigenvalues --    0.40880   0.41436   0.41705   0.42505   0.42555
 Alpha virt. eigenvalues --    0.43088   0.43515   0.43880   0.44230   0.44579
 Alpha virt. eigenvalues --    0.44840   0.44968   0.45995   0.46220   0.46386
 Alpha virt. eigenvalues --    0.46519   0.47535   0.47746   0.47797   0.48622
 Alpha virt. eigenvalues --    0.48899   0.49115   0.49208   0.49972   0.50097
 Alpha virt. eigenvalues --    0.50233   0.50667   0.51078   0.51585   0.52029
 Alpha virt. eigenvalues --    0.52415   0.52548   0.53078   0.53364   0.53657
 Alpha virt. eigenvalues --    0.54267   0.54512   0.55133   0.55414   0.55752
 Alpha virt. eigenvalues --    0.55839   0.56402   0.56504   0.56749   0.57138
 Alpha virt. eigenvalues --    0.57726   0.58212   0.58250   0.58574   0.59061
 Alpha virt. eigenvalues --    0.59681   0.60022   0.60286   0.60611   0.60664
 Alpha virt. eigenvalues --    0.61012   0.61510   0.61889   0.61969   0.62235
 Alpha virt. eigenvalues --    0.62559   0.62657   0.62844   0.62926   0.63092
 Alpha virt. eigenvalues --    0.63343   0.63676   0.63820   0.63959   0.64210
 Alpha virt. eigenvalues --    0.64506   0.64801   0.64932   0.65080   0.65307
 Alpha virt. eigenvalues --    0.65763   0.66093   0.66356   0.66538   0.66704
 Alpha virt. eigenvalues --    0.66990   0.67397   0.67612   0.67728   0.68300
 Alpha virt. eigenvalues --    0.68392   0.68546   0.68635   0.69035   0.69097
 Alpha virt. eigenvalues --    0.69452   0.69976   0.70283   0.70675   0.70716
 Alpha virt. eigenvalues --    0.70960   0.71381   0.71550   0.71728   0.72037
 Alpha virt. eigenvalues --    0.72542   0.73023   0.73221   0.73574   0.73726
 Alpha virt. eigenvalues --    0.74124   0.74575   0.74971   0.75118   0.76110
 Alpha virt. eigenvalues --    0.76170   0.76489   0.76601   0.77336   0.77574
 Alpha virt. eigenvalues --    0.77920   0.78296   0.78435   0.78847   0.79150
 Alpha virt. eigenvalues --    0.79376   0.80463   0.80711   0.80901   0.81985
 Alpha virt. eigenvalues --    0.82449   0.83100   0.83459   0.84274   0.85934
 Alpha virt. eigenvalues --    0.86898   0.87237   0.87490   0.88036   0.88297
 Alpha virt. eigenvalues --    0.89643   0.90388   0.91013   0.91540   0.91948
 Alpha virt. eigenvalues --    0.92442   0.93357   0.93930   0.94817   0.94902
 Alpha virt. eigenvalues --    0.95708   0.95871   0.96500   0.96804   0.97993
 Alpha virt. eigenvalues --    0.98164   0.98301   0.98832   0.99066   0.99890
 Alpha virt. eigenvalues --    1.00444   1.01733   1.02613   1.02946   1.03500
 Alpha virt. eigenvalues --    1.04225   1.04569   1.05183   1.05952   1.06785
 Alpha virt. eigenvalues --    1.07258   1.08229   1.08993   1.09603   1.10183
 Alpha virt. eigenvalues --    1.10411   1.11081   1.11398   1.11965   1.12755
 Alpha virt. eigenvalues --    1.13029   1.13879   1.14220   1.15573   1.16391
 Alpha virt. eigenvalues --    1.17047   1.17221   1.17751   1.18209   1.18691
 Alpha virt. eigenvalues --    1.19108   1.20173   1.20469   1.21501   1.21857
 Alpha virt. eigenvalues --    1.23393   1.23696   1.24084   1.24580   1.25495
 Alpha virt. eigenvalues --    1.27063   1.27247   1.27756   1.28810   1.28905
 Alpha virt. eigenvalues --    1.29922   1.30436   1.30728   1.31292   1.31816
 Alpha virt. eigenvalues --    1.32470   1.33569   1.34681   1.35061   1.35396
 Alpha virt. eigenvalues --    1.36371   1.36949   1.37607   1.37808   1.38706
 Alpha virt. eigenvalues --    1.38902   1.39334   1.40932   1.41486   1.41875
 Alpha virt. eigenvalues --    1.42585   1.43194   1.43597   1.44363   1.45286
 Alpha virt. eigenvalues --    1.46343   1.46593   1.47418   1.48464   1.48640
 Alpha virt. eigenvalues --    1.49063   1.49472   1.49622   1.50315   1.50445
 Alpha virt. eigenvalues --    1.51336   1.51803   1.52482   1.54035   1.54669
 Alpha virt. eigenvalues --    1.54798   1.55171   1.56599   1.56728   1.58135
 Alpha virt. eigenvalues --    1.59287   1.59461   1.60495   1.60807   1.61172
 Alpha virt. eigenvalues --    1.61547   1.61825   1.62237   1.62350   1.62694
 Alpha virt. eigenvalues --    1.62939   1.63866   1.64390   1.64736   1.65518
 Alpha virt. eigenvalues --    1.66137   1.66168   1.66552   1.66877   1.67222
 Alpha virt. eigenvalues --    1.67375   1.68178   1.68675   1.69276   1.69488
 Alpha virt. eigenvalues --    1.69876   1.70176   1.70712   1.71714   1.71985
 Alpha virt. eigenvalues --    1.72379   1.72436   1.73241   1.73542   1.74211
 Alpha virt. eigenvalues --    1.74398   1.74745   1.74962   1.75212   1.75452
 Alpha virt. eigenvalues --    1.76089   1.76235   1.76779   1.77264   1.77402
 Alpha virt. eigenvalues --    1.77610   1.78208   1.79412   1.79638   1.80312
 Alpha virt. eigenvalues --    1.80425   1.80746   1.81052   1.81323   1.81597
 Alpha virt. eigenvalues --    1.82412   1.82483   1.82901   1.83384   1.83703
 Alpha virt. eigenvalues --    1.84134   1.84261   1.84534   1.84936   1.85224
 Alpha virt. eigenvalues --    1.85412   1.85864   1.86115   1.86900   1.87447
 Alpha virt. eigenvalues --    1.87647   1.88009   1.88163   1.88450   1.89021
 Alpha virt. eigenvalues --    1.89400   1.90070   1.90441   1.91257   1.91670
 Alpha virt. eigenvalues --    1.92097   1.92464   1.92769   1.93583   1.94286
 Alpha virt. eigenvalues --    1.94998   1.95355   1.95742   1.96127   1.96895
 Alpha virt. eigenvalues --    1.97440   1.97993   1.98610   1.99002   1.99723
 Alpha virt. eigenvalues --    2.00790   2.00856   2.01826   2.02003   2.02417
 Alpha virt. eigenvalues --    2.03532   2.03738   2.04078   2.04210   2.04480
 Alpha virt. eigenvalues --    2.05354   2.05670   2.06061   2.06380   2.06612
 Alpha virt. eigenvalues --    2.07871   2.08173   2.08485   2.08597   2.09364
 Alpha virt. eigenvalues --    2.09576   2.10538   2.10951   2.11780   2.11804
 Alpha virt. eigenvalues --    2.12011   2.12866   2.13146   2.13540   2.14303
 Alpha virt. eigenvalues --    2.15176   2.15997   2.16479   2.17287   2.17737
 Alpha virt. eigenvalues --    2.18082   2.18890   2.19575   2.20434   2.21412
 Alpha virt. eigenvalues --    2.21748   2.22106   2.22450   2.23275   2.24241
 Alpha virt. eigenvalues --    2.24314   2.25500   2.26326   2.26771   2.27725
 Alpha virt. eigenvalues --    2.28248   2.28675   2.30063   2.30844   2.31507
 Alpha virt. eigenvalues --    2.31973   2.32441   2.33117   2.33565   2.34478
 Alpha virt. eigenvalues --    2.35585   2.36787   2.37027   2.37350   2.38427
 Alpha virt. eigenvalues --    2.38757   2.39308   2.40368   2.40952   2.41618
 Alpha virt. eigenvalues --    2.42352   2.42681   2.43033   2.43950   2.44985
 Alpha virt. eigenvalues --    2.45648   2.46079   2.46595   2.46959   2.47249
 Alpha virt. eigenvalues --    2.47939   2.49109   2.50849   2.51443   2.52099
 Alpha virt. eigenvalues --    2.52358   2.53253   2.54936   2.55380   2.56276
 Alpha virt. eigenvalues --    2.56801   2.57088   2.57977   2.59034   2.60964
 Alpha virt. eigenvalues --    2.61046   2.62107   2.62560   2.62705   2.63014
 Alpha virt. eigenvalues --    2.63378   2.63449   2.64388   2.64781   2.66044
 Alpha virt. eigenvalues --    2.66455   2.66846   2.67511   2.67989   2.68119
 Alpha virt. eigenvalues --    2.69038   2.69949   2.70654   2.71180   2.71303
 Alpha virt. eigenvalues --    2.71707   2.72771   2.73477   2.74263   2.74965
 Alpha virt. eigenvalues --    2.76310   2.76747   2.78041   2.78297   2.79701
 Alpha virt. eigenvalues --    2.80472   2.81165   2.81374   2.81695   2.82113
 Alpha virt. eigenvalues --    2.83887   2.84433   2.84923   2.85567   2.85670
 Alpha virt. eigenvalues --    2.86206   2.87633   2.89068   2.89257   2.89722
 Alpha virt. eigenvalues --    2.90184   2.90465   2.91935   2.92177   2.93148
 Alpha virt. eigenvalues --    2.93317   2.94645   2.94730   2.94992   2.96175
 Alpha virt. eigenvalues --    2.96778   2.98025   2.98712   2.99578   2.99852
 Alpha virt. eigenvalues --    3.02261   3.04014   3.04984   3.05548   3.08174
 Alpha virt. eigenvalues --    3.08465   3.08756   3.09403   3.10321   3.11893
 Alpha virt. eigenvalues --    3.13411   3.14396   3.15031   3.16241   3.17186
 Alpha virt. eigenvalues --    3.17578   3.17982   3.18510   3.19797   3.20304
 Alpha virt. eigenvalues --    3.20813   3.20912   3.24619   3.26120   3.31346
 Alpha virt. eigenvalues --    3.32140   3.36882   3.43166   3.44586   3.46728
 Alpha virt. eigenvalues --    3.47882   3.50624   3.51938   3.52645   3.58251
 Alpha virt. eigenvalues --    3.60736   3.62659   3.63432   3.68466   3.73279
 Alpha virt. eigenvalues --    3.75873
          Condensed to atoms (all electrons):
 Mulliken charges:
               1
     1  O   -0.228248
     2  O   -0.208768
     3  O   -0.248927
     4  O   -0.205131
     5  O   -0.210804
     6  O   -0.286472
     7  N   -0.175521
     8  N   -0.160678
     9  N    0.008432
    10  N   -0.271650
    11  C   -0.101191
    12  C   -0.006950
    13  C   -0.122104
    14  C    0.099721
    15  C   -0.102831
    16  C    0.171186
    17  C   -0.051574
    18  C   -0.105368
    19  C    0.150713
    20  C   -0.050959
    21  C    0.006945
    22  C    0.144840
    23  C   -0.018112
    24  C    0.069739
    25  C   -0.102058
    26  C    0.074347
    27  C    0.074627
    28  C    0.054578
    29  C    0.011257
    30  C    0.071418
    31  C   -0.109991
    32  C    0.000097
    33  C   -0.190888
    34  C    0.033006
    35  C   -0.017725
    36  C   -0.128074
    37  C    0.133031
    38  C    0.211459
    39  C    0.185248
    40  C    0.082235
    41  C    0.168754
    42  C   -0.018889
    43  C   -0.127397
    44  H    0.164446
    45  H    0.015159
    46  H   -0.046837
    47  H   -0.006652
    48  H    0.057926
    49  H   -0.002797
    50  H    0.057123
    51  H    0.022673
    52  H    0.190644
    53  H   -0.024676
    54  H    0.036814
    55  H    0.011924
    56  H    0.143905
    57  H    0.052891
    58  H    0.049208
    59  H    0.026952
    60  H    0.050293
    61  H    0.017945
    62  H    0.026344
    63  H    0.030901
    64  H   -0.045602
    65  H    0.015222
    66  H    0.047681
    67  H    0.009979
    68  H   -0.035162
    69  H    0.050049
    70  H   -0.005948
    71  H   -0.019426
    72  H    0.013784
    73  H    0.028046
    74  H    0.049479
    75  H    0.021265
    76  H    0.028609
    77  H    0.044718
    78  H    0.023614
    79  H    0.034609
    80  H    0.192150
    81  H    0.171422
 Sum of Mulliken charges =  -0.00000
 Mulliken charges with hydrogens summed into heavy atoms:
               1
     1  O   -0.228248
     2  O   -0.016618
     3  O   -0.077505
     4  O   -0.205131
     5  O   -0.210804
     6  O   -0.286472
     7  N   -0.011076
     8  N    0.029966
     9  N    0.152337
    10  N   -0.271650
    11  C   -0.101191
    12  C   -0.006950
    13  C   -0.122104
    14  C    0.099721
    15  C   -0.102831
    16  C    0.171186
    17  C   -0.036415
    18  C   -0.105368
    19  C    0.097223
    20  C    0.006967
    21  C    0.006945
    22  C    0.144840
    23  C   -0.018112
    24  C    0.124065
    25  C   -0.079385
    26  C    0.098408
    27  C    0.074627
    28  C    0.156678
    29  C    0.088502
    30  C    0.146609
    31  C   -0.155593
    32  C    0.072979
    33  C   -0.226050
    34  C    0.033006
    35  C   -0.017725
    36  C   -0.128074
    37  C    0.133031
    38  C    0.236135
    39  C    0.185248
    40  C    0.124065
    41  C    0.168754
    42  C    0.080464
    43  C   -0.024456
 Electronic spatial extent (au):  <R**2>=          30478.3143
 Charge=             -0.0000 electrons
 Dipole moment (field-independent basis, Debye):
    X=             -3.0039    Y=              0.8886    Z=             -0.3364  Tot=              3.1506
 Quadrupole moment (field-independent basis, Debye-Ang):
   XX=           -258.8084   YY=           -242.6988   ZZ=           -256.0862
   XY=             12.0690   XZ=             11.4118   YZ=            -18.2095
 Traceless Quadrupole moment (field-independent basis, Debye-Ang):
   XX=             -6.2772   YY=              9.8323   ZZ=             -3.5551
   XY=             12.0690   XZ=             11.4118   YZ=            -18.2095
 Octapole moment (field-independent basis, Debye-Ang**2):
  XXX=             47.2467  YYY=            107.4237  ZZZ=            -16.0992  XYY=           -200.0840
  XXY=             24.6385  XXZ=            -44.1228  XZZ=            -53.7182  YZZ=            -25.7993
  YYZ=             41.8128  XYZ=            -55.0330
 Hexadecapole moment (field-independent basis, Debye-Ang**3):
 XXXX=         -22537.3176 YYYY=         -16244.4293 ZZZZ=          -1645.0376 XXXY=            628.0457
 XXXZ=            748.2773 YYYX=            694.4341 YYYZ=           -502.4068 ZZZX=             60.1168
 ZZZY=             17.1061 XXYY=          -6713.0817 XXZZ=          -4118.6726 YYZZ=          -3077.4662
 XXYZ=           -113.4970 YYXZ=            284.2643 ZZXY=            209.9053
 N-N= 5.047405818469D+03 E-N=-1.462602413003D+04  KE= 1.928727851837D+03
 1\1\GINC-RYZEN-SSD1\SP\RB3LYP TD-FC\SVP\C33H38N4O6\PADAWAN\01-Jul-2019
 \0\\# td=(NStates=1) B3LYP/SVP\\TD\\0,1\O,0,-4.5430044212,-4.673997480
 9,1.9775531189\O,0,2.9044210402,-4.9420987591,1.1718551173\O,0,7.05969
 6351,-1.6555030914,1.7072509456\O,0,3.7922909619,-3.2393130565,0.09091
 19496\O,0,7.6348222342,-0.5071620955,-0.1370132706\O,0,-3.0464249713,2
 .3990973072,-0.3033952441\N,0,-0.2462290046,-0.5003693867,-0.553994035
 6\N,0,1.5766153442,1.8038727661,-0.2649681589\N,0,-3.4161085539,-3.081
 3171785,0.7196004313\N,0,-0.7787192748,2.8597763958,-0.0164566696\C,0,
 0.6215133837,-2.4414695853,-1.3586679499\C,0,0.9850874425,-1.197339685
 1,-0.9188444397\C,0,-0.7572900541,-2.5296068501,-1.2825784572\C,0,-1.2
 736394701,-1.4463282747,-0.7163831042\C,0,3.785756517,1.4672812134,-0.
 400296246\C,0,2.5597666697,0.7896903008,-0.5074823068\C,0,2.2840054048
 ,-0.5028364294,-0.8506373087\C,0,3.6073345704,2.7592439326,0.133172544
 4\C,0,1.5730784603,-3.4622014859,-1.899080109\C,0,-5.5613754727,-2.564
 6183714,1.3144213821\C,0,-3.6420762705,-1.8857836404,0.1534091259\C,0,
 2.1938736476,2.9533717654,0.0887013931\C,0,-5.0540716035,-1.6038658898
 ,0.3557642153\C,0,5.1141098891,0.7275524252,-0.4818312395\C,0,-2.61309
 22714,-1.0341201836,-0.452985713\C,0,-1.5670946472,-3.7124357459,-1.74
 29375375\C,0,-4.4081882856,-3.6031088166,1.3821673313\C,0,1.8726877448
 ,-4.5558778075,-0.8702798838\C,0,5.4390237787,-0.0150875727,0.87381548
 76\C,0,4.625608347,3.855346766,0.4580679906\C,0,1.3574169831,4.0589002
 975,0.3173918587\C,0,-6.9637175024,-3.1999573755,1.0612855947\C,0,-5.7
 896875713,-0.562811011,-0.2069221666\C,0,-0.1199269817,4.0144761192,0.
 2849971253\C,0,-1.0139423559,5.1750886019,0.4587805067\C,0,-2.26197152
 34,4.6744435672,0.1903004329\C,0,2.9190547468,-4.0587624953,0.13215461
 45\C,0,-5.3549101518,0.4407293015,-1.2426353305\C,0,6.7633288991,-0.72
 41707012,0.6603891615\C,0,-3.5657823375,5.319308229,0.3464454596\C,0,-
 2.0958330196,3.2040425956,0.0507259974\C,0,-0.5475688944,6.4448083488,
 0.7882039102\C,0,-4.1780763445,5.6736057655,-1.0319139671\H,0,-0.40122
 76877,0.278373543,0.13393284\H,0,3.000594074,-1.3318051826,-1.00405991
 46\H,0,2.401881439,-3.0083155385,-2.2354659813\H,0,1.2159583751,-3.856
 2675444,-2.8327556421\H,0,-5.5777495812,-1.8816265518,2.2144236029\H,0
 ,4.9831486251,0.1581505316,-1.3169048435\H,0,6.1400659722,1.3997942887
 ,-0.7806593655\H,0,-2.9324913448,0.0178462808,-0.5313960452\H,0,0.5299
 193236,1.8451757006,-0.591168589\H,0,-1.7730929005,-4.4196840726,-1.06
 10569114\H,0,-2.6632199517,-3.521349837,-2.1002093411\H,0,-1.046214572
 6,-4.3548136558,-2.559839587\H,0,-2.5221259704,-3.5300191503,0.9493321
 802\H,0,0.8490607128,-4.8721096935,-0.5537390914\H,0,2.4225114369,-5.2
 718898975,-1.4898034942\H,0,4.7109655176,-0.730549106,1.2791485011\H,0
 ,5.3162558252,0.597644201,1.8152059913\H,0,4.6365711774,4.7099014575,-
 0.225682551\H,0,5.6810247253,3.4687395932,0.3413806613\H,0,4.392668684
 3,4.4491304211,1.4159929032\H,0,1.7137672087,4.9953194615,0.6879285798
 \H,0,-7.9216349351,-2.5598219767,1.1838630803\H,0,-7.115967241,-4.0409
 818641,1.9086832362\H,0,-7.2118093649,-3.6162593894,0.0954311323\H,0,-
 6.7493222739,-0.3145417855,0.0827302009\H,0,-4.8637712189,1.1433985368
 ,-0.6281466628\H,0,-6.1616879985,0.7349011184,-1.7968363621\H,0,-4.589
 7274682,-0.0446376176,-1.6823694496\H,0,-3.4224821275,6.3751701728,0.8
 104387479\H,0,-4.3142491024,4.6598851207,0.8453166695\H,0,-0.403495784
 3,6.6737793378,1.9892416567\H,0,-1.4964810314,7.2651732128,0.651624418
 8\H,0,0.246963884,6.8839768982,0.2636126955\H,0,-3.6646167575,6.681894
 0725,-1.6290007162\H,0,-5.4042522483,5.6415368947,-1.08248339\H,0,-4.0
 853830594,4.7062521175,-1.6731170501\H,0,3.6427795845,-4.636307861,1.7
 797266097\H,0,7.9720744521,-1.9052711794,1.4832684894\\Version=ES64L-G
 16RevA.03\State=1-A\HF=-1949.1017619\RMSD=7.616e-09\PG=C01 [X(C33H38N4
 O6)]\\@


 LOVE IS BLIND, THAT'S WHY ALL THE WORLD LOVES A LOUVER.
 Job cpu time:       0 days 16 hours 54 minutes  3.5 seconds.
 Elapsed time:       0 days  4 hours 14 minutes 41.8 seconds.
 File lengths (MBytes):  RWF=   2591 Int=      0 D2E=      0 Chk=     65 Scr=      1
 Normal termination of Gaussian 16 at Mon Jul  1 16:19:11 2019.
