 Entering Gaussian System, Link 0=g16
 Input=Geometria-207-.com
 Output=Geometria-207-.log
 Initial command:
 /usr/local/g16/l1.exe "/home/padawan/israel-mol/phycocyanobilin/spectra/abs/Gau-55222.inp" -scrdir="/home/padawan/israel-mol/phycocyanobilin/spectra/abs/"
 Entering Link 1 = /usr/local/g16/l1.exe PID=     55224.
  
 Copyright (c) 1988,1990,1992,1993,1995,1998,2003,2009,2016,
            Gaussian, Inc.  All Rights Reserved.
  
 This is part of the Gaussian(R) 16 program.  It is based on
 the Gaussian(R) 09 system (copyright 2009, Gaussian, Inc.),
 the Gaussian(R) 03 system (copyright 2003, Gaussian, Inc.),
 the Gaussian(R) 98 system (copyright 1998, Gaussian, Inc.),
 the Gaussian(R) 94 system (copyright 1995, Gaussian, Inc.),
 the Gaussian 92(TM) system (copyright 1992, Gaussian, Inc.),
 the Gaussian 90(TM) system (copyright 1990, Gaussian, Inc.),
 the Gaussian 88(TM) system (copyright 1988, Gaussian, Inc.),
 the Gaussian 86(TM) system (copyright 1986, Carnegie Mellon
 University), and the Gaussian 82(TM) system (copyright 1983,
 Carnegie Mellon University). Gaussian is a federally registered
 trademark of Gaussian, Inc.
  
 This software contains proprietary and confidential information,
 including trade secrets, belonging to Gaussian, Inc.
  
 This software is provided under written license and may be
 used, copied, transmitted, or stored only in accord with that
 written license.
  
 The following legend is applicable only to US Government
 contracts under FAR:
  
                    RESTRICTED RIGHTS LEGEND
  
 Use, reproduction and disclosure by the US Government is
 subject to restrictions as set forth in subparagraphs (a)
 and (c) of the Commercial Computer Software - Restricted
 Rights clause in FAR 52.227-19.
  
 Gaussian, Inc.
 340 Quinnipiac St., Bldg. 40, Wallingford CT 06492
  
  
 ---------------------------------------------------------------
 Warning -- This program may not be used in any manner that
 competes with the business of Gaussian, Inc. or will provide
 assistance to any competitor of Gaussian, Inc.  The licensee
 of this program is prohibited from giving any competitor of
 Gaussian, Inc. access to this program.  By using this program,
 the user acknowledges that Gaussian, Inc. is engaged in the
 business of creating and licensing software in the field of
 computational chemistry and represents and warrants to the
 licensee that it is not a competitor of Gaussian, Inc. and that
 it will not use this program in any manner prohibited above.
 ---------------------------------------------------------------
  

 Cite this work as:
 Gaussian 16, Revision A.03,
 M. J. Frisch, G. W. Trucks, H. B. Schlegel, G. E. Scuseria, 
 M. A. Robb, J. R. Cheeseman, G. Scalmani, V. Barone, 
 G. A. Petersson, H. Nakatsuji, X. Li, M. Caricato, A. V. Marenich, 
 J. Bloino, B. G. Janesko, R. Gomperts, B. Mennucci, H. P. Hratchian, 
 J. V. Ortiz, A. F. Izmaylov, J. L. Sonnenberg, D. Williams-Young, 
 F. Ding, F. Lipparini, F. Egidi, J. Goings, B. Peng, A. Petrone, 
 T. Henderson, D. Ranasinghe, V. G. Zakrzewski, J. Gao, N. Rega, 
 G. Zheng, W. Liang, M. Hada, M. Ehara, K. Toyota, R. Fukuda, 
 J. Hasegawa, M. Ishida, T. Nakajima, Y. Honda, O. Kitao, H. Nakai, 
 T. Vreven, K. Throssell, J. A. Montgomery, Jr., J. E. Peralta, 
 F. Ogliaro, M. J. Bearpark, J. J. Heyd, E. N. Brothers, K. N. Kudin, 
 V. N. Staroverov, T. A. Keith, R. Kobayashi, J. Normand, 
 K. Raghavachari, A. P. Rendell, J. C. Burant, S. S. Iyengar, 
 J. Tomasi, M. Cossi, J. M. Millam, M. Klene, C. Adamo, R. Cammi, 
 J. W. Ochterski, R. L. Martin, K. Morokuma, O. Farkas, 
 J. B. Foresman, and D. J. Fox, Gaussian, Inc., Wallingford CT, 2016.
 
 ******************************************
 Gaussian 16:  ES64L-G16RevA.03 25-Dec-2016
                 1-Jul-2019 
 ******************************************
 %nproc=4
 Will use up to    4 processors via shared memory.
 %Mem=4GB
 --------------------------
 # td=(NStates=1) B3LYP/SVP
 --------------------------
 1/38=1,172=1/1;
 2/12=2,17=6,18=5,40=1/2;
 3/5=18,7=101,11=9,25=1,30=1,74=-5/1,2,3,8;
 4//1;
 5/5=2,38=5/2;
 8/6=1,10=1,108=1/1;
 9/41=1,42=1,70=2/14;
 6/7=2,8=2,9=2,10=2/1;
 99/5=1,9=1/99;
 --
 TD
 --
 Symbolic Z-matrix:
 Charge =  0 Multiplicity = 1
 8                    -4.64907  -4.66247   2.01534 
 8                     3.10402  -4.93298   1.14942 
 8                     6.85971  -1.76345   1.76352 
 8                     3.78441  -3.09045   0.05081 
 8                     7.61473  -0.69815  -0.10304 
 8                    -3.01744   2.37059  -0.19928 
 7                    -0.27264  -0.62226  -0.36839 
 7                     1.55036   1.77395  -0.25097 
 7                    -3.35441  -3.16304   0.63165 
 7                    -0.77032   2.7777    0.04697 
 6                     0.62488  -2.4292   -1.25816 
 6                     0.96531  -1.14901  -0.7999 
 6                    -0.70018  -2.64116  -1.25213 
 6                    -1.27768  -1.45994  -0.69172 
 6                     3.83089   1.484    -0.35014 
 6                     2.51609   0.78648  -0.47456 
 6                     2.14596  -0.48995  -0.81252 
 6                     3.57449   2.88408  -0.14371 
 6                     1.69497  -3.36     -1.88415 
 6                    -5.63177  -2.57008   1.30704 
 6                    -3.62422  -1.81061   0.07987 
 6                     2.16279   3.03765  -0.07243 
 6                    -5.06098  -1.54735   0.28154 
 6                     5.19548   0.80015  -0.36146 
 6                    -2.6816   -1.01481  -0.36889 
 6                    -1.48955  -3.89289  -1.74482 
 6                    -4.4608   -3.67728   1.33344 
 6                     2.14709  -4.47998  -0.99256 
 6                     5.33381  -0.20796   0.82623 
 6                     4.59005   3.99956   0.1205 
 6                     1.3226    4.08875   0.23663 
 6                    -6.96443  -3.03434   1.08442 
 6                    -5.83402  -0.55304  -0.30136 
 6                    -0.1445    4.02408   0.27785 
 6                    -0.9457    5.17122   0.45075 
 6                    -2.23577   4.71609   0.3292 
 6                     3.08042  -4.04266   0.11387 
 6                    -5.41821   0.41696  -1.41467 
 6                     6.70174  -0.80735   0.76811 
 6                    -3.62533   5.39683   0.45828 
 6                    -2.11915   3.18341   0.02337 
 6                    -0.52884   6.64836   0.80404 
 6                    -4.20593   5.6569   -0.91078 
 1                    -0.51204   0.26251   0.1529 
 1                     3.11521  -1.10925  -1.23016 
 1                     2.57785  -2.76627  -2.07953 
 1                     1.33547  -3.72362  -2.66216 
 1                    -5.61047  -2.02096   2.43559 
 1                     5.17816   0.10156  -1.52099 
 1                     6.04671   1.53396  -0.34553 
 1                    -2.96693  -0.09802  -0.49568 
 1                     0.49733   1.74606  -0.07853 
 1                    -1.58853  -4.70286  -0.95791 
 1                    -2.5605   -3.59521  -2.12627 
 1                    -1.03419  -4.25548  -2.68322 
 1                    -2.5157   -3.55928   0.49584 
 1                     1.20429  -5.05932  -0.50751 
 1                     2.58936  -5.42076  -1.34815 
 1                     4.68174  -1.25888   0.60272 
 1                     5.02558   0.12231   2.08159 
 1                     4.19345   4.91785  -0.28089 
 1                     5.55037   3.84361  -0.37404 
 1                     4.74539   4.37485   1.17067 
 1                     1.80911   5.14843   0.67315 
 1                    -7.75428  -2.3457    1.60568 
 1                    -7.00668  -3.81021   1.88572 
 1                    -7.27963  -3.6123    0.21207 
 1                    -6.89486  -0.59857  -0.13989 
 1                    -4.84889   1.18751  -1.1455 
 1                    -6.47192   0.54511  -2.2132 
 1                    -4.70808  -0.30827  -2.02259 
 1                    -3.34293   6.4535    0.89177 
 1                    -4.23369   4.94056   1.37822 
 1                     0.04054   6.78456   1.78966 
 1                    -1.33299   7.26704   0.82939 
 1                     0.12791   6.98036  -0.12709 
 1                    -3.49614   6.29912  -1.48598 
 1                    -5.17559   6.04758  -0.77117 
 1                    -4.31766   4.71578  -1.50691 
 1                     3.68154  -4.48139   1.75658 
 1                     7.6969   -2.26932   1.71739 
 
 Stoichiometry    C33H38N4O6
 Framework group  C1[X(C33H38N4O6)]
 Deg. of freedom   237
 Full point group                 C1      NOp   1
 Largest Abelian subgroup         C1      NOp   1
 Largest concise Abelian subgroup C1      NOp   1
                         Standard orientation:                         
 ---------------------------------------------------------------------
 Center     Atomic      Atomic             Coordinates (Angstroms)
 Number     Number       Type             X           Y           Z
 ---------------------------------------------------------------------
      1          8           0        4.583160   -4.740292   -1.985817
      2          8           0       -3.175651   -4.890515   -1.142245
      3          8           0       -6.881226   -1.667050   -1.779544
      4          8           0       -3.831388   -3.033769   -0.052611
      5          8           0       -7.625592   -0.583392    0.080716
      6          8           0        3.051368    2.324949    0.197454
      7          7           0        0.261209   -0.625493    0.369526
      8          7           0       -1.525056    1.797484    0.237620
      9          7           0        3.307210   -3.216252   -0.611677
     10          7           0        0.811384    2.764968   -0.057094
     11          6           0       -0.666119   -2.415290    1.263371
     12          6           0       -0.985819   -1.131867    0.799288
     13          6           0        0.655610   -2.647237    1.262125
     14          6           0        1.252526   -1.477003    0.699030
     15          6           0       -3.809985    1.542353    0.331015
     16          6           0       -2.506241    0.825552    0.462010
     17          6           0       -2.156423   -0.455018    0.805879
     18          6           0       -3.531869    2.937605    0.120096
     19          6           0       -1.751982   -3.327458    1.889628
     20          6           0        5.595248   -2.660291   -1.282427
     21          6           0        3.595778   -1.865960   -0.064170
     22          6           0       -2.117806    3.069592    0.052500
     23          6           0        5.036936   -1.625178   -0.262495
     24          6           0       -5.184769    0.879212    0.340791
     25          6           0        2.663953   -1.054333    0.378757
     26          6           0        1.424525   -3.908857    1.761889
     27          6           0        4.407780   -3.749789   -1.308197
     28          6           0       -2.218317   -4.443869    1.000896
     29          6           0       -5.334798   -0.131199   -0.843515
     30          6           0       -4.529690    4.067271   -0.151358
     31          6           0       -1.260936    4.106718   -0.257982
     32          6           0        6.920079   -3.143755   -1.054050
     33          6           0        5.823174   -0.640435    0.318991
     34          6           0        0.205139    4.019760   -0.294533
     35          6           0        1.024070    5.154018   -0.469329
     36          6           0        2.306760    4.679943   -0.342191
     37          6           0       -3.141671   -3.996727   -0.109979
     38          6           0        5.418763    0.339949    1.427394
     39          6           0       -6.711787   -0.709661   -0.787264
     40          6           0        3.706814    5.339145   -0.469634
     41          6           0        2.166107    3.150373   -0.030959
     42          6           0        0.630605    6.635926   -0.829413
     43          6           0        4.287227    5.595635    0.900181
     44          1           0        0.515475    0.253580   -0.154360
     45          1           0       -3.136136   -1.058041    1.222920
     46          1           0       -2.626369   -2.719738    2.080119
     47          1           0       -1.400312   -3.693503    2.670077
     48          1           0        5.585576   -2.115206   -2.413085
     49          1           0       -5.181423    0.184857    1.502980
     50          1           0       -6.024771    1.625713    0.319539
     51          1           0        2.962722   -0.141473    0.502967
     52          1           0       -0.472056    1.753052    0.068459
     53          1           0        1.513598   -4.723212    0.978327
     54          1           0        2.498719   -3.625914    2.145446
     55          1           0        0.960979   -4.260968    2.700273
     56          1           0        2.462209   -3.599282   -0.476902
     57          1           0       -1.282943   -5.039203    0.520869
     58          1           0       -2.675792   -5.376516    1.358680
     59          1           0       -4.699331   -1.190985   -0.614098
     60          1           0       -5.017903    0.189603   -2.099175
     61          1           0       -4.120451    4.980993    0.247775
     62          1           0       -5.493709    3.927703    0.340875
     63          1           0       -4.676243    4.440870   -1.203387
     64          1           0       -1.730094    5.171952   -0.699934
     65          1           0        7.721773   -2.469095   -1.575509
     66          1           0        6.952976   -3.923212   -1.852303
     67          1           0        7.223937   -3.723083   -0.178596
     68          1           0        6.883673   -0.702577    0.160889
     69          1           0        4.861942    1.117977    1.153615
     70          1           0        6.471926    0.455227    2.228602
     71          1           0        4.695975   -0.372171    2.035893
     72          1           0        3.441687    6.398302   -0.907938
     73          1           0        4.310934    4.870263   -1.386021
     74          1           0        0.066265    6.776955   -1.817254
     75          1           0        1.444083    7.242308   -0.854672
     76          1           0       -0.023805    6.981330    0.098473
     77          1           0        3.585519    6.250663    1.470819
     78          1           0        5.263084    5.971103    0.762026
     79          1           0        4.382972    4.655208    1.500173
     80          1           0       -3.744493   -4.432580   -1.752834
     81          1           0       -7.726091   -2.160047   -1.734041
 ---------------------------------------------------------------------
 Rotational constants (GHZ):           0.0758096           0.0545228           0.0338529
 Standard basis: SVP (5D, 7F)
 There are   835 symmetry adapted cartesian basis functions of A   symmetry.
 There are   792 symmetry adapted basis functions of A   symmetry.
   792 basis functions,  1341 primitive gaussians,   835 cartesian basis functions
   156 alpha electrons      156 beta electrons
       nuclear repulsion energy      5026.4280853320 Hartrees.
 NAtoms=   81 NActive=   81 NUniq=   81 SFac= 1.00D+00 NAtFMM=   60 NAOKFM=T Big=T
 Integral buffers will be    131072 words long.
 Regular integral format.
 Two-electron integral symmetry is turned on.
 One-electron integrals computed using PRISM.
 NBasis=   792 RedAO= T EigKep=  3.31D-04  NBF=   792
 NBsUse=   792 1.00D-06 EigRej= -1.00D+00 NBFU=   792
 ExpMin= 1.22D-01 ExpMax= 2.27D+03 ExpMxC= 3.41D+02 IAcc=3 IRadAn=         5 AccDes= 0.00D+00
 Harris functional with IExCor=  402 and IRadAn=       5 diagonalized for initial guess.
 HarFok:  IExCor=  402 AccDes= 0.00D+00 IRadAn=         5 IDoV= 1 UseB2=F ITyADJ=14
 ICtDFT=  3500011 ScaDFX=  1.000000  1.000000  1.000000  1.000000
 FoFCou: FMM=F IPFlag=           0 FMFlag=      100000 FMFlg1=        2001
         NFxFlg=           0 DoJE=T BraDBF=F KetDBF=T FulRan=T
         wScrn=  0.000000 ICntrl=       500 IOpCl=  0 I1Cent=   200000004 NGrid=           0
         NMat0=    1 NMatS0=      1 NMatT0=    0 NMatD0=    1 NMtDS0=    0 NMtDT0=    0
 Petite list used in FoFCou.
 Requested convergence on RMS density matrix=1.00D-08 within 128 cycles.
 Requested convergence on MAX density matrix=1.00D-06.
 Requested convergence on             energy=1.00D-06.
 No special actions if energy rises.
 Integral accuracy reduced to 1.0D-05 until final iterations.
 Initial convergence to 1.0D-05 achieved.  Increase integral accuracy.
 SCF Done:  E(RB3LYP) =  -1949.04978068     A.U. after   16 cycles
            NFock= 16  Conv=0.90D-08     -V/T= 2.0113
 DoSCS=F DFT=T ScalE2(SS,OS)=  1.000000  1.000000
 ExpMin= 1.22D-01 ExpMax= 2.27D+03 ExpMxC= 3.41D+02 IAcc=3 IRadAn=         5 AccDes= 0.00D+00
 HarFok:  IExCor=  205 AccDes= 0.00D+00 IRadAn=         5 IDoV=-2 UseB2=F ITyADJ=14
 ICtDFT= 12500011 ScaDFX=  1.000000  1.000000  1.000000  1.000000
 GSVD:  LWork=       -2193 too small for GESVD, short by        9890 words or        9890 for optimal perf.
 Range of M.O.s used for correlation:    44   792
 NBasis=   792 NAE=   156 NBE=   156 NFC=    43 NFV=     0
 NROrb=    749 NOA=   113 NOB=   113 NVA=   636 NVB=   636

 **** Warning!!: The smallest alpha delta epsilon is  0.73496858D-01

 Orbital symmetries:
       Occupied  (A) (A) (A) (A) (A) (A) (A) (A) (A) (A) (A) (A)
                 (A) (A) (A) (A) (A) (A) (A) (A) (A) (A) (A) (A)
                 (A) (A) (A) (A) (A) (A) (A) (A) (A) (A) (A) (A)
                 (A) (A) (A) (A) (A) (A) (A) (A) (A) (A) (A) (A)
                 (A) (A) (A) (A) (A) (A) (A) (A) (A) (A) (A) (A)
                 (A) (A) (A) (A) (A) (A) (A) (A) (A) (A) (A) (A)
                 (A) (A) (A) (A) (A) (A) (A) (A) (A) (A) (A) (A)
                 (A) (A) (A) (A) (A) (A) (A) (A) (A) (A) (A) (A)
                 (A) (A) (A) (A) (A) (A) (A) (A) (A) (A) (A) (A)
                 (A) (A) (A) (A) (A) (A) (A) (A) (A) (A) (A) (A)
                 (A) (A) (A) (A) (A) (A) (A) (A) (A) (A) (A) (A)
                 (A) (A) (A) (A) (A) (A) (A) (A) (A) (A) (A) (A)
                 (A) (A) (A) (A) (A) (A) (A) (A) (A) (A) (A) (A)
       Virtual   (A) (A) (A) (A) (A) (A) (A) (A) (A) (A) (A) (A)
                 (A) (A) (A) (A) (A) (A) (A) (A) (A) (A) (A) (A)
                 (A) (A) (A) (A) (A) (A) (A) (A) (A) (A) (A) (A)
                 (A) (A) (A) (A) (A) (A) (A) (A) (A) (A) (A) (A)
                 (A) (A) (A) (A) (A) (A) (A) (A) (A) (A) (A) (A)
                 (A) (A) (A) (A) (A) (A) (A) (A) (A) (A) (A) (A)
                 (A) (A) (A) (A) (A) (A) (A) (A) (A) (A) (A) (A)
                 (A) (A) (A) (A) (A) (A) (A) (A) (A) (A) (A) (A)
                 (A) (A) (A) (A) (A) (A) (A) (A) (A) (A) (A) (A)
                 (A) (A) (A) (A) (A) (A) (A) (A) (A) (A) (A) (A)
                 (A) (A) (A) (A) (A) (A) (A) (A) (A) (A) (A) (A)
                 (A) (A) (A) (A) (A) (A) (A) (A) (A) (A) (A) (A)
                 (A) (A) (A) (A) (A) (A) (A) (A) (A) (A) (A) (A)
                 (A) (A) (A) (A) (A) (A) (A) (A) (A) (A) (A) (A)
                 (A) (A) (A) (A) (A) (A) (A) (A) (A) (A) (A) (A)
                 (A) (A) (A) (A) (A) (A) (A) (A) (A) (A) (A) (A)
                 (A) (A) (A) (A) (A) (A) (A) (A) (A) (A) (A) (A)
                 (A) (A) (A) (A) (A) (A) (A) (A) (A) (A) (A) (A)
                 (A) (A) (A) (A) (A) (A) (A) (A) (A) (A) (A) (A)
                 (A) (A) (A) (A) (A) (A) (A) (A) (A) (A) (A) (A)
                 (A) (A) (A) (A) (A) (A) (A) (A) (A) (A) (A) (A)
                 (A) (A) (A) (A) (A) (A) (A) (A) (A) (A) (A) (A)
                 (A) (A) (A) (A) (A) (A) (A) (A) (A) (A) (A) (A)
                 (A) (A) (A) (A) (A) (A) (A) (A) (A) (A) (A) (A)
                 (A) (A) (A) (A) (A) (A) (A) (A) (A) (A) (A) (A)
                 (A) (A) (A) (A) (A) (A) (A) (A) (A) (A) (A) (A)
                 (A) (A) (A) (A) (A) (A) (A) (A) (A) (A) (A) (A)
                 (A) (A) (A) (A) (A) (A) (A) (A) (A) (A) (A) (A)
                 (A) (A) (A) (A) (A) (A) (A) (A) (A) (A) (A) (A)
                 (A) (A) (A) (A) (A) (A) (A) (A) (A) (A) (A) (A)
                 (A) (A) (A) (A) (A) (A) (A) (A) (A) (A) (A) (A)
                 (A) (A) (A) (A) (A) (A) (A) (A) (A) (A) (A) (A)
                 (A) (A) (A) (A) (A) (A) (A) (A) (A) (A) (A) (A)
                 (A) (A) (A) (A) (A) (A) (A) (A) (A) (A) (A) (A)
                 (A) (A) (A) (A) (A) (A) (A) (A) (A) (A) (A) (A)
                 (A) (A) (A) (A) (A) (A) (A) (A) (A) (A) (A) (A)
                 (A) (A) (A) (A) (A) (A) (A) (A) (A) (A) (A) (A)
                 (A) (A) (A) (A) (A) (A) (A) (A) (A) (A) (A) (A)
                 (A) (A) (A) (A) (A) (A) (A) (A) (A) (A) (A) (A)
                 (A) (A) (A) (A) (A) (A) (A) (A) (A) (A) (A) (A)
                 (A) (A) (A) (A) (A) (A) (A) (A) (A) (A) (A) (A)
                 (A) (A) (A) (A) (A) (A) (A) (A) (A) (A) (A) (A)
                 (A) (A) (A) (A) (A) (A) (A) (A) (A) (A) (A) (A)
                 (A) (A) (A) (A) (A) (A) (A) (A) (A) (A) (A) (A)
                 (A) (A) (A) (A) (A) (A) (A) (A) (A) (A) (A) (A)
                 (A) (A) (A) (A) (A) (A) (A) (A) (A) (A) (A) (A)
                 (A) (A) (A) (A) (A) (A) (A) (A) (A) (A) (A) (A)
                 (A) (A) (A) (A) (A) (A) (A) (A) (A) (A) (A) (A)
                 (A) (A) (A) (A) (A) (A) (A) (A) (A) (A) (A) (A)
                 (A) (A) (A) (A) (A) (A) (A) (A) (A) (A) (A) (A)
                 (A) (A) (A) (A) (A) (A) (A) (A) (A) (A) (A) (A)
                 (A) (A) (A) (A) (A) (A) (A) (A) (A) (A) (A) (A)
                 (A) (A) (A) (A) (A) (A) (A) (A) (A) (A) (A) (A)
     4 initial guesses have been made.
 Convergence on wavefunction:    0.001000000000000
 Iteration     1 Dimension     4 NMult     0 NNew      4
 CISAX will form     4 AO SS matrices at one time.
 Iteration     2 Dimension     6 NMult     4 NNew      2
 Iteration     3 Dimension     8 NMult     6 NNew      2
 Iteration     4 Dimension    10 NMult     8 NNew      2
 Iteration     5 Dimension    12 NMult    10 NNew      2
 Iteration     6 Dimension    14 NMult    12 NNew      2
 Iteration     7 Dimension    16 NMult    14 NNew      2
 Iteration     8 Dimension    18 NMult    16 NNew      2
 ***********************************************************************
 Excited states from <AA,BB:AA,BB> singles matrix:
 ***********************************************************************
 
 Ground to excited state transition densities written to RWF  633
 Ground to excited state transition electric dipole moments (Au):
       state          X           Y           Z        Dip. S.      Osc.
         1        -0.3068      2.7901     -0.3351      7.9913      0.3758
 Ground to excited state transition velocity dipole moments (Au):
       state          X           Y           Z        Dip. S.      Osc.
         1         0.0257     -0.1901      0.0227      0.0373      0.3527
 Ground to excited state transition magnetic dipole moments (Au):
       state          X           Y           Z
         1         0.3573      0.4811      2.3716
 Ground to excited state transition velocity quadrupole moments (Au):
       state          XX          YY          ZZ          XY          XZ          YZ
         1         0.3235     -0.7300      0.0776     -0.4645     -0.0151      0.0092
 <0|del|b> * <b|rxdel|0> + <0|del|b> * <b|delr+rdel|0>
 Rotatory Strengths (R) in cgs (10**-40 erg-esu-cm/Gauss)
       state          XX          YY          ZZ    R(velocity)    E-M Angle
         1      -256.0493    369.7786   -399.2864    -95.1857       93.46
 1/2[<0|r|b>*<b|rxdel|0> + (<0|rxdel|b>*<b|r|0>)*]
 Rotatory Strengths (R) in cgs (10**-40 erg-esu-cm/Gauss)
       state          XX          YY          ZZ     R(length)
         1        77.5137   -949.2719    562.0407   -103.2392
  1/2[<0|del|b>*<b|r|0> + (<0|r|b>*<b|del|0>)*] (Au)
       state          X           Y           Z        Dip. S.   Osc.(frdel)
         1        -0.0079     -0.5305     -0.0076      0.5459      0.3640

 Excitation energies and oscillator strengths:
 
 Excited State   1:      Singlet-A      1.9193 eV  645.99 nm  f=0.3758  <S**2>=0.000
     156 ->157         0.71185
     156 <-157        -0.13671
 This state for optimization and/or second-order correction.
 Total Energy, E(TD-HF/TD-DFT) =  -1948.97924816    
 Copying the excited state density for this state as the 1-particle RhoCI density.
 SavETr:  write IOETrn=   770 NScale= 10 NData=  16 NLR=1 NState=    1 LETran=      28.

 **********************************************************************

            Population analysis using the SCF density.

 **********************************************************************

 Orbital symmetries:
       Occupied  (A) (A) (A) (A) (A) (A) (A) (A) (A) (A) (A) (A)
                 (A) (A) (A) (A) (A) (A) (A) (A) (A) (A) (A) (A)
                 (A) (A) (A) (A) (A) (A) (A) (A) (A) (A) (A) (A)
                 (A) (A) (A) (A) (A) (A) (A) (A) (A) (A) (A) (A)
                 (A) (A) (A) (A) (A) (A) (A) (A) (A) (A) (A) (A)
                 (A) (A) (A) (A) (A) (A) (A) (A) (A) (A) (A) (A)
                 (A) (A) (A) (A) (A) (A) (A) (A) (A) (A) (A) (A)
                 (A) (A) (A) (A) (A) (A) (A) (A) (A) (A) (A) (A)
                 (A) (A) (A) (A) (A) (A) (A) (A) (A) (A) (A) (A)
                 (A) (A) (A) (A) (A) (A) (A) (A) (A) (A) (A) (A)
                 (A) (A) (A) (A) (A) (A) (A) (A) (A) (A) (A) (A)
                 (A) (A) (A) (A) (A) (A) (A) (A) (A) (A) (A) (A)
                 (A) (A) (A) (A) (A) (A) (A) (A) (A) (A) (A) (A)
       Virtual   (A) (A) (A) (A) (A) (A) (A) (A) (A) (A) (A) (A)
                 (A) (A) (A) (A) (A) (A) (A) (A) (A) (A) (A) (A)
                 (A) (A) (A) (A) (A) (A) (A) (A) (A) (A) (A) (A)
                 (A) (A) (A) (A) (A) (A) (A) (A) (A) (A) (A) (A)
                 (A) (A) (A) (A) (A) (A) (A) (A) (A) (A) (A) (A)
                 (A) (A) (A) (A) (A) (A) (A) (A) (A) (A) (A) (A)
                 (A) (A) (A) (A) (A) (A) (A) (A) (A) (A) (A) (A)
                 (A) (A) (A) (A) (A) (A) (A) (A) (A) (A) (A) (A)
                 (A) (A) (A) (A) (A) (A) (A) (A) (A) (A) (A) (A)
                 (A) (A) (A) (A) (A) (A) (A) (A) (A) (A) (A) (A)
                 (A) (A) (A) (A) (A) (A) (A) (A) (A) (A) (A) (A)
                 (A) (A) (A) (A) (A) (A) (A) (A) (A) (A) (A) (A)
                 (A) (A) (A) (A) (A) (A) (A) (A) (A) (A) (A) (A)
                 (A) (A) (A) (A) (A) (A) (A) (A) (A) (A) (A) (A)
                 (A) (A) (A) (A) (A) (A) (A) (A) (A) (A) (A) (A)
                 (A) (A) (A) (A) (A) (A) (A) (A) (A) (A) (A) (A)
                 (A) (A) (A) (A) (A) (A) (A) (A) (A) (A) (A) (A)
                 (A) (A) (A) (A) (A) (A) (A) (A) (A) (A) (A) (A)
                 (A) (A) (A) (A) (A) (A) (A) (A) (A) (A) (A) (A)
                 (A) (A) (A) (A) (A) (A) (A) (A) (A) (A) (A) (A)
                 (A) (A) (A) (A) (A) (A) (A) (A) (A) (A) (A) (A)
                 (A) (A) (A) (A) (A) (A) (A) (A) (A) (A) (A) (A)
                 (A) (A) (A) (A) (A) (A) (A) (A) (A) (A) (A) (A)
                 (A) (A) (A) (A) (A) (A) (A) (A) (A) (A) (A) (A)
                 (A) (A) (A) (A) (A) (A) (A) (A) (A) (A) (A) (A)
                 (A) (A) (A) (A) (A) (A) (A) (A) (A) (A) (A) (A)
                 (A) (A) (A) (A) (A) (A) (A) (A) (A) (A) (A) (A)
                 (A) (A) (A) (A) (A) (A) (A) (A) (A) (A) (A) (A)
                 (A) (A) (A) (A) (A) (A) (A) (A) (A) (A) (A) (A)
                 (A) (A) (A) (A) (A) (A) (A) (A) (A) (A) (A) (A)
                 (A) (A) (A) (A) (A) (A) (A) (A) (A) (A) (A) (A)
                 (A) (A) (A) (A) (A) (A) (A) (A) (A) (A) (A) (A)
                 (A) (A) (A) (A) (A) (A) (A) (A) (A) (A) (A) (A)
                 (A) (A) (A) (A) (A) (A) (A) (A) (A) (A) (A) (A)
                 (A) (A) (A) (A) (A) (A) (A) (A) (A) (A) (A) (A)
                 (A) (A) (A) (A) (A) (A) (A) (A) (A) (A) (A) (A)
                 (A) (A) (A) (A) (A) (A) (A) (A) (A) (A) (A) (A)
                 (A) (A) (A) (A) (A) (A) (A) (A) (A) (A) (A) (A)
                 (A) (A) (A) (A) (A) (A) (A) (A) (A) (A) (A) (A)
                 (A) (A) (A) (A) (A) (A) (A) (A) (A) (A) (A) (A)
                 (A) (A) (A) (A) (A) (A) (A) (A) (A) (A) (A) (A)
                 (A) (A) (A) (A) (A) (A) (A) (A) (A) (A) (A) (A)
                 (A) (A) (A) (A) (A) (A) (A) (A) (A) (A) (A) (A)
                 (A) (A) (A) (A) (A) (A) (A) (A) (A) (A) (A) (A)
                 (A) (A) (A) (A) (A) (A) (A) (A) (A) (A) (A) (A)
                 (A) (A) (A) (A) (A) (A) (A) (A) (A) (A) (A) (A)
                 (A) (A) (A) (A) (A) (A) (A) (A) (A) (A) (A) (A)
                 (A) (A) (A) (A) (A) (A) (A) (A) (A) (A) (A) (A)
                 (A) (A) (A) (A) (A) (A) (A) (A) (A) (A) (A) (A)
                 (A) (A) (A) (A) (A) (A) (A) (A) (A) (A) (A) (A)
                 (A) (A) (A) (A) (A) (A) (A) (A) (A) (A) (A) (A)
                 (A) (A) (A) (A) (A) (A) (A) (A) (A) (A) (A) (A)
                 (A) (A) (A) (A) (A) (A) (A) (A) (A) (A) (A) (A)
 The electronic state is 1-A.
 Alpha  occ. eigenvalues --  -19.19685 -19.16942 -19.15516 -19.12145 -19.11378
 Alpha  occ. eigenvalues --  -19.10050 -14.38787 -14.36899 -14.34635 -14.29392
 Alpha  occ. eigenvalues --  -10.33915 -10.32305 -10.29709 -10.26521 -10.24764
 Alpha  occ. eigenvalues --  -10.24364 -10.23934 -10.23539 -10.23531 -10.23427
 Alpha  occ. eigenvalues --  -10.23304 -10.23268 -10.22664 -10.22121 -10.22018
 Alpha  occ. eigenvalues --  -10.21921 -10.21294 -10.20896 -10.20864 -10.20758
 Alpha  occ. eigenvalues --  -10.20419 -10.20388 -10.20303 -10.20084 -10.20035
 Alpha  occ. eigenvalues --  -10.19970 -10.19946 -10.19851 -10.19765 -10.19573
 Alpha  occ. eigenvalues --  -10.18389 -10.18305 -10.18050  -1.12476  -1.06510
 Alpha  occ. eigenvalues --   -1.03927  -1.02968  -1.00445  -0.99366  -0.97255
 Alpha  occ. eigenvalues --   -0.95536  -0.94007  -0.90240  -0.83785  -0.81746
 Alpha  occ. eigenvalues --   -0.81209  -0.80565  -0.79137  -0.78986  -0.78874
 Alpha  occ. eigenvalues --   -0.76940  -0.75890  -0.75177  -0.74358  -0.72098
 Alpha  occ. eigenvalues --   -0.70955  -0.70118  -0.69503  -0.68982  -0.68194
 Alpha  occ. eigenvalues --   -0.67264  -0.65185  -0.64094  -0.62305  -0.60957
 Alpha  occ. eigenvalues --   -0.60407  -0.58863  -0.58342  -0.57889  -0.57054
 Alpha  occ. eigenvalues --   -0.56478  -0.54707  -0.54109  -0.53454  -0.53210
 Alpha  occ. eigenvalues --   -0.52873  -0.51649  -0.51332  -0.50451  -0.49692
 Alpha  occ. eigenvalues --   -0.48821  -0.48466  -0.47820  -0.47389  -0.46756
 Alpha  occ. eigenvalues --   -0.46504  -0.46118  -0.45747  -0.45568  -0.45207
 Alpha  occ. eigenvalues --   -0.45109  -0.44050  -0.43961  -0.43682  -0.43595
 Alpha  occ. eigenvalues --   -0.43430  -0.42967  -0.42746  -0.42484  -0.42244
 Alpha  occ. eigenvalues --   -0.42074  -0.41797  -0.41427  -0.41014  -0.40800
 Alpha  occ. eigenvalues --   -0.40575  -0.40188  -0.40011  -0.39944  -0.39416
 Alpha  occ. eigenvalues --   -0.39060  -0.38851  -0.38613  -0.38477  -0.38267
 Alpha  occ. eigenvalues --   -0.38147  -0.37549  -0.37277  -0.36920  -0.36754
 Alpha  occ. eigenvalues --   -0.36414  -0.35787  -0.35646  -0.35116  -0.34736
 Alpha  occ. eigenvalues --   -0.34211  -0.34050  -0.33227  -0.32894  -0.32405
 Alpha  occ. eigenvalues --   -0.32380  -0.31246  -0.31084  -0.30800  -0.30361
 Alpha  occ. eigenvalues --   -0.29153  -0.27383  -0.27205  -0.26336  -0.25735
 Alpha  occ. eigenvalues --   -0.24689  -0.24557  -0.23867  -0.23114  -0.22310
 Alpha  occ. eigenvalues --   -0.18013
 Alpha virt. eigenvalues --   -0.10663  -0.06152  -0.03958  -0.01865  -0.01166
 Alpha virt. eigenvalues --   -0.00430   0.01354   0.02812   0.03067   0.04039
 Alpha virt. eigenvalues --    0.04204   0.04561   0.04742   0.05243   0.05429
 Alpha virt. eigenvalues --    0.06082   0.06342   0.06625   0.06962   0.07455
 Alpha virt. eigenvalues --    0.07652   0.08074   0.08371   0.08586   0.08870
 Alpha virt. eigenvalues --    0.09275   0.09629   0.09751   0.10058   0.10279
 Alpha virt. eigenvalues --    0.10522   0.11351   0.11671   0.12148   0.12313
 Alpha virt. eigenvalues --    0.12713   0.13304   0.13618   0.13970   0.14314
 Alpha virt. eigenvalues --    0.14532   0.14617   0.14825   0.15073   0.15752
 Alpha virt. eigenvalues --    0.16125   0.16333   0.16594   0.17125   0.17652
 Alpha virt. eigenvalues --    0.17885   0.18147   0.18712   0.19103   0.20003
 Alpha virt. eigenvalues --    0.20237   0.20799   0.21346   0.21740   0.22067
 Alpha virt. eigenvalues --    0.22194   0.22454   0.22879   0.23376   0.23798
 Alpha virt. eigenvalues --    0.23852   0.24491   0.24833   0.25143   0.25330
 Alpha virt. eigenvalues --    0.25908   0.26349   0.26468   0.26642   0.27384
 Alpha virt. eigenvalues --    0.28307   0.28853   0.29256   0.29830   0.30328
 Alpha virt. eigenvalues --    0.31040   0.31138   0.32633   0.32946   0.33058
 Alpha virt. eigenvalues --    0.33463   0.34910   0.35095   0.35638   0.36038
 Alpha virt. eigenvalues --    0.36310   0.36792   0.37697   0.38164   0.38444
 Alpha virt. eigenvalues --    0.39041   0.39148   0.39655   0.40786   0.40977
 Alpha virt. eigenvalues --    0.41129   0.41432   0.41917   0.42116   0.42685
 Alpha virt. eigenvalues --    0.42938   0.43295   0.43576   0.44186   0.44309
 Alpha virt. eigenvalues --    0.44665   0.44946   0.45114   0.45488   0.45543
 Alpha virt. eigenvalues --    0.46010   0.46690   0.46860   0.47116   0.47469
 Alpha virt. eigenvalues --    0.47900   0.48332   0.48526   0.49040   0.49292
 Alpha virt. eigenvalues --    0.49593   0.49986   0.50232   0.50554   0.51139
 Alpha virt. eigenvalues --    0.51410   0.51797   0.52050   0.52170   0.52697
 Alpha virt. eigenvalues --    0.53100   0.53592   0.53955   0.54084   0.54795
 Alpha virt. eigenvalues --    0.55270   0.55742   0.56048   0.56082   0.56365
 Alpha virt. eigenvalues --    0.56692   0.56957   0.57528   0.57957   0.58135
 Alpha virt. eigenvalues --    0.58298   0.58917   0.59178   0.59909   0.60197
 Alpha virt. eigenvalues --    0.60424   0.60497   0.60631   0.61140   0.61299
 Alpha virt. eigenvalues --    0.61658   0.61864   0.62065   0.62335   0.62528
 Alpha virt. eigenvalues --    0.62893   0.63233   0.63692   0.63953   0.64241
 Alpha virt. eigenvalues --    0.64459   0.64746   0.64851   0.65093   0.65212
 Alpha virt. eigenvalues --    0.65423   0.65638   0.65980   0.66268   0.66489
 Alpha virt. eigenvalues --    0.66599   0.66999   0.67082   0.67641   0.67691
 Alpha virt. eigenvalues --    0.68091   0.68253   0.68371   0.68571   0.68823
 Alpha virt. eigenvalues --    0.68928   0.69323   0.69621   0.69955   0.70094
 Alpha virt. eigenvalues --    0.70414   0.70471   0.70701   0.71177   0.71328
 Alpha virt. eigenvalues --    0.72123   0.72400   0.72659   0.72882   0.73629
 Alpha virt. eigenvalues --    0.73840   0.74093   0.74935   0.75150   0.75825
 Alpha virt. eigenvalues --    0.75958   0.76122   0.76744   0.77196   0.77427
 Alpha virt. eigenvalues --    0.77664   0.78811   0.79065   0.79759   0.80060
 Alpha virt. eigenvalues --    0.80290   0.81168   0.81465   0.82148   0.82615
 Alpha virt. eigenvalues --    0.83063   0.83579   0.84135   0.84918   0.85687
 Alpha virt. eigenvalues --    0.86534   0.87226   0.87869   0.88090   0.90031
 Alpha virt. eigenvalues --    0.90705   0.91014   0.91524   0.92020   0.92516
 Alpha virt. eigenvalues --    0.93060   0.93758   0.94127   0.94922   0.95676
 Alpha virt. eigenvalues --    0.95941   0.96166   0.96692   0.97262   0.97413
 Alpha virt. eigenvalues --    0.97754   0.98353   0.98652   0.99101   0.99802
 Alpha virt. eigenvalues --    1.00126   1.00746   1.01045   1.02543   1.02934
 Alpha virt. eigenvalues --    1.03606   1.04108   1.04827   1.05612   1.06328
 Alpha virt. eigenvalues --    1.07169   1.07697   1.08265   1.09237   1.09871
 Alpha virt. eigenvalues --    1.10377   1.11115   1.12126   1.13173   1.13746
 Alpha virt. eigenvalues --    1.14003   1.14531   1.14861   1.16098   1.16570
 Alpha virt. eigenvalues --    1.17617   1.18065   1.18358   1.19618   1.19714
 Alpha virt. eigenvalues --    1.20867   1.21745   1.22595   1.22917   1.23905
 Alpha virt. eigenvalues --    1.24260   1.24711   1.26816   1.27266   1.27494
 Alpha virt. eigenvalues --    1.27749   1.28585   1.29292   1.30021   1.30614
 Alpha virt. eigenvalues --    1.30920   1.31049   1.31900   1.32483   1.32649
 Alpha virt. eigenvalues --    1.33722   1.34079   1.34919   1.35857   1.36096
 Alpha virt. eigenvalues --    1.36782   1.37570   1.38318   1.38728   1.39717
 Alpha virt. eigenvalues --    1.39893   1.40522   1.41415   1.41475   1.42346
 Alpha virt. eigenvalues --    1.43532   1.43926   1.44800   1.44969   1.45934
 Alpha virt. eigenvalues --    1.46397   1.46839   1.48441   1.48536   1.49056
 Alpha virt. eigenvalues --    1.49157   1.50069   1.50541   1.51080   1.51312
 Alpha virt. eigenvalues --    1.51535   1.51958   1.52225   1.52794   1.53037
 Alpha virt. eigenvalues --    1.53459   1.53639   1.53963   1.54829   1.55195
 Alpha virt. eigenvalues --    1.56381   1.57094   1.57560   1.58167   1.58676
 Alpha virt. eigenvalues --    1.59088   1.59244   1.60170   1.60944   1.61444
 Alpha virt. eigenvalues --    1.61896   1.62103   1.63241   1.63594   1.64128
 Alpha virt. eigenvalues --    1.64279   1.64718   1.65492   1.66083   1.66159
 Alpha virt. eigenvalues --    1.66741   1.67186   1.67561   1.68013   1.68609
 Alpha virt. eigenvalues --    1.68857   1.68945   1.69315   1.69870   1.70008
 Alpha virt. eigenvalues --    1.70698   1.70774   1.70961   1.71350   1.72099
 Alpha virt. eigenvalues --    1.72371   1.72743   1.73075   1.73585   1.73912
 Alpha virt. eigenvalues --    1.74285   1.74399   1.75148   1.75391   1.75514
 Alpha virt. eigenvalues --    1.76758   1.77102   1.77372   1.77672   1.78315
 Alpha virt. eigenvalues --    1.78448   1.79373   1.79511   1.79685   1.80021
 Alpha virt. eigenvalues --    1.80378   1.80717   1.81306   1.81591   1.82228
 Alpha virt. eigenvalues --    1.82780   1.83031   1.83303   1.83450   1.83817
 Alpha virt. eigenvalues --    1.84490   1.84833   1.85232   1.85533   1.85903
 Alpha virt. eigenvalues --    1.86185   1.86257   1.87559   1.87616   1.87962
 Alpha virt. eigenvalues --    1.88312   1.88574   1.89503   1.89684   1.89954
 Alpha virt. eigenvalues --    1.90523   1.91325   1.91728   1.92125   1.92446
 Alpha virt. eigenvalues --    1.93043   1.94001   1.94517   1.94955   1.95018
 Alpha virt. eigenvalues --    1.95906   1.96221   1.96583   1.97183   1.97749
 Alpha virt. eigenvalues --    1.97851   1.99040   1.99271   1.99939   2.00582
 Alpha virt. eigenvalues --    2.01552   2.02063   2.02184   2.02654   2.03240
 Alpha virt. eigenvalues --    2.03490   2.04398   2.04607   2.06163   2.06426
 Alpha virt. eigenvalues --    2.06914   2.07166   2.07581   2.08394   2.08893
 Alpha virt. eigenvalues --    2.09873   2.10155   2.10897   2.11814   2.12089
 Alpha virt. eigenvalues --    2.12696   2.13088   2.13702   2.14007   2.14316
 Alpha virt. eigenvalues --    2.15416   2.16025   2.16219   2.17597   2.17946
 Alpha virt. eigenvalues --    2.18294   2.18646   2.19186   2.19311   2.19927
 Alpha virt. eigenvalues --    2.20387   2.21875   2.22752   2.23411   2.24145
 Alpha virt. eigenvalues --    2.24599   2.25018   2.25878   2.26266   2.26876
 Alpha virt. eigenvalues --    2.27175   2.27849   2.28081   2.28870   2.30070
 Alpha virt. eigenvalues --    2.31141   2.31838   2.32449   2.33114   2.33389
 Alpha virt. eigenvalues --    2.34215   2.34742   2.34797   2.35210   2.35480
 Alpha virt. eigenvalues --    2.35863   2.37019   2.37859   2.38823   2.39183
 Alpha virt. eigenvalues --    2.40118   2.40871   2.41303   2.41603   2.42531
 Alpha virt. eigenvalues --    2.42679   2.43775   2.44729   2.45910   2.46467
 Alpha virt. eigenvalues --    2.46918   2.48432   2.49110   2.49397   2.49572
 Alpha virt. eigenvalues --    2.49981   2.51442   2.52484   2.52766   2.54019
 Alpha virt. eigenvalues --    2.54453   2.55149   2.55273   2.56669   2.57461
 Alpha virt. eigenvalues --    2.57676   2.59404   2.60679   2.61317   2.62217
 Alpha virt. eigenvalues --    2.62712   2.63505   2.64015   2.64593   2.65236
 Alpha virt. eigenvalues --    2.65507   2.66401   2.66726   2.67153   2.67242
 Alpha virt. eigenvalues --    2.68268   2.68414   2.68916   2.69849   2.70302
 Alpha virt. eigenvalues --    2.70618   2.71317   2.72170   2.72849   2.72928
 Alpha virt. eigenvalues --    2.74010   2.74908   2.75362   2.75875   2.76371
 Alpha virt. eigenvalues --    2.76609   2.77748   2.78910   2.79052   2.79706
 Alpha virt. eigenvalues --    2.80078   2.80676   2.81251   2.82730   2.83148
 Alpha virt. eigenvalues --    2.83544   2.84266   2.85834   2.86574   2.87526
 Alpha virt. eigenvalues --    2.88484   2.89348   2.89428   2.90124   2.91450
 Alpha virt. eigenvalues --    2.91862   2.92187   2.92473   2.93666   2.94625
 Alpha virt. eigenvalues --    2.95295   2.95488   2.96516   2.96758   2.97407
 Alpha virt. eigenvalues --    2.98841   2.99720   3.01427   3.02835   3.03704
 Alpha virt. eigenvalues --    3.04711   3.06081   3.07290   3.07900   3.10116
 Alpha virt. eigenvalues --    3.12420   3.13036   3.13357   3.14244   3.15138
 Alpha virt. eigenvalues --    3.15989   3.16837   3.18432   3.19076   3.20403
 Alpha virt. eigenvalues --    3.21227   3.22271   3.26055   3.27249   3.35238
 Alpha virt. eigenvalues --    3.37174   3.39329   3.44296   3.47132   3.48187
 Alpha virt. eigenvalues --    3.49206   3.51193   3.51818   3.53279   3.53951
 Alpha virt. eigenvalues --    3.60553   3.68725   3.69193   3.70955   3.73299
 Alpha virt. eigenvalues --    3.78693
          Condensed to atoms (all electrons):
 Mulliken charges:
               1
     1  O   -0.204411
     2  O   -0.168914
     3  O   -0.235996
     4  O   -0.195492
     5  O   -0.276773
     6  O   -0.214351
     7  N   -0.097671
     8  N   -0.175980
     9  N   -0.142662
    10  N   -0.343151
    11  C   -0.120936
    12  C    0.120817
    13  C   -0.158268
    14  C    0.041841
    15  C   -0.048349
    16  C    0.062302
    17  C   -0.091833
    18  C   -0.112241
    19  C    0.337424
    20  C   -0.141087
    21  C    0.115817
    22  C    0.142514
    23  C   -0.004194
    24  C    0.010254
    25  C    0.019658
    26  C    0.027066
    27  C    0.182326
    28  C   -0.068714
    29  C   -0.142051
    30  C    0.099154
    31  C   -0.179216
    32  C    0.062702
    33  C   -0.103077
    34  C    0.070700
    35  C   -0.091784
    36  C   -0.206322
    37  C    0.126274
    38  C    0.011925
    39  C    0.188276
    40  C    0.010060
    41  C    0.168913
    42  C    0.109017
    43  C    0.039409
    44  H    0.165989
    45  H    0.051208
    46  H   -0.002617
    47  H   -0.092919
    48  H    0.064977
    49  H    0.062847
    50  H    0.038575
    51  H   -0.104869
    52  H    0.148084
    53  H    0.053267
    54  H    0.048748
    55  H    0.022268
    56  H    0.077442
    57  H    0.039519
    58  H    0.042470
    59  H    0.123755
    60  H    0.089063
    61  H   -0.000460
    62  H    0.020947
    63  H    0.028946
    64  H    0.016233
    65  H    0.021173
    66  H    0.010563
    67  H    0.018788
    68  H   -0.006915
    69  H    0.042220
    70  H    0.035979
    71  H    0.036476
    72  H   -0.002917
    73  H    0.048414
    74  H    0.045761
    75  H   -0.018692
    76  H    0.039888
    77  H    0.018628
    78  H    0.007277
    79  H    0.033066
    80  H    0.166431
    81  H    0.187416
 Sum of Mulliken charges =  -0.00000
 Mulliken charges with hydrogens summed into heavy atoms:
               1
     1  O   -0.204411
     2  O   -0.002484
     3  O   -0.048580
     4  O   -0.195492
     5  O   -0.276773
     6  O   -0.214351
     7  N    0.068318
     8  N   -0.027897
     9  N   -0.065220
    10  N   -0.343151
    11  C   -0.120936
    12  C    0.120817
    13  C   -0.158268
    14  C    0.041841
    15  C   -0.048349
    16  C    0.062302
    17  C   -0.040625
    18  C   -0.112241
    19  C    0.241888
    20  C   -0.076110
    21  C    0.115817
    22  C    0.142514
    23  C   -0.004194
    24  C    0.111676
    25  C   -0.085211
    26  C    0.151349
    27  C    0.182326
    28  C    0.013274
    29  C    0.070766
    30  C    0.148587
    31  C   -0.162983
    32  C    0.113226
    33  C   -0.109992
    34  C    0.070700
    35  C   -0.091784
    36  C   -0.206322
    37  C    0.126274
    38  C    0.126600
    39  C    0.188276
    40  C    0.055557
    41  C    0.168913
    42  C    0.175973
    43  C    0.098381
 Electronic spatial extent (au):  <R**2>=          30629.1329
 Charge=             -0.0000 electrons
 Dipole moment (field-independent basis, Debye):
    X=             -1.9135    Y=              0.3289    Z=             -0.0062  Tot=              1.9416
 Quadrupole moment (field-independent basis, Debye-Ang):
   XX=           -266.4365   YY=           -233.7862   ZZ=           -254.2823
   XY=             17.7012   XZ=             16.7740   YZ=            -17.7093
 Traceless Quadrupole moment (field-independent basis, Debye-Ang):
   XX=            -14.9348   YY=             17.7154   ZZ=             -2.7806
   XY=             17.7012   XZ=             16.7740   YZ=            -17.7093
 Octapole moment (field-independent basis, Debye-Ang**2):
  XXX=            104.1288  YYY=            127.5866  ZZZ=            -20.0685  XYY=           -166.9376
  XXY=             -4.8093  XXZ=            -84.1780  XZZ=            -50.0966  YZZ=            -22.8191
  YYZ=             42.7239  XYZ=            -65.1764
 Hexadecapole moment (field-independent basis, Debye-Ang**3):
 XXXX=         -23464.8583 YYYY=         -16109.8207 ZZZZ=          -1619.5467 XXXY=            701.1129
 XXXZ=            870.1376 YYYX=            950.6702 YYYZ=           -507.4430 ZZZX=             86.4533
 ZZZY=             19.1662 XXYY=          -6415.6147 XXZZ=          -3999.4386 YYZZ=          -3090.5009
 XXYZ=             -8.5924 YYXZ=            333.8180 ZZXY=            230.9519
 N-N= 5.026428085332D+03 E-N=-1.458314790229D+04  KE= 1.927316027684D+03
 1\1\GINC-RYZEN-SSD1\SP\RB3LYP TD-FC\SVP\C33H38N4O6\PADAWAN\01-Jul-2019
 \0\\# td=(NStates=1) B3LYP/SVP\\TD\\0,1\O,0,-4.6490650273,-4.662466327
 8,2.0153368973\O,0,3.1040210002,-4.932977847,1.1494228741\O,0,6.859706
 352,-1.7634538865,1.7635165722\O,0,3.7844101738,-3.09044817,0.05080793
 92\O,0,7.614730225,-0.6981511944,-0.1030398733\O,0,-3.017442073,2.3705
 944569,-0.1992848331\N,0,-0.2726416459,-0.622261576,-0.3683854747\N,0,
 1.550362719,1.7739497738,-0.2509667588\N,0,-3.3544123842,-3.1630353503
 ,0.6316516365\N,0,-0.7703184347,2.777698188,0.0469696731\C,0,0.6248837
 208,-2.4291983581,-1.2581578989\C,0,0.9653054643,-1.1490148526,-0.7999
 025456\C,0,-0.7001843435,-2.6411580052,-1.2521254119\C,0,-1.2776798742
 ,-1.4599396359,-0.691720638\C,0,3.8308910304,1.4840028856,-0.350141230
 5\C,0,2.5160923022,0.7864799798,-0.4745590145\C,0,2.1459616005,-0.4899
 451403,-0.8125234973\C,0,3.574491286,2.8840764158,-0.1437051434\C,0,1.
 6949706496,-3.3600012659,-1.8841486159\C,0,-5.6317725125,-2.5700789175
 ,1.3070406441\C,0,-3.6242244853,-1.8106061226,0.0798717722\C,0,2.16279
 05393,3.0376501932,-0.0724347205\C,0,-5.0609822945,-1.5473502382,0.281
 5367926\C,0,5.1954780259,0.800149685,-0.3614592023\C,0,-2.6815991221,-
 1.0148082524,-0.3688873031\C,0,-1.4895468924,-3.8928937917,-1.74481772
 55\C,0,-4.4608035472,-3.6772762333,1.3334424588\C,0,2.1470851845,-4.47
 99802177,-0.992562112\C,0,5.3338132576,-0.2079568596,0.8262307292\C,0,
 4.5900547917,3.9995611874,0.1205042342\C,0,1.3226035018,4.0887532828,0
 .2366337829\C,0,-6.9644275734,-3.0343408139,1.0844179079\C,0,-5.834022
 0047,-0.5530400339,-0.3013616106\C,0,-0.1444994389,4.0240770793,0.2778
 464102\C,0,-0.9456955313,5.1712182148,0.4507497036\C,0,-2.2357689031,4
 .7160877316,0.3292043233\C,0,3.0804208834,-4.0426608852,0.1138727863\C
 ,0,-5.4182064814,0.4169569243,-1.4146725343\C,0,6.7017427405,-0.807349
 019,0.7681099336\C,0,-3.6253282921,5.3968259808,0.4582766428\C,0,-2.11
 91453508,3.1834105324,0.0233732621\C,0,-0.5288370212,6.6483587039,0.80
 40354933\C,0,-4.2059291298,5.6569040953,-0.9107818539\H,0,-0.512038768
 8,0.2625119568,0.1529047372\H,0,3.1152055352,-1.1092529274,-1.23016252
 49\H,0,2.5778490358,-2.766271334,-2.0795303877\H,0,1.3354703263,-3.723
 62428,-2.6621585824\H,0,-5.6104728535,-2.0209604851,2.4355857191\H,0,5
 .178158126,0.101564873,-1.5209852515\H,0,6.0467066363,1.5339577051,-0.
 3455258522\H,0,-2.9669347892,-0.0980153053,-0.4956824738\H,0,0.4973260
 643,1.7460557886,-0.0785273248\H,0,-1.5885344446,-4.7028623904,-0.9579
 065964\H,0,-2.5604996797,-3.5952072227,-2.1262719474\H,0,-1.0341933704
 ,-4.2554837228,-2.6832219252\H,0,-2.5156953273,-3.5592820766,0.4958368
 307\H,0,1.2042862353,-5.0593184143,-0.5075144689\H,0,2.5893581216,-5.4
 20764785,-1.3481493288\H,0,4.6817425953,-1.2588819393,0.6027208583\H,0
 ,5.0255767573,0.1223066673,2.08159263\H,0,4.193446865,4.9178522526,-0.
 2808880715\H,0,5.55037166,3.8436070799,-0.3740408809\H,0,4.7453939568,
 4.3748529934,1.1706683707\H,0,1.8091067427,5.1484347731,0.6731471016\H
 ,0,-7.7542781994,-2.3457005646,1.6056752615\H,0,-7.0066763119,-3.81020
 87868,1.88572094\H,0,-7.2796261466,-3.6122989934,0.2120727965\H,0,-6.8
 948568274,-0.5985701883,-0.1398920613\H,0,-4.8488897308,1.1875129482,-
 1.1454983979\H,0,-6.4719190216,0.5451121395,-2.2131979983\H,0,-4.70807
 93034,-0.3082739812,-2.022593472\H,0,-3.3429341727,6.4534980056,0.8917
 668807\H,0,-4.2336910466,4.9405631885,1.3782199598\H,0,0.0405386192,6.
 7845604159,1.7896616987\H,0,-1.3329946828,7.2670433998,0.8293921956\H,
 0,0.1279119788,6.9803565362,-0.1270863744\H,0,-3.4961399098,6.29911579
 47,-1.4859764137\H,0,-5.175589382,6.0475774987,-0.7711722589\H,0,-4.31
 76562867,4.7157830706,-1.5069104294\H,0,3.6815434608,-4.4813923694,1.7
 565842954\H,0,7.6968969344,-2.2693175841,1.7173919018\\Version=ES64L-G
 16RevA.03\State=1-A\HF=-1949.0497807\RMSD=8.961e-09\PG=C01 [X(C33H38N4
 O6)]\\@


 FROM THE ASHES OF OUR DESPAIR GROW THE FLOWERS OF TOMORROW.
 Job cpu time:       0 days 20 hours 32 minutes 26.9 seconds.
 Elapsed time:       0 days  5 hours  9 minutes 29.4 seconds.
 File lengths (MBytes):  RWF=   2591 Int=      0 D2E=      0 Chk=     65 Scr=      1
 Normal termination of Gaussian 16 at Mon Jul  1 15:51:52 2019.
