 Entering Gaussian System, Link 0=g16
 Input=Geometria-347-.com
 Output=Geometria-347-.log
 Initial command:
 /usr/local/g16/l1.exe "/home/padawan/israel-mol/phycocyanobilin/spectra/abs/Gau-72883.inp" -scrdir="/home/padawan/israel-mol/phycocyanobilin/spectra/abs/"
 Entering Link 1 = /usr/local/g16/l1.exe PID=     72885.
  
 Copyright (c) 1988,1990,1992,1993,1995,1998,2003,2009,2016,
            Gaussian, Inc.  All Rights Reserved.
  
 This is part of the Gaussian(R) 16 program.  It is based on
 the Gaussian(R) 09 system (copyright 2009, Gaussian, Inc.),
 the Gaussian(R) 03 system (copyright 2003, Gaussian, Inc.),
 the Gaussian(R) 98 system (copyright 1998, Gaussian, Inc.),
 the Gaussian(R) 94 system (copyright 1995, Gaussian, Inc.),
 the Gaussian 92(TM) system (copyright 1992, Gaussian, Inc.),
 the Gaussian 90(TM) system (copyright 1990, Gaussian, Inc.),
 the Gaussian 88(TM) system (copyright 1988, Gaussian, Inc.),
 the Gaussian 86(TM) system (copyright 1986, Carnegie Mellon
 University), and the Gaussian 82(TM) system (copyright 1983,
 Carnegie Mellon University). Gaussian is a federally registered
 trademark of Gaussian, Inc.
  
 This software contains proprietary and confidential information,
 including trade secrets, belonging to Gaussian, Inc.
  
 This software is provided under written license and may be
 used, copied, transmitted, or stored only in accord with that
 written license.
  
 The following legend is applicable only to US Government
 contracts under FAR:
  
                    RESTRICTED RIGHTS LEGEND
  
 Use, reproduction and disclosure by the US Government is
 subject to restrictions as set forth in subparagraphs (a)
 and (c) of the Commercial Computer Software - Restricted
 Rights clause in FAR 52.227-19.
  
 Gaussian, Inc.
 340 Quinnipiac St., Bldg. 40, Wallingford CT 06492
  
  
 ---------------------------------------------------------------
 Warning -- This program may not be used in any manner that
 competes with the business of Gaussian, Inc. or will provide
 assistance to any competitor of Gaussian, Inc.  The licensee
 of this program is prohibited from giving any competitor of
 Gaussian, Inc. access to this program.  By using this program,
 the user acknowledges that Gaussian, Inc. is engaged in the
 business of creating and licensing software in the field of
 computational chemistry and represents and warrants to the
 licensee that it is not a competitor of Gaussian, Inc. and that
 it will not use this program in any manner prohibited above.
 ---------------------------------------------------------------
  

 Cite this work as:
 Gaussian 16, Revision A.03,
 M. J. Frisch, G. W. Trucks, H. B. Schlegel, G. E. Scuseria, 
 M. A. Robb, J. R. Cheeseman, G. Scalmani, V. Barone, 
 G. A. Petersson, H. Nakatsuji, X. Li, M. Caricato, A. V. Marenich, 
 J. Bloino, B. G. Janesko, R. Gomperts, B. Mennucci, H. P. Hratchian, 
 J. V. Ortiz, A. F. Izmaylov, J. L. Sonnenberg, D. Williams-Young, 
 F. Ding, F. Lipparini, F. Egidi, J. Goings, B. Peng, A. Petrone, 
 T. Henderson, D. Ranasinghe, V. G. Zakrzewski, J. Gao, N. Rega, 
 G. Zheng, W. Liang, M. Hada, M. Ehara, K. Toyota, R. Fukuda, 
 J. Hasegawa, M. Ishida, T. Nakajima, Y. Honda, O. Kitao, H. Nakai, 
 T. Vreven, K. Throssell, J. A. Montgomery, Jr., J. E. Peralta, 
 F. Ogliaro, M. J. Bearpark, J. J. Heyd, E. N. Brothers, K. N. Kudin, 
 V. N. Staroverov, T. A. Keith, R. Kobayashi, J. Normand, 
 K. Raghavachari, A. P. Rendell, J. C. Burant, S. S. Iyengar, 
 J. Tomasi, M. Cossi, J. M. Millam, M. Klene, C. Adamo, R. Cammi, 
 J. W. Ochterski, R. L. Martin, K. Morokuma, O. Farkas, 
 J. B. Foresman, and D. J. Fox, Gaussian, Inc., Wallingford CT, 2016.
 
 ******************************************
 Gaussian 16:  ES64L-G16RevA.03 25-Dec-2016
                 4-Jul-2019 
 ******************************************
 %nproc=4
 Will use up to    4 processors via shared memory.
 %Mem=4GB
 --------------------------
 # td=(NStates=1) B3LYP/SVP
 --------------------------
 1/38=1,172=1/1;
 2/12=2,17=6,18=5,40=1/2;
 3/5=18,7=101,11=9,25=1,30=1,74=-5/1,2,3,8;
 4//1;
 5/5=2,38=5/2;
 8/6=1,10=1,108=1/1;
 9/41=1,42=1,70=2/14;
 6/7=2,8=2,9=2,10=2/1;
 99/5=1,9=1/99;
 --
 TD
 --
 Symbolic Z-matrix:
 Charge =  0 Multiplicity = 1
 8                    -4.47462  -4.67895   1.86448 
 8                     2.72676  -4.74352   1.31473 
 8                     6.97014  -1.63594   1.8937 
 8                     3.74932  -3.14641   0.04268 
 8                     7.64701  -0.38849   0.00847 
 8                    -2.9719    2.48583  -0.16305 
 7                    -0.24902  -0.53211  -0.64807 
 7                     1.54738   1.80943  -0.51441 
 7                    -3.36288  -3.09681   0.6617 
 7                    -0.66076   2.94113  -0.12726 
 6                     0.61025  -2.46897  -1.31881 
 6                     0.96681  -1.14609  -0.95836 
 6                    -0.79729  -2.6622   -1.25863 
 6                    -1.24158  -1.42547  -0.73131 
 6                     3.79719   1.41732  -0.30244 
 6                     2.53798   0.88625  -0.59652 
 6                     2.18369  -0.53656  -0.84382 
 6                     3.60082   2.75246  -0.11165 
 6                     1.61616  -3.4528   -1.89059 
 6                    -5.56639  -2.63586   1.3754 
 6                    -3.5672   -1.81288   0.16975 
 6                     2.15168   2.96208  -0.14323 
 6                    -5.07165  -1.53654   0.34312 
 6                     5.13282   0.72348  -0.30604 
 6                    -2.65885  -0.97544  -0.50043 
 6                    -1.49561  -3.85758  -1.76601 
 6                    -4.37893  -3.67489   1.39731 
 6                     2.00614  -4.53017  -0.86022 
 6                     5.33872  -0.37282   0.77432 
 6                     4.6073    3.90025   0.10764 
 6                     1.37855   4.15003   0.01614 
 6                    -7.0669   -3.17899   0.99878 
 6                    -5.84996  -0.65965  -0.26786 
 6                    -0.02198   4.14206   0.13265 
 6                    -0.98467   5.14381   0.51076 
 6                    -2.21419   4.60427   0.43853 
 6                     2.96368  -4.01973   0.17034 
 6                    -5.46633   0.48118  -1.21643 
 6                     6.82477  -0.79139   0.84881 
 6                    -3.59252   5.17876   0.52152 
 6                    -2.0738    3.2984    0.06575 
 6                    -0.48079   6.52187   0.94166 
 6                    -4.24604   5.61324  -0.816 
 1                    -0.4995    0.43379  -0.16969 
 1                     3.17125  -1.29458  -1.2084 
 1                     2.34124  -2.87965  -2.2585 
 1                     1.36344  -3.94795  -2.80343 
 1                    -5.54305  -2.24737   2.3768 
 1                     5.27718   0.14179  -1.11019 
 1                     5.80254   1.45635  -0.35772 
 1                    -2.99285   0.07679  -0.42201 
 1                     0.59945   1.79398  -0.53487 
 1                    -1.58923  -4.7236   -0.93056 
 1                    -2.54941  -3.60768  -2.23628 
 1                    -0.87688  -4.58864  -2.45496 
 1                    -2.23849  -3.46852   0.64369 
 1                     0.9691   -4.93597  -0.46416 
 1                     2.60977  -5.33139  -1.34684 
 1                     4.7143   -1.47084   0.10629 
 1                     4.95862  -0.08328   1.90645 
 1                     4.49554   4.74362  -0.37533 
 1                     5.59958   3.55056  -0.02672 
 1                     4.48951   4.14383   1.33407 
 1                     1.82713   5.11555   0.45941 
 1                    -7.68745  -2.21483   1.14697 
 1                    -7.32027  -4.18705   1.68235 
 1                    -7.27186  -3.55595   0.04078 
 1                    -6.97185  -0.68119   0.0833 
 1                    -5.33754   1.43394  -0.28124 
 1                    -6.26732   0.90432  -1.78638 
 1                    -4.52338   0.28751  -1.73542 
 1                    -3.65488   6.14947   1.18933 
 1                    -4.27244   4.48944   1.1161 
 1                     0.3774    6.26491   1.70279 
 1                    -1.16707   7.27455   1.24871 
 1                     0.18272   6.92121   0.10908 
 1                    -3.62534   6.61066  -1.26695 
 1                    -5.35094   5.8347   -0.73824 
 1                    -4.18879   4.62349  -1.34409 
 1                     3.337    -4.5121    2.14148 
 1                     7.93354  -1.67114   1.78484 
 
 Stoichiometry    C33H38N4O6
 Framework group  C1[X(C33H38N4O6)]
 Deg. of freedom   237
 Full point group                 C1      NOp   1
 Largest Abelian subgroup         C1      NOp   1
 Largest concise Abelian subgroup C1      NOp   1
                         Standard orientation:                         
 ---------------------------------------------------------------------
 Center     Atomic      Atomic             Coordinates (Angstroms)
 Number     Number       Type             X           Y           Z
 ---------------------------------------------------------------------
      1          8           0       -4.570591   -4.594351    1.841247
      2          8           0        2.629005   -4.801818    1.303605
      3          8           0        6.932910   -1.782030    1.900049
      4          8           0        3.685691   -3.221452    0.038563
      5          8           0        7.638056   -0.542306    0.020093
      6          8           0       -2.920654    2.545340   -0.160143
      7          7           0       -0.258090   -0.525107   -0.650427
      8          7           0        1.584745    1.779424   -0.505995
      9          7           0       -3.425165   -3.030965    0.645582
     10          7           0       -0.600901    2.954000   -0.118899
     11          6           0        0.563292   -2.476649   -1.326062
     12          6           0        0.945706   -1.162382   -0.960649
     13          6           0       -0.847956   -2.641750   -1.268917
     14          6           0       -1.268242   -1.398061   -0.738303
     15          6           0        3.825839    1.341493   -0.291461
     16          6           0        2.556747    0.836795   -0.589444
     17          6           0        2.174378   -0.577797   -0.842022
     18          6           0        3.655996    2.679688   -0.096623
     19          6           0        1.550251   -3.478625   -1.899347
     20          6           0       -5.620229   -2.528154    1.357016
     21          6           0       -3.602775   -1.741593    0.157504
     22          6           0        2.211413    2.918485   -0.129993
     23          6           0       -5.101680   -1.435648    0.329210
     24          6           0        5.147271    0.620977   -0.295064
     25          6           0       -2.676595   -0.920406   -0.508365
     26          6           0       -1.569239   -3.821201   -1.781423
     27          6           0       -4.453920   -3.590900    1.377542
     28          6           0        1.916678   -4.566954   -0.871859
     29          6           0        5.329190   -0.482753    0.782035
     30          6           0        4.684930    3.806302    0.128166
     31          6           0        1.462020    4.121202    0.031963
     32          6           0       -7.130676   -3.039796    0.976048
     33          6           0       -5.861133   -0.541315   -0.280215
     34          6           0        0.061411    4.140995    0.146051
     35          6           0       -0.881635    5.160647    0.525799
     36          6           0       -2.121612    4.646160    0.449691
     37          6           0        2.882444   -4.079216    0.162007
     38          6           0       -5.452977    0.594660   -1.224376
     39          6           0        6.806389   -0.931332    0.857693
     40          6           0       -3.488267    5.247963    0.532220
     41          6           0       -2.006823    3.338958    0.072863
     42          6           0       -0.350944    6.526896    0.962093
     43          6           0       -4.130559    5.699831   -0.804986
     44          1           0       -0.489965    0.444071   -0.169297
     45          1           0        3.147164   -1.354319   -1.207406
     46          1           0        2.287343   -2.918968   -2.264129
     47          1           0        1.289258   -3.965621   -2.814245
     48          1           0       -5.590869   -2.143479    2.359729
     49          1           0        5.281341    0.039120   -1.100875
     50          1           0        5.831668    1.340405   -0.343182
     51          1           0       -2.989530    0.138068   -0.427052
     52          1           0        0.636727    1.783088   -0.528127
     53          1           0       -1.681727   -4.687882   -0.948990
     54          1           0       -2.616970   -3.548647   -2.252674
     55          1           0       -0.964096   -4.562297   -2.471713
     56          1           0       -2.308433   -3.425137    0.628271
     57          1           0        0.870996   -4.953122   -0.478912
     58          1           0        2.504955   -5.378554   -1.360078
     59          1           0        4.684019   -1.565825    0.109337
     60          1           0        4.952968   -0.189319    1.914458
     61          1           0        4.590993    4.653318   -0.352219
     62          1           0        5.670223    3.437180   -0.005645
     63          1           0        4.569880    4.048207    1.355189
     64          1           0        1.929115    5.076068    0.479166
     65          1           0       -7.732000   -2.063852    1.126346
     66          1           0       -7.405458   -4.044781    1.655866
     67          1           0       -7.341463   -3.409452    0.016461
     68          1           0       -6.983852   -0.541449    0.068951
     69          1           0       -5.306733    1.541587   -0.285838
     70          1           0       -6.244289    1.035655   -1.794293
     71          1           0       -4.513187    0.383764   -1.742388
     72          1           0       -3.532302    6.217546    1.203104
     73          1           0       -4.182962    4.570507    1.123367
     74          1           0        0.500562    6.250272    1.723844
     75          1           0       -1.022506    7.292219    1.270446
     76          1           0        0.321932    6.915534    0.131964
     77          1           0       -3.489148    6.686037   -1.251593
     78          1           0       -5.230917    5.943189   -0.728385
     79          1           0       -4.092264    4.710858   -1.336230
     80          1           0        3.242296   -4.585394    2.132158
     81          1           0        7.895604   -1.836223    1.792721
 ---------------------------------------------------------------------
 Rotational constants (GHZ):           0.0765279           0.0546302           0.0340928
 Standard basis: SVP (5D, 7F)
 There are   835 symmetry adapted cartesian basis functions of A   symmetry.
 There are   792 symmetry adapted basis functions of A   symmetry.
   792 basis functions,  1341 primitive gaussians,   835 cartesian basis functions
   156 alpha electrons      156 beta electrons
       nuclear repulsion energy      5043.7461573255 Hartrees.
 NAtoms=   81 NActive=   81 NUniq=   81 SFac= 1.00D+00 NAtFMM=   60 NAOKFM=T Big=T
 Integral buffers will be    131072 words long.
 Regular integral format.
 Two-electron integral symmetry is turned on.
 One-electron integrals computed using PRISM.
 NBasis=   792 RedAO= T EigKep=  3.23D-04  NBF=   792
 NBsUse=   792 1.00D-06 EigRej= -1.00D+00 NBFU=   792
 ExpMin= 1.22D-01 ExpMax= 2.27D+03 ExpMxC= 3.41D+02 IAcc=3 IRadAn=         5 AccDes= 0.00D+00
 Harris functional with IExCor=  402 and IRadAn=       5 diagonalized for initial guess.
 HarFok:  IExCor=  402 AccDes= 0.00D+00 IRadAn=         5 IDoV= 1 UseB2=F ITyADJ=14
 ICtDFT=  3500011 ScaDFX=  1.000000  1.000000  1.000000  1.000000
 FoFCou: FMM=F IPFlag=           0 FMFlag=      100000 FMFlg1=        2001
         NFxFlg=           0 DoJE=T BraDBF=F KetDBF=T FulRan=T
         wScrn=  0.000000 ICntrl=       500 IOpCl=  0 I1Cent=   200000004 NGrid=           0
         NMat0=    1 NMatS0=      1 NMatT0=    0 NMatD0=    1 NMtDS0=    0 NMtDT0=    0
 Petite list used in FoFCou.
 Requested convergence on RMS density matrix=1.00D-08 within 128 cycles.
 Requested convergence on MAX density matrix=1.00D-06.
 Requested convergence on             energy=1.00D-06.
 No special actions if energy rises.
 Integral accuracy reduced to 1.0D-05 until final iterations.
 EnCoef did     2 forward-backward iterations
 Initial convergence to 1.0D-05 achieved.  Increase integral accuracy.
 SCF Done:  E(RB3LYP) =  -1948.99069516     A.U. after   20 cycles
            NFock= 20  Conv=0.67D-08     -V/T= 2.0109
 DoSCS=F DFT=T ScalE2(SS,OS)=  1.000000  1.000000
 ExpMin= 1.22D-01 ExpMax= 2.27D+03 ExpMxC= 3.41D+02 IAcc=3 IRadAn=         5 AccDes= 0.00D+00
 HarFok:  IExCor=  205 AccDes= 0.00D+00 IRadAn=         5 IDoV=-2 UseB2=F ITyADJ=14
 ICtDFT= 12500011 ScaDFX=  1.000000  1.000000  1.000000  1.000000
 GSVD:  LWork=       -2193 too small for GESVD, short by        9890 words or        9890 for optimal perf.
 Range of M.O.s used for correlation:    44   792
 NBasis=   792 NAE=   156 NBE=   156 NFC=    43 NFV=     0
 NROrb=    749 NOA=   113 NOB=   113 NVA=   636 NVB=   636

 **** Warning!!: The smallest alpha delta epsilon is  0.67915117D-01

 Orbital symmetries:
       Occupied  (A) (A) (A) (A) (A) (A) (A) (A) (A) (A) (A) (A)
                 (A) (A) (A) (A) (A) (A) (A) (A) (A) (A) (A) (A)
                 (A) (A) (A) (A) (A) (A) (A) (A) (A) (A) (A) (A)
                 (A) (A) (A) (A) (A) (A) (A) (A) (A) (A) (A) (A)
                 (A) (A) (A) (A) (A) (A) (A) (A) (A) (A) (A) (A)
                 (A) (A) (A) (A) (A) (A) (A) (A) (A) (A) (A) (A)
                 (A) (A) (A) (A) (A) (A) (A) (A) (A) (A) (A) (A)
                 (A) (A) (A) (A) (A) (A) (A) (A) (A) (A) (A) (A)
                 (A) (A) (A) (A) (A) (A) (A) (A) (A) (A) (A) (A)
                 (A) (A) (A) (A) (A) (A) (A) (A) (A) (A) (A) (A)
                 (A) (A) (A) (A) (A) (A) (A) (A) (A) (A) (A) (A)
                 (A) (A) (A) (A) (A) (A) (A) (A) (A) (A) (A) (A)
                 (A) (A) (A) (A) (A) (A) (A) (A) (A) (A) (A) (A)
       Virtual   (A) (A) (A) (A) (A) (A) (A) (A) (A) (A) (A) (A)
                 (A) (A) (A) (A) (A) (A) (A) (A) (A) (A) (A) (A)
                 (A) (A) (A) (A) (A) (A) (A) (A) (A) (A) (A) (A)
                 (A) (A) (A) (A) (A) (A) (A) (A) (A) (A) (A) (A)
                 (A) (A) (A) (A) (A) (A) (A) (A) (A) (A) (A) (A)
                 (A) (A) (A) (A) (A) (A) (A) (A) (A) (A) (A) (A)
                 (A) (A) (A) (A) (A) (A) (A) (A) (A) (A) (A) (A)
                 (A) (A) (A) (A) (A) (A) (A) (A) (A) (A) (A) (A)
                 (A) (A) (A) (A) (A) (A) (A) (A) (A) (A) (A) (A)
                 (A) (A) (A) (A) (A) (A) (A) (A) (A) (A) (A) (A)
                 (A) (A) (A) (A) (A) (A) (A) (A) (A) (A) (A) (A)
                 (A) (A) (A) (A) (A) (A) (A) (A) (A) (A) (A) (A)
                 (A) (A) (A) (A) (A) (A) (A) (A) (A) (A) (A) (A)
                 (A) (A) (A) (A) (A) (A) (A) (A) (A) (A) (A) (A)
                 (A) (A) (A) (A) (A) (A) (A) (A) (A) (A) (A) (A)
                 (A) (A) (A) (A) (A) (A) (A) (A) (A) (A) (A) (A)
                 (A) (A) (A) (A) (A) (A) (A) (A) (A) (A) (A) (A)
                 (A) (A) (A) (A) (A) (A) (A) (A) (A) (A) (A) (A)
                 (A) (A) (A) (A) (A) (A) (A) (A) (A) (A) (A) (A)
                 (A) (A) (A) (A) (A) (A) (A) (A) (A) (A) (A) (A)
                 (A) (A) (A) (A) (A) (A) (A) (A) (A) (A) (A) (A)
                 (A) (A) (A) (A) (A) (A) (A) (A) (A) (A) (A) (A)
                 (A) (A) (A) (A) (A) (A) (A) (A) (A) (A) (A) (A)
                 (A) (A) (A) (A) (A) (A) (A) (A) (A) (A) (A) (A)
                 (A) (A) (A) (A) (A) (A) (A) (A) (A) (A) (A) (A)
                 (A) (A) (A) (A) (A) (A) (A) (A) (A) (A) (A) (A)
                 (A) (A) (A) (A) (A) (A) (A) (A) (A) (A) (A) (A)
                 (A) (A) (A) (A) (A) (A) (A) (A) (A) (A) (A) (A)
                 (A) (A) (A) (A) (A) (A) (A) (A) (A) (A) (A) (A)
                 (A) (A) (A) (A) (A) (A) (A) (A) (A) (A) (A) (A)
                 (A) (A) (A) (A) (A) (A) (A) (A) (A) (A) (A) (A)
                 (A) (A) (A) (A) (A) (A) (A) (A) (A) (A) (A) (A)
                 (A) (A) (A) (A) (A) (A) (A) (A) (A) (A) (A) (A)
                 (A) (A) (A) (A) (A) (A) (A) (A) (A) (A) (A) (A)
                 (A) (A) (A) (A) (A) (A) (A) (A) (A) (A) (A) (A)
                 (A) (A) (A) (A) (A) (A) (A) (A) (A) (A) (A) (A)
                 (A) (A) (A) (A) (A) (A) (A) (A) (A) (A) (A) (A)
                 (A) (A) (A) (A) (A) (A) (A) (A) (A) (A) (A) (A)
                 (A) (A) (A) (A) (A) (A) (A) (A) (A) (A) (A) (A)
                 (A) (A) (A) (A) (A) (A) (A) (A) (A) (A) (A) (A)
                 (A) (A) (A) (A) (A) (A) (A) (A) (A) (A) (A) (A)
                 (A) (A) (A) (A) (A) (A) (A) (A) (A) (A) (A) (A)
                 (A) (A) (A) (A) (A) (A) (A) (A) (A) (A) (A) (A)
                 (A) (A) (A) (A) (A) (A) (A) (A) (A) (A) (A) (A)
                 (A) (A) (A) (A) (A) (A) (A) (A) (A) (A) (A) (A)
                 (A) (A) (A) (A) (A) (A) (A) (A) (A) (A) (A) (A)
                 (A) (A) (A) (A) (A) (A) (A) (A) (A) (A) (A) (A)
                 (A) (A) (A) (A) (A) (A) (A) (A) (A) (A) (A) (A)
                 (A) (A) (A) (A) (A) (A) (A) (A) (A) (A) (A) (A)
                 (A) (A) (A) (A) (A) (A) (A) (A) (A) (A) (A) (A)
                 (A) (A) (A) (A) (A) (A) (A) (A) (A) (A) (A) (A)
                 (A) (A) (A) (A) (A) (A) (A) (A) (A) (A) (A) (A)
                 (A) (A) (A) (A) (A) (A) (A) (A) (A) (A) (A) (A)
     4 initial guesses have been made.
 Convergence on wavefunction:    0.001000000000000
 Iteration     1 Dimension     4 NMult     0 NNew      4
 CISAX will form     4 AO SS matrices at one time.
 Iteration     2 Dimension     6 NMult     4 NNew      2
 Iteration     3 Dimension     8 NMult     6 NNew      2
 Iteration     4 Dimension    10 NMult     8 NNew      2
 Iteration     5 Dimension    12 NMult    10 NNew      2
 Iteration     6 Dimension    14 NMult    12 NNew      2
 ***********************************************************************
 Excited states from <AA,BB:AA,BB> singles matrix:
 ***********************************************************************
 
 Ground to excited state transition densities written to RWF  633
 Ground to excited state transition electric dipole moments (Au):
       state          X           Y           Z        Dip. S.      Osc.
         1         0.4400      2.6958      0.2858      7.5425      0.3247
 Ground to excited state transition velocity dipole moments (Au):
       state          X           Y           Z        Dip. S.      Osc.
         1        -0.0326     -0.1682     -0.0168      0.0296      0.3060
 Ground to excited state transition magnetic dipole moments (Au):
       state          X           Y           Z
         1        -0.3443      0.4198     -2.1017
 Ground to excited state transition velocity quadrupole moments (Au):
       state          XX          YY          ZZ          XY          XZ          YZ
         1         0.4256     -0.6517      0.0695      0.3281     -0.0400     -0.0142
 <0|del|b> * <b|rxdel|0> + <0|del|b> * <b|delr+rdel|0>
 Rotatory Strengths (R) in cgs (10**-40 erg-esu-cm/Gauss)
       state          XX          YY          ZZ    R(velocity)    E-M Angle
         1      -260.1023    287.8685   -290.9256    -87.7198       93.69
 1/2[<0|r|b>*<b|rxdel|0> + (<0|rxdel|b>*<b|r|0>)*]
 Rotatory Strengths (R) in cgs (10**-40 erg-esu-cm/Gauss)
       state          XX          YY          ZZ     R(length)
         1       107.1442   -800.2992    424.7593    -89.4652
  1/2[<0|del|b>*<b|r|0> + (<0|r|b>*<b|del|0>)*] (Au)
       state          X           Y           Z        Dip. S.   Osc.(frdel)
         1        -0.0143     -0.4534     -0.0048      0.4726      0.3151

 Excitation energies and oscillator strengths:
 
 Excited State   1:      Singlet-A      1.7570 eV  705.64 nm  f=0.3247  <S**2>=0.000
     156 ->157         0.70726
     156 <-157        -0.14475
 This state for optimization and/or second-order correction.
 Total Energy, E(TD-HF/TD-DFT) =  -1948.92612490    
 Copying the excited state density for this state as the 1-particle RhoCI density.
 SavETr:  write IOETrn=   770 NScale= 10 NData=  16 NLR=1 NState=    1 LETran=      28.

 **********************************************************************

            Population analysis using the SCF density.

 **********************************************************************

 Orbital symmetries:
       Occupied  (A) (A) (A) (A) (A) (A) (A) (A) (A) (A) (A) (A)
                 (A) (A) (A) (A) (A) (A) (A) (A) (A) (A) (A) (A)
                 (A) (A) (A) (A) (A) (A) (A) (A) (A) (A) (A) (A)
                 (A) (A) (A) (A) (A) (A) (A) (A) (A) (A) (A) (A)
                 (A) (A) (A) (A) (A) (A) (A) (A) (A) (A) (A) (A)
                 (A) (A) (A) (A) (A) (A) (A) (A) (A) (A) (A) (A)
                 (A) (A) (A) (A) (A) (A) (A) (A) (A) (A) (A) (A)
                 (A) (A) (A) (A) (A) (A) (A) (A) (A) (A) (A) (A)
                 (A) (A) (A) (A) (A) (A) (A) (A) (A) (A) (A) (A)
                 (A) (A) (A) (A) (A) (A) (A) (A) (A) (A) (A) (A)
                 (A) (A) (A) (A) (A) (A) (A) (A) (A) (A) (A) (A)
                 (A) (A) (A) (A) (A) (A) (A) (A) (A) (A) (A) (A)
                 (A) (A) (A) (A) (A) (A) (A) (A) (A) (A) (A) (A)
       Virtual   (A) (A) (A) (A) (A) (A) (A) (A) (A) (A) (A) (A)
                 (A) (A) (A) (A) (A) (A) (A) (A) (A) (A) (A) (A)
                 (A) (A) (A) (A) (A) (A) (A) (A) (A) (A) (A) (A)
                 (A) (A) (A) (A) (A) (A) (A) (A) (A) (A) (A) (A)
                 (A) (A) (A) (A) (A) (A) (A) (A) (A) (A) (A) (A)
                 (A) (A) (A) (A) (A) (A) (A) (A) (A) (A) (A) (A)
                 (A) (A) (A) (A) (A) (A) (A) (A) (A) (A) (A) (A)
                 (A) (A) (A) (A) (A) (A) (A) (A) (A) (A) (A) (A)
                 (A) (A) (A) (A) (A) (A) (A) (A) (A) (A) (A) (A)
                 (A) (A) (A) (A) (A) (A) (A) (A) (A) (A) (A) (A)
                 (A) (A) (A) (A) (A) (A) (A) (A) (A) (A) (A) (A)
                 (A) (A) (A) (A) (A) (A) (A) (A) (A) (A) (A) (A)
                 (A) (A) (A) (A) (A) (A) (A) (A) (A) (A) (A) (A)
                 (A) (A) (A) (A) (A) (A) (A) (A) (A) (A) (A) (A)
                 (A) (A) (A) (A) (A) (A) (A) (A) (A) (A) (A) (A)
                 (A) (A) (A) (A) (A) (A) (A) (A) (A) (A) (A) (A)
                 (A) (A) (A) (A) (A) (A) (A) (A) (A) (A) (A) (A)
                 (A) (A) (A) (A) (A) (A) (A) (A) (A) (A) (A) (A)
                 (A) (A) (A) (A) (A) (A) (A) (A) (A) (A) (A) (A)
                 (A) (A) (A) (A) (A) (A) (A) (A) (A) (A) (A) (A)
                 (A) (A) (A) (A) (A) (A) (A) (A) (A) (A) (A) (A)
                 (A) (A) (A) (A) (A) (A) (A) (A) (A) (A) (A) (A)
                 (A) (A) (A) (A) (A) (A) (A) (A) (A) (A) (A) (A)
                 (A) (A) (A) (A) (A) (A) (A) (A) (A) (A) (A) (A)
                 (A) (A) (A) (A) (A) (A) (A) (A) (A) (A) (A) (A)
                 (A) (A) (A) (A) (A) (A) (A) (A) (A) (A) (A) (A)
                 (A) (A) (A) (A) (A) (A) (A) (A) (A) (A) (A) (A)
                 (A) (A) (A) (A) (A) (A) (A) (A) (A) (A) (A) (A)
                 (A) (A) (A) (A) (A) (A) (A) (A) (A) (A) (A) (A)
                 (A) (A) (A) (A) (A) (A) (A) (A) (A) (A) (A) (A)
                 (A) (A) (A) (A) (A) (A) (A) (A) (A) (A) (A) (A)
                 (A) (A) (A) (A) (A) (A) (A) (A) (A) (A) (A) (A)
                 (A) (A) (A) (A) (A) (A) (A) (A) (A) (A) (A) (A)
                 (A) (A) (A) (A) (A) (A) (A) (A) (A) (A) (A) (A)
                 (A) (A) (A) (A) (A) (A) (A) (A) (A) (A) (A) (A)
                 (A) (A) (A) (A) (A) (A) (A) (A) (A) (A) (A) (A)
                 (A) (A) (A) (A) (A) (A) (A) (A) (A) (A) (A) (A)
                 (A) (A) (A) (A) (A) (A) (A) (A) (A) (A) (A) (A)
                 (A) (A) (A) (A) (A) (A) (A) (A) (A) (A) (A) (A)
                 (A) (A) (A) (A) (A) (A) (A) (A) (A) (A) (A) (A)
                 (A) (A) (A) (A) (A) (A) (A) (A) (A) (A) (A) (A)
                 (A) (A) (A) (A) (A) (A) (A) (A) (A) (A) (A) (A)
                 (A) (A) (A) (A) (A) (A) (A) (A) (A) (A) (A) (A)
                 (A) (A) (A) (A) (A) (A) (A) (A) (A) (A) (A) (A)
                 (A) (A) (A) (A) (A) (A) (A) (A) (A) (A) (A) (A)
                 (A) (A) (A) (A) (A) (A) (A) (A) (A) (A) (A) (A)
                 (A) (A) (A) (A) (A) (A) (A) (A) (A) (A) (A) (A)
                 (A) (A) (A) (A) (A) (A) (A) (A) (A) (A) (A) (A)
                 (A) (A) (A) (A) (A) (A) (A) (A) (A) (A) (A) (A)
                 (A) (A) (A) (A) (A) (A) (A) (A) (A) (A) (A) (A)
                 (A) (A) (A) (A) (A) (A) (A) (A) (A) (A) (A) (A)
                 (A) (A) (A) (A) (A) (A) (A) (A) (A) (A) (A) (A)
                 (A) (A) (A) (A) (A) (A) (A) (A) (A) (A) (A) (A)
 The electronic state is 1-A.
 Alpha  occ. eigenvalues --  -19.19896 -19.19596 -19.15616 -19.13393 -19.12097
 Alpha  occ. eigenvalues --  -19.09452 -14.38403 -14.37932 -14.35334 -14.27236
 Alpha  occ. eigenvalues --  -10.34090 -10.32564 -10.29070 -10.25051 -10.24514
 Alpha  occ. eigenvalues --  -10.24502 -10.23316 -10.23261 -10.23166 -10.22938
 Alpha  occ. eigenvalues --  -10.22756 -10.22733 -10.22368 -10.21137 -10.20610
 Alpha  occ. eigenvalues --  -10.20566 -10.20539 -10.20368 -10.20293 -10.20229
 Alpha  occ. eigenvalues --  -10.20177 -10.19790 -10.19764 -10.19760 -10.19743
 Alpha  occ. eigenvalues --  -10.19574 -10.19373 -10.19270 -10.19201 -10.19114
 Alpha  occ. eigenvalues --  -10.18761 -10.17566 -10.17356  -1.10826  -1.10653
 Alpha  occ. eigenvalues --   -1.09572  -1.02685  -1.00671  -1.00073  -0.99527
 Alpha  occ. eigenvalues --   -0.98696  -0.95060  -0.90142  -0.83054  -0.82393
 Alpha  occ. eigenvalues --   -0.80650  -0.79805  -0.79038  -0.78199  -0.77260
 Alpha  occ. eigenvalues --   -0.75963  -0.75226  -0.74385  -0.72913  -0.71807
 Alpha  occ. eigenvalues --   -0.71283  -0.69541  -0.68931  -0.68063  -0.67666
 Alpha  occ. eigenvalues --   -0.66712  -0.64732  -0.63695  -0.61795  -0.60976
 Alpha  occ. eigenvalues --   -0.60313  -0.59390  -0.58150  -0.57202  -0.56713
 Alpha  occ. eigenvalues --   -0.56433  -0.55509  -0.55343  -0.53836  -0.52674
 Alpha  occ. eigenvalues --   -0.51461  -0.51210  -0.50750  -0.50327  -0.50291
 Alpha  occ. eigenvalues --   -0.50135  -0.49130  -0.48287  -0.47848  -0.47341
 Alpha  occ. eigenvalues --   -0.46568  -0.46131  -0.45763  -0.45283  -0.45231
 Alpha  occ. eigenvalues --   -0.45110  -0.44210  -0.44061  -0.43966  -0.43616
 Alpha  occ. eigenvalues --   -0.43333  -0.42982  -0.42697  -0.42664  -0.42126
 Alpha  occ. eigenvalues --   -0.41739  -0.41529  -0.41432  -0.41247  -0.40630
 Alpha  occ. eigenvalues --   -0.39998  -0.39852  -0.39510  -0.39302  -0.38849
 Alpha  occ. eigenvalues --   -0.38751  -0.38282  -0.38039  -0.37969  -0.37609
 Alpha  occ. eigenvalues --   -0.37480  -0.37405  -0.37263  -0.36847  -0.36673
 Alpha  occ. eigenvalues --   -0.36276  -0.36049  -0.35970  -0.35439  -0.34727
 Alpha  occ. eigenvalues --   -0.34607  -0.34513  -0.33094  -0.32922  -0.32310
 Alpha  occ. eigenvalues --   -0.31798  -0.31344  -0.31036  -0.30644  -0.29748
 Alpha  occ. eigenvalues --   -0.27889  -0.27184  -0.26948  -0.25928  -0.25728
 Alpha  occ. eigenvalues --   -0.25199  -0.24703  -0.23409  -0.22690  -0.21040
 Alpha  occ. eigenvalues --   -0.17014
 Alpha virt. eigenvalues --   -0.10223  -0.06102  -0.03405  -0.01602  -0.00676
 Alpha virt. eigenvalues --    0.00966   0.01776   0.02017   0.02668   0.03449
 Alpha virt. eigenvalues --    0.03852   0.04522   0.04590   0.05145   0.05493
 Alpha virt. eigenvalues --    0.05769   0.06472   0.06829   0.07173   0.07419
 Alpha virt. eigenvalues --    0.08018   0.08459   0.08832   0.08904   0.09682
 Alpha virt. eigenvalues --    0.09909   0.10188   0.10530   0.10675   0.10724
 Alpha virt. eigenvalues --    0.11108   0.11871   0.11983   0.12201   0.12523
 Alpha virt. eigenvalues --    0.12767   0.12984   0.13635   0.13899   0.14320
 Alpha virt. eigenvalues --    0.14743   0.14893   0.15032   0.15332   0.15671
 Alpha virt. eigenvalues --    0.16160   0.16322   0.17113   0.17495   0.17539
 Alpha virt. eigenvalues --    0.18253   0.18448   0.19394   0.19508   0.19918
 Alpha virt. eigenvalues --    0.20016   0.20390   0.20741   0.21143   0.21519
 Alpha virt. eigenvalues --    0.21951   0.21960   0.22712   0.23850   0.23987
 Alpha virt. eigenvalues --    0.24283   0.24506   0.25000   0.25627   0.26252
 Alpha virt. eigenvalues --    0.26522   0.27065   0.27469   0.27843   0.28107
 Alpha virt. eigenvalues --    0.28465   0.29301   0.29804   0.30162   0.30984
 Alpha virt. eigenvalues --    0.31545   0.31898   0.33104   0.33197   0.33724
 Alpha virt. eigenvalues --    0.34348   0.34658   0.35790   0.36427   0.36669
 Alpha virt. eigenvalues --    0.37028   0.37597   0.38060   0.38286   0.39003
 Alpha virt. eigenvalues --    0.39507   0.40060   0.40462   0.41051   0.41205
 Alpha virt. eigenvalues --    0.41590   0.41843   0.41898   0.42659   0.42836
 Alpha virt. eigenvalues --    0.43578   0.43860   0.44533   0.44615   0.44960
 Alpha virt. eigenvalues --    0.45213   0.45634   0.46085   0.46250   0.46586
 Alpha virt. eigenvalues --    0.46715   0.47100   0.47149   0.47650   0.47944
 Alpha virt. eigenvalues --    0.48136   0.48347   0.48562   0.48713   0.49068
 Alpha virt. eigenvalues --    0.49228   0.49947   0.50296   0.50500   0.51067
 Alpha virt. eigenvalues --    0.51573   0.51737   0.52014   0.52059   0.52792
 Alpha virt. eigenvalues --    0.53360   0.53908   0.54312   0.54948   0.55201
 Alpha virt. eigenvalues --    0.55340   0.55978   0.56607   0.56946   0.57546
 Alpha virt. eigenvalues --    0.57717   0.58108   0.58578   0.58725   0.59006
 Alpha virt. eigenvalues --    0.59384   0.59429   0.59834   0.60018   0.60433
 Alpha virt. eigenvalues --    0.60821   0.60886   0.61146   0.61270   0.61590
 Alpha virt. eigenvalues --    0.61638   0.61948   0.62245   0.62451   0.62773
 Alpha virt. eigenvalues --    0.63123   0.63305   0.63677   0.64027   0.64199
 Alpha virt. eigenvalues --    0.64606   0.65041   0.65227   0.65506   0.65897
 Alpha virt. eigenvalues --    0.66147   0.66239   0.66307   0.66571   0.66941
 Alpha virt. eigenvalues --    0.67176   0.67641   0.67697   0.67968   0.68300
 Alpha virt. eigenvalues --    0.68656   0.68842   0.69275   0.69407   0.69540
 Alpha virt. eigenvalues --    0.69668   0.70016   0.70556   0.70660   0.70940
 Alpha virt. eigenvalues --    0.71086   0.71367   0.71513   0.71718   0.71967
 Alpha virt. eigenvalues --    0.72628   0.72909   0.72970   0.73369   0.73486
 Alpha virt. eigenvalues --    0.73829   0.73968   0.74299   0.74893   0.75246
 Alpha virt. eigenvalues --    0.75627   0.76034   0.76633   0.76810   0.77258
 Alpha virt. eigenvalues --    0.78035   0.78600   0.79163   0.79557   0.79754
 Alpha virt. eigenvalues --    0.79980   0.80541   0.80861   0.80968   0.82446
 Alpha virt. eigenvalues --    0.83052   0.83185   0.84036   0.84217   0.84451
 Alpha virt. eigenvalues --    0.85607   0.86919   0.87224   0.88189   0.88822
 Alpha virt. eigenvalues --    0.89451   0.90326   0.90726   0.91994   0.92657
 Alpha virt. eigenvalues --    0.92736   0.93202   0.94070   0.94321   0.94762
 Alpha virt. eigenvalues --    0.95381   0.95898   0.96002   0.96519   0.97081
 Alpha virt. eigenvalues --    0.97264   0.97931   0.98045   0.98667   0.99114
 Alpha virt. eigenvalues --    1.00109   1.00784   1.01932   1.02778   1.03074
 Alpha virt. eigenvalues --    1.03745   1.04442   1.05012   1.06133   1.06349
 Alpha virt. eigenvalues --    1.06860   1.07526   1.07954   1.08758   1.09213
 Alpha virt. eigenvalues --    1.10658   1.11329   1.12705   1.13506   1.13917
 Alpha virt. eigenvalues --    1.14184   1.14991   1.15230   1.15836   1.16932
 Alpha virt. eigenvalues --    1.17413   1.18514   1.18944   1.19042   1.19793
 Alpha virt. eigenvalues --    1.20399   1.21529   1.21891   1.23206   1.23894
 Alpha virt. eigenvalues --    1.24305   1.25342   1.25902   1.26962   1.27248
 Alpha virt. eigenvalues --    1.27650   1.28168   1.29233   1.30261   1.30705
 Alpha virt. eigenvalues --    1.31207   1.31692   1.32286   1.32907   1.33326
 Alpha virt. eigenvalues --    1.34094   1.35125   1.35747   1.36437   1.37000
 Alpha virt. eigenvalues --    1.37487   1.37564   1.38224   1.38711   1.39074
 Alpha virt. eigenvalues --    1.39950   1.41491   1.41641   1.42504   1.43049
 Alpha virt. eigenvalues --    1.44169   1.44550   1.44920   1.46036   1.46416
 Alpha virt. eigenvalues --    1.46758   1.47439   1.47634   1.47919   1.48712
 Alpha virt. eigenvalues --    1.49053   1.49225   1.49361   1.49775   1.50442
 Alpha virt. eigenvalues --    1.50991   1.51165   1.51991   1.52312   1.53096
 Alpha virt. eigenvalues --    1.53160   1.54537   1.54905   1.55194   1.55521
 Alpha virt. eigenvalues --    1.56279   1.56731   1.57894   1.58063   1.59468
 Alpha virt. eigenvalues --    1.59632   1.60344   1.60756   1.61267   1.61490
 Alpha virt. eigenvalues --    1.61624   1.62029   1.62695   1.63620   1.64082
 Alpha virt. eigenvalues --    1.64339   1.64908   1.65431   1.65856   1.66215
 Alpha virt. eigenvalues --    1.66614   1.67035   1.67565   1.68116   1.68635
 Alpha virt. eigenvalues --    1.69158   1.69296   1.69586   1.69959   1.70053
 Alpha virt. eigenvalues --    1.70772   1.71421   1.71959   1.72685   1.73087
 Alpha virt. eigenvalues --    1.73317   1.73734   1.74457   1.74869   1.75562
 Alpha virt. eigenvalues --    1.75799   1.76050   1.76711   1.76816   1.77053
 Alpha virt. eigenvalues --    1.77491   1.77759   1.78183   1.78365   1.78823
 Alpha virt. eigenvalues --    1.79055   1.79776   1.79882   1.80216   1.80584
 Alpha virt. eigenvalues --    1.80798   1.80974   1.81440   1.81830   1.82706
 Alpha virt. eigenvalues --    1.83255   1.83351   1.83707   1.84181   1.84424
 Alpha virt. eigenvalues --    1.84603   1.85150   1.85264   1.85764   1.86231
 Alpha virt. eigenvalues --    1.86619   1.86740   1.87535   1.88012   1.88622
 Alpha virt. eigenvalues --    1.89114   1.89131   1.89372   1.89563   1.90385
 Alpha virt. eigenvalues --    1.91093   1.91476   1.92285   1.92375   1.93117
 Alpha virt. eigenvalues --    1.93450   1.94231   1.94456   1.95298   1.95665
 Alpha virt. eigenvalues --    1.96369   1.96920   1.97194   1.97359   1.98003
 Alpha virt. eigenvalues --    1.98454   1.98799   1.99101   1.99302   1.99832
 Alpha virt. eigenvalues --    2.00117   2.00744   2.00825   2.01894   2.02100
 Alpha virt. eigenvalues --    2.02401   2.03015   2.03851   2.04245   2.05067
 Alpha virt. eigenvalues --    2.05733   2.06328   2.06992   2.07342   2.08361
 Alpha virt. eigenvalues --    2.08455   2.08934   2.09973   2.10590   2.10662
 Alpha virt. eigenvalues --    2.12191   2.12472   2.13364   2.14002   2.14116
 Alpha virt. eigenvalues --    2.14190   2.15757   2.16974   2.17080   2.17431
 Alpha virt. eigenvalues --    2.18480   2.18676   2.19026   2.19363   2.20200
 Alpha virt. eigenvalues --    2.20583   2.21088   2.22334   2.22625   2.23019
 Alpha virt. eigenvalues --    2.23806   2.24441   2.24840   2.25759   2.26340
 Alpha virt. eigenvalues --    2.27192   2.28175   2.28851   2.29226   2.29455
 Alpha virt. eigenvalues --    2.30105   2.30591   2.31649   2.31698   2.33131
 Alpha virt. eigenvalues --    2.33178   2.34363   2.34476   2.35223   2.35264
 Alpha virt. eigenvalues --    2.36049   2.36998   2.38359   2.38951   2.40195
 Alpha virt. eigenvalues --    2.40654   2.41228   2.42231   2.43072   2.44047
 Alpha virt. eigenvalues --    2.44588   2.45236   2.45582   2.46343   2.47499
 Alpha virt. eigenvalues --    2.47786   2.48376   2.48530   2.49598   2.50985
 Alpha virt. eigenvalues --    2.51465   2.52489   2.52662   2.54677   2.55677
 Alpha virt. eigenvalues --    2.55890   2.56124   2.57035   2.57283   2.57961
 Alpha virt. eigenvalues --    2.58280   2.59264   2.60054   2.60799   2.61228
 Alpha virt. eigenvalues --    2.62582   2.62958   2.63628   2.63907   2.65020
 Alpha virt. eigenvalues --    2.65497   2.66745   2.67215   2.67568   2.68096
 Alpha virt. eigenvalues --    2.68777   2.69584   2.69894   2.70288   2.71269
 Alpha virt. eigenvalues --    2.71436   2.71562   2.71942   2.72502   2.72894
 Alpha virt. eigenvalues --    2.73993   2.74902   2.75267   2.76644   2.76829
 Alpha virt. eigenvalues --    2.77512   2.77681   2.78025   2.78659   2.79807
 Alpha virt. eigenvalues --    2.80656   2.81159   2.81713   2.82353   2.82642
 Alpha virt. eigenvalues --    2.84938   2.85871   2.86314   2.86769   2.87004
 Alpha virt. eigenvalues --    2.88257   2.88589   2.88765   2.89127   2.90019
 Alpha virt. eigenvalues --    2.91253   2.92546   2.93401   2.94090   2.95413
 Alpha virt. eigenvalues --    2.95638   2.95791   2.98091   2.99010   3.00314
 Alpha virt. eigenvalues --    3.01022   3.01820   3.02547   3.03556   3.04895
 Alpha virt. eigenvalues --    3.05846   3.06646   3.07534   3.09462   3.09934
 Alpha virt. eigenvalues --    3.13676   3.15483   3.16127   3.16772   3.17420
 Alpha virt. eigenvalues --    3.17787   3.19189   3.20795   3.21217   3.22181
 Alpha virt. eigenvalues --    3.24066   3.24675   3.26075   3.28287   3.29873
 Alpha virt. eigenvalues --    3.32089   3.37005   3.37609   3.40771   3.47647
 Alpha virt. eigenvalues --    3.52234   3.52620   3.55320   3.59790   3.59978
 Alpha virt. eigenvalues --    3.64263   3.69542   3.71437   3.72037   3.76229
 Alpha virt. eigenvalues --    3.79367
          Condensed to atoms (all electrons):
 Mulliken charges:
               1
     1  O   -0.081819
     2  O   -0.256955
     3  O   -0.151828
     4  O   -0.174068
     5  O   -0.260510
     6  O   -0.228165
     7  N   -0.110009
     8  N    0.046747
     9  N   -0.201281
    10  N   -0.402451
    11  C   -0.115517
    12  C    0.097476
    13  C   -0.114725
    14  C    0.012203
    15  C   -0.091304
    16  C    0.040127
    17  C   -0.116238
    18  C   -0.148426
    19  C    0.172060
    20  C   -0.087841
    21  C    0.060952
    22  C    0.043598
    23  C    0.011311
    24  C    0.308510
    25  C   -0.086804
    26  C   -0.013220
    27  C    0.099027
    28  C   -0.008438
    29  C   -0.227434
    30  C    0.151748
    31  C   -0.101745
    32  C   -0.009521
    33  C   -0.195899
    34  C    0.050929
    35  C   -0.050841
    36  C   -0.117907
    37  C    0.151817
    38  C    0.030042
    39  C    0.179973
    40  C    0.016826
    41  C    0.140715
    42  C    0.085582
    43  C   -0.039515
    44  H    0.196731
    45  H    0.070564
    46  H   -0.052141
    47  H   -0.010728
    48  H    0.032096
    49  H   -0.042882
    50  H   -0.054165
    51  H    0.049280
    52  H    0.054594
    53  H    0.027256
    54  H    0.070473
    55  H    0.027386
    56  H    0.191153
    57  H    0.058914
    58  H    0.047257
    59  H    0.144283
    60  H    0.057110
    61  H   -0.009979
    62  H    0.000086
    63  H    0.032562
    64  H   -0.017456
    65  H    0.044665
    66  H    0.047592
    67  H    0.011048
    68  H    0.008920
    69  H    0.078295
    70  H    0.010990
    71  H    0.052678
    72  H   -0.009691
    73  H    0.017041
    74  H    0.035292
    75  H    0.018752
    76  H    0.026980
    77  H    0.037455
    78  H    0.021761
    79  H    0.035392
    80  H    0.224021
    81  H    0.159230
 Sum of Mulliken charges =  -0.00000
 Mulliken charges with hydrogens summed into heavy atoms:
               1
     1  O   -0.081819
     2  O   -0.032934
     3  O    0.007402
     4  O   -0.174068
     5  O   -0.260510
     6  O   -0.228165
     7  N    0.086722
     8  N    0.101341
     9  N   -0.010128
    10  N   -0.402451
    11  C   -0.115517
    12  C    0.097476
    13  C   -0.114725
    14  C    0.012203
    15  C   -0.091304
    16  C    0.040127
    17  C   -0.045674
    18  C   -0.148426
    19  C    0.109191
    20  C   -0.055745
    21  C    0.060952
    22  C    0.043598
    23  C    0.011311
    24  C    0.211462
    25  C   -0.037524
    26  C    0.111895
    27  C    0.099027
    28  C    0.097733
    29  C   -0.026041
    30  C    0.174417
    31  C   -0.119201
    32  C    0.093783
    33  C   -0.186979
    34  C    0.050929
    35  C   -0.050841
    36  C   -0.117907
    37  C    0.151817
    38  C    0.172005
    39  C    0.179973
    40  C    0.024177
    41  C    0.140715
    42  C    0.166605
    43  C    0.055093
 Electronic spatial extent (au):  <R**2>=          30427.8077
 Charge=             -0.0000 electrons
 Dipole moment (field-independent basis, Debye):
    X=              2.3393    Y=             -1.9139    Z=              1.1032  Tot=              3.2175
 Quadrupole moment (field-independent basis, Debye-Ang):
   XX=           -254.9415   YY=           -236.3284   ZZ=           -252.9018
   XY=            -15.9168   XZ=             14.8118   YZ=             11.8191
 Traceless Quadrupole moment (field-independent basis, Debye-Ang):
   XX=             -6.8843   YY=             11.7288   ZZ=             -4.8445
   XY=            -15.9168   XZ=             14.8118   YZ=             11.8191
 Octapole moment (field-independent basis, Debye-Ang**2):
  XXX=            -37.9439  YYY=             48.0865  ZZZ=             32.8277  XYY=            166.1412
  XXY=            -14.7288  XXZ=             83.5942  XZZ=             61.3863  YZZ=            -46.1101
  YYZ=            -18.8941  XYZ=            -52.7555
 Hexadecapole moment (field-independent basis, Debye-Ang**3):
 XXXX=         -22616.8064 YYYY=         -15867.4937 ZZZZ=          -1615.8010 XXXY=           -765.7778
 XXXZ=            978.9982 YYYX=           -722.4546 YYYZ=            324.2402 ZZZX=             99.1183
 ZZZY=            -89.9645 XXYY=          -6458.6370 XXZZ=          -3977.8891 YYZZ=          -3026.8020
 XXYZ=            -30.6664 YYXZ=            239.6913 ZZXY=           -202.7998
 N-N= 5.043746157326D+03 E-N=-1.461866751384D+04  KE= 1.928003364803D+03
 1\1\GINC-RYZEN-SSD1\SP\RB3LYP TD-FC\SVP\C33H38N4O6\PADAWAN\04-Jul-2019
 \0\\# td=(NStates=1) B3LYP/SVP\\TD\\0,1\O,0,-4.4746175826,-4.678947976
 ,1.8644818118\O,0,2.7267632744,-4.7435189011,1.3147294047\O,0,6.970137
 3951,-1.6359411352,1.8936995905\O,0,3.7493166645,-3.1464137666,0.04267
 71261\O,0,7.6470134533,-0.3884902283,0.0084712778\O,0,-2.9718975186,2.
 4858259801,-0.1630512097\N,0,-0.2490192836,-0.5321125611,-0.6480734435
 \N,0,1.5473824209,1.8094333221,-0.5144131034\N,0,-3.3628832313,-3.0968
 087277,0.6617046418\N,0,-0.6607574786,2.9411345317,-0.1272577497\C,0,0
 .6102522576,-2.4689723355,-1.3188139645\C,0,0.9668056144,-1.1460945606
 ,-0.9583583911\C,0,-0.7972940545,-2.6622001094,-1.258626062\C,0,-1.241
 5762638,-1.4254661885,-0.7313145974\C,0,3.7971876601,1.4173162169,-0.3
 0243646\C,0,2.5379844914,0.8862499568,-0.5965212107\C,0,2.1836853728,-
 0.5365598018,-0.8438166267\C,0,3.6008239193,2.7524632545,-0.1116519381
 \C,0,1.6161627688,-3.4528005459,-1.8905892599\C,0,-5.5663859738,-2.635
 8554951,1.3753974797\C,0,-3.5671987828,-1.8128763496,0.1697507601\C,0,
 2.1516794281,2.9620826365,-0.1432318002\C,0,-5.0716533616,-1.536539157
 1,0.3431229512\C,0,5.1328217603,0.7234820182,-0.3060436608\C,0,-2.6588
 468469,-0.975444316,-0.5004304574\C,0,-1.4956074984,-3.8575802603,-1.7
 660098447\C,0,-4.3789253593,-3.6748859943,1.3973088455\C,0,2.006141090
 1,-4.5301652362,-0.8602188777\C,0,5.3387237487,-0.3728233462,0.7743155
 377\C,0,4.6072965159,3.9002512564,0.1076429481\C,0,1.3785490963,4.1500
 294104,0.0161417337\C,0,-7.0668978204,-3.1789852783,0.998779344\C,0,-5
 .8499635989,-0.659650695,-0.2678582602\C,0,-0.0219771867,4.1420588775,
 0.1326518908\C,0,-0.9846694286,5.1438054735,0.5107557042\C,0,-2.214186
 7449,4.6042665495,0.4385252554\C,0,2.9636792092,-4.019728592,0.1703384
 328\C,0,-5.4663312939,0.4811833469,-1.2164327103\C,0,6.8247650427,-0.7
 913874228,0.8488080034\C,0,-3.5925150108,5.1787641746,0.5215229674\C,0
 ,-2.0738008164,3.2984020315,0.0657474995\C,0,-0.4807922167,6.521866054
 6,0.9416592557\C,0,-4.2460431412,5.6132397289,-0.8160023759\H,0,-0.499
 4975147,0.4337890845,-0.1696875221\H,0,3.1712511397,-1.2945814602,-1.2
 084003486\H,0,2.3412353744,-2.8796526722,-2.2584982845\H,0,1.363443123
 6,-3.9479467123,-2.8034327098\H,0,-5.5430461108,-2.2473731264,2.376799
 8405\H,0,5.277178028,0.1417888954,-1.1101941724\H,0,5.8025422198,1.456
 3499443,-0.3577170713\H,0,-2.9928473804,0.0767921754,-0.4220051061\H,0
 ,0.5994462763,1.7939805811,-0.5348729594\H,0,-1.5892345147,-4.72360446
 46,-0.9305638621\H,0,-2.5494085706,-3.6076784698,-2.2362829485\H,0,-0.
 8768776389,-4.5886370381,-2.4549590989\H,0,-2.2384876066,-3.4685230007
 ,0.6436916162\H,0,0.969102717,-4.9359660791,-0.4641601335\H,0,2.609770
 1628,-5.3313858471,-1.3468391978\H,0,4.7142958506,-1.4708431354,0.1062
 912153\H,0,4.9586200616,-0.0832838918,1.9064451152\H,0,4.495537074,4.7
 436248299,-0.3753275155\H,0,5.5995765805,3.550557775,-0.0267161484\H,0
 ,4.4895083682,4.1438298911,1.3340747114\H,0,1.8271285449,5.1155514847,
 0.4594057275\H,0,-7.6874515168,-2.2148274772,1.1469693909\H,0,-7.32026
 76711,-4.1870464705,1.682350603\H,0,-7.2718553695,-3.5559533588,0.0407
 756668\H,0,-6.9718545272,-0.6811884501,0.0833002579\H,0,-5.3375385957,
 1.4339375907,-0.2812419723\H,0,-6.2673185616,0.9043180601,-1.786375316
 \H,0,-4.5233808336,0.2875055968,-1.7354247552\H,0,-3.6548753668,6.1494
 676026,1.1893266367\H,0,-4.272444922,4.489438076,1.1161037482\H,0,0.37
 74023055,6.2649084507,1.7027930118\H,0,-1.1670680901,7.2745541509,1.24
 87141278\H,0,0.1827174593,6.9212106216,0.1090772419\H,0,-3.6253428301,
 6.6106569488,-1.2669545116\H,0,-5.3509369168,5.8346962106,-0.738238965
 6\H,0,-4.1887934004,4.6234938417,-1.3440941478\H,0,3.3369990064,-4.512
 0954397,2.1414827853\H,0,7.9335405988,-1.6711377661,1.7848386465\\Vers
 ion=ES64L-G16RevA.03\State=1-A\HF=-1948.9906952\RMSD=6.711e-09\PG=C01 
 [X(C33H38N4O6)]\\@


 WHEN ALL ELSE FAILS, LOOK AT THE SCHRODINGER EQUATION.
     -- RUSSELL T. PACK, APRIL 1978
 Job cpu time:       0 days 16 hours 46 minutes 26.6 seconds.
 Elapsed time:       0 days  4 hours 12 minutes 51.6 seconds.
 File lengths (MBytes):  RWF=   2591 Int=      0 D2E=      0 Chk=     65 Scr=      1
 Normal termination of Gaussian 16 at Thu Jul  4 21:54:52 2019.
