 Entering Gaussian System, Link 0=g16
 Input=Geometria-187-.com
 Output=Geometria-187-.log
 Initial command:
 /usr/local/g16/l1.exe "/home/padawan/israel-mol/phycocyanobilin/spectra/abs/Gau-52839.inp" -scrdir="/home/padawan/israel-mol/phycocyanobilin/spectra/abs/"
 Entering Link 1 = /usr/local/g16/l1.exe PID=     52841.
  
 Copyright (c) 1988,1990,1992,1993,1995,1998,2003,2009,2016,
            Gaussian, Inc.  All Rights Reserved.
  
 This is part of the Gaussian(R) 16 program.  It is based on
 the Gaussian(R) 09 system (copyright 2009, Gaussian, Inc.),
 the Gaussian(R) 03 system (copyright 2003, Gaussian, Inc.),
 the Gaussian(R) 98 system (copyright 1998, Gaussian, Inc.),
 the Gaussian(R) 94 system (copyright 1995, Gaussian, Inc.),
 the Gaussian 92(TM) system (copyright 1992, Gaussian, Inc.),
 the Gaussian 90(TM) system (copyright 1990, Gaussian, Inc.),
 the Gaussian 88(TM) system (copyright 1988, Gaussian, Inc.),
 the Gaussian 86(TM) system (copyright 1986, Carnegie Mellon
 University), and the Gaussian 82(TM) system (copyright 1983,
 Carnegie Mellon University). Gaussian is a federally registered
 trademark of Gaussian, Inc.
  
 This software contains proprietary and confidential information,
 including trade secrets, belonging to Gaussian, Inc.
  
 This software is provided under written license and may be
 used, copied, transmitted, or stored only in accord with that
 written license.
  
 The following legend is applicable only to US Government
 contracts under FAR:
  
                    RESTRICTED RIGHTS LEGEND
  
 Use, reproduction and disclosure by the US Government is
 subject to restrictions as set forth in subparagraphs (a)
 and (c) of the Commercial Computer Software - Restricted
 Rights clause in FAR 52.227-19.
  
 Gaussian, Inc.
 340 Quinnipiac St., Bldg. 40, Wallingford CT 06492
  
  
 ---------------------------------------------------------------
 Warning -- This program may not be used in any manner that
 competes with the business of Gaussian, Inc. or will provide
 assistance to any competitor of Gaussian, Inc.  The licensee
 of this program is prohibited from giving any competitor of
 Gaussian, Inc. access to this program.  By using this program,
 the user acknowledges that Gaussian, Inc. is engaged in the
 business of creating and licensing software in the field of
 computational chemistry and represents and warrants to the
 licensee that it is not a competitor of Gaussian, Inc. and that
 it will not use this program in any manner prohibited above.
 ---------------------------------------------------------------
  

 Cite this work as:
 Gaussian 16, Revision A.03,
 M. J. Frisch, G. W. Trucks, H. B. Schlegel, G. E. Scuseria, 
 M. A. Robb, J. R. Cheeseman, G. Scalmani, V. Barone, 
 G. A. Petersson, H. Nakatsuji, X. Li, M. Caricato, A. V. Marenich, 
 J. Bloino, B. G. Janesko, R. Gomperts, B. Mennucci, H. P. Hratchian, 
 J. V. Ortiz, A. F. Izmaylov, J. L. Sonnenberg, D. Williams-Young, 
 F. Ding, F. Lipparini, F. Egidi, J. Goings, B. Peng, A. Petrone, 
 T. Henderson, D. Ranasinghe, V. G. Zakrzewski, J. Gao, N. Rega, 
 G. Zheng, W. Liang, M. Hada, M. Ehara, K. Toyota, R. Fukuda, 
 J. Hasegawa, M. Ishida, T. Nakajima, Y. Honda, O. Kitao, H. Nakai, 
 T. Vreven, K. Throssell, J. A. Montgomery, Jr., J. E. Peralta, 
 F. Ogliaro, M. J. Bearpark, J. J. Heyd, E. N. Brothers, K. N. Kudin, 
 V. N. Staroverov, T. A. Keith, R. Kobayashi, J. Normand, 
 K. Raghavachari, A. P. Rendell, J. C. Burant, S. S. Iyengar, 
 J. Tomasi, M. Cossi, J. M. Millam, M. Klene, C. Adamo, R. Cammi, 
 J. W. Ochterski, R. L. Martin, K. Morokuma, O. Farkas, 
 J. B. Foresman, and D. J. Fox, Gaussian, Inc., Wallingford CT, 2016.
 
 ******************************************
 Gaussian 16:  ES64L-G16RevA.03 25-Dec-2016
                30-Jun-2019 
 ******************************************
 %nproc=4
 Will use up to    4 processors via shared memory.
 %Mem=4GB
 --------------------------
 # td=(NStates=1) B3LYP/SVP
 --------------------------
 1/38=1,172=1/1;
 2/12=2,17=6,18=5,40=1/2;
 3/5=18,7=101,11=9,25=1,30=1,74=-5/1,2,3,8;
 4//1;
 5/5=2,38=5/2;
 8/6=1,10=1,108=1/1;
 9/41=1,42=1,70=2/14;
 6/7=2,8=2,9=2,10=2/1;
 99/5=1,9=1/99;
 --
 TD
 --
 Symbolic Z-matrix:
 Charge =  0 Multiplicity = 1
 8                    -4.49807  -4.68451   1.94854 
 8                     3.22106  -4.63895   1.52341 
 8                     6.934    -1.70505   1.70877 
 8                     3.79506  -3.00911   0.11754 
 8                     7.6691   -0.61182  -0.22089 
 8                    -3.05533   2.56342  -0.12962 
 7                    -0.2845   -0.64621  -0.48563 
 7                     1.49906   1.7432   -0.39613 
 7                    -3.41274  -3.0898    0.71169 
 7                    -0.6896    2.90706   0.0175 
 6                     0.67521  -2.48817  -1.32813 
 6                     0.894    -1.13186  -0.93984 
 6                    -0.78987  -2.6607   -1.21638 
 6                    -1.31818  -1.50127  -0.70693 
 6                     3.74982   1.42356  -0.42759 
 6                     2.39898   0.75932  -0.60993 
 6                     2.16369  -0.58677  -0.85546 
 6                     3.54182   2.74376  -0.10924 
 6                     1.64103  -3.49712  -1.73276 
 6                    -5.60694  -2.68079   1.15419 
 6                    -3.68655  -1.87187  -0.00814 
 6                     2.09827   2.95498  -0.09063 
 6                    -5.10598  -1.53711   0.18051 
 6                     5.07735   0.70971  -0.50119 
 6                    -2.7295   -1.09443  -0.65477 
 6                    -1.45384  -3.92671  -1.78204 
 6                    -4.51331  -3.66858   1.26249 
 6                     2.08562  -4.5394   -0.58236 
 6                     5.4358   -0.02157   0.83977 
 6                     4.49191   3.78464   0.10591 
 6                     1.36626   4.06209   0.17457 
 6                    -7.06336  -3.18441   0.85932 
 6                    -5.92766  -0.48672  -0.35067 
 6                    -0.0602    4.01609   0.1839 
 6                    -0.96472   5.17448   0.51429 
 6                    -2.1971    4.70316   0.45267 
 6                     3.07593  -3.89619   0.38623 
 6                    -5.46932   0.56467  -1.29035 
 6                     6.74244  -0.75666   0.63311 
 6                    -3.48021   5.31747   0.65931 
 6                    -2.04418   3.29425   0.04451 
 6                    -0.41036   6.49233   0.93816 
 6                    -4.14002   5.61353  -0.66704 
 1                    -0.45072   0.1862   -0.00695 
 1                     3.08119  -1.20262  -1.27948 
 1                     2.58489  -3.01115  -2.13451 
 1                     1.51583  -3.87406  -2.60941 
 1                    -5.87676  -2.27653   2.22472 
 1                     5.16055  -0.03411  -1.29654 
 1                     6.01328   1.26647  -0.75469 
 1                    -2.94137  -0.0074   -0.61439 
 1                     0.57262   1.70749  -0.73702 
 1                    -1.57777  -4.77264  -1.16673 
 1                    -2.4941   -3.72144  -1.87049 
 1                    -1.03182  -4.27228  -2.76235 
 1                    -2.51144  -3.53966   0.78435 
 1                     1.22858  -4.92824  -0.13005 
 1                     2.50132  -5.37632  -1.08661 
 1                     4.67695  -0.9931    0.90518 
 1                     5.28088   0.42258   1.69267 
 1                     4.09792   5.02609  -0.01566 
 1                     5.53583   3.68199  -0.3131 
 1                     4.55297   3.67976   1.27883 
 1                     1.9689    4.99943   0.41189 
 1                    -7.91683  -2.38013   1.1086 
 1                    -7.24523  -4.14001   1.52252 
 1                    -7.35425  -3.41127  -0.19659 
 1                    -6.95551  -0.60143  -0.23162 
 1                    -4.78265   1.47527  -0.85715 
 1                    -6.13279   1.05519  -1.70168 
 1                    -4.75141   0.23686  -2.18614 
 1                    -3.46995   6.22124   1.2789 
 1                    -4.04265   4.56131   1.06356 
 1                     0.21986   6.44519   1.76162 
 1                    -1.26657   7.33714   0.88983 
 1                     0.29684   6.66636   0.14424 
 1                    -3.64748   6.6902   -1.14114 
 1                    -5.16894   5.90987  -0.53813 
 1                    -4.1193    4.8746   -1.46088 
 1                     3.93428  -4.23503   2.08859 
 1                     7.78228  -1.90704   1.4701 
 
 Stoichiometry    C33H38N4O6
 Framework group  C1[X(C33H38N4O6)]
 Deg. of freedom   237
 Full point group                 C1      NOp   1
 Largest Abelian subgroup         C1      NOp   1
 Largest concise Abelian subgroup C1      NOp   1
                         Standard orientation:                         
 ---------------------------------------------------------------------
 Center     Atomic      Atomic             Coordinates (Angstroms)
 Number     Number       Type             X           Y           Z
 ---------------------------------------------------------------------
      1          8           0       -4.493357   -4.690192    1.951160
      2          8           0        3.225312   -4.637307    1.518528
      3          8           0        6.935793   -1.700230    1.702855
      4          8           0        3.796469   -3.005711    0.113544
      5          8           0        7.668013   -0.604639   -0.226557
      6          8           0       -3.059165    2.560870   -0.121995
      7          7           0       -0.285806   -0.645956   -0.483550
      8          7           0        1.495691    1.744979   -0.393684
      9          7           0       -3.410670   -3.093412    0.714661
     10          7           0       -0.693607    2.906507    0.023112
     11          6           0        0.674737   -2.486306   -1.328625
     12          6           0        0.892687   -1.130143   -0.939341
     13          6           0       -0.790079   -2.660250   -1.215593
     14          6           0       -1.318934   -1.501750   -0.704601
     15          6           0        3.746712    1.427394   -0.427624
     16          6           0        2.396289    0.762100   -0.609235
     17          6           0        2.161973   -0.583986   -0.855721
     18          6           0        3.537831    2.747129   -0.107906
     19          6           0        1.641065   -3.494029   -1.735089
     20          6           0       -5.604805   -2.686771    1.159662
     21          6           0       -3.686282   -1.875098   -0.003820
     22          6           0        2.094116    2.957033   -0.087693
     23          6           0       -5.105823   -1.541780    0.186506
     24          6           0        5.074804    0.714808   -0.503157
     25          6           0       -2.730567   -1.096220   -0.650696
     26          6           0       -1.453463   -3.926354   -1.781723
     27          6           0       -4.510180   -3.673667    1.266020
     28          6           0        2.087721   -4.536916   -0.586044
     29          6           0        5.435230   -0.017333    0.836810
     30          6           0        4.487201    3.788671    0.107241
     31          6           0        1.361365    4.063247    0.179195
     32          6           0       -7.061057   -3.191437    0.865770
     33          6           0       -5.928971   -0.491665   -0.342934
     34          6           0       -0.065043    4.015951    0.189878
     35          6           0       -0.970277    5.173236    0.522175
     36          6           0       -2.202290    4.700859    0.461343
     37          6           0        3.078400   -3.893671    0.382147
     38          6           0       -5.472496    0.560972   -1.282135
     39          6           0        6.742321   -0.751069    0.628218
     40          6           0       -3.485758    5.313833    0.669780
     41          6           0       -2.048505    3.292454    0.051787
     42          6           0       -0.416686    6.491214    0.946672
     43          6           0       -4.147129    5.610472   -0.655656
     44          1           0       -0.452306    0.185889   -0.003976
     45          1           0        3.079610   -1.198633   -1.281181
     46          1           0        2.584098   -3.006846   -2.137324
     47          1           0        1.515349   -3.870301   -2.611949
     48          1           0       -5.873941   -2.283696    2.230822
     49          1           0        5.157895   -0.028233   -1.299245
     50          1           0        6.009991    1.272634   -0.757072
     51          1           0       -2.943373   -0.009417   -0.609156
     52          1           0        0.568957    1.708742   -0.733702
     53          1           0       -1.576030   -4.772941   -1.167036
     54          1           0       -2.493993   -3.721945   -1.868969
     55          1           0       -1.032091   -4.270676   -2.762748
     56          1           0       -2.508902   -3.542527    0.786038
     57          1           0        1.231473   -4.926926   -0.133237
     58          1           0        2.503680   -5.373020   -1.091442
     59          1           0        4.677317   -0.989600    0.902101
     60          1           0        5.280743    0.425919    1.690255
     61          1           0        4.091969    5.029876   -0.012850
     62          1           0        5.530798    3.687332   -0.312887
     63          1           0        4.549502    3.682814    1.280004
     64          1           0        1.963398    5.000919    0.416759
     65          1           0       -7.915012   -2.388154    1.116596
     66          1           0       -7.241421   -4.147792    1.528311
     67          1           0       -7.352781   -3.417628   -0.190049
     68          1           0       -6.956602   -0.607402   -0.222986
     69          1           0       -4.786224    1.471807   -0.848800
     70          1           0       -6.136803    1.051260   -1.692379
     71          1           0       -4.755170    0.234599   -2.178915
     72          1           0       -3.475698    6.217070    1.290158
     73          1           0       -4.047120    4.556807    1.073913
     74          1           0        0.214373    6.443907    1.769473
     75          1           0       -1.273705    7.335292    0.899925
     76          1           0        0.289575    6.666574    0.152217
     77          1           0       -3.656014    6.688009   -1.129289
     78          1           0       -5.176185    5.905776   -0.525480
     79          1           0       -4.126515    4.872262   -1.450167
     80          1           0        3.938717   -4.233244    2.083365
     81          1           0        7.784012   -1.901249    1.463174
 ---------------------------------------------------------------------
 Rotational constants (GHZ):           0.0769819           0.0543870           0.0339918
 Standard basis: SVP (5D, 7F)
 There are   835 symmetry adapted cartesian basis functions of A   symmetry.
 There are   792 symmetry adapted basis functions of A   symmetry.
   792 basis functions,  1341 primitive gaussians,   835 cartesian basis functions
   156 alpha electrons      156 beta electrons
       nuclear repulsion energy      5047.7473538707 Hartrees.
 NAtoms=   81 NActive=   81 NUniq=   81 SFac= 1.00D+00 NAtFMM=   60 NAOKFM=T Big=T
 Integral buffers will be    131072 words long.
 Regular integral format.
 Two-electron integral symmetry is turned on.
 One-electron integrals computed using PRISM.
 NBasis=   792 RedAO= T EigKep=  3.26D-04  NBF=   792
 NBsUse=   792 1.00D-06 EigRej= -1.00D+00 NBFU=   792
 ExpMin= 1.22D-01 ExpMax= 2.27D+03 ExpMxC= 3.41D+02 IAcc=3 IRadAn=         5 AccDes= 0.00D+00
 Harris functional with IExCor=  402 and IRadAn=       5 diagonalized for initial guess.
 HarFok:  IExCor=  402 AccDes= 0.00D+00 IRadAn=         5 IDoV= 1 UseB2=F ITyADJ=14
 ICtDFT=  3500011 ScaDFX=  1.000000  1.000000  1.000000  1.000000
 FoFCou: FMM=F IPFlag=           0 FMFlag=      100000 FMFlg1=        2001
         NFxFlg=           0 DoJE=T BraDBF=F KetDBF=T FulRan=T
         wScrn=  0.000000 ICntrl=       500 IOpCl=  0 I1Cent=   200000004 NGrid=           0
         NMat0=    1 NMatS0=      1 NMatT0=    0 NMatD0=    1 NMtDS0=    0 NMtDT0=    0
 Petite list used in FoFCou.
 Requested convergence on RMS density matrix=1.00D-08 within 128 cycles.
 Requested convergence on MAX density matrix=1.00D-06.
 Requested convergence on             energy=1.00D-06.
 No special actions if energy rises.
 Integral accuracy reduced to 1.0D-05 until final iterations.
 Initial convergence to 1.0D-05 achieved.  Increase integral accuracy.
 SCF Done:  E(RB3LYP) =  -1949.08895849     A.U. after   16 cycles
            NFock= 16  Conv=0.62D-08     -V/T= 2.0103
 DoSCS=F DFT=T ScalE2(SS,OS)=  1.000000  1.000000
 ExpMin= 1.22D-01 ExpMax= 2.27D+03 ExpMxC= 3.41D+02 IAcc=3 IRadAn=         5 AccDes= 0.00D+00
 HarFok:  IExCor=  205 AccDes= 0.00D+00 IRadAn=         5 IDoV=-2 UseB2=F ITyADJ=14
 ICtDFT= 12500011 ScaDFX=  1.000000  1.000000  1.000000  1.000000
 GSVD:  LWork=       -2193 too small for GESVD, short by        9890 words or        9890 for optimal perf.
 Range of M.O.s used for correlation:    44   792
 NBasis=   792 NAE=   156 NBE=   156 NFC=    43 NFV=     0
 NROrb=    749 NOA=   113 NOB=   113 NVA=   636 NVB=   636

 **** Warning!!: The smallest alpha delta epsilon is  0.73977339D-01

 Orbital symmetries:
       Occupied  (A) (A) (A) (A) (A) (A) (A) (A) (A) (A) (A) (A)
                 (A) (A) (A) (A) (A) (A) (A) (A) (A) (A) (A) (A)
                 (A) (A) (A) (A) (A) (A) (A) (A) (A) (A) (A) (A)
                 (A) (A) (A) (A) (A) (A) (A) (A) (A) (A) (A) (A)
                 (A) (A) (A) (A) (A) (A) (A) (A) (A) (A) (A) (A)
                 (A) (A) (A) (A) (A) (A) (A) (A) (A) (A) (A) (A)
                 (A) (A) (A) (A) (A) (A) (A) (A) (A) (A) (A) (A)
                 (A) (A) (A) (A) (A) (A) (A) (A) (A) (A) (A) (A)
                 (A) (A) (A) (A) (A) (A) (A) (A) (A) (A) (A) (A)
                 (A) (A) (A) (A) (A) (A) (A) (A) (A) (A) (A) (A)
                 (A) (A) (A) (A) (A) (A) (A) (A) (A) (A) (A) (A)
                 (A) (A) (A) (A) (A) (A) (A) (A) (A) (A) (A) (A)
                 (A) (A) (A) (A) (A) (A) (A) (A) (A) (A) (A) (A)
       Virtual   (A) (A) (A) (A) (A) (A) (A) (A) (A) (A) (A) (A)
                 (A) (A) (A) (A) (A) (A) (A) (A) (A) (A) (A) (A)
                 (A) (A) (A) (A) (A) (A) (A) (A) (A) (A) (A) (A)
                 (A) (A) (A) (A) (A) (A) (A) (A) (A) (A) (A) (A)
                 (A) (A) (A) (A) (A) (A) (A) (A) (A) (A) (A) (A)
                 (A) (A) (A) (A) (A) (A) (A) (A) (A) (A) (A) (A)
                 (A) (A) (A) (A) (A) (A) (A) (A) (A) (A) (A) (A)
                 (A) (A) (A) (A) (A) (A) (A) (A) (A) (A) (A) (A)
                 (A) (A) (A) (A) (A) (A) (A) (A) (A) (A) (A) (A)
                 (A) (A) (A) (A) (A) (A) (A) (A) (A) (A) (A) (A)
                 (A) (A) (A) (A) (A) (A) (A) (A) (A) (A) (A) (A)
                 (A) (A) (A) (A) (A) (A) (A) (A) (A) (A) (A) (A)
                 (A) (A) (A) (A) (A) (A) (A) (A) (A) (A) (A) (A)
                 (A) (A) (A) (A) (A) (A) (A) (A) (A) (A) (A) (A)
                 (A) (A) (A) (A) (A) (A) (A) (A) (A) (A) (A) (A)
                 (A) (A) (A) (A) (A) (A) (A) (A) (A) (A) (A) (A)
                 (A) (A) (A) (A) (A) (A) (A) (A) (A) (A) (A) (A)
                 (A) (A) (A) (A) (A) (A) (A) (A) (A) (A) (A) (A)
                 (A) (A) (A) (A) (A) (A) (A) (A) (A) (A) (A) (A)
                 (A) (A) (A) (A) (A) (A) (A) (A) (A) (A) (A) (A)
                 (A) (A) (A) (A) (A) (A) (A) (A) (A) (A) (A) (A)
                 (A) (A) (A) (A) (A) (A) (A) (A) (A) (A) (A) (A)
                 (A) (A) (A) (A) (A) (A) (A) (A) (A) (A) (A) (A)
                 (A) (A) (A) (A) (A) (A) (A) (A) (A) (A) (A) (A)
                 (A) (A) (A) (A) (A) (A) (A) (A) (A) (A) (A) (A)
                 (A) (A) (A) (A) (A) (A) (A) (A) (A) (A) (A) (A)
                 (A) (A) (A) (A) (A) (A) (A) (A) (A) (A) (A) (A)
                 (A) (A) (A) (A) (A) (A) (A) (A) (A) (A) (A) (A)
                 (A) (A) (A) (A) (A) (A) (A) (A) (A) (A) (A) (A)
                 (A) (A) (A) (A) (A) (A) (A) (A) (A) (A) (A) (A)
                 (A) (A) (A) (A) (A) (A) (A) (A) (A) (A) (A) (A)
                 (A) (A) (A) (A) (A) (A) (A) (A) (A) (A) (A) (A)
                 (A) (A) (A) (A) (A) (A) (A) (A) (A) (A) (A) (A)
                 (A) (A) (A) (A) (A) (A) (A) (A) (A) (A) (A) (A)
                 (A) (A) (A) (A) (A) (A) (A) (A) (A) (A) (A) (A)
                 (A) (A) (A) (A) (A) (A) (A) (A) (A) (A) (A) (A)
                 (A) (A) (A) (A) (A) (A) (A) (A) (A) (A) (A) (A)
                 (A) (A) (A) (A) (A) (A) (A) (A) (A) (A) (A) (A)
                 (A) (A) (A) (A) (A) (A) (A) (A) (A) (A) (A) (A)
                 (A) (A) (A) (A) (A) (A) (A) (A) (A) (A) (A) (A)
                 (A) (A) (A) (A) (A) (A) (A) (A) (A) (A) (A) (A)
                 (A) (A) (A) (A) (A) (A) (A) (A) (A) (A) (A) (A)
                 (A) (A) (A) (A) (A) (A) (A) (A) (A) (A) (A) (A)
                 (A) (A) (A) (A) (A) (A) (A) (A) (A) (A) (A) (A)
                 (A) (A) (A) (A) (A) (A) (A) (A) (A) (A) (A) (A)
                 (A) (A) (A) (A) (A) (A) (A) (A) (A) (A) (A) (A)
                 (A) (A) (A) (A) (A) (A) (A) (A) (A) (A) (A) (A)
                 (A) (A) (A) (A) (A) (A) (A) (A) (A) (A) (A) (A)
                 (A) (A) (A) (A) (A) (A) (A) (A) (A) (A) (A) (A)
                 (A) (A) (A) (A) (A) (A) (A) (A) (A) (A) (A) (A)
                 (A) (A) (A) (A) (A) (A) (A) (A) (A) (A) (A) (A)
                 (A) (A) (A) (A) (A) (A) (A) (A) (A) (A) (A) (A)
                 (A) (A) (A) (A) (A) (A) (A) (A) (A) (A) (A) (A)
     4 initial guesses have been made.
 Convergence on wavefunction:    0.001000000000000
 Iteration     1 Dimension     4 NMult     0 NNew      4
 CISAX will form     4 AO SS matrices at one time.
 Iteration     2 Dimension     6 NMult     4 NNew      2
 Iteration     3 Dimension     8 NMult     6 NNew      2
 Iteration     4 Dimension    10 NMult     8 NNew      2
 Iteration     5 Dimension    12 NMult    10 NNew      2
 Iteration     6 Dimension    14 NMult    12 NNew      2
 ***********************************************************************
 Excited states from <AA,BB:AA,BB> singles matrix:
 ***********************************************************************
 
 Ground to excited state transition densities written to RWF  633
 Ground to excited state transition electric dipole moments (Au):
       state          X           Y           Z        Dip. S.      Osc.
         1         0.8938      2.6068      0.2649      7.6643      0.3536
 Ground to excited state transition velocity dipole moments (Au):
       state          X           Y           Z        Dip. S.      Osc.
         1        -0.0622     -0.1737     -0.0172      0.0343      0.3309
 Ground to excited state transition magnetic dipole moments (Au):
       state          X           Y           Z
         1        -0.3486      0.5131     -2.1653
 Ground to excited state transition velocity quadrupole moments (Au):
       state          XX          YY          ZZ          XY          XZ          YZ
         1         0.5303     -0.6521      0.0756      0.4070     -0.0037     -0.0341
 <0|del|b> * <b|rxdel|0> + <0|del|b> * <b|delr+rdel|0>
 Rotatory Strengths (R) in cgs (10**-40 erg-esu-cm/Gauss)
       state          XX          YY          ZZ    R(velocity)    E-M Angle
         1      -304.2459    347.5086   -352.3268   -103.0213       94.16
 1/2[<0|r|b>*<b|rxdel|0> + (<0|rxdel|b>*<b|r|0>)*]
 Rotatory Strengths (R) in cgs (10**-40 erg-esu-cm/Gauss)
       state          XX          YY          ZZ     R(length)
         1       220.3121   -945.8439    405.6406   -106.6304
  1/2[<0|del|b>*<b|r|0> + (<0|r|b>*<b|del|0>)*] (Au)
       state          X           Y           Z        Dip. S.   Osc.(frdel)
         1        -0.0556     -0.4529     -0.0046      0.5130      0.3420

 Excitation energies and oscillator strengths:
 
 Excited State   1:      Singlet-A      1.8833 eV  658.34 nm  f=0.3536  <S**2>=0.000
     156 ->157         0.70551
     156 <-157        -0.11454
 This state for optimization and/or second-order correction.
 Total Energy, E(TD-HF/TD-DFT) =  -1949.01974909    
 Copying the excited state density for this state as the 1-particle RhoCI density.
 SavETr:  write IOETrn=   770 NScale= 10 NData=  16 NLR=1 NState=    1 LETran=      28.

 **********************************************************************

            Population analysis using the SCF density.

 **********************************************************************

 Orbital symmetries:
       Occupied  (A) (A) (A) (A) (A) (A) (A) (A) (A) (A) (A) (A)
                 (A) (A) (A) (A) (A) (A) (A) (A) (A) (A) (A) (A)
                 (A) (A) (A) (A) (A) (A) (A) (A) (A) (A) (A) (A)
                 (A) (A) (A) (A) (A) (A) (A) (A) (A) (A) (A) (A)
                 (A) (A) (A) (A) (A) (A) (A) (A) (A) (A) (A) (A)
                 (A) (A) (A) (A) (A) (A) (A) (A) (A) (A) (A) (A)
                 (A) (A) (A) (A) (A) (A) (A) (A) (A) (A) (A) (A)
                 (A) (A) (A) (A) (A) (A) (A) (A) (A) (A) (A) (A)
                 (A) (A) (A) (A) (A) (A) (A) (A) (A) (A) (A) (A)
                 (A) (A) (A) (A) (A) (A) (A) (A) (A) (A) (A) (A)
                 (A) (A) (A) (A) (A) (A) (A) (A) (A) (A) (A) (A)
                 (A) (A) (A) (A) (A) (A) (A) (A) (A) (A) (A) (A)
                 (A) (A) (A) (A) (A) (A) (A) (A) (A) (A) (A) (A)
       Virtual   (A) (A) (A) (A) (A) (A) (A) (A) (A) (A) (A) (A)
                 (A) (A) (A) (A) (A) (A) (A) (A) (A) (A) (A) (A)
                 (A) (A) (A) (A) (A) (A) (A) (A) (A) (A) (A) (A)
                 (A) (A) (A) (A) (A) (A) (A) (A) (A) (A) (A) (A)
                 (A) (A) (A) (A) (A) (A) (A) (A) (A) (A) (A) (A)
                 (A) (A) (A) (A) (A) (A) (A) (A) (A) (A) (A) (A)
                 (A) (A) (A) (A) (A) (A) (A) (A) (A) (A) (A) (A)
                 (A) (A) (A) (A) (A) (A) (A) (A) (A) (A) (A) (A)
                 (A) (A) (A) (A) (A) (A) (A) (A) (A) (A) (A) (A)
                 (A) (A) (A) (A) (A) (A) (A) (A) (A) (A) (A) (A)
                 (A) (A) (A) (A) (A) (A) (A) (A) (A) (A) (A) (A)
                 (A) (A) (A) (A) (A) (A) (A) (A) (A) (A) (A) (A)
                 (A) (A) (A) (A) (A) (A) (A) (A) (A) (A) (A) (A)
                 (A) (A) (A) (A) (A) (A) (A) (A) (A) (A) (A) (A)
                 (A) (A) (A) (A) (A) (A) (A) (A) (A) (A) (A) (A)
                 (A) (A) (A) (A) (A) (A) (A) (A) (A) (A) (A) (A)
                 (A) (A) (A) (A) (A) (A) (A) (A) (A) (A) (A) (A)
                 (A) (A) (A) (A) (A) (A) (A) (A) (A) (A) (A) (A)
                 (A) (A) (A) (A) (A) (A) (A) (A) (A) (A) (A) (A)
                 (A) (A) (A) (A) (A) (A) (A) (A) (A) (A) (A) (A)
                 (A) (A) (A) (A) (A) (A) (A) (A) (A) (A) (A) (A)
                 (A) (A) (A) (A) (A) (A) (A) (A) (A) (A) (A) (A)
                 (A) (A) (A) (A) (A) (A) (A) (A) (A) (A) (A) (A)
                 (A) (A) (A) (A) (A) (A) (A) (A) (A) (A) (A) (A)
                 (A) (A) (A) (A) (A) (A) (A) (A) (A) (A) (A) (A)
                 (A) (A) (A) (A) (A) (A) (A) (A) (A) (A) (A) (A)
                 (A) (A) (A) (A) (A) (A) (A) (A) (A) (A) (A) (A)
                 (A) (A) (A) (A) (A) (A) (A) (A) (A) (A) (A) (A)
                 (A) (A) (A) (A) (A) (A) (A) (A) (A) (A) (A) (A)
                 (A) (A) (A) (A) (A) (A) (A) (A) (A) (A) (A) (A)
                 (A) (A) (A) (A) (A) (A) (A) (A) (A) (A) (A) (A)
                 (A) (A) (A) (A) (A) (A) (A) (A) (A) (A) (A) (A)
                 (A) (A) (A) (A) (A) (A) (A) (A) (A) (A) (A) (A)
                 (A) (A) (A) (A) (A) (A) (A) (A) (A) (A) (A) (A)
                 (A) (A) (A) (A) (A) (A) (A) (A) (A) (A) (A) (A)
                 (A) (A) (A) (A) (A) (A) (A) (A) (A) (A) (A) (A)
                 (A) (A) (A) (A) (A) (A) (A) (A) (A) (A) (A) (A)
                 (A) (A) (A) (A) (A) (A) (A) (A) (A) (A) (A) (A)
                 (A) (A) (A) (A) (A) (A) (A) (A) (A) (A) (A) (A)
                 (A) (A) (A) (A) (A) (A) (A) (A) (A) (A) (A) (A)
                 (A) (A) (A) (A) (A) (A) (A) (A) (A) (A) (A) (A)
                 (A) (A) (A) (A) (A) (A) (A) (A) (A) (A) (A) (A)
                 (A) (A) (A) (A) (A) (A) (A) (A) (A) (A) (A) (A)
                 (A) (A) (A) (A) (A) (A) (A) (A) (A) (A) (A) (A)
                 (A) (A) (A) (A) (A) (A) (A) (A) (A) (A) (A) (A)
                 (A) (A) (A) (A) (A) (A) (A) (A) (A) (A) (A) (A)
                 (A) (A) (A) (A) (A) (A) (A) (A) (A) (A) (A) (A)
                 (A) (A) (A) (A) (A) (A) (A) (A) (A) (A) (A) (A)
                 (A) (A) (A) (A) (A) (A) (A) (A) (A) (A) (A) (A)
                 (A) (A) (A) (A) (A) (A) (A) (A) (A) (A) (A) (A)
                 (A) (A) (A) (A) (A) (A) (A) (A) (A) (A) (A) (A)
                 (A) (A) (A) (A) (A) (A) (A) (A) (A) (A) (A) (A)
                 (A) (A) (A) (A) (A) (A) (A) (A) (A) (A) (A) (A)
 The electronic state is 1-A.
 Alpha  occ. eigenvalues --  -19.18939 -19.17366 -19.14708 -19.14687 -19.11243
 Alpha  occ. eigenvalues --  -19.10184 -14.37327 -14.37204 -14.36114 -14.29568
 Alpha  occ. eigenvalues --  -10.33826 -10.33431 -10.28634 -10.27143 -10.24999
 Alpha  occ. eigenvalues --  -10.24150 -10.23508 -10.23161 -10.22771 -10.22680
 Alpha  occ. eigenvalues --  -10.22629 -10.21557 -10.21335 -10.21315 -10.21191
 Alpha  occ. eigenvalues --  -10.21178 -10.21155 -10.20940 -10.20644 -10.20639
 Alpha  occ. eigenvalues --  -10.20444 -10.19865 -10.19700 -10.19474 -10.19328
 Alpha  occ. eigenvalues --  -10.19320 -10.19175 -10.19148 -10.18847 -10.18845
 Alpha  occ. eigenvalues --  -10.17911 -10.17866 -10.17378  -1.11388  -1.08150
 Alpha  occ. eigenvalues --   -1.02753  -1.02660  -1.00735  -0.99575  -0.99423
 Alpha  occ. eigenvalues --   -0.98422  -0.94395  -0.93755  -0.82902  -0.82374
 Alpha  occ. eigenvalues --   -0.81869  -0.81268  -0.80245  -0.79431  -0.78126
 Alpha  occ. eigenvalues --   -0.77287  -0.76671  -0.76051  -0.74559  -0.72556
 Alpha  occ. eigenvalues --   -0.71522  -0.70330  -0.69813  -0.69471  -0.68028
 Alpha  occ. eigenvalues --   -0.67346  -0.65343  -0.64621  -0.62473  -0.61837
 Alpha  occ. eigenvalues --   -0.61282  -0.59208  -0.58351  -0.57787  -0.57413
 Alpha  occ. eigenvalues --   -0.56942  -0.56402  -0.55780  -0.54812  -0.54354
 Alpha  occ. eigenvalues --   -0.53086  -0.52388  -0.51900  -0.50301  -0.50176
 Alpha  occ. eigenvalues --   -0.49532  -0.49234  -0.48826  -0.48463  -0.47451
 Alpha  occ. eigenvalues --   -0.46913  -0.46527  -0.46455  -0.45764  -0.45341
 Alpha  occ. eigenvalues --   -0.45216  -0.44763  -0.44648  -0.44257  -0.43791
 Alpha  occ. eigenvalues --   -0.43514  -0.43179  -0.43091  -0.42964  -0.42322
 Alpha  occ. eigenvalues --   -0.42053  -0.41296  -0.41277  -0.41156  -0.40787
 Alpha  occ. eigenvalues --   -0.40469  -0.40282  -0.40274  -0.39989  -0.39854
 Alpha  occ. eigenvalues --   -0.39665  -0.39560  -0.39453  -0.38668  -0.38559
 Alpha  occ. eigenvalues --   -0.38167  -0.37976  -0.37621  -0.37387  -0.37052
 Alpha  occ. eigenvalues --   -0.36823  -0.36337  -0.35491  -0.35109  -0.34444
 Alpha  occ. eigenvalues --   -0.34134  -0.33855  -0.33556  -0.33336  -0.32782
 Alpha  occ. eigenvalues --   -0.32339  -0.32267  -0.32137  -0.30419  -0.29994
 Alpha  occ. eigenvalues --   -0.29415  -0.28561  -0.26558  -0.25807  -0.25472
 Alpha  occ. eigenvalues --   -0.25041  -0.24832  -0.24477  -0.24003  -0.21611
 Alpha  occ. eigenvalues --   -0.17705
 Alpha virt. eigenvalues --   -0.10307  -0.06307  -0.04551  -0.02914  -0.01010
 Alpha virt. eigenvalues --   -0.00792   0.02333   0.02684   0.03553   0.04096
 Alpha virt. eigenvalues --    0.04354   0.04561   0.04732   0.05613   0.06446
 Alpha virt. eigenvalues --    0.07020   0.07559   0.07713   0.08022   0.08298
 Alpha virt. eigenvalues --    0.08477   0.08721   0.09114   0.09526   0.10214
 Alpha virt. eigenvalues --    0.10348   0.10459   0.10817   0.11163   0.11396
 Alpha virt. eigenvalues --    0.11544   0.11648   0.11937   0.12381   0.12566
 Alpha virt. eigenvalues --    0.12867   0.13429   0.13772   0.13921   0.14123
 Alpha virt. eigenvalues --    0.14542   0.14855   0.15168   0.15200   0.15592
 Alpha virt. eigenvalues --    0.15805   0.16396   0.16642   0.17191   0.17429
 Alpha virt. eigenvalues --    0.18027   0.18282   0.18437   0.19283   0.19800
 Alpha virt. eigenvalues --    0.20278   0.20740   0.20834   0.21361   0.21718
 Alpha virt. eigenvalues --    0.22205   0.22495   0.23049   0.23719   0.23773
 Alpha virt. eigenvalues --    0.24115   0.24912   0.25263   0.25770   0.26084
 Alpha virt. eigenvalues --    0.26431   0.26900   0.27422   0.27639   0.28330
 Alpha virt. eigenvalues --    0.28709   0.29214   0.29480   0.29886   0.30721
 Alpha virt. eigenvalues --    0.31040   0.31469   0.32192   0.32723   0.33397
 Alpha virt. eigenvalues --    0.34187   0.34745   0.34990   0.35803   0.36360
 Alpha virt. eigenvalues --    0.36865   0.37533   0.37785   0.38564   0.38732
 Alpha virt. eigenvalues --    0.38977   0.39679   0.40164   0.40251   0.40714
 Alpha virt. eigenvalues --    0.40884   0.41762   0.42192   0.43059   0.43561
 Alpha virt. eigenvalues --    0.43948   0.44038   0.44505   0.44856   0.44951
 Alpha virt. eigenvalues --    0.45233   0.45401   0.45643   0.45981   0.46300
 Alpha virt. eigenvalues --    0.46402   0.46930   0.47312   0.47663   0.48012
 Alpha virt. eigenvalues --    0.48277   0.48659   0.48808   0.49243   0.49502
 Alpha virt. eigenvalues --    0.49925   0.50454   0.50527   0.50966   0.51086
 Alpha virt. eigenvalues --    0.51854   0.52004   0.52542   0.53502   0.53916
 Alpha virt. eigenvalues --    0.54203   0.55030   0.55506   0.55729   0.56550
 Alpha virt. eigenvalues --    0.56830   0.57144   0.57397   0.57598   0.57799
 Alpha virt. eigenvalues --    0.58050   0.58402   0.59181   0.59223   0.59366
 Alpha virt. eigenvalues --    0.59444   0.59790   0.60237   0.60431   0.60483
 Alpha virt. eigenvalues --    0.60909   0.61127   0.61455   0.61742   0.62089
 Alpha virt. eigenvalues --    0.62199   0.62573   0.62824   0.62924   0.63161
 Alpha virt. eigenvalues --    0.63498   0.64063   0.64326   0.64491   0.64770
 Alpha virt. eigenvalues --    0.64874   0.65114   0.65385   0.65447   0.65819
 Alpha virt. eigenvalues --    0.65839   0.66242   0.66549   0.66676   0.66962
 Alpha virt. eigenvalues --    0.67348   0.67423   0.67696   0.68290   0.68561
 Alpha virt. eigenvalues --    0.68908   0.69195   0.69244   0.69533   0.69603
 Alpha virt. eigenvalues --    0.69738   0.70219   0.70439   0.70721   0.71241
 Alpha virt. eigenvalues --    0.71370   0.71693   0.72204   0.72255   0.72547
 Alpha virt. eigenvalues --    0.72921   0.73323   0.73821   0.74175   0.74409
 Alpha virt. eigenvalues --    0.74628   0.74974   0.75462   0.76023   0.76308
 Alpha virt. eigenvalues --    0.76539   0.76891   0.77352   0.77672   0.77733
 Alpha virt. eigenvalues --    0.78290   0.78367   0.78940   0.79217   0.79345
 Alpha virt. eigenvalues --    0.80149   0.80707   0.81348   0.82246   0.82865
 Alpha virt. eigenvalues --    0.83587   0.83703   0.84343   0.85154   0.85284
 Alpha virt. eigenvalues --    0.86122   0.86825   0.87650   0.87901   0.89065
 Alpha virt. eigenvalues --    0.89677   0.90091   0.90542   0.90964   0.91586
 Alpha virt. eigenvalues --    0.92573   0.93339   0.93968   0.94260   0.94488
 Alpha virt. eigenvalues --    0.94888   0.95601   0.96232   0.97125   0.97563
 Alpha virt. eigenvalues --    0.98144   0.98563   0.98820   0.99105   0.99551
 Alpha virt. eigenvalues --    1.00463   1.01605   1.02191   1.02435   1.02918
 Alpha virt. eigenvalues --    1.03578   1.04401   1.06092   1.06589   1.07253
 Alpha virt. eigenvalues --    1.07548   1.07877   1.08886   1.09184   1.09779
 Alpha virt. eigenvalues --    1.10907   1.11355   1.11447   1.12086   1.12887
 Alpha virt. eigenvalues --    1.13729   1.14613   1.14972   1.15222   1.16252
 Alpha virt. eigenvalues --    1.16719   1.18319   1.18632   1.19082   1.19368
 Alpha virt. eigenvalues --    1.19780   1.20443   1.21158   1.22846   1.23945
 Alpha virt. eigenvalues --    1.24290   1.24638   1.25451   1.26031   1.26671
 Alpha virt. eigenvalues --    1.27453   1.27841   1.28180   1.28634   1.28833
 Alpha virt. eigenvalues --    1.29939   1.30442   1.31210   1.31567   1.32372
 Alpha virt. eigenvalues --    1.32757   1.33081   1.34522   1.34797   1.35396
 Alpha virt. eigenvalues --    1.36294   1.36756   1.37602   1.38181   1.38640
 Alpha virt. eigenvalues --    1.39545   1.39825   1.40526   1.41383   1.42051
 Alpha virt. eigenvalues --    1.42461   1.42646   1.43606   1.43899   1.45294
 Alpha virt. eigenvalues --    1.45773   1.46155   1.47028   1.47613   1.48653
 Alpha virt. eigenvalues --    1.49635   1.49827   1.49969   1.50738   1.51152
 Alpha virt. eigenvalues --    1.51664   1.52514   1.52989   1.53953   1.54568
 Alpha virt. eigenvalues --    1.54685   1.55574   1.56013   1.56873   1.57561
 Alpha virt. eigenvalues --    1.57952   1.58337   1.59259   1.59557   1.59661
 Alpha virt. eigenvalues --    1.61129   1.61341   1.61830   1.62195   1.62749
 Alpha virt. eigenvalues --    1.63811   1.63976   1.64391   1.65001   1.65098
 Alpha virt. eigenvalues --    1.65749   1.65813   1.66500   1.66898   1.67346
 Alpha virt. eigenvalues --    1.67851   1.67923   1.68330   1.69092   1.69280
 Alpha virt. eigenvalues --    1.69726   1.70358   1.70562   1.71387   1.71845
 Alpha virt. eigenvalues --    1.72210   1.72573   1.73330   1.73887   1.74259
 Alpha virt. eigenvalues --    1.74515   1.74823   1.74947   1.75057   1.75552
 Alpha virt. eigenvalues --    1.75939   1.76552   1.77161   1.77306   1.77501
 Alpha virt. eigenvalues --    1.77899   1.78274   1.78745   1.79392   1.79707
 Alpha virt. eigenvalues --    1.79762   1.80913   1.81123   1.81234   1.81985
 Alpha virt. eigenvalues --    1.82216   1.82833   1.83035   1.83650   1.84549
 Alpha virt. eigenvalues --    1.85092   1.85128   1.85568   1.85902   1.86344
 Alpha virt. eigenvalues --    1.86674   1.87382   1.87580   1.88253   1.88424
 Alpha virt. eigenvalues --    1.89161   1.89446   1.89696   1.89729   1.90285
 Alpha virt. eigenvalues --    1.90720   1.91728   1.91773   1.92705   1.92905
 Alpha virt. eigenvalues --    1.93430   1.93636   1.94144   1.94613   1.94670
 Alpha virt. eigenvalues --    1.95308   1.95541   1.95835   1.97723   1.97927
 Alpha virt. eigenvalues --    1.98701   1.99353   1.99549   2.00132   2.00291
 Alpha virt. eigenvalues --    2.00713   2.01518   2.01829   2.02665   2.03220
 Alpha virt. eigenvalues --    2.03711   2.03819   2.04159   2.04628   2.05106
 Alpha virt. eigenvalues --    2.05504   2.06354   2.06753   2.07096   2.07527
 Alpha virt. eigenvalues --    2.08353   2.08964   2.09300   2.09781   2.10037
 Alpha virt. eigenvalues --    2.10785   2.11425   2.11730   2.11910   2.12293
 Alpha virt. eigenvalues --    2.13589   2.13954   2.14179   2.14690   2.17076
 Alpha virt. eigenvalues --    2.17663   2.18050   2.18821   2.19150   2.20836
 Alpha virt. eigenvalues --    2.21431   2.21816   2.22099   2.22396   2.22640
 Alpha virt. eigenvalues --    2.23103   2.23811   2.24921   2.25035   2.25940
 Alpha virt. eigenvalues --    2.26938   2.27229   2.27605   2.28235   2.29224
 Alpha virt. eigenvalues --    2.30133   2.30654   2.31824   2.31918   2.32785
 Alpha virt. eigenvalues --    2.33268   2.33293   2.34117   2.34483   2.35367
 Alpha virt. eigenvalues --    2.36091   2.36128   2.37213   2.38040   2.38150
 Alpha virt. eigenvalues --    2.39891   2.39969   2.41822   2.42373   2.43203
 Alpha virt. eigenvalues --    2.43565   2.44314   2.44907   2.45432   2.46695
 Alpha virt. eigenvalues --    2.47511   2.47987   2.48206   2.49473   2.50014
 Alpha virt. eigenvalues --    2.50270   2.51445   2.51532   2.52330   2.53119
 Alpha virt. eigenvalues --    2.54020   2.54319   2.54595   2.54787   2.55969
 Alpha virt. eigenvalues --    2.56572   2.57150   2.57948   2.58908   2.59141
 Alpha virt. eigenvalues --    2.59986   2.61441   2.62825   2.62850   2.63425
 Alpha virt. eigenvalues --    2.63814   2.65343   2.65887   2.66189   2.66832
 Alpha virt. eigenvalues --    2.67312   2.67418   2.68349   2.69125   2.69724
 Alpha virt. eigenvalues --    2.69949   2.70178   2.70413   2.71168   2.71947
 Alpha virt. eigenvalues --    2.72936   2.72983   2.73877   2.74033   2.74904
 Alpha virt. eigenvalues --    2.75963   2.76602   2.77113   2.78728   2.78942
 Alpha virt. eigenvalues --    2.79336   2.81006   2.82101   2.82798   2.83304
 Alpha virt. eigenvalues --    2.83812   2.84855   2.85130   2.86076   2.86108
 Alpha virt. eigenvalues --    2.86479   2.87189   2.88398   2.89128   2.89333
 Alpha virt. eigenvalues --    2.89765   2.90598   2.91418   2.91678   2.92323
 Alpha virt. eigenvalues --    2.93986   2.94714   2.96105   2.96476   2.96660
 Alpha virt. eigenvalues --    2.99593   3.00358   3.00588   3.01698   3.01894
 Alpha virt. eigenvalues --    3.02858   3.03831   3.04754   3.06297   3.06551
 Alpha virt. eigenvalues --    3.08223   3.08981   3.09523   3.11340   3.11490
 Alpha virt. eigenvalues --    3.12620   3.13070   3.14610   3.16867   3.17871
 Alpha virt. eigenvalues --    3.18441   3.20167   3.20686   3.23038   3.23786
 Alpha virt. eigenvalues --    3.25266   3.26301   3.28453   3.30428   3.30753
 Alpha virt. eigenvalues --    3.36296   3.40794   3.45570   3.46852   3.50723
 Alpha virt. eigenvalues --    3.51966   3.52772   3.53514   3.53915   3.58303
 Alpha virt. eigenvalues --    3.63997   3.66200   3.67381   3.67425   3.73807
 Alpha virt. eigenvalues --    3.82903
          Condensed to atoms (all electrons):
 Mulliken charges:
               1
     1  O   -0.230766
     2  O   -0.210412
     3  O   -0.200284
     4  O   -0.180830
     5  O   -0.271721
     6  O   -0.243090
     7  N   -0.012158
     8  N   -0.042563
     9  N   -0.120935
    10  N   -0.247407
    11  C   -0.108175
    12  C    0.083680
    13  C   -0.158049
    14  C   -0.005392
    15  C   -0.060414
    16  C    0.039996
    17  C   -0.107809
    18  C   -0.038447
    19  C    0.142746
    20  C   -0.105346
    21  C    0.097340
    22  C    0.094940
    23  C   -0.007446
    24  C    0.067794
    25  C   -0.078798
    26  C    0.124667
    27  C    0.153788
    28  C    0.071363
    29  C   -0.008165
    30  C   -0.039797
    31  C   -0.167274
    32  C   -0.061241
    33  C   -0.056694
    34  C    0.066778
    35  C   -0.126963
    36  C   -0.185847
    37  C    0.139120
    38  C    0.062560
    39  C    0.201967
    40  C    0.199437
    41  C    0.162475
    42  C    0.152120
    43  C   -0.041919
    44  H    0.109074
    45  H    0.059009
    46  H   -0.015942
    47  H   -0.069881
    48  H    0.076960
    49  H    0.005728
    50  H    0.022638
    51  H    0.034398
    52  H    0.127192
    53  H   -0.003206
    54  H   -0.009021
    55  H    0.027259
    56  H    0.129010
    57  H    0.009760
    58  H    0.030657
    59  H    0.086063
    60  H   -0.006215
    61  H    0.055335
    62  H    0.049025
    63  H    0.044898
    64  H   -0.022735
    65  H    0.031235
    66  H    0.052615
    67  H    0.020332
    68  H   -0.023433
    69  H    0.091794
    70  H   -0.079350
    71  H    0.035287
    72  H   -0.003584
    73  H   -0.025264
    74  H    0.006671
    75  H    0.042710
    76  H    0.005182
    77  H    0.000147
    78  H    0.004049
    79  H    0.030940
    80  H    0.197317
    81  H    0.130521
 Sum of Mulliken charges =  -0.00000
 Mulliken charges with hydrogens summed into heavy atoms:
               1
     1  O   -0.230766
     2  O   -0.013095
     3  O   -0.069763
     4  O   -0.180830
     5  O   -0.271721
     6  O   -0.243090
     7  N    0.096916
     8  N    0.084629
     9  N    0.008074
    10  N   -0.247407
    11  C   -0.108175
    12  C    0.083680
    13  C   -0.158049
    14  C   -0.005392
    15  C   -0.060414
    16  C    0.039996
    17  C   -0.048800
    18  C   -0.038447
    19  C    0.056924
    20  C   -0.028386
    21  C    0.097340
    22  C    0.094940
    23  C   -0.007446
    24  C    0.096159
    25  C   -0.044400
    26  C    0.139699
    27  C    0.153788
    28  C    0.111780
    29  C    0.071683
    30  C    0.109461
    31  C   -0.190009
    32  C    0.042941
    33  C   -0.080127
    34  C    0.066778
    35  C   -0.126963
    36  C   -0.185847
    37  C    0.139120
    38  C    0.110290
    39  C    0.201967
    40  C    0.170589
    41  C    0.162475
    42  C    0.206683
    43  C   -0.006784
 Electronic spatial extent (au):  <R**2>=          30480.0539
 Charge=             -0.0000 electrons
 Dipole moment (field-independent basis, Debye):
    X=              2.6346    Y=              2.2042    Z=             -0.0810  Tot=              3.4360
 Quadrupole moment (field-independent basis, Debye-Ang):
   XX=           -258.5087   YY=           -242.7292   ZZ=           -255.7244
   XY=            -13.8314   XZ=             14.9142   YZ=             16.0964
 Traceless Quadrupole moment (field-independent basis, Debye-Ang):
   XX=             -6.1879   YY=              9.5915   ZZ=             -3.4036
   XY=            -13.8314   XZ=             14.9142   YZ=             16.0964
 Octapole moment (field-independent basis, Debye-Ang**2):
  XXX=           -104.8178  YYY=            110.3956  ZZZ=             19.4650  XYY=            170.4882
  XXY=             33.2167  XXZ=             64.0357  XZZ=             54.1580  YZZ=            -15.6076
  YYZ=            -41.2315  XYZ=            -48.8639
 Hexadecapole moment (field-independent basis, Debye-Ang**3):
 XXXX=         -23050.5324 YYYY=         -16176.6668 ZZZZ=          -1566.1788 XXXY=           -542.7463
 XXXZ=            761.7319 YYYX=           -883.0575 YYYZ=            524.7059 ZZZX=             83.2030
 ZZZY=            -30.9870 XXYY=          -6588.6455 XXZZ=          -4088.8454 YYZZ=          -3088.1170
 XXYZ=             50.7875 YYXZ=            260.9516 ZZXY=           -239.1623
 N-N= 5.047747353871D+03 E-N=-1.462683769772D+04  KE= 1.929164375535D+03
 1\1\GINC-RYZEN-SSD1\SP\RB3LYP TD-FC\SVP\C33H38N4O6\PADAWAN\01-Jul-2019
 \0\\# td=(NStates=1) B3LYP/SVP\\TD\\0,1\O,0,-4.4980699278,-4.684508532
 1,1.9485402176\O,0,3.2210627044,-4.638948444,1.5234102728\O,0,6.934003
 7818,-1.7050480459,1.7087710976\O,0,3.7950612389,-3.0091100362,0.11754
 46129\O,0,7.6690956616,-0.6118225616,-0.2208916585\O,0,-3.0553258614,2
 .5634237399,-0.1296178664\N,0,-0.284502832,-0.6462139712,-0.4856271989
 \N,0,1.4990575885,1.7431966985,-0.3961312752\N,0,-3.4127382168,-3.0897
 980266,0.7116896403\N,0,-0.6896003629,2.9070611243,0.0174967258\C,0,0.
 6752087533,-2.4881742557,-1.3281348966\C,0,0.8939983336,-1.1318631374,
 -0.939836539\C,0,-0.7898733124,-2.6606999594,-1.2163818376\C,0,-1.3181
 839246,-1.5012737693,-0.7069321591\C,0,3.7498229236,1.423556841,-0.427
 5889753\C,0,2.3989805911,0.7593172635,-0.6099325519\C,0,2.1636933736,-
 0.5867748233,-0.8554577908\C,0,3.5418180187,2.7437623844,-0.1092416971
 \C,0,1.641025255,-3.4971249783,-1.7327634773\C,0,-5.6069400292,-2.6807
 899886,1.1541853585\C,0,-3.686550718,-1.8718722492,-0.0081370287\C,0,2
 .0982740876,2.9549819264,-0.0906265397\C,0,-5.105976794,-1.5371092141,
 0.1805066896\C,0,5.0773462127,0.7097106411,-0.5011931757\C,0,-2.729503
 9126,-1.0944262142,-0.654765891\C,0,-1.453843322,-3.926707173,-1.78204
 14478\C,0,-4.5133087977,-3.6685753632,1.2624853631\C,0,2.0856190379,-4
 .5393961593,-0.5823610919\C,0,5.4358034566,-0.0215682207,0.8397720833\
 C,0,4.4919149777,3.7846396953,0.1059127751\C,0,1.3662578672,4.06209061
 66,0.1745675763\C,0,-7.0633574663,-3.1844058204,0.8593153976\C,0,-5.92
 76613686,-0.4867234022,-0.3506665411\C,0,-0.0602010091,4.0160862802,0.
 1838970153\C,0,-0.9647174334,5.1744785409,0.5142860572\C,0,-2.19709503
 57,4.7031564384,0.4526666696\C,0,3.0759304343,-3.8961862377,0.38623002
 2\C,0,-5.469321593,0.5646716958,-1.290350102\C,0,6.7424368099,-0.75666
 39505,0.6331064332\C,0,-3.4802137807,5.317468045,0.6593067458\C,0,-2.0
 441778541,3.2942516165,0.0445053753\C,0,-0.410355173,6.4923331013,0.93
 81589057\C,0,-4.1400225392,5.6135297579,-0.6670374794\H,0,-0.450722637
 2,0.186204326,-0.0069512484\H,0,3.0811921338,-1.2026222643,-1.27947745
 63\H,0,2.5848897399,-3.0111458215,-2.1345058853\H,0,1.5158283621,-3.87
 40593235,-2.6094133078\H,0,-5.8767594821,-2.2765260417,2.224724633\H,0
 ,5.1605463648,-0.0341086944,-1.2965428073\H,0,6.0132832939,1.266470956
 4,-0.7546867683\H,0,-2.9413722329,-0.0073962434,-0.614394345\H,0,0.572
 6235941,1.7074919322,-0.7370231744\H,0,-1.5777733685,-4.7726393681,-1.
 1667274784\H,0,-2.49410304,-3.721439846,-1.8704863688\H,0,-1.031823133
 4,-4.2722754019,-2.762349838\H,0,-2.5114449023,-3.5396601144,0.7843456
 816\H,0,1.2285786646,-4.928235306,-0.1300467222\H,0,2.5013193177,-5.37
 63203405,-1.0866131752\H,0,4.6769521162,-0.9930953606,0.9051811043\H,0
 ,5.2808822878,0.4225766943,1.6926737381\H,0,4.097917312,5.0260930767,-
 0.0156615489\H,0,5.5358302058,3.6819909183,-0.3131047873\H,0,4.5529747
 149,3.6797634844,1.2788291868\H,0,1.9689027223,4.9994298726,0.41189097
 6\H,0,-7.916834455,-2.3801340079,1.1085955536\H,0,-7.2452301673,-4.140
 0117671,1.5225246204\H,0,-7.3542536094,-3.4112688904,-0.1965880696\H,0
 ,-6.955512893,-0.6014304743,-0.2316212342\H,0,-4.7826531071,1.47527172
 41,-0.8571495631\H,0,-6.1327851082,1.0551931476,-1.7016768462\H,0,-4.7
 514136369,0.2368605323,-2.1861398267\H,0,-3.469946874,6.2212447803,1.2
 788955936\H,0,-4.0426519427,4.5613052627,1.0635584936\H,0,0.219856551,
 6.4451864785,1.7616188944\H,0,-1.2665680401,7.3371404095,0.8898282392\
 H,0,0.2968388715,6.666355136,0.1442407583\H,0,-3.6474750433,6.69020490
 36,-1.1411419303\H,0,-5.168938717,5.9098737284,-0.5381289546\H,0,-4.11
 92964507,4.8745989522,-1.460875826\H,0,3.9342787344,-4.235027733,2.088
 5874957\H,0,7.7822754722,-1.9070413564,1.4700971723\\Version=ES64L-G16
 RevA.03\State=1-A\HF=-1949.0889585\RMSD=6.246e-09\PG=C01 [X(C33H38N4O6
 )]\\@


 BE NOT THE FIRST BY WHOM THE NEW ARE TRIED,
 NOR YET THE THE LAST TO LAY THE OLD ASIDE.

                          -- ALEXANDER POPE
 Job cpu time:       0 days 17 hours 29 minutes 25.4 seconds.
 Elapsed time:       0 days  4 hours 23 minutes 37.3 seconds.
 File lengths (MBytes):  RWF=   2591 Int=      0 D2E=      0 Chk=     65 Scr=      1
 Normal termination of Gaussian 16 at Mon Jul  1 03:35:49 2019.
