 Entering Gaussian System, Link 0=g16
 Input=Geometria-37-.com
 Output=Geometria-37-.log
 Initial command:
 /usr/local/g16/l1.exe "/home/padawan/israel-mol/phycocyanobilin/spectra/abs/Gau-34077.inp" -scrdir="/home/padawan/israel-mol/phycocyanobilin/spectra/abs/"
 Entering Link 1 = /usr/local/g16/l1.exe PID=     34079.
  
 Copyright (c) 1988,1990,1992,1993,1995,1998,2003,2009,2016,
            Gaussian, Inc.  All Rights Reserved.
  
 This is part of the Gaussian(R) 16 program.  It is based on
 the Gaussian(R) 09 system (copyright 2009, Gaussian, Inc.),
 the Gaussian(R) 03 system (copyright 2003, Gaussian, Inc.),
 the Gaussian(R) 98 system (copyright 1998, Gaussian, Inc.),
 the Gaussian(R) 94 system (copyright 1995, Gaussian, Inc.),
 the Gaussian 92(TM) system (copyright 1992, Gaussian, Inc.),
 the Gaussian 90(TM) system (copyright 1990, Gaussian, Inc.),
 the Gaussian 88(TM) system (copyright 1988, Gaussian, Inc.),
 the Gaussian 86(TM) system (copyright 1986, Carnegie Mellon
 University), and the Gaussian 82(TM) system (copyright 1983,
 Carnegie Mellon University). Gaussian is a federally registered
 trademark of Gaussian, Inc.
  
 This software contains proprietary and confidential information,
 including trade secrets, belonging to Gaussian, Inc.
  
 This software is provided under written license and may be
 used, copied, transmitted, or stored only in accord with that
 written license.
  
 The following legend is applicable only to US Government
 contracts under FAR:
  
                    RESTRICTED RIGHTS LEGEND
  
 Use, reproduction and disclosure by the US Government is
 subject to restrictions as set forth in subparagraphs (a)
 and (c) of the Commercial Computer Software - Restricted
 Rights clause in FAR 52.227-19.
  
 Gaussian, Inc.
 340 Quinnipiac St., Bldg. 40, Wallingford CT 06492
  
  
 ---------------------------------------------------------------
 Warning -- This program may not be used in any manner that
 competes with the business of Gaussian, Inc. or will provide
 assistance to any competitor of Gaussian, Inc.  The licensee
 of this program is prohibited from giving any competitor of
 Gaussian, Inc. access to this program.  By using this program,
 the user acknowledges that Gaussian, Inc. is engaged in the
 business of creating and licensing software in the field of
 computational chemistry and represents and warrants to the
 licensee that it is not a competitor of Gaussian, Inc. and that
 it will not use this program in any manner prohibited above.
 ---------------------------------------------------------------
  

 Cite this work as:
 Gaussian 16, Revision A.03,
 M. J. Frisch, G. W. Trucks, H. B. Schlegel, G. E. Scuseria, 
 M. A. Robb, J. R. Cheeseman, G. Scalmani, V. Barone, 
 G. A. Petersson, H. Nakatsuji, X. Li, M. Caricato, A. V. Marenich, 
 J. Bloino, B. G. Janesko, R. Gomperts, B. Mennucci, H. P. Hratchian, 
 J. V. Ortiz, A. F. Izmaylov, J. L. Sonnenberg, D. Williams-Young, 
 F. Ding, F. Lipparini, F. Egidi, J. Goings, B. Peng, A. Petrone, 
 T. Henderson, D. Ranasinghe, V. G. Zakrzewski, J. Gao, N. Rega, 
 G. Zheng, W. Liang, M. Hada, M. Ehara, K. Toyota, R. Fukuda, 
 J. Hasegawa, M. Ishida, T. Nakajima, Y. Honda, O. Kitao, H. Nakai, 
 T. Vreven, K. Throssell, J. A. Montgomery, Jr., J. E. Peralta, 
 F. Ogliaro, M. J. Bearpark, J. J. Heyd, E. N. Brothers, K. N. Kudin, 
 V. N. Staroverov, T. A. Keith, R. Kobayashi, J. Normand, 
 K. Raghavachari, A. P. Rendell, J. C. Burant, S. S. Iyengar, 
 J. Tomasi, M. Cossi, J. M. Millam, M. Klene, C. Adamo, R. Cammi, 
 J. W. Ochterski, R. L. Martin, K. Morokuma, O. Farkas, 
 J. B. Foresman, and D. J. Fox, Gaussian, Inc., Wallingford CT, 2016.
 
 ******************************************
 Gaussian 16:  ES64L-G16RevA.03 25-Dec-2016
                27-Jun-2019 
 ******************************************
 %nproc=4
 Will use up to    4 processors via shared memory.
 %Mem=4GB
 --------------------------
 # td=(NStates=1) B3LYP/SVP
 --------------------------
 1/38=1,172=1/1;
 2/12=2,17=6,18=5,40=1/2;
 3/5=18,7=101,11=9,25=1,30=1,74=-5/1,2,3,8;
 4//1;
 5/5=2,38=5/2;
 8/6=1,10=1,108=1/1;
 9/41=1,42=1,70=2/14;
 6/7=2,8=2,9=2,10=2/1;
 99/5=1,9=1/99;
 --
 TD
 --
 Symbolic Z-matrix:
 Charge =  0 Multiplicity = 1
 8                    -4.60851  -4.82933   1.74104 
 8                     2.89085  -4.70598   1.15354 
 8                     7.0597   -1.56653   1.86723 
 8                     3.90365  -3.04519  -0.07342 
 8                     7.62879  -0.71989  -0.16646 
 8                    -3.13871   2.46959  -0.13342 
 7                    -0.25421  -0.51764  -0.50081 
 7                     1.53841   1.76502  -0.48499 
 7                    -3.45151  -3.13034   0.66109 
 7                    -0.75127   2.90567  -0.10304 
 6                     0.67273  -2.40837  -1.24258 
 6                     0.89254  -1.11157  -0.848 
 6                    -0.69368  -2.65776  -1.10604 
 6                    -1.28521  -1.43209  -0.5672 
 6                     3.75174   1.41742  -0.33029 
 6                     2.47333   0.7734   -0.5096 
 6                     2.20355  -0.47596  -0.84107 
 6                     3.55079   2.78165  -0.01621 
 6                     1.62266  -3.37942  -1.93512 
 6                    -5.6258   -2.5784    1.35962 
 6                    -3.69882  -1.86717   0.07817 
 6                     2.10592   3.00208  -0.1127 
 6                    -5.12876  -1.51714   0.43349 
 6                     5.09506   0.68141  -0.34479 
 6                    -2.68302  -1.11024  -0.38131 
 6                    -1.45326  -3.83102  -1.52227 
 6                    -4.59157  -3.6882    1.33633 
 6                     2.06073  -4.54148  -1.00451 
 6                     5.44329  -0.22591   0.87447 
 6                     4.63415   3.84893   0.31462 
 6                     1.33067   4.1421    0.25391 
 6                    -6.95521  -3.29358   1.07478 
 6                    -5.78606  -0.49556  -0.17162 
 6                    -0.11645   3.97232   0.17342 
 6                    -0.98743   5.16918   0.3959 
 6                    -2.30218   4.7183    0.35859 
 6                     3.12901  -3.98875   0.0727 
 6                    -5.31205   0.48859  -1.17276 
 6                     6.86063  -0.82175   0.82812 
 6                    -3.60142   5.35509   0.42919 
 6                    -2.22379   3.24088  -0.00959 
 6                    -0.44019   6.48338   0.79048 
 6                    -4.07298   5.77848  -1.04261 
 1                    -0.29641   0.46408   0.1558 
 1                     3.23163  -1.25231  -1.04119 
 1                     2.6282   -2.89689  -2.37 
 1                     0.97615  -4.00525  -2.79158 
 1                    -5.60595  -2.16103   2.2317 
 1                     5.12812   0.02077  -1.3118 
 1                     5.88459   1.45038  -0.51139 
 1                    -3.03044  -0.08726  -0.48239 
 1                     0.40261   1.72442  -0.46329 
 1                    -1.63762  -4.28561  -0.72113 
 1                    -2.393    -3.7172   -2.04542 
 1                    -0.95437  -4.51117  -2.23976 
 1                    -2.74571  -3.74426   0.51674 
 1                     1.05511  -5.04035  -0.59488 
 1                     2.61686  -5.17664  -1.61356 
 1                     4.86425  -1.11498   0.88139 
 1                     5.37949   0.21628   1.90728 
 1                     4.69968   4.56228  -0.40291 
 1                     5.53453   3.36822   0.18988 
 1                     4.51605   4.26805   1.36773 
 1                     1.65937   5.17499   0.41451 
 1                    -7.92439  -2.73051   0.98947 
 1                    -7.20797  -4.04868   1.82961 
 1                    -6.85444  -3.73108   0.05722 
 1                    -6.8766   -0.50649   0.00285 
 1                    -4.65123   1.22377  -0.52785 
 1                    -6.0417    1.06502  -1.83704 
 1                    -4.56809  -0.0969   -1.95459 
 1                    -3.55104   6.36518   1.10824 
 1                    -4.37476   4.80269   0.91899 
 1                     0.21519   6.53035   1.65993 
 1                    -1.2426    7.17219   1.03074 
 1                     0.06106   6.90167  -0.0049 
 1                    -3.25639   6.4146   -1.26918 
 1                    -4.95515   6.3675   -1.23636 
 1                    -3.9353    4.93901  -1.70277 
 1                     3.81429  -4.54594   1.79315 
 1                     7.86519  -1.99106   1.69427 
 
 Stoichiometry    C33H38N4O6
 Framework group  C1[X(C33H38N4O6)]
 Deg. of freedom   237
 Full point group                 C1      NOp   1
 Largest Abelian subgroup         C1      NOp   1
 Largest concise Abelian subgroup C1      NOp   1
                         Standard orientation:                         
 ---------------------------------------------------------------------
 Center     Atomic      Atomic             Coordinates (Angstroms)
 Number     Number       Type             X           Y           Z
 ---------------------------------------------------------------------
      1          8           0        4.622152   -4.833927   -1.702314
      2          8           0       -2.878769   -4.716241   -1.133882
      3          8           0       -7.049668   -1.586308   -1.876737
      4          8           0       -3.896590   -3.049311    0.080530
      5          8           0       -7.624769   -0.728075    0.150386
      6          8           0        3.138901    2.474398    0.124317
      7          7           0        0.257138   -0.514105    0.502748
      8          7           0       -1.538212    1.766210    0.468732
      9          7           0        3.460449   -3.129856   -0.635504
     10          7           0        0.751007    2.907346    0.085466
     11          6           0       -0.669315   -2.401445    1.253687
     12          6           0       -0.889733   -1.107333    0.850727
     13          6           0        0.697730   -2.649979    1.122000
     14          6           0        1.289084   -1.426863    0.577190
     15          6           0       -3.750734    1.414955    0.310737
     16          6           0       -2.471980    0.773608    0.497066
     17          6           0       -2.201493   -0.473393    0.836747
     18          6           0       -3.550669    2.777505   -0.011104
     19          6           0       -1.619761   -3.369460    1.949781
     20          6           0        5.635770   -2.579477   -1.332046
     21          6           0        3.704795   -1.862877   -0.059640
     22          6           0       -2.106315    3.000293    0.087572
     23          6           0        5.135172   -1.513241   -0.413582
     24          6           0       -5.093185    0.677396    0.326413
     25          6           0        2.686952   -1.104426    0.392768
     26          6           0        1.457714   -3.819761    1.547175
     27          6           0        4.602830   -3.690385   -1.304567
     28          6           0       -2.054132   -4.537663    1.025159
     29          6           0       -5.437332   -0.237711   -0.888170
     30          6           0       -4.634513    3.841430   -0.351041
     31          6           0       -1.331555    4.139028   -0.284036
     32          6           0        6.965341   -3.291281   -1.039638
     33          6           0        5.789744   -0.487216    0.186934
     34          6           0        0.115570    3.971522   -0.198988
     35          6           0        0.985640    5.168080   -0.426593
     36          6           0        2.300837    4.719052   -0.383337
     37          6           0       -3.120442   -3.992776   -0.057985
     38          6           0        5.312088    0.502400    1.180936
     39          6           0       -6.854050   -0.835004   -0.841673
     40          6           0        3.599472    5.357004   -0.454627
     41          6           0        2.223342    3.243790   -0.006413
     42          6           0        0.437769    6.479198   -0.830458
     43          6           0        4.066912    5.789869    1.015727
     44          1           0        0.299750    0.463677   -0.159683
     45          1           0       -3.229116   -1.249775    1.039062
     46          1           0       -2.626949   -2.885545    2.379272
     47          1           0       -0.974591   -3.989298    2.811589
     48          1           0        5.617548   -2.167423   -2.206683
     49          1           0       -5.127814    0.022580    1.297329
     50          1           0       -5.884057    1.446390    0.486430
     51          1           0        3.032881   -0.080433    0.488501
     52          1           0       -0.402308    1.726882    0.450046
     53          1           0        1.644583   -4.278967    0.749262
     54          1           0        2.396031   -3.701622    2.071926
     55          1           0        0.957888   -4.496171    2.267552
     56          1           0        2.755040   -3.743757   -0.489157
     57          1           0       -1.046911   -5.037766    0.621013
     58          1           0       -2.610983   -5.169812    1.636677
     59          1           0       -4.857193   -1.126093   -0.888296
     60          1           0       -5.371539    0.198293   -1.923480
     61          1           0       -4.702664    4.559029    0.361998
     62          1           0       -5.534611    3.360380   -0.225582
     63          1           0       -4.514346    4.254319   -1.406372
     64          1           0       -1.661114    5.170521   -0.451695
     65          1           0        7.933623   -2.726516   -0.955380
     66          1           0        7.220866   -4.050630   -1.789260
     67          1           0        6.862619   -3.722742   -0.019696
     68          1           0        6.880718   -0.497857    0.015195
     69          1           0        4.651960    1.232842    0.529973
     70          1           0        6.039408    1.083737    1.843494
     71          1           0        4.566927   -0.079269    1.964477
     72          1           0        3.549536    6.362900   -1.139897
     73          1           0        4.374678    4.802599   -0.939184
     74          1           0       -0.215531    6.520101   -1.701769
     75          1           0        1.239924    7.167529   -1.072924
     76          1           0       -0.065928    6.901674   -0.038844
     77          1           0        3.248997    6.426345    1.236457
     78          1           0        4.947890    6.381139    1.208063
     79          1           0        3.928639    4.954241    1.680626
     80          1           0       -3.800831   -4.561215   -1.776696
     81          1           0       -7.855070   -2.010770   -1.703179
 ---------------------------------------------------------------------
 Rotational constants (GHZ):           0.0764327           0.0542744           0.0337725
 Standard basis: SVP (5D, 7F)
 There are   835 symmetry adapted cartesian basis functions of A   symmetry.
 There are   792 symmetry adapted basis functions of A   symmetry.
   792 basis functions,  1341 primitive gaussians,   835 cartesian basis functions
   156 alpha electrons      156 beta electrons
       nuclear repulsion energy      5043.7411572504 Hartrees.
 NAtoms=   81 NActive=   81 NUniq=   81 SFac= 1.00D+00 NAtFMM=   60 NAOKFM=T Big=T
 Integral buffers will be    131072 words long.
 Regular integral format.
 Two-electron integral symmetry is turned on.
 One-electron integrals computed using PRISM.
 NBasis=   792 RedAO= T EigKep=  3.01D-04  NBF=   792
 NBsUse=   792 1.00D-06 EigRej= -1.00D+00 NBFU=   792
 ExpMin= 1.22D-01 ExpMax= 2.27D+03 ExpMxC= 3.41D+02 IAcc=3 IRadAn=         5 AccDes= 0.00D+00
 Harris functional with IExCor=  402 and IRadAn=       5 diagonalized for initial guess.
 HarFok:  IExCor=  402 AccDes= 0.00D+00 IRadAn=         5 IDoV= 1 UseB2=F ITyADJ=14
 ICtDFT=  3500011 ScaDFX=  1.000000  1.000000  1.000000  1.000000
 FoFCou: FMM=F IPFlag=           0 FMFlag=      100000 FMFlg1=        2001
         NFxFlg=           0 DoJE=T BraDBF=F KetDBF=T FulRan=T
         wScrn=  0.000000 ICntrl=       500 IOpCl=  0 I1Cent=   200000004 NGrid=           0
         NMat0=    1 NMatS0=      1 NMatT0=    0 NMatD0=    1 NMtDS0=    0 NMtDT0=    0
 Petite list used in FoFCou.
 Requested convergence on RMS density matrix=1.00D-08 within 128 cycles.
 Requested convergence on MAX density matrix=1.00D-06.
 Requested convergence on             energy=1.00D-06.
 No special actions if energy rises.
 Integral accuracy reduced to 1.0D-05 until final iterations.
 Initial convergence to 1.0D-05 achieved.  Increase integral accuracy.
 SCF Done:  E(RB3LYP) =  -1949.10659683     A.U. after   16 cycles
            NFock= 16  Conv=0.69D-08     -V/T= 2.0106
 DoSCS=F DFT=T ScalE2(SS,OS)=  1.000000  1.000000
 ExpMin= 1.22D-01 ExpMax= 2.27D+03 ExpMxC= 3.41D+02 IAcc=3 IRadAn=         5 AccDes= 0.00D+00
 HarFok:  IExCor=  205 AccDes= 0.00D+00 IRadAn=         5 IDoV=-2 UseB2=F ITyADJ=14
 ICtDFT= 12500011 ScaDFX=  1.000000  1.000000  1.000000  1.000000
 GSVD:  LWork=       -2193 too small for GESVD, short by        9890 words or        9890 for optimal perf.
 Range of M.O.s used for correlation:    44   792
 NBasis=   792 NAE=   156 NBE=   156 NFC=    43 NFV=     0
 NROrb=    749 NOA=   113 NOB=   113 NVA=   636 NVB=   636

 **** Warning!!: The smallest alpha delta epsilon is  0.74361958D-01

 Orbital symmetries:
       Occupied  (A) (A) (A) (A) (A) (A) (A) (A) (A) (A) (A) (A)
                 (A) (A) (A) (A) (A) (A) (A) (A) (A) (A) (A) (A)
                 (A) (A) (A) (A) (A) (A) (A) (A) (A) (A) (A) (A)
                 (A) (A) (A) (A) (A) (A) (A) (A) (A) (A) (A) (A)
                 (A) (A) (A) (A) (A) (A) (A) (A) (A) (A) (A) (A)
                 (A) (A) (A) (A) (A) (A) (A) (A) (A) (A) (A) (A)
                 (A) (A) (A) (A) (A) (A) (A) (A) (A) (A) (A) (A)
                 (A) (A) (A) (A) (A) (A) (A) (A) (A) (A) (A) (A)
                 (A) (A) (A) (A) (A) (A) (A) (A) (A) (A) (A) (A)
                 (A) (A) (A) (A) (A) (A) (A) (A) (A) (A) (A) (A)
                 (A) (A) (A) (A) (A) (A) (A) (A) (A) (A) (A) (A)
                 (A) (A) (A) (A) (A) (A) (A) (A) (A) (A) (A) (A)
                 (A) (A) (A) (A) (A) (A) (A) (A) (A) (A) (A) (A)
       Virtual   (A) (A) (A) (A) (A) (A) (A) (A) (A) (A) (A) (A)
                 (A) (A) (A) (A) (A) (A) (A) (A) (A) (A) (A) (A)
                 (A) (A) (A) (A) (A) (A) (A) (A) (A) (A) (A) (A)
                 (A) (A) (A) (A) (A) (A) (A) (A) (A) (A) (A) (A)
                 (A) (A) (A) (A) (A) (A) (A) (A) (A) (A) (A) (A)
                 (A) (A) (A) (A) (A) (A) (A) (A) (A) (A) (A) (A)
                 (A) (A) (A) (A) (A) (A) (A) (A) (A) (A) (A) (A)
                 (A) (A) (A) (A) (A) (A) (A) (A) (A) (A) (A) (A)
                 (A) (A) (A) (A) (A) (A) (A) (A) (A) (A) (A) (A)
                 (A) (A) (A) (A) (A) (A) (A) (A) (A) (A) (A) (A)
                 (A) (A) (A) (A) (A) (A) (A) (A) (A) (A) (A) (A)
                 (A) (A) (A) (A) (A) (A) (A) (A) (A) (A) (A) (A)
                 (A) (A) (A) (A) (A) (A) (A) (A) (A) (A) (A) (A)
                 (A) (A) (A) (A) (A) (A) (A) (A) (A) (A) (A) (A)
                 (A) (A) (A) (A) (A) (A) (A) (A) (A) (A) (A) (A)
                 (A) (A) (A) (A) (A) (A) (A) (A) (A) (A) (A) (A)
                 (A) (A) (A) (A) (A) (A) (A) (A) (A) (A) (A) (A)
                 (A) (A) (A) (A) (A) (A) (A) (A) (A) (A) (A) (A)
                 (A) (A) (A) (A) (A) (A) (A) (A) (A) (A) (A) (A)
                 (A) (A) (A) (A) (A) (A) (A) (A) (A) (A) (A) (A)
                 (A) (A) (A) (A) (A) (A) (A) (A) (A) (A) (A) (A)
                 (A) (A) (A) (A) (A) (A) (A) (A) (A) (A) (A) (A)
                 (A) (A) (A) (A) (A) (A) (A) (A) (A) (A) (A) (A)
                 (A) (A) (A) (A) (A) (A) (A) (A) (A) (A) (A) (A)
                 (A) (A) (A) (A) (A) (A) (A) (A) (A) (A) (A) (A)
                 (A) (A) (A) (A) (A) (A) (A) (A) (A) (A) (A) (A)
                 (A) (A) (A) (A) (A) (A) (A) (A) (A) (A) (A) (A)
                 (A) (A) (A) (A) (A) (A) (A) (A) (A) (A) (A) (A)
                 (A) (A) (A) (A) (A) (A) (A) (A) (A) (A) (A) (A)
                 (A) (A) (A) (A) (A) (A) (A) (A) (A) (A) (A) (A)
                 (A) (A) (A) (A) (A) (A) (A) (A) (A) (A) (A) (A)
                 (A) (A) (A) (A) (A) (A) (A) (A) (A) (A) (A) (A)
                 (A) (A) (A) (A) (A) (A) (A) (A) (A) (A) (A) (A)
                 (A) (A) (A) (A) (A) (A) (A) (A) (A) (A) (A) (A)
                 (A) (A) (A) (A) (A) (A) (A) (A) (A) (A) (A) (A)
                 (A) (A) (A) (A) (A) (A) (A) (A) (A) (A) (A) (A)
                 (A) (A) (A) (A) (A) (A) (A) (A) (A) (A) (A) (A)
                 (A) (A) (A) (A) (A) (A) (A) (A) (A) (A) (A) (A)
                 (A) (A) (A) (A) (A) (A) (A) (A) (A) (A) (A) (A)
                 (A) (A) (A) (A) (A) (A) (A) (A) (A) (A) (A) (A)
                 (A) (A) (A) (A) (A) (A) (A) (A) (A) (A) (A) (A)
                 (A) (A) (A) (A) (A) (A) (A) (A) (A) (A) (A) (A)
                 (A) (A) (A) (A) (A) (A) (A) (A) (A) (A) (A) (A)
                 (A) (A) (A) (A) (A) (A) (A) (A) (A) (A) (A) (A)
                 (A) (A) (A) (A) (A) (A) (A) (A) (A) (A) (A) (A)
                 (A) (A) (A) (A) (A) (A) (A) (A) (A) (A) (A) (A)
                 (A) (A) (A) (A) (A) (A) (A) (A) (A) (A) (A) (A)
                 (A) (A) (A) (A) (A) (A) (A) (A) (A) (A) (A) (A)
                 (A) (A) (A) (A) (A) (A) (A) (A) (A) (A) (A) (A)
                 (A) (A) (A) (A) (A) (A) (A) (A) (A) (A) (A) (A)
                 (A) (A) (A) (A) (A) (A) (A) (A) (A) (A) (A) (A)
                 (A) (A) (A) (A) (A) (A) (A) (A) (A) (A) (A) (A)
                 (A) (A) (A) (A) (A) (A) (A) (A) (A) (A) (A) (A)
     4 initial guesses have been made.
 Convergence on wavefunction:    0.001000000000000
 Iteration     1 Dimension     4 NMult     0 NNew      4
 CISAX will form     4 AO SS matrices at one time.
 Iteration     2 Dimension     6 NMult     4 NNew      2
 Iteration     3 Dimension     8 NMult     6 NNew      2
 Iteration     4 Dimension    10 NMult     8 NNew      2
 Iteration     5 Dimension    12 NMult    10 NNew      2
 Iteration     6 Dimension    14 NMult    12 NNew      2
 ***********************************************************************
 Excited states from <AA,BB:AA,BB> singles matrix:
 ***********************************************************************
 
 Ground to excited state transition densities written to RWF  633
 Ground to excited state transition electric dipole moments (Au):
       state          X           Y           Z        Dip. S.      Osc.
         1        -0.6305      2.4921     -0.1977      6.6473      0.2984
 Ground to excited state transition velocity dipole moments (Au):
       state          X           Y           Z        Dip. S.      Osc.
         1         0.0441     -0.1626      0.0129      0.0285      0.2826
 Ground to excited state transition magnetic dipole moments (Au):
       state          X           Y           Z
         1         0.2762      0.4630      2.0360
 Ground to excited state transition velocity quadrupole moments (Au):
       state          XX          YY          ZZ          XY          XZ          YZ
         1         0.4021     -0.6368      0.0552     -0.4734     -0.0276      0.0244
 <0|del|b> * <b|rxdel|0> + <0|del|b> * <b|delr+rdel|0>
 Rotatory Strengths (R) in cgs (10**-40 erg-esu-cm/Gauss)
       state          XX          YY          ZZ    R(velocity)    E-M Angle
         1      -313.3117    239.0380   -313.4856   -129.2531       95.96
 1/2[<0|r|b>*<b|rxdel|0> + (<0|rxdel|b>*<b|r|0>)*]
 Rotatory Strengths (R) in cgs (10**-40 erg-esu-cm/Gauss)
       state          XX          YY          ZZ     R(length)
         1       123.1341   -815.8980    284.7048   -136.0197
  1/2[<0|del|b>*<b|r|0> + (<0|r|b>*<b|del|0>)*] (Au)
       state          X           Y           Z        Dip. S.   Osc.(frdel)
         1        -0.0278     -0.4052     -0.0025      0.4355      0.2903

 Excitation energies and oscillator strengths:
 
 Excited State   1:      Singlet-A      1.8321 eV  676.73 nm  f=0.2984  <S**2>=0.000
     156 ->157         0.70692
     156 <-157        -0.10163
 This state for optimization and/or second-order correction.
 Total Energy, E(TD-HF/TD-DFT) =  -1949.03926774    
 Copying the excited state density for this state as the 1-particle RhoCI density.
 SavETr:  write IOETrn=   770 NScale= 10 NData=  16 NLR=1 NState=    1 LETran=      28.

 **********************************************************************

            Population analysis using the SCF density.

 **********************************************************************

 Orbital symmetries:
       Occupied  (A) (A) (A) (A) (A) (A) (A) (A) (A) (A) (A) (A)
                 (A) (A) (A) (A) (A) (A) (A) (A) (A) (A) (A) (A)
                 (A) (A) (A) (A) (A) (A) (A) (A) (A) (A) (A) (A)
                 (A) (A) (A) (A) (A) (A) (A) (A) (A) (A) (A) (A)
                 (A) (A) (A) (A) (A) (A) (A) (A) (A) (A) (A) (A)
                 (A) (A) (A) (A) (A) (A) (A) (A) (A) (A) (A) (A)
                 (A) (A) (A) (A) (A) (A) (A) (A) (A) (A) (A) (A)
                 (A) (A) (A) (A) (A) (A) (A) (A) (A) (A) (A) (A)
                 (A) (A) (A) (A) (A) (A) (A) (A) (A) (A) (A) (A)
                 (A) (A) (A) (A) (A) (A) (A) (A) (A) (A) (A) (A)
                 (A) (A) (A) (A) (A) (A) (A) (A) (A) (A) (A) (A)
                 (A) (A) (A) (A) (A) (A) (A) (A) (A) (A) (A) (A)
                 (A) (A) (A) (A) (A) (A) (A) (A) (A) (A) (A) (A)
       Virtual   (A) (A) (A) (A) (A) (A) (A) (A) (A) (A) (A) (A)
                 (A) (A) (A) (A) (A) (A) (A) (A) (A) (A) (A) (A)
                 (A) (A) (A) (A) (A) (A) (A) (A) (A) (A) (A) (A)
                 (A) (A) (A) (A) (A) (A) (A) (A) (A) (A) (A) (A)
                 (A) (A) (A) (A) (A) (A) (A) (A) (A) (A) (A) (A)
                 (A) (A) (A) (A) (A) (A) (A) (A) (A) (A) (A) (A)
                 (A) (A) (A) (A) (A) (A) (A) (A) (A) (A) (A) (A)
                 (A) (A) (A) (A) (A) (A) (A) (A) (A) (A) (A) (A)
                 (A) (A) (A) (A) (A) (A) (A) (A) (A) (A) (A) (A)
                 (A) (A) (A) (A) (A) (A) (A) (A) (A) (A) (A) (A)
                 (A) (A) (A) (A) (A) (A) (A) (A) (A) (A) (A) (A)
                 (A) (A) (A) (A) (A) (A) (A) (A) (A) (A) (A) (A)
                 (A) (A) (A) (A) (A) (A) (A) (A) (A) (A) (A) (A)
                 (A) (A) (A) (A) (A) (A) (A) (A) (A) (A) (A) (A)
                 (A) (A) (A) (A) (A) (A) (A) (A) (A) (A) (A) (A)
                 (A) (A) (A) (A) (A) (A) (A) (A) (A) (A) (A) (A)
                 (A) (A) (A) (A) (A) (A) (A) (A) (A) (A) (A) (A)
                 (A) (A) (A) (A) (A) (A) (A) (A) (A) (A) (A) (A)
                 (A) (A) (A) (A) (A) (A) (A) (A) (A) (A) (A) (A)
                 (A) (A) (A) (A) (A) (A) (A) (A) (A) (A) (A) (A)
                 (A) (A) (A) (A) (A) (A) (A) (A) (A) (A) (A) (A)
                 (A) (A) (A) (A) (A) (A) (A) (A) (A) (A) (A) (A)
                 (A) (A) (A) (A) (A) (A) (A) (A) (A) (A) (A) (A)
                 (A) (A) (A) (A) (A) (A) (A) (A) (A) (A) (A) (A)
                 (A) (A) (A) (A) (A) (A) (A) (A) (A) (A) (A) (A)
                 (A) (A) (A) (A) (A) (A) (A) (A) (A) (A) (A) (A)
                 (A) (A) (A) (A) (A) (A) (A) (A) (A) (A) (A) (A)
                 (A) (A) (A) (A) (A) (A) (A) (A) (A) (A) (A) (A)
                 (A) (A) (A) (A) (A) (A) (A) (A) (A) (A) (A) (A)
                 (A) (A) (A) (A) (A) (A) (A) (A) (A) (A) (A) (A)
                 (A) (A) (A) (A) (A) (A) (A) (A) (A) (A) (A) (A)
                 (A) (A) (A) (A) (A) (A) (A) (A) (A) (A) (A) (A)
                 (A) (A) (A) (A) (A) (A) (A) (A) (A) (A) (A) (A)
                 (A) (A) (A) (A) (A) (A) (A) (A) (A) (A) (A) (A)
                 (A) (A) (A) (A) (A) (A) (A) (A) (A) (A) (A) (A)
                 (A) (A) (A) (A) (A) (A) (A) (A) (A) (A) (A) (A)
                 (A) (A) (A) (A) (A) (A) (A) (A) (A) (A) (A) (A)
                 (A) (A) (A) (A) (A) (A) (A) (A) (A) (A) (A) (A)
                 (A) (A) (A) (A) (A) (A) (A) (A) (A) (A) (A) (A)
                 (A) (A) (A) (A) (A) (A) (A) (A) (A) (A) (A) (A)
                 (A) (A) (A) (A) (A) (A) (A) (A) (A) (A) (A) (A)
                 (A) (A) (A) (A) (A) (A) (A) (A) (A) (A) (A) (A)
                 (A) (A) (A) (A) (A) (A) (A) (A) (A) (A) (A) (A)
                 (A) (A) (A) (A) (A) (A) (A) (A) (A) (A) (A) (A)
                 (A) (A) (A) (A) (A) (A) (A) (A) (A) (A) (A) (A)
                 (A) (A) (A) (A) (A) (A) (A) (A) (A) (A) (A) (A)
                 (A) (A) (A) (A) (A) (A) (A) (A) (A) (A) (A) (A)
                 (A) (A) (A) (A) (A) (A) (A) (A) (A) (A) (A) (A)
                 (A) (A) (A) (A) (A) (A) (A) (A) (A) (A) (A) (A)
                 (A) (A) (A) (A) (A) (A) (A) (A) (A) (A) (A) (A)
                 (A) (A) (A) (A) (A) (A) (A) (A) (A) (A) (A) (A)
                 (A) (A) (A) (A) (A) (A) (A) (A) (A) (A) (A) (A)
                 (A) (A) (A) (A) (A) (A) (A) (A) (A) (A) (A) (A)
 The electronic state is 1-A.
 Alpha  occ. eigenvalues --  -19.21911 -19.19992 -19.15591 -19.12843 -19.11870
 Alpha  occ. eigenvalues --  -19.11463 -14.38271 -14.35028 -14.34833 -14.29878
 Alpha  occ. eigenvalues --  -10.34438 -10.32036 -10.29053 -10.28474 -10.23942
 Alpha  occ. eigenvalues --  -10.23443 -10.22971 -10.22427 -10.22343 -10.21953
 Alpha  occ. eigenvalues --  -10.21935 -10.21532 -10.20966 -10.20620 -10.20608
 Alpha  occ. eigenvalues --  -10.20188 -10.20112 -10.20072 -10.20054 -10.19946
 Alpha  occ. eigenvalues --  -10.19636 -10.19618 -10.19600 -10.19156 -10.18892
 Alpha  occ. eigenvalues --  -10.18833 -10.18810 -10.18804 -10.18691 -10.18600
 Alpha  occ. eigenvalues --  -10.17907 -10.17854 -10.17640  -1.12948  -1.10997
 Alpha  occ. eigenvalues --   -1.03874  -1.03510  -1.02357  -0.98709  -0.98318
 Alpha  occ. eigenvalues --   -0.95961  -0.93813  -0.92398  -0.82047  -0.81496
 Alpha  occ. eigenvalues --   -0.80815  -0.80241  -0.79884  -0.78423  -0.77228
 Alpha  occ. eigenvalues --   -0.76429  -0.76375  -0.75335  -0.73694  -0.72518
 Alpha  occ. eigenvalues --   -0.71488  -0.69669  -0.69226  -0.67867  -0.67730
 Alpha  occ. eigenvalues --   -0.65741  -0.64607  -0.64009  -0.62874  -0.61388
 Alpha  occ. eigenvalues --   -0.60484  -0.59671  -0.58489  -0.57472  -0.56670
 Alpha  occ. eigenvalues --   -0.55709  -0.54532  -0.53774  -0.53065  -0.52417
 Alpha  occ. eigenvalues --   -0.52145  -0.51378  -0.51236  -0.50251  -0.49569
 Alpha  occ. eigenvalues --   -0.49336  -0.48801  -0.48711  -0.48165  -0.48101
 Alpha  occ. eigenvalues --   -0.47161  -0.46928  -0.46355  -0.46138  -0.45589
 Alpha  occ. eigenvalues --   -0.44704  -0.44374  -0.44063  -0.43852  -0.43679
 Alpha  occ. eigenvalues --   -0.43070  -0.42949  -0.42757  -0.42424  -0.42020
 Alpha  occ. eigenvalues --   -0.41876  -0.41754  -0.41367  -0.41058  -0.40916
 Alpha  occ. eigenvalues --   -0.40663  -0.40239  -0.40127  -0.39954  -0.39675
 Alpha  occ. eigenvalues --   -0.39557  -0.39035  -0.38646  -0.38382  -0.38123
 Alpha  occ. eigenvalues --   -0.37584  -0.37209  -0.37163  -0.36910  -0.36117
 Alpha  occ. eigenvalues --   -0.36061  -0.35587  -0.35501  -0.35388  -0.35033
 Alpha  occ. eigenvalues --   -0.34509  -0.34469  -0.34194  -0.33884  -0.33801
 Alpha  occ. eigenvalues --   -0.33291  -0.31868  -0.31373  -0.30204  -0.29502
 Alpha  occ. eigenvalues --   -0.29238  -0.27177  -0.26485  -0.25687  -0.25081
 Alpha  occ. eigenvalues --   -0.24909  -0.24807  -0.24396  -0.23707  -0.21021
 Alpha  occ. eigenvalues --   -0.17094
 Alpha virt. eigenvalues --   -0.09658  -0.05709  -0.02925  -0.02144  -0.00878
 Alpha virt. eigenvalues --    0.00593   0.00745   0.02711   0.03252   0.04482
 Alpha virt. eigenvalues --    0.04782   0.04954   0.05227   0.05689   0.06190
 Alpha virt. eigenvalues --    0.06482   0.07064   0.07188   0.08130   0.08336
 Alpha virt. eigenvalues --    0.08611   0.08901   0.09323   0.09920   0.10027
 Alpha virt. eigenvalues --    0.10234   0.10614   0.11436   0.11551   0.11662
 Alpha virt. eigenvalues --    0.11875   0.12212   0.12514   0.12656   0.13195
 Alpha virt. eigenvalues --    0.13271   0.13591   0.13792   0.14235   0.14375
 Alpha virt. eigenvalues --    0.14913   0.15304   0.15421   0.15668   0.15964
 Alpha virt. eigenvalues --    0.16324   0.16520   0.17117   0.17622   0.17809
 Alpha virt. eigenvalues --    0.18289   0.18923   0.19722   0.19836   0.20346
 Alpha virt. eigenvalues --    0.20988   0.21325   0.21391   0.22139   0.22380
 Alpha virt. eigenvalues --    0.22425   0.23025   0.23399   0.23628   0.24129
 Alpha virt. eigenvalues --    0.24876   0.25045   0.25274   0.25633   0.25986
 Alpha virt. eigenvalues --    0.26142   0.26481   0.27676   0.28013   0.28309
 Alpha virt. eigenvalues --    0.28881   0.29340   0.29784   0.30464   0.31614
 Alpha virt. eigenvalues --    0.32100   0.32536   0.33126   0.33210   0.34222
 Alpha virt. eigenvalues --    0.34763   0.35028   0.35308   0.36298   0.36740
 Alpha virt. eigenvalues --    0.37033   0.37362   0.37899   0.38595   0.39046
 Alpha virt. eigenvalues --    0.39538   0.39788   0.40298   0.40482   0.41386
 Alpha virt. eigenvalues --    0.41517   0.42039   0.42713   0.42816   0.43473
 Alpha virt. eigenvalues --    0.43824   0.44330   0.44607   0.45019   0.45160
 Alpha virt. eigenvalues --    0.45501   0.45824   0.46030   0.46148   0.46622
 Alpha virt. eigenvalues --    0.46710   0.47227   0.47393   0.47656   0.48012
 Alpha virt. eigenvalues --    0.48201   0.48449   0.48737   0.48944   0.49060
 Alpha virt. eigenvalues --    0.49622   0.50298   0.50450   0.50785   0.51127
 Alpha virt. eigenvalues --    0.51352   0.52037   0.52392   0.53019   0.53478
 Alpha virt. eigenvalues --    0.54144   0.55089   0.55456   0.55573   0.55961
 Alpha virt. eigenvalues --    0.56464   0.56750   0.56952   0.57723   0.57756
 Alpha virt. eigenvalues --    0.58062   0.58365   0.58418   0.59108   0.59272
 Alpha virt. eigenvalues --    0.59435   0.59734   0.59935   0.60347   0.60814
 Alpha virt. eigenvalues --    0.61164   0.61585   0.62104   0.62474   0.62703
 Alpha virt. eigenvalues --    0.62816   0.63007   0.63431   0.63666   0.63936
 Alpha virt. eigenvalues --    0.64532   0.64568   0.64646   0.65100   0.65375
 Alpha virt. eigenvalues --    0.65602   0.65825   0.65860   0.66184   0.66505
 Alpha virt. eigenvalues --    0.66837   0.67097   0.67333   0.67361   0.67639
 Alpha virt. eigenvalues --    0.67852   0.67907   0.68266   0.68639   0.68719
 Alpha virt. eigenvalues --    0.68899   0.68943   0.69185   0.69815   0.70079
 Alpha virt. eigenvalues --    0.70225   0.70521   0.70850   0.71070   0.71289
 Alpha virt. eigenvalues --    0.71649   0.71807   0.72016   0.72224   0.72399
 Alpha virt. eigenvalues --    0.72664   0.73054   0.73472   0.73616   0.73946
 Alpha virt. eigenvalues --    0.74144   0.74880   0.75023   0.75525   0.75748
 Alpha virt. eigenvalues --    0.76128   0.76673   0.77045   0.77637   0.78109
 Alpha virt. eigenvalues --    0.78373   0.79077   0.79753   0.79852   0.80498
 Alpha virt. eigenvalues --    0.80679   0.81167   0.81473   0.81966   0.82586
 Alpha virt. eigenvalues --    0.83051   0.83588   0.83970   0.84838   0.85121
 Alpha virt. eigenvalues --    0.86913   0.87015   0.87638   0.88119   0.89670
 Alpha virt. eigenvalues --    0.90262   0.90651   0.91694   0.91906   0.92205
 Alpha virt. eigenvalues --    0.92464   0.93429   0.93869   0.94523   0.95203
 Alpha virt. eigenvalues --    0.95731   0.95775   0.96450   0.97173   0.97426
 Alpha virt. eigenvalues --    0.97973   0.99059   0.99603   1.00316   1.00805
 Alpha virt. eigenvalues --    1.01125   1.01684   1.02265   1.02661   1.02817
 Alpha virt. eigenvalues --    1.03135   1.04558   1.05583   1.06017   1.06894
 Alpha virt. eigenvalues --    1.07334   1.08277   1.08932   1.10260   1.10830
 Alpha virt. eigenvalues --    1.11068   1.11898   1.12157   1.12772   1.12977
 Alpha virt. eigenvalues --    1.13467   1.13864   1.15356   1.16073   1.16919
 Alpha virt. eigenvalues --    1.17079   1.17696   1.18273   1.19026   1.20195
 Alpha virt. eigenvalues --    1.21288   1.22496   1.22961   1.23407   1.24034
 Alpha virt. eigenvalues --    1.24606   1.24801   1.25337   1.26195   1.26572
 Alpha virt. eigenvalues --    1.27374   1.28072   1.28929   1.29553   1.30216
 Alpha virt. eigenvalues --    1.30972   1.31332   1.32275   1.32860   1.33315
 Alpha virt. eigenvalues --    1.33707   1.34183   1.34921   1.35353   1.36058
 Alpha virt. eigenvalues --    1.37015   1.37385   1.38246   1.38865   1.39335
 Alpha virt. eigenvalues --    1.39985   1.40255   1.40687   1.41567   1.42619
 Alpha virt. eigenvalues --    1.43078   1.43708   1.44362   1.46324   1.46441
 Alpha virt. eigenvalues --    1.48122   1.48433   1.48973   1.49587   1.49977
 Alpha virt. eigenvalues --    1.50839   1.52122   1.52364   1.52680   1.53034
 Alpha virt. eigenvalues --    1.53344   1.53673   1.54664   1.55104   1.55352
 Alpha virt. eigenvalues --    1.55492   1.55868   1.56085   1.56359   1.57026
 Alpha virt. eigenvalues --    1.57385   1.58122   1.58360   1.59437   1.59992
 Alpha virt. eigenvalues --    1.61070   1.61293   1.61571   1.62355   1.63236
 Alpha virt. eigenvalues --    1.63655   1.63960   1.64479   1.65010   1.65455
 Alpha virt. eigenvalues --    1.65756   1.66495   1.67101   1.67317   1.67692
 Alpha virt. eigenvalues --    1.68582   1.68889   1.69168   1.69824   1.69905
 Alpha virt. eigenvalues --    1.70485   1.70644   1.70898   1.71058   1.71500
 Alpha virt. eigenvalues --    1.71798   1.72089   1.72739   1.73073   1.73953
 Alpha virt. eigenvalues --    1.74328   1.74745   1.75027   1.75510   1.76011
 Alpha virt. eigenvalues --    1.76718   1.76930   1.77269   1.77590   1.77886
 Alpha virt. eigenvalues --    1.78019   1.78610   1.79567   1.79612   1.80130
 Alpha virt. eigenvalues --    1.80252   1.80751   1.81367   1.81739   1.82199
 Alpha virt. eigenvalues --    1.82372   1.82846   1.83148   1.83308   1.83686
 Alpha virt. eigenvalues --    1.83906   1.84159   1.84389   1.84738   1.85393
 Alpha virt. eigenvalues --    1.85785   1.85976   1.86206   1.86632   1.86871
 Alpha virt. eigenvalues --    1.87438   1.87934   1.88343   1.88441   1.88897
 Alpha virt. eigenvalues --    1.89977   1.90065   1.90579   1.90969   1.91623
 Alpha virt. eigenvalues --    1.91873   1.92305   1.92804   1.94167   1.94538
 Alpha virt. eigenvalues --    1.94925   1.95280   1.95741   1.96227   1.96741
 Alpha virt. eigenvalues --    1.97156   1.97454   1.97804   1.98148   1.98910
 Alpha virt. eigenvalues --    1.99286   1.99645   2.00286   2.00611   2.01468
 Alpha virt. eigenvalues --    2.02174   2.02416   2.03005   2.03650   2.04757
 Alpha virt. eigenvalues --    2.05540   2.06190   2.06439   2.06799   2.07555
 Alpha virt. eigenvalues --    2.07990   2.08091   2.08498   2.09761   2.09958
 Alpha virt. eigenvalues --    2.10205   2.11272   2.12058   2.12175   2.12940
 Alpha virt. eigenvalues --    2.13356   2.14107   2.14634   2.15567   2.16320
 Alpha virt. eigenvalues --    2.16787   2.17547   2.17923   2.19048   2.19975
 Alpha virt. eigenvalues --    2.20330   2.20835   2.21190   2.21333   2.21932
 Alpha virt. eigenvalues --    2.22876   2.23002   2.24144   2.24317   2.25073
 Alpha virt. eigenvalues --    2.25475   2.26395   2.26904   2.27144   2.28052
 Alpha virt. eigenvalues --    2.29029   2.29546   2.31356   2.32643   2.33324
 Alpha virt. eigenvalues --    2.34129   2.34920   2.35088   2.35540   2.36540
 Alpha virt. eigenvalues --    2.37011   2.37489   2.37662   2.38357   2.38697
 Alpha virt. eigenvalues --    2.39751   2.40467   2.40935   2.42178   2.42787
 Alpha virt. eigenvalues --    2.43140   2.43611   2.45194   2.46260   2.46328
 Alpha virt. eigenvalues --    2.47107   2.47911   2.48081   2.48923   2.49776
 Alpha virt. eigenvalues --    2.51241   2.51816   2.52079   2.52825   2.53205
 Alpha virt. eigenvalues --    2.53859   2.54526   2.55449   2.55818   2.56883
 Alpha virt. eigenvalues --    2.57176   2.58803   2.59638   2.60222   2.60364
 Alpha virt. eigenvalues --    2.61108   2.61814   2.61945   2.63678   2.63972
 Alpha virt. eigenvalues --    2.64486   2.65232   2.65688   2.65938   2.66717
 Alpha virt. eigenvalues --    2.67148   2.67669   2.68005   2.68276   2.69086
 Alpha virt. eigenvalues --    2.70307   2.70761   2.70806   2.71329   2.72040
 Alpha virt. eigenvalues --    2.72224   2.73042   2.74243   2.75027   2.75879
 Alpha virt. eigenvalues --    2.76077   2.77027   2.77318   2.78787   2.79493
 Alpha virt. eigenvalues --    2.80350   2.81026   2.81434   2.82034   2.82788
 Alpha virt. eigenvalues --    2.83530   2.84157   2.84671   2.85310   2.86573
 Alpha virt. eigenvalues --    2.87084   2.87774   2.88164   2.88461   2.89454
 Alpha virt. eigenvalues --    2.90268   2.90739   2.91648   2.93626   2.93965
 Alpha virt. eigenvalues --    2.94280   2.94860   2.95235   2.96818   2.97178
 Alpha virt. eigenvalues --    2.99088   2.99391   2.99926   3.01675   3.02727
 Alpha virt. eigenvalues --    3.03570   3.03990   3.04900   3.05382   3.06730
 Alpha virt. eigenvalues --    3.08232   3.11098   3.11343   3.11729   3.12362
 Alpha virt. eigenvalues --    3.12632   3.13875   3.14886   3.16297   3.17468
 Alpha virt. eigenvalues --    3.18206   3.18726   3.18917   3.19392   3.20605
 Alpha virt. eigenvalues --    3.24926   3.25086   3.26476   3.28141   3.28688
 Alpha virt. eigenvalues --    3.31923   3.34826   3.38125   3.41460   3.43687
 Alpha virt. eigenvalues --    3.44480   3.50109   3.53166   3.56190   3.59338
 Alpha virt. eigenvalues --    3.61600   3.63246   3.66337   3.66777   3.71140
 Alpha virt. eigenvalues --    3.80981
          Condensed to atoms (all electrons):
 Mulliken charges:
               1
     1  O   -0.200002
     2  O   -0.205106
     3  O   -0.091145
     4  O   -0.231161
     5  O   -0.286383
     6  O   -0.164474
     7  N   -0.102715
     8  N   -0.192139
     9  N   -0.137140
    10  N   -0.322423
    11  C   -0.061757
    12  C    0.029078
    13  C   -0.166980
    14  C    0.074820
    15  C   -0.079124
    16  C    0.115381
    17  C   -0.165143
    18  C   -0.174581
    19  C   -0.029821
    20  C    0.114564
    21  C    0.074585
    22  C    0.139633
    23  C   -0.043347
    24  C    0.067296
    25  C   -0.091983
    26  C    0.201210
    27  C    0.098018
    28  C    0.007880
    29  C    0.031645
    30  C    0.203412
    31  C   -0.118091
    32  C    0.029420
    33  C   -0.142617
    34  C    0.038622
    35  C   -0.119123
    36  C   -0.176361
    37  C    0.163752
    38  C   -0.042086
    39  C    0.106873
    40  C    0.028819
    41  C    0.194615
    42  C    0.166108
    43  C    0.048000
    44  H    0.203508
    45  H    0.094979
    46  H    0.044152
    47  H    0.035358
    48  H   -0.018795
    49  H    0.035101
    50  H    0.014537
    51  H   -0.016743
    52  H    0.188644
    53  H   -0.049615
    54  H    0.017856
    55  H   -0.008320
    56  H    0.077064
    57  H    0.062983
    58  H    0.019112
    59  H    0.023314
    60  H    0.029036
    61  H   -0.006803
    62  H   -0.037677
    63  H    0.036857
    64  H   -0.020652
    65  H    0.012019
    66  H    0.031970
    67  H    0.014078
    68  H   -0.011276
    69  H    0.115468
    70  H    0.028159
    71  H    0.046834
    72  H    0.009091
    73  H    0.009315
    74  H    0.029424
    75  H   -0.004321
    76  H   -0.000365
    77  H   -0.015190
    78  H    0.018414
    79  H    0.014252
    80  H    0.237440
    81  H    0.150766
 Sum of Mulliken charges =  -0.00000
 Mulliken charges with hydrogens summed into heavy atoms:
               1
     1  O   -0.200002
     2  O    0.032334
     3  O    0.059621
     4  O   -0.231161
     5  O   -0.286383
     6  O   -0.164474
     7  N    0.100793
     8  N   -0.003495
     9  N   -0.060076
    10  N   -0.322423
    11  C   -0.061757
    12  C    0.029078
    13  C   -0.166980
    14  C    0.074820
    15  C   -0.079124
    16  C    0.115381
    17  C   -0.070164
    18  C   -0.174581
    19  C    0.049689
    20  C    0.095769
    21  C    0.074585
    22  C    0.139633
    23  C   -0.043347
    24  C    0.116935
    25  C   -0.108726
    26  C    0.161131
    27  C    0.098018
    28  C    0.089974
    29  C    0.083995
    30  C    0.195789
    31  C   -0.138743
    32  C    0.087487
    33  C   -0.153893
    34  C    0.038622
    35  C   -0.119123
    36  C   -0.176361
    37  C    0.163752
    38  C    0.148375
    39  C    0.106873
    40  C    0.047225
    41  C    0.194615
    42  C    0.190846
    43  C    0.065476
 Electronic spatial extent (au):  <R**2>=          30612.6166
 Charge=             -0.0000 electrons
 Dipole moment (field-independent basis, Debye):
    X=             -2.3571    Y=              0.5265    Z=             -1.5980  Tot=              2.8960
 Quadrupole moment (field-independent basis, Debye-Ang):
   XX=           -252.1645   YY=           -229.8543   ZZ=           -253.5598
   XY=             24.0261   XZ=             21.0436   YZ=             -9.1368
 Traceless Quadrupole moment (field-independent basis, Debye-Ang):
   XX=             -6.9716   YY=             15.3386   ZZ=             -8.3669
   XY=             24.0261   XZ=             21.0436   YZ=             -9.1368
 Octapole moment (field-independent basis, Debye-Ang**2):
  XXX=             42.8878  YYY=            119.5466  ZZZ=            -28.5578  XYY=           -198.1645
  XXY=            -34.5549  XXZ=           -126.2909  XZZ=            -43.3617  YZZ=            -29.4233
  YYZ=             25.3714  XYZ=            -64.2303
 Hexadecapole moment (field-independent basis, Debye-Ang**3):
 XXXX=         -22694.1271 YYYY=         -15852.8344 ZZZZ=          -1555.9981 XXXY=            830.6041
 XXXZ=           1082.2199 YYYX=           1115.3826 YYYZ=           -329.2552 ZZZX=             79.8434
 ZZZY=             70.2444 XXYY=          -6290.8255 XXZZ=          -3936.2236 YYZZ=          -3002.5178
 XXYZ=            197.5686 YYXZ=            374.8125 ZZXY=            186.6643
 N-N= 5.043741157250D+03 E-N=-1.461931969267D+04  KE= 1.928631017673D+03
 1\1\GINC-RYZEN-SSD1\SP\RB3LYP TD-FC\SVP\C33H38N4O6\PADAWAN\27-Jun-2019
 \0\\# td=(NStates=1) B3LYP/SVP\\TD\\0,1\O,0,-4.6085109719,-4.829333014
 5,1.7410394675\O,0,2.8908496831,-4.7059751467,1.1535432861\O,0,7.05969
 6351,-1.5665341945,1.8672269432\O,0,3.903652098,-3.0451936446,-0.07342
 4484\O,0,7.6287916312,-0.7198933686,-0.1664562149\O,0,-3.1387142002,2.
 4695943569,-0.1334182464\N,0,-0.2542098027,-0.5176411139,-0.5008087171
 \N,0,1.5384115239,1.7650188807,-0.4849901611\N,0,-3.4515120942,-3.1303
 42081,0.6610945808\N,0,-0.7512665296,2.9056709853,-0.1030353274\C,0,0.
 6727285053,-2.4083662749,-1.2425763407\C,0,0.8925381876,-1.1115711082,
 -0.847997355\C,0,-0.6936836935,-2.6577596654,-1.1060408035\C,0,-1.2852
 106273,-1.4320868506,-0.5671981857\C,0,3.7517431156,1.4174162269,-0.33
 02892453\C,0,2.4733280258,0.7733986717,-0.5096025189\C,0,2.203547359,-
 0.4759637422,-0.8410663516\C,0,3.5507889158,2.7816461728,-0.0162123941
 \C,0,1.6226634188,-3.3794232081,-1.9351237134\C,0,-5.6258019154,-2.578
 3997496,1.3596159016\C,0,-3.6988219451,-1.8671717792,0.0781716022\C,0,
 2.1059248527,3.0020766359,-0.1126987469\C,0,-5.1287590722,-1.517137216
 9,0.4334919881\C,0,5.0950579839,0.6814078108,-0.3447875352\C,0,-2.6830
 192641,-1.1102377954,-0.3813085453\C,0,-1.453263264,-3.8310176041,-1.5
 222654702\C,0,-4.5915666235,-3.6881973254,1.3363327479\C,0,2.060726548
 7,-4.5414763673,-1.0045133071\C,0,5.4432942057,-0.2259086548,0.8744655
 527\C,0,4.6341492011,3.8489261239,0.3146236462\C,0,1.3306743088,4.1420
 986174,0.2539055101\C,0,-6.9552066513,-3.2935767375,1.0747769438\C,0,-
 5.7860572082,-0.4955642863,-0.1716186363\C,0,-0.1164466337,3.972321903
 8,0.1734159672\C,0,-0.9874297047,5.1691780108,0.395904219\C,0,-2.30217
 55438,4.7182979526,0.3585872616\C,0,3.1290057419,-3.9887454936,0.07269
 86689\C,0,-5.3120458654,0.488594088,-1.1727583428\C,0,6.8606286291,-0.
 8217504591,0.8281159342\C,0,-3.6014159009,5.3550918074,0.4291937345\C,
 0,-2.2237858149,3.2408762789,-0.0095900342\C,0,-0.4401881563,6.4833822
 062,0.7904841382\C,0,-4.0729758345,5.7784762525,-1.0426050362\H,0,-0.2
 964072056,0.4640821138,0.1557950262\H,0,3.2316271773,-1.2523072328,-1.
 041193628\H,0,2.6282040713,-2.8968943963,-2.3699994346\H,0,0.976154394
 7,-4.0052524428,-2.7915815247\H,0,-5.6059524014,-2.1610344925,2.231695
 33\H,0,5.1281231225,0.0207667932,-1.3118043334\H,0,5.8845904246,1.4503
 793472,-0.5113924388\H,0,-3.0304411398,-0.0872642302,-0.4823911447\H,0
 ,0.4026065924,1.7244236254,-0.4632858007\H,0,-1.6376193531,-4.28561066
 53,-0.721132919\H,0,-2.39300293,-3.7171994219,-2.0454238626\H,0,-0.954
 3653876,-4.5111692913,-2.2397575788\H,0,-2.7457083286,-3.7442605745,0.
 5167389209\H,0,1.0551113178,-5.0403465172,-0.5948832058\H,0,2.61686087
 19,-5.1766403725,-1.6135558695\H,0,4.8642508461,-1.1149775489,0.881388
 7251\H,0,5.3794921488,0.2162760642,1.9072751982\H,0,4.699677488,4.5622
 766951,-0.4029102737\H,0,5.5345300758,3.3682195412,0.1898755108\H,0,4.
 5160510225,4.2680523133,1.3677280767\H,0,1.6593717692,5.1749874283,0.4
 14511238\H,0,-7.9243852101,-2.7305090454,0.9894736414\H,0,-7.207966440
 9,-4.0486826342,1.8296053284\H,0,-6.8544436284,-3.7310808716,0.0572173
 109\H,0,-6.8765950012,-0.5064909804,0.0028522131\H,0,-4.6512299648,1.2
 237665736,-0.5278466328\H,0,-6.0416959993,1.0650241307,-1.8370403825\H
 ,0,-4.568085304,-0.0969028441,-1.9545866714\H,0,-3.5510449838,6.365179
 1737,1.1082385279\H,0,-4.374755153,4.8026894011,0.9189940372\H,0,0.215
 1860839,6.5303549954,1.6599287254\H,0,-1.2425956429,7.1721939149,1.030
 7423306\H,0,0.0610552931,6.9016686674,-0.0049041562\H,0,-3.2563859344,
 6.4145973428,-1.2691847346\H,0,-4.9551473378,6.3674994909,-1.236358777
 6\H,0,-3.9352980509,4.9390053928,-1.7027700154\H,0,3.8142867352,-4.545
 9388241,1.7931479518\H,0,7.8651937641,-1.9910597583,1.6942695896\\Vers
 ion=ES64L-G16RevA.03\State=1-A\HF=-1949.1065968\RMSD=6.852e-09\PG=C01 
 [X(C33H38N4O6)]\\@


 Money is a good servant but a bad master.
                        -- French Proverb
 Job cpu time:       0 days 16 hours 13 minutes 58.6 seconds.
 Elapsed time:       0 days  4 hours  4 minutes 40.6 seconds.
 File lengths (MBytes):  RWF=   2591 Int=      0 D2E=      0 Chk=     65 Scr=      1
 Normal termination of Gaussian 16 at Thu Jun 27 15:11:16 2019.
