 Entering Gaussian System, Link 0=g16
 Input=Geometria-405-.com
 Output=Geometria-405-.log
 Initial command:
 /usr/local/g16/l1.exe "/home/padawan/israel-mol/phycocyanobilin/spectra/abs/Gau-84281.inp" -scrdir="/home/padawan/israel-mol/phycocyanobilin/spectra/abs/"
 Entering Link 1 = /usr/local/g16/l1.exe PID=     84283.
  
 Copyright (c) 1988,1990,1992,1993,1995,1998,2003,2009,2016,
            Gaussian, Inc.  All Rights Reserved.
  
 This is part of the Gaussian(R) 16 program.  It is based on
 the Gaussian(R) 09 system (copyright 2009, Gaussian, Inc.),
 the Gaussian(R) 03 system (copyright 2003, Gaussian, Inc.),
 the Gaussian(R) 98 system (copyright 1998, Gaussian, Inc.),
 the Gaussian(R) 94 system (copyright 1995, Gaussian, Inc.),
 the Gaussian 92(TM) system (copyright 1992, Gaussian, Inc.),
 the Gaussian 90(TM) system (copyright 1990, Gaussian, Inc.),
 the Gaussian 88(TM) system (copyright 1988, Gaussian, Inc.),
 the Gaussian 86(TM) system (copyright 1986, Carnegie Mellon
 University), and the Gaussian 82(TM) system (copyright 1983,
 Carnegie Mellon University). Gaussian is a federally registered
 trademark of Gaussian, Inc.
  
 This software contains proprietary and confidential information,
 including trade secrets, belonging to Gaussian, Inc.
  
 This software is provided under written license and may be
 used, copied, transmitted, or stored only in accord with that
 written license.
  
 The following legend is applicable only to US Government
 contracts under FAR:
  
                    RESTRICTED RIGHTS LEGEND
  
 Use, reproduction and disclosure by the US Government is
 subject to restrictions as set forth in subparagraphs (a)
 and (c) of the Commercial Computer Software - Restricted
 Rights clause in FAR 52.227-19.
  
 Gaussian, Inc.
 340 Quinnipiac St., Bldg. 40, Wallingford CT 06492
  
  
 ---------------------------------------------------------------
 Warning -- This program may not be used in any manner that
 competes with the business of Gaussian, Inc. or will provide
 assistance to any competitor of Gaussian, Inc.  The licensee
 of this program is prohibited from giving any competitor of
 Gaussian, Inc. access to this program.  By using this program,
 the user acknowledges that Gaussian, Inc. is engaged in the
 business of creating and licensing software in the field of
 computational chemistry and represents and warrants to the
 licensee that it is not a competitor of Gaussian, Inc. and that
 it will not use this program in any manner prohibited above.
 ---------------------------------------------------------------
  

 Cite this work as:
 Gaussian 16, Revision A.03,
 M. J. Frisch, G. W. Trucks, H. B. Schlegel, G. E. Scuseria, 
 M. A. Robb, J. R. Cheeseman, G. Scalmani, V. Barone, 
 G. A. Petersson, H. Nakatsuji, X. Li, M. Caricato, A. V. Marenich, 
 J. Bloino, B. G. Janesko, R. Gomperts, B. Mennucci, H. P. Hratchian, 
 J. V. Ortiz, A. F. Izmaylov, J. L. Sonnenberg, D. Williams-Young, 
 F. Ding, F. Lipparini, F. Egidi, J. Goings, B. Peng, A. Petrone, 
 T. Henderson, D. Ranasinghe, V. G. Zakrzewski, J. Gao, N. Rega, 
 G. Zheng, W. Liang, M. Hada, M. Ehara, K. Toyota, R. Fukuda, 
 J. Hasegawa, M. Ishida, T. Nakajima, Y. Honda, O. Kitao, H. Nakai, 
 T. Vreven, K. Throssell, J. A. Montgomery, Jr., J. E. Peralta, 
 F. Ogliaro, M. J. Bearpark, J. J. Heyd, E. N. Brothers, K. N. Kudin, 
 V. N. Staroverov, T. A. Keith, R. Kobayashi, J. Normand, 
 K. Raghavachari, A. P. Rendell, J. C. Burant, S. S. Iyengar, 
 J. Tomasi, M. Cossi, J. M. Millam, M. Klene, C. Adamo, R. Cammi, 
 J. W. Ochterski, R. L. Martin, K. Morokuma, O. Farkas, 
 J. B. Foresman, and D. J. Fox, Gaussian, Inc., Wallingford CT, 2016.
 
 ******************************************
 Gaussian 16:  ES64L-G16RevA.03 25-Dec-2016
                 6-Jul-2019 
 ******************************************
 %nproc=4
 Will use up to    4 processors via shared memory.
 %Mem=4GB
 --------------------------
 # td=(NStates=1) B3LYP/SVP
 --------------------------
 1/38=1,172=1/1;
 2/12=2,17=6,18=5,40=1/2;
 3/5=18,7=101,11=9,25=1,30=1,74=-5/1,2,3,8;
 4//1;
 5/5=2,38=5/2;
 8/6=1,10=1,108=1/1;
 9/41=1,42=1,70=2/14;
 6/7=2,8=2,9=2,10=2/1;
 99/5=1,9=1/99;
 --
 TD
 --
 Symbolic Z-matrix:
 Charge =  0 Multiplicity = 1
 8                    -4.54791  -4.7414    1.91318 
 8                     2.72439  -4.78374   1.32056 
 8                     7.13162  -1.4935    1.74498 
 8                     3.59817  -3.07878   0.18248 
 8                     7.57293  -0.54514  -0.15048 
 8                    -2.99504   2.31946  -0.11173 
 7                    -0.25963  -0.49474  -0.59817 
 7                     1.5679    1.80465  -0.33721 
 7                    -3.39725  -3.13668   0.59067 
 7                    -0.72056   2.87101  -0.03686 
 6                     0.71188  -2.46043  -1.40145 
 6                     0.91718  -1.18883  -0.86389 
 6                    -0.6877   -2.67199  -1.22829 
 6                    -1.265    -1.41615  -0.73303 
 6                     3.84572   1.44822  -0.41128 
 6                     2.50141   0.72147  -0.56571 
 6                     2.21494  -0.53796  -0.91762 
 6                     3.62452   2.72467  -0.07909 
 6                     1.57258  -3.4394   -1.83464 
 6                    -5.63592  -2.60894   1.25638 
 6                    -3.58794  -1.87109   0.08555 
 6                     2.15234   3.00048  -0.03051 
 6                    -5.05776  -1.55773   0.37764 
 6                     5.11238   0.68308  -0.42947 
 6                    -2.67876  -1.0166   -0.39446 
 6                    -1.46822  -3.88548  -1.76036 
 6                    -4.49548  -3.6092    1.3071 
 6                     1.9745   -4.55311  -0.88061 
 6                     5.4736   -0.18573   0.82101 
 6                     4.56536   3.94296   0.29054 
 6                     1.2991    4.13981   0.1386 
 6                    -6.99155  -3.08878   1.07464 
 6                    -5.73384  -0.5988   -0.20338 
 6                    -0.11789   4.05462   0.23213 
 6                    -0.98488   5.18925   0.57126 
 6                    -2.31263   4.66082   0.52947 
 6                     2.93308  -4.05174   0.17695 
 6                    -5.38596   0.22633  -1.37516 
 6                     6.86298  -0.78359   0.68361 
 6                    -3.47148   5.33923   0.49212 
 6                    -2.05988   3.15524   0.07909 
 6                    -0.58868   6.5865    0.85476 
 6                    -4.01095   5.85101  -0.91659 
 1                    -0.35368   0.36459  -0.2206 
 1                     3.04752  -0.96531  -0.93327 
 1                     2.53009  -3.18138  -2.40084 
 1                     1.18911  -3.9902   -2.7825 
 1                    -5.74299  -1.93145   2.31159 
 1                     4.90086   0.18598  -1.34964 
 1                     5.81643   1.46681  -0.42709 
 1                    -2.80422   0.02772  -0.38255 
 1                     0.55813   1.95404  -0.59207 
 1                    -1.72136  -4.80974  -1.04492 
 1                    -2.65006  -3.48324  -1.78889 
 1                    -1.04174  -4.15695  -2.75184 
 1                    -2.55493  -3.89596   0.70231 
 1                     1.21703  -5.07391  -0.3411 
 1                     2.75807  -5.465    -1.26877 
 1                     4.8788   -1.31473   0.71434 
 1                     5.28639   0.2621    1.75667 
 1                     4.14556   4.77313  -0.22461 
 1                     5.66806   3.63347  -0.08962 
 1                     4.39618   4.28193   1.31418 
 1                     1.72722   5.14242   0.34271 
 1                    -7.9817   -2.57589   1.28893 
 1                    -7.09721  -3.90091   1.73042 
 1                    -7.04818  -3.4774    0.00983 
 1                    -7.05145  -0.78129  -0.23008 
 1                    -4.99287   1.1898   -0.95683 
 1                    -6.35439   0.40227  -1.89348 
 1                    -4.54177  -0.09926  -1.97676 
 1                    -3.36988   6.37925   0.99801 
 1                    -4.53317   4.8896    0.93188 
 1                    -0.28759   6.63461   1.98803 
 1                    -1.47124   7.28177   0.85987 
 1                     0.14711   6.89324   0.0134 
 1                    -3.23597   6.30814  -1.49033 
 1                    -4.97384   6.24334  -0.7147 
 1                    -3.93144   4.96348  -1.59259 
 1                     3.28935  -4.43177   2.14965 
 1                     8.19191  -1.85692   1.70482 
 
 Stoichiometry    C33H38N4O6
 Framework group  C1[X(C33H38N4O6)]
 Deg. of freedom   237
 Full point group                 C1      NOp   1
 Largest Abelian subgroup         C1      NOp   1
 Largest concise Abelian subgroup C1      NOp   1
                         Standard orientation:                         
 ---------------------------------------------------------------------
 Center     Atomic      Atomic             Coordinates (Angstroms)
 Number     Number       Type             X           Y           Z
 ---------------------------------------------------------------------
      1          8           0        4.687862   -4.604503   -1.906363
      2          8           0       -2.581732   -4.859075   -1.333964
      3          8           0       -7.081682   -1.698067   -1.767570
      4          8           0       -3.507889   -3.181407   -0.196737
      5          8           0       -7.555605   -0.764858    0.127544
      6          8           0        2.924570    2.406134    0.120756
      7          7           0        0.270907   -0.486972    0.597003
      8          7           0       -1.622059    1.758518    0.333099
      9          7           0        3.487345   -3.035281   -0.585567
     10          7           0        0.635218    2.891327    0.040089
     11          6           0       -0.645182   -2.480914    1.395770
     12          6           0       -0.885928   -1.215285    0.858816
     13          6           0        0.760439   -2.651475    1.226298
     14          6           0        1.302294   -1.378862    0.733806
     15          6           0       -3.888732    1.335867    0.400521
     16          6           0       -2.524265    0.648399    0.558008
     17          6           0       -2.202224   -0.602516    0.909552
     18          6           0       -3.703861    2.618549    0.070128
     19          6           0       -1.478205   -3.484952    1.825665
     20          6           0        5.711532   -2.441941   -1.244573
     21          6           0        3.639733   -1.765186   -0.078754
     22          6           0       -2.240208    2.937133    0.025890
     23          6           0        5.100607   -1.408886   -0.366469
     24          6           0       -5.132626    0.534167    0.414487
     25          6           0        2.704750   -0.937998    0.399524
     26          6           0        1.574487   -3.842271    1.759405
     27          6           0        4.600827   -3.474914   -1.299386
     28          6           0       -1.844916   -4.608926    0.869491
     29          6           0       -5.464967   -0.343533   -0.837790
     30          6           0       -4.678751    3.809306   -0.300983
     31          6           0       -1.420033    4.100985   -0.139802
     32          6           0        7.080047   -2.882299   -1.059518
     33          6           0        5.746891   -0.431273    0.217310
     34          6           0       -0.000914    4.057167   -0.229477
     35          6           0        0.833614    5.216890   -0.565151
     36          6           0        2.176060    4.727288   -0.520169
     37          6           0       -2.814773   -4.134608   -0.190260
     38          6           0        5.371926    0.382206    1.388880
     39          6           0       -6.836730   -0.981706   -0.704799
     40          6           0        3.314571    5.439098   -0.478972
     41          6           0        1.966006    3.214533   -0.071879
     42          6           0        0.397696    6.602304   -0.848455
     43          6           0        3.835042    5.964948    0.931705
     44          1           0        0.340943    0.375112    0.220495
     45          1           0       -3.022052   -1.053931    0.922496
     46          1           0       -2.444376   -3.255482    2.389444
     47          1           0       -1.081467   -4.025312    2.774073
     48          1           0        5.801728   -1.760560   -2.298862
     49          1           0       -4.909256    0.042514    1.334782
     50          1           0       -5.859185    1.297079    0.410887
     51          1           0        2.799792    0.109538    0.388930
     52          1           0       -0.617766    1.936971    0.590901
     53          1           0        1.856379   -4.758053    1.043811
     54          1           0        2.744029   -3.405827    1.791585
     55          1           0        1.153367   -4.127036    2.749446
     56          1           0        2.667795   -3.818635   -0.700246
     57          1           0       -1.071128   -5.106919    0.331600
     58          1           0       -2.602681   -5.543626    1.254632
     59          1           0       -4.837858   -1.454843   -0.730516
     60          1           0       -5.288308    0.110502   -1.772512
     61          1           0       -4.284708    4.650826    0.216101
     62          1           0       -5.773016    3.467473    0.075833
     63          1           0       -4.516695    4.154094   -1.323837
     64          1           0       -1.876590    5.090921   -0.344172
     65          1           0        8.055435   -2.340601   -1.270592
     66          1           0        7.211097   -3.690352   -1.715752
     67          1           0        7.145043   -3.270176    0.005079
     68          1           0        7.069177   -0.575359    0.247496
     69          1           0        4.952110    1.334253    0.970354
     70          1           0        6.333392    0.585735    1.910045
     71          1           0        4.535921    0.031579    1.987834
     72          1           0        3.184126    6.476229   -0.984176
     73          1           0        4.390101    5.020999   -0.916195
     74          1           0        0.098448    6.642763   -1.982511
     75          1           0        1.259651    7.322973   -0.850467
     76          1           0       -0.349026    6.886649   -0.008853
     77          1           0        3.045517    6.398746    1.503710
     78          1           0        4.786656    6.385333    0.732845
     79          1           0        3.779541    5.074795    1.606657
     80          1           0       -3.154420   -4.522858   -2.164296
     81          1           0       -8.131044   -2.092231   -1.730684
 ---------------------------------------------------------------------
 Rotational constants (GHZ):           0.0759681           0.0547514           0.0340013
 Standard basis: SVP (5D, 7F)
 There are   835 symmetry adapted cartesian basis functions of A   symmetry.
 There are   792 symmetry adapted basis functions of A   symmetry.
   792 basis functions,  1341 primitive gaussians,   835 cartesian basis functions
   156 alpha electrons      156 beta electrons
       nuclear repulsion energy      5045.2426513397 Hartrees.
 NAtoms=   81 NActive=   81 NUniq=   81 SFac= 1.00D+00 NAtFMM=   60 NAOKFM=T Big=T
 Integral buffers will be    131072 words long.
 Regular integral format.
 Two-electron integral symmetry is turned on.
 One-electron integrals computed using PRISM.
 NBasis=   792 RedAO= T EigKep=  3.60D-04  NBF=   792
 NBsUse=   792 1.00D-06 EigRej= -1.00D+00 NBFU=   792
 ExpMin= 1.22D-01 ExpMax= 2.27D+03 ExpMxC= 3.41D+02 IAcc=3 IRadAn=         5 AccDes= 0.00D+00
 Harris functional with IExCor=  402 and IRadAn=       5 diagonalized for initial guess.
 HarFok:  IExCor=  402 AccDes= 0.00D+00 IRadAn=         5 IDoV= 1 UseB2=F ITyADJ=14
 ICtDFT=  3500011 ScaDFX=  1.000000  1.000000  1.000000  1.000000
 FoFCou: FMM=F IPFlag=           0 FMFlag=      100000 FMFlg1=        2001
         NFxFlg=           0 DoJE=T BraDBF=F KetDBF=T FulRan=T
         wScrn=  0.000000 ICntrl=       500 IOpCl=  0 I1Cent=   200000004 NGrid=           0
         NMat0=    1 NMatS0=      1 NMatT0=    0 NMatD0=    1 NMtDS0=    0 NMtDT0=    0
 Petite list used in FoFCou.
 Requested convergence on RMS density matrix=1.00D-08 within 128 cycles.
 Requested convergence on MAX density matrix=1.00D-06.
 Requested convergence on             energy=1.00D-06.
 No special actions if energy rises.
 Integral accuracy reduced to 1.0D-05 until final iterations.
 Initial convergence to 1.0D-05 achieved.  Increase integral accuracy.
 SCF Done:  E(RB3LYP) =  -1948.98820808     A.U. after   17 cycles
            NFock= 17  Conv=0.25D-08     -V/T= 2.0106
 DoSCS=F DFT=T ScalE2(SS,OS)=  1.000000  1.000000
 ExpMin= 1.22D-01 ExpMax= 2.27D+03 ExpMxC= 3.41D+02 IAcc=3 IRadAn=         5 AccDes= 0.00D+00
 HarFok:  IExCor=  205 AccDes= 0.00D+00 IRadAn=         5 IDoV=-2 UseB2=F ITyADJ=14
 ICtDFT= 12500011 ScaDFX=  1.000000  1.000000  1.000000  1.000000
 GSVD:  LWork=       -2193 too small for GESVD, short by        9890 words or        9890 for optimal perf.
 Range of M.O.s used for correlation:    44   792
 NBasis=   792 NAE=   156 NBE=   156 NFC=    43 NFV=     0
 NROrb=    749 NOA=   113 NOB=   113 NVA=   636 NVB=   636

 **** Warning!!: The smallest alpha delta epsilon is  0.78705849D-01

 Orbital symmetries:
       Occupied  (A) (A) (A) (A) (A) (A) (A) (A) (A) (A) (A) (A)
                 (A) (A) (A) (A) (A) (A) (A) (A) (A) (A) (A) (A)
                 (A) (A) (A) (A) (A) (A) (A) (A) (A) (A) (A) (A)
                 (A) (A) (A) (A) (A) (A) (A) (A) (A) (A) (A) (A)
                 (A) (A) (A) (A) (A) (A) (A) (A) (A) (A) (A) (A)
                 (A) (A) (A) (A) (A) (A) (A) (A) (A) (A) (A) (A)
                 (A) (A) (A) (A) (A) (A) (A) (A) (A) (A) (A) (A)
                 (A) (A) (A) (A) (A) (A) (A) (A) (A) (A) (A) (A)
                 (A) (A) (A) (A) (A) (A) (A) (A) (A) (A) (A) (A)
                 (A) (A) (A) (A) (A) (A) (A) (A) (A) (A) (A) (A)
                 (A) (A) (A) (A) (A) (A) (A) (A) (A) (A) (A) (A)
                 (A) (A) (A) (A) (A) (A) (A) (A) (A) (A) (A) (A)
                 (A) (A) (A) (A) (A) (A) (A) (A) (A) (A) (A) (A)
       Virtual   (A) (A) (A) (A) (A) (A) (A) (A) (A) (A) (A) (A)
                 (A) (A) (A) (A) (A) (A) (A) (A) (A) (A) (A) (A)
                 (A) (A) (A) (A) (A) (A) (A) (A) (A) (A) (A) (A)
                 (A) (A) (A) (A) (A) (A) (A) (A) (A) (A) (A) (A)
                 (A) (A) (A) (A) (A) (A) (A) (A) (A) (A) (A) (A)
                 (A) (A) (A) (A) (A) (A) (A) (A) (A) (A) (A) (A)
                 (A) (A) (A) (A) (A) (A) (A) (A) (A) (A) (A) (A)
                 (A) (A) (A) (A) (A) (A) (A) (A) (A) (A) (A) (A)
                 (A) (A) (A) (A) (A) (A) (A) (A) (A) (A) (A) (A)
                 (A) (A) (A) (A) (A) (A) (A) (A) (A) (A) (A) (A)
                 (A) (A) (A) (A) (A) (A) (A) (A) (A) (A) (A) (A)
                 (A) (A) (A) (A) (A) (A) (A) (A) (A) (A) (A) (A)
                 (A) (A) (A) (A) (A) (A) (A) (A) (A) (A) (A) (A)
                 (A) (A) (A) (A) (A) (A) (A) (A) (A) (A) (A) (A)
                 (A) (A) (A) (A) (A) (A) (A) (A) (A) (A) (A) (A)
                 (A) (A) (A) (A) (A) (A) (A) (A) (A) (A) (A) (A)
                 (A) (A) (A) (A) (A) (A) (A) (A) (A) (A) (A) (A)
                 (A) (A) (A) (A) (A) (A) (A) (A) (A) (A) (A) (A)
                 (A) (A) (A) (A) (A) (A) (A) (A) (A) (A) (A) (A)
                 (A) (A) (A) (A) (A) (A) (A) (A) (A) (A) (A) (A)
                 (A) (A) (A) (A) (A) (A) (A) (A) (A) (A) (A) (A)
                 (A) (A) (A) (A) (A) (A) (A) (A) (A) (A) (A) (A)
                 (A) (A) (A) (A) (A) (A) (A) (A) (A) (A) (A) (A)
                 (A) (A) (A) (A) (A) (A) (A) (A) (A) (A) (A) (A)
                 (A) (A) (A) (A) (A) (A) (A) (A) (A) (A) (A) (A)
                 (A) (A) (A) (A) (A) (A) (A) (A) (A) (A) (A) (A)
                 (A) (A) (A) (A) (A) (A) (A) (A) (A) (A) (A) (A)
                 (A) (A) (A) (A) (A) (A) (A) (A) (A) (A) (A) (A)
                 (A) (A) (A) (A) (A) (A) (A) (A) (A) (A) (A) (A)
                 (A) (A) (A) (A) (A) (A) (A) (A) (A) (A) (A) (A)
                 (A) (A) (A) (A) (A) (A) (A) (A) (A) (A) (A) (A)
                 (A) (A) (A) (A) (A) (A) (A) (A) (A) (A) (A) (A)
                 (A) (A) (A) (A) (A) (A) (A) (A) (A) (A) (A) (A)
                 (A) (A) (A) (A) (A) (A) (A) (A) (A) (A) (A) (A)
                 (A) (A) (A) (A) (A) (A) (A) (A) (A) (A) (A) (A)
                 (A) (A) (A) (A) (A) (A) (A) (A) (A) (A) (A) (A)
                 (A) (A) (A) (A) (A) (A) (A) (A) (A) (A) (A) (A)
                 (A) (A) (A) (A) (A) (A) (A) (A) (A) (A) (A) (A)
                 (A) (A) (A) (A) (A) (A) (A) (A) (A) (A) (A) (A)
                 (A) (A) (A) (A) (A) (A) (A) (A) (A) (A) (A) (A)
                 (A) (A) (A) (A) (A) (A) (A) (A) (A) (A) (A) (A)
                 (A) (A) (A) (A) (A) (A) (A) (A) (A) (A) (A) (A)
                 (A) (A) (A) (A) (A) (A) (A) (A) (A) (A) (A) (A)
                 (A) (A) (A) (A) (A) (A) (A) (A) (A) (A) (A) (A)
                 (A) (A) (A) (A) (A) (A) (A) (A) (A) (A) (A) (A)
                 (A) (A) (A) (A) (A) (A) (A) (A) (A) (A) (A) (A)
                 (A) (A) (A) (A) (A) (A) (A) (A) (A) (A) (A) (A)
                 (A) (A) (A) (A) (A) (A) (A) (A) (A) (A) (A) (A)
                 (A) (A) (A) (A) (A) (A) (A) (A) (A) (A) (A) (A)
                 (A) (A) (A) (A) (A) (A) (A) (A) (A) (A) (A) (A)
                 (A) (A) (A) (A) (A) (A) (A) (A) (A) (A) (A) (A)
                 (A) (A) (A) (A) (A) (A) (A) (A) (A) (A) (A) (A)
                 (A) (A) (A) (A) (A) (A) (A) (A) (A) (A) (A) (A)
     4 initial guesses have been made.
 Convergence on wavefunction:    0.001000000000000
 Iteration     1 Dimension     4 NMult     0 NNew      4
 CISAX will form     4 AO SS matrices at one time.
 Iteration     2 Dimension     6 NMult     4 NNew      2
 Iteration     3 Dimension     8 NMult     6 NNew      2
 Iteration     4 Dimension    10 NMult     8 NNew      2
 Iteration     5 Dimension    12 NMult    10 NNew      2
 Iteration     6 Dimension    14 NMult    12 NNew      2
 Iteration     7 Dimension    16 NMult    14 NNew      2
 ***********************************************************************
 Excited states from <AA,BB:AA,BB> singles matrix:
 ***********************************************************************
 
 Ground to excited state transition densities written to RWF  633
 Ground to excited state transition electric dipole moments (Au):
       state          X           Y           Z        Dip. S.      Osc.
         1         0.6235     -2.4159      0.2382      6.2822      0.2934
 Ground to excited state transition velocity dipole moments (Au):
       state          X           Y           Z        Dip. S.      Osc.
         1        -0.0445      0.1646     -0.0159      0.0293      0.2791
 Ground to excited state transition magnetic dipole moments (Au):
       state          X           Y           Z
         1        -0.3204     -0.5228     -2.0660
 Ground to excited state transition velocity quadrupole moments (Au):
       state          XX          YY          ZZ          XY          XZ          YZ
         1        -0.3278      0.6040     -0.0709      0.4898      0.0331     -0.0088
 <0|del|b> * <b|rxdel|0> + <0|del|b> * <b|delr+rdel|0>
 Rotatory Strengths (R) in cgs (10**-40 erg-esu-cm/Gauss)
       state          XX          YY          ZZ    R(velocity)    E-M Angle
         1      -335.7605    278.4307   -336.8938   -131.4078       96.07
 1/2[<0|r|b>*<b|rxdel|0> + (<0|rxdel|b>*<b|r|0>)*]
 Rotatory Strengths (R) in cgs (10**-40 erg-esu-cm/Gauss)
       state          XX          YY          ZZ     R(length)
         1       141.2568   -893.2345    347.9526   -134.6750
  1/2[<0|del|b>*<b|r|0> + (<0|r|b>*<b|del|0>)*] (Au)
       state          X           Y           Z        Dip. S.   Osc.(frdel)
         1        -0.0278     -0.3977     -0.0038      0.4293      0.2862

 Excitation energies and oscillator strengths:
 
 Excited State   1:      Singlet-A      1.9065 eV  650.33 nm  f=0.2934  <S**2>=0.000
     156 ->157         0.70608
 This state for optimization and/or second-order correction.
 Total Energy, E(TD-HF/TD-DFT) =  -1948.91814615    
 Copying the excited state density for this state as the 1-particle RhoCI density.
 SavETr:  write IOETrn=   770 NScale= 10 NData=  16 NLR=1 NState=    1 LETran=      28.

 **********************************************************************

            Population analysis using the SCF density.

 **********************************************************************

 Orbital symmetries:
       Occupied  (A) (A) (A) (A) (A) (A) (A) (A) (A) (A) (A) (A)
                 (A) (A) (A) (A) (A) (A) (A) (A) (A) (A) (A) (A)
                 (A) (A) (A) (A) (A) (A) (A) (A) (A) (A) (A) (A)
                 (A) (A) (A) (A) (A) (A) (A) (A) (A) (A) (A) (A)
                 (A) (A) (A) (A) (A) (A) (A) (A) (A) (A) (A) (A)
                 (A) (A) (A) (A) (A) (A) (A) (A) (A) (A) (A) (A)
                 (A) (A) (A) (A) (A) (A) (A) (A) (A) (A) (A) (A)
                 (A) (A) (A) (A) (A) (A) (A) (A) (A) (A) (A) (A)
                 (A) (A) (A) (A) (A) (A) (A) (A) (A) (A) (A) (A)
                 (A) (A) (A) (A) (A) (A) (A) (A) (A) (A) (A) (A)
                 (A) (A) (A) (A) (A) (A) (A) (A) (A) (A) (A) (A)
                 (A) (A) (A) (A) (A) (A) (A) (A) (A) (A) (A) (A)
                 (A) (A) (A) (A) (A) (A) (A) (A) (A) (A) (A) (A)
       Virtual   (A) (A) (A) (A) (A) (A) (A) (A) (A) (A) (A) (A)
                 (A) (A) (A) (A) (A) (A) (A) (A) (A) (A) (A) (A)
                 (A) (A) (A) (A) (A) (A) (A) (A) (A) (A) (A) (A)
                 (A) (A) (A) (A) (A) (A) (A) (A) (A) (A) (A) (A)
                 (A) (A) (A) (A) (A) (A) (A) (A) (A) (A) (A) (A)
                 (A) (A) (A) (A) (A) (A) (A) (A) (A) (A) (A) (A)
                 (A) (A) (A) (A) (A) (A) (A) (A) (A) (A) (A) (A)
                 (A) (A) (A) (A) (A) (A) (A) (A) (A) (A) (A) (A)
                 (A) (A) (A) (A) (A) (A) (A) (A) (A) (A) (A) (A)
                 (A) (A) (A) (A) (A) (A) (A) (A) (A) (A) (A) (A)
                 (A) (A) (A) (A) (A) (A) (A) (A) (A) (A) (A) (A)
                 (A) (A) (A) (A) (A) (A) (A) (A) (A) (A) (A) (A)
                 (A) (A) (A) (A) (A) (A) (A) (A) (A) (A) (A) (A)
                 (A) (A) (A) (A) (A) (A) (A) (A) (A) (A) (A) (A)
                 (A) (A) (A) (A) (A) (A) (A) (A) (A) (A) (A) (A)
                 (A) (A) (A) (A) (A) (A) (A) (A) (A) (A) (A) (A)
                 (A) (A) (A) (A) (A) (A) (A) (A) (A) (A) (A) (A)
                 (A) (A) (A) (A) (A) (A) (A) (A) (A) (A) (A) (A)
                 (A) (A) (A) (A) (A) (A) (A) (A) (A) (A) (A) (A)
                 (A) (A) (A) (A) (A) (A) (A) (A) (A) (A) (A) (A)
                 (A) (A) (A) (A) (A) (A) (A) (A) (A) (A) (A) (A)
                 (A) (A) (A) (A) (A) (A) (A) (A) (A) (A) (A) (A)
                 (A) (A) (A) (A) (A) (A) (A) (A) (A) (A) (A) (A)
                 (A) (A) (A) (A) (A) (A) (A) (A) (A) (A) (A) (A)
                 (A) (A) (A) (A) (A) (A) (A) (A) (A) (A) (A) (A)
                 (A) (A) (A) (A) (A) (A) (A) (A) (A) (A) (A) (A)
                 (A) (A) (A) (A) (A) (A) (A) (A) (A) (A) (A) (A)
                 (A) (A) (A) (A) (A) (A) (A) (A) (A) (A) (A) (A)
                 (A) (A) (A) (A) (A) (A) (A) (A) (A) (A) (A) (A)
                 (A) (A) (A) (A) (A) (A) (A) (A) (A) (A) (A) (A)
                 (A) (A) (A) (A) (A) (A) (A) (A) (A) (A) (A) (A)
                 (A) (A) (A) (A) (A) (A) (A) (A) (A) (A) (A) (A)
                 (A) (A) (A) (A) (A) (A) (A) (A) (A) (A) (A) (A)
                 (A) (A) (A) (A) (A) (A) (A) (A) (A) (A) (A) (A)
                 (A) (A) (A) (A) (A) (A) (A) (A) (A) (A) (A) (A)
                 (A) (A) (A) (A) (A) (A) (A) (A) (A) (A) (A) (A)
                 (A) (A) (A) (A) (A) (A) (A) (A) (A) (A) (A) (A)
                 (A) (A) (A) (A) (A) (A) (A) (A) (A) (A) (A) (A)
                 (A) (A) (A) (A) (A) (A) (A) (A) (A) (A) (A) (A)
                 (A) (A) (A) (A) (A) (A) (A) (A) (A) (A) (A) (A)
                 (A) (A) (A) (A) (A) (A) (A) (A) (A) (A) (A) (A)
                 (A) (A) (A) (A) (A) (A) (A) (A) (A) (A) (A) (A)
                 (A) (A) (A) (A) (A) (A) (A) (A) (A) (A) (A) (A)
                 (A) (A) (A) (A) (A) (A) (A) (A) (A) (A) (A) (A)
                 (A) (A) (A) (A) (A) (A) (A) (A) (A) (A) (A) (A)
                 (A) (A) (A) (A) (A) (A) (A) (A) (A) (A) (A) (A)
                 (A) (A) (A) (A) (A) (A) (A) (A) (A) (A) (A) (A)
                 (A) (A) (A) (A) (A) (A) (A) (A) (A) (A) (A) (A)
                 (A) (A) (A) (A) (A) (A) (A) (A) (A) (A) (A) (A)
                 (A) (A) (A) (A) (A) (A) (A) (A) (A) (A) (A) (A)
                 (A) (A) (A) (A) (A) (A) (A) (A) (A) (A) (A) (A)
                 (A) (A) (A) (A) (A) (A) (A) (A) (A) (A) (A) (A)
                 (A) (A) (A) (A) (A) (A) (A) (A) (A) (A) (A) (A)
 The electronic state is 1-A.
 Alpha  occ. eigenvalues --  -19.18366 -19.18316 -19.14213 -19.11859 -19.10593
 Alpha  occ. eigenvalues --  -19.10067 -14.38574 -14.37752 -14.35455 -14.29694
 Alpha  occ. eigenvalues --  -10.32688 -10.30335 -10.29404 -10.27134 -10.24966
 Alpha  occ. eigenvalues --  -10.24427 -10.23822 -10.23539 -10.23269 -10.23159
 Alpha  occ. eigenvalues --  -10.22744 -10.21892 -10.21471 -10.21352 -10.21336
 Alpha  occ. eigenvalues --  -10.21064 -10.20801 -10.20760 -10.20730 -10.20554
 Alpha  occ. eigenvalues --  -10.20018 -10.19862 -10.19757 -10.19675 -10.19558
 Alpha  occ. eigenvalues --  -10.19443 -10.19402 -10.19325 -10.19114 -10.18302
 Alpha  occ. eigenvalues --  -10.18246 -10.18231 -10.17095  -1.11963  -1.10144
 Alpha  occ. eigenvalues --   -1.02410  -1.01066  -1.00591  -0.99100  -0.98589
 Alpha  occ. eigenvalues --   -0.96137  -0.94025  -0.91586  -0.84172  -0.82569
 Alpha  occ. eigenvalues --   -0.81996  -0.81189  -0.80782  -0.78459  -0.77863
 Alpha  occ. eigenvalues --   -0.76693  -0.76434  -0.75397  -0.74313  -0.72144
 Alpha  occ. eigenvalues --   -0.70955  -0.69679  -0.69309  -0.68853  -0.67802
 Alpha  occ. eigenvalues --   -0.67382  -0.65557  -0.64017  -0.62859  -0.61881
 Alpha  occ. eigenvalues --   -0.60516  -0.59197  -0.58467  -0.57428  -0.56510
 Alpha  occ. eigenvalues --   -0.55659  -0.55281  -0.54460  -0.52596  -0.52324
 Alpha  occ. eigenvalues --   -0.51870  -0.51397  -0.50842  -0.50682  -0.49519
 Alpha  occ. eigenvalues --   -0.49259  -0.49198  -0.48553  -0.48075  -0.47876
 Alpha  occ. eigenvalues --   -0.47630  -0.47331  -0.46575  -0.46091  -0.45438
 Alpha  occ. eigenvalues --   -0.44768  -0.44645  -0.44221  -0.44037  -0.43671
 Alpha  occ. eigenvalues --   -0.43575  -0.43372  -0.43103  -0.42670  -0.41955
 Alpha  occ. eigenvalues --   -0.41718  -0.41513  -0.41223  -0.41062  -0.40861
 Alpha  occ. eigenvalues --   -0.40635  -0.40405  -0.39881  -0.39503  -0.39446
 Alpha  occ. eigenvalues --   -0.39171  -0.38863  -0.38699  -0.38421  -0.38180
 Alpha  occ. eigenvalues --   -0.37803  -0.37400  -0.37143  -0.36542  -0.36316
 Alpha  occ. eigenvalues --   -0.35909  -0.35466  -0.34678  -0.34372  -0.33668
 Alpha  occ. eigenvalues --   -0.33441  -0.33281  -0.33208  -0.33109  -0.32714
 Alpha  occ. eigenvalues --   -0.32394  -0.31456  -0.30886  -0.29933  -0.29317
 Alpha  occ. eigenvalues --   -0.28534  -0.27621  -0.25877  -0.25794  -0.25575
 Alpha  occ. eigenvalues --   -0.25085  -0.24232  -0.23854  -0.22663  -0.21742
 Alpha  occ. eigenvalues --   -0.18107
 Alpha virt. eigenvalues --   -0.10236  -0.05681  -0.03175  -0.01861  -0.00352
 Alpha virt. eigenvalues --    0.00473   0.01061   0.02040   0.02407   0.03269
 Alpha virt. eigenvalues --    0.03626   0.04195   0.04366   0.04902   0.05104
 Alpha virt. eigenvalues --    0.05287   0.05915   0.06913   0.07436   0.07889
 Alpha virt. eigenvalues --    0.08026   0.08466   0.08536   0.08686   0.08777
 Alpha virt. eigenvalues --    0.09359   0.09804   0.09924   0.10292   0.10475
 Alpha virt. eigenvalues --    0.11052   0.11486   0.11929   0.11986   0.12515
 Alpha virt. eigenvalues --    0.12697   0.12913   0.13144   0.13473   0.14033
 Alpha virt. eigenvalues --    0.14435   0.14782   0.15355   0.15968   0.16349
 Alpha virt. eigenvalues --    0.16678   0.17163   0.17650   0.17806   0.18260
 Alpha virt. eigenvalues --    0.18563   0.19330   0.19628   0.20052   0.20107
 Alpha virt. eigenvalues --    0.20712   0.21280   0.21389   0.22011   0.22060
 Alpha virt. eigenvalues --    0.22367   0.22864   0.23284   0.24246   0.24404
 Alpha virt. eigenvalues --    0.24828   0.25159   0.25303   0.25862   0.26080
 Alpha virt. eigenvalues --    0.26360   0.27233   0.27994   0.28229   0.28440
 Alpha virt. eigenvalues --    0.28851   0.29655   0.29725   0.30777   0.31643
 Alpha virt. eigenvalues --    0.31934   0.32617   0.32889   0.33477   0.33639
 Alpha virt. eigenvalues --    0.33797   0.34982   0.35631   0.36252   0.36662
 Alpha virt. eigenvalues --    0.37055   0.37179   0.37885   0.38421   0.38832
 Alpha virt. eigenvalues --    0.38989   0.40008   0.40168   0.40639   0.41122
 Alpha virt. eigenvalues --    0.41430   0.41831   0.42263   0.42441   0.42831
 Alpha virt. eigenvalues --    0.43004   0.43553   0.43742   0.43855   0.44433
 Alpha virt. eigenvalues --    0.44679   0.44815   0.45659   0.46259   0.46330
 Alpha virt. eigenvalues --    0.46661   0.47038   0.47189   0.47766   0.48168
 Alpha virt. eigenvalues --    0.48491   0.49185   0.49268   0.49372   0.49537
 Alpha virt. eigenvalues --    0.50007   0.50296   0.50675   0.51431   0.51657
 Alpha virt. eigenvalues --    0.52060   0.52325   0.52727   0.52910   0.53016
 Alpha virt. eigenvalues --    0.53113   0.53527   0.54091   0.54548   0.54750
 Alpha virt. eigenvalues --    0.55090   0.55632   0.55857   0.56542   0.56883
 Alpha virt. eigenvalues --    0.57100   0.57412   0.57808   0.58080   0.58537
 Alpha virt. eigenvalues --    0.58756   0.59126   0.59191   0.59616   0.60061
 Alpha virt. eigenvalues --    0.60296   0.60323   0.60929   0.61396   0.61600
 Alpha virt. eigenvalues --    0.62112   0.62285   0.62349   0.62950   0.63167
 Alpha virt. eigenvalues --    0.63211   0.63630   0.64117   0.64284   0.64555
 Alpha virt. eigenvalues --    0.64668   0.64849   0.65092   0.65682   0.65877
 Alpha virt. eigenvalues --    0.66165   0.66389   0.66529   0.66656   0.66980
 Alpha virt. eigenvalues --    0.67098   0.67471   0.67717   0.67997   0.68269
 Alpha virt. eigenvalues --    0.68551   0.68691   0.68992   0.69182   0.69380
 Alpha virt. eigenvalues --    0.69615   0.69932   0.70303   0.70560   0.70678
 Alpha virt. eigenvalues --    0.71189   0.71894   0.71995   0.72126   0.72255
 Alpha virt. eigenvalues --    0.72417   0.72746   0.72862   0.73097   0.73449
 Alpha virt. eigenvalues --    0.73736   0.74161   0.74766   0.75325   0.75496
 Alpha virt. eigenvalues --    0.75870   0.76317   0.77647   0.77929   0.78044
 Alpha virt. eigenvalues --    0.78231   0.78388   0.78554   0.79202   0.79520
 Alpha virt. eigenvalues --    0.80483   0.81142   0.81400   0.81747   0.82070
 Alpha virt. eigenvalues --    0.82515   0.83323   0.83522   0.84296   0.84719
 Alpha virt. eigenvalues --    0.85656   0.86474   0.86956   0.87414   0.88398
 Alpha virt. eigenvalues --    0.89622   0.90157   0.90425   0.91680   0.92007
 Alpha virt. eigenvalues --    0.92351   0.94092   0.94479   0.94524   0.94786
 Alpha virt. eigenvalues --    0.95351   0.95570   0.95664   0.96623   0.96768
 Alpha virt. eigenvalues --    0.97374   0.97770   0.98395   0.98610   0.99583
 Alpha virt. eigenvalues --    1.00726   1.01903   1.02287   1.02593   1.03203
 Alpha virt. eigenvalues --    1.03918   1.04244   1.06039   1.06211   1.06900
 Alpha virt. eigenvalues --    1.07736   1.09270   1.09378   1.10145   1.11160
 Alpha virt. eigenvalues --    1.11564   1.11835   1.12141   1.13104   1.13412
 Alpha virt. eigenvalues --    1.14700   1.15010   1.15056   1.16587   1.17408
 Alpha virt. eigenvalues --    1.17964   1.18796   1.19570   1.20341   1.20577
 Alpha virt. eigenvalues --    1.21075   1.21923   1.22808   1.23233   1.23867
 Alpha virt. eigenvalues --    1.24379   1.24901   1.25364   1.25916   1.26744
 Alpha virt. eigenvalues --    1.27678   1.28260   1.28777   1.29510   1.30411
 Alpha virt. eigenvalues --    1.31343   1.32074   1.33394   1.34234   1.34442
 Alpha virt. eigenvalues --    1.35310   1.35552   1.35757   1.36860   1.37419
 Alpha virt. eigenvalues --    1.38108   1.38462   1.38746   1.39709   1.39872
 Alpha virt. eigenvalues --    1.40145   1.41588   1.41873   1.42371   1.42431
 Alpha virt. eigenvalues --    1.43596   1.43916   1.44448   1.45942   1.46257
 Alpha virt. eigenvalues --    1.46600   1.47158   1.47456   1.47866   1.48507
 Alpha virt. eigenvalues --    1.49038   1.49270   1.50279   1.50879   1.50943
 Alpha virt. eigenvalues --    1.52048   1.52211   1.52756   1.53263   1.53819
 Alpha virt. eigenvalues --    1.53902   1.55111   1.55852   1.56863   1.57828
 Alpha virt. eigenvalues --    1.58036   1.58475   1.58916   1.59195   1.59406
 Alpha virt. eigenvalues --    1.60080   1.60151   1.60722   1.61535   1.61649
 Alpha virt. eigenvalues --    1.62813   1.63386   1.64189   1.64316   1.64985
 Alpha virt. eigenvalues --    1.65215   1.65596   1.66201   1.66692   1.66977
 Alpha virt. eigenvalues --    1.67293   1.68054   1.68610   1.69107   1.69552
 Alpha virt. eigenvalues --    1.69738   1.70150   1.70390   1.70496   1.71310
 Alpha virt. eigenvalues --    1.71409   1.71707   1.72592   1.72713   1.72796
 Alpha virt. eigenvalues --    1.73206   1.73479   1.74127   1.74283   1.74843
 Alpha virt. eigenvalues --    1.75107   1.75374   1.75937   1.76115   1.76436
 Alpha virt. eigenvalues --    1.76610   1.77150   1.77716   1.77934   1.78434
 Alpha virt. eigenvalues --    1.78579   1.79137   1.79470   1.80705   1.81021
 Alpha virt. eigenvalues --    1.81357   1.81724   1.81990   1.82249   1.82873
 Alpha virt. eigenvalues --    1.83067   1.83588   1.84239   1.84449   1.85005
 Alpha virt. eigenvalues --    1.85584   1.85888   1.86473   1.86965   1.87315
 Alpha virt. eigenvalues --    1.87881   1.88058   1.88437   1.89575   1.90060
 Alpha virt. eigenvalues --    1.90188   1.90577   1.90721   1.91361   1.92127
 Alpha virt. eigenvalues --    1.92419   1.92910   1.93249   1.93630   1.94385
 Alpha virt. eigenvalues --    1.94588   1.95024   1.95406   1.95657   1.95960
 Alpha virt. eigenvalues --    1.96294   1.97337   1.97852   1.98540   1.98916
 Alpha virt. eigenvalues --    1.99409   1.99588   2.00182   2.00394   2.00791
 Alpha virt. eigenvalues --    2.01123   2.01984   2.02271   2.03531   2.03893
 Alpha virt. eigenvalues --    2.04414   2.04513   2.04697   2.05050   2.05711
 Alpha virt. eigenvalues --    2.05997   2.06564   2.06970   2.07813   2.08160
 Alpha virt. eigenvalues --    2.09077   2.09407   2.09619   2.10711   2.11034
 Alpha virt. eigenvalues --    2.11811   2.12198   2.13060   2.13606   2.13884
 Alpha virt. eigenvalues --    2.14710   2.15307   2.15916   2.16489   2.16987
 Alpha virt. eigenvalues --    2.17827   2.18652   2.18939   2.19607   2.20060
 Alpha virt. eigenvalues --    2.20625   2.21498   2.21749   2.23021   2.23413
 Alpha virt. eigenvalues --    2.24302   2.25379   2.25891   2.26622   2.26927
 Alpha virt. eigenvalues --    2.27026   2.27969   2.28973   2.29287   2.30262
 Alpha virt. eigenvalues --    2.30779   2.31153   2.32051   2.32553   2.33109
 Alpha virt. eigenvalues --    2.33664   2.34531   2.35561   2.35959   2.36803
 Alpha virt. eigenvalues --    2.37730   2.37759   2.38071   2.38906   2.40182
 Alpha virt. eigenvalues --    2.40277   2.40816   2.42489   2.42981   2.43672
 Alpha virt. eigenvalues --    2.44412   2.45287   2.45512   2.46519   2.48076
 Alpha virt. eigenvalues --    2.48421   2.48923   2.49946   2.50023   2.51376
 Alpha virt. eigenvalues --    2.52253   2.52493   2.53067   2.53863   2.55582
 Alpha virt. eigenvalues --    2.56956   2.57737   2.57954   2.58626   2.59860
 Alpha virt. eigenvalues --    2.60966   2.61925   2.62419   2.62795   2.63413
 Alpha virt. eigenvalues --    2.63808   2.64399   2.64608   2.65103   2.66331
 Alpha virt. eigenvalues --    2.66475   2.67712   2.68096   2.68399   2.68883
 Alpha virt. eigenvalues --    2.69717   2.70094   2.70431   2.70996   2.71375
 Alpha virt. eigenvalues --    2.72362   2.73895   2.74042   2.74800   2.75021
 Alpha virt. eigenvalues --    2.75284   2.75871   2.76098   2.76575   2.77145
 Alpha virt. eigenvalues --    2.77655   2.78226   2.79221   2.79841   2.80341
 Alpha virt. eigenvalues --    2.80958   2.81604   2.81862   2.83445   2.84625
 Alpha virt. eigenvalues --    2.85247   2.85895   2.86243   2.86558   2.88000
 Alpha virt. eigenvalues --    2.88629   2.90127   2.90684   2.91524   2.92277
 Alpha virt. eigenvalues --    2.92802   2.93078   2.94908   2.96543   2.97487
 Alpha virt. eigenvalues --    2.97972   2.98718   2.99022   2.99763   3.00647
 Alpha virt. eigenvalues --    3.01282   3.01570   3.02666   3.03135   3.03518
 Alpha virt. eigenvalues --    3.05937   3.07743   3.08563   3.09279   3.10422
 Alpha virt. eigenvalues --    3.11041   3.11894   3.13017   3.14778   3.14875
 Alpha virt. eigenvalues --    3.15698   3.18498   3.19114   3.20911   3.22255
 Alpha virt. eigenvalues --    3.23419   3.26658   3.26999   3.28996   3.32814
 Alpha virt. eigenvalues --    3.33329   3.38028   3.40675   3.48977   3.52287
 Alpha virt. eigenvalues --    3.53232   3.53993   3.54306   3.55999   3.59615
 Alpha virt. eigenvalues --    3.63658   3.64320   3.65511   3.72673   3.73255
 Alpha virt. eigenvalues --    3.76941
          Condensed to atoms (all electrons):
 Mulliken charges:
               1
     1  O   -0.284880
     2  O   -0.265039
     3  O   -0.239176
     4  O   -0.172358
     5  O   -0.134777
     6  O   -0.255619
     7  N   -0.009677
     8  N   -0.159243
     9  N   -0.175475
    10  N   -0.283673
    11  C    0.002142
    12  C    0.073394
    13  C   -0.154927
    14  C    0.017645
    15  C   -0.132504
    16  C    0.067957
    17  C    0.096954
    18  C   -0.118849
    19  C    0.047428
    20  C   -0.041039
    21  C    0.180580
    22  C    0.075091
    23  C   -0.014631
    24  C    0.184839
    25  C   -0.065807
    26  C   -0.033896
    27  C    0.143937
    28  C   -0.004963
    29  C   -0.091881
    30  C    0.105172
    31  C   -0.121784
    32  C    0.056552
    33  C   -0.235519
    34  C    0.079457
    35  C   -0.117518
    36  C   -0.060020
    37  C    0.107407
    38  C    0.060051
    39  C    0.088369
    40  C   -0.098964
    41  C    0.173341
    42  C    0.059832
    43  C    0.052032
    44  H    0.094150
    45  H   -0.133484
    46  H    0.011717
    47  H    0.008110
    48  H    0.075667
    49  H    0.020484
    50  H   -0.020764
    51  H   -0.016436
    52  H    0.157538
    53  H    0.036224
    54  H    0.047353
    55  H    0.044019
    56  H    0.198013
    57  H    0.028287
    58  H    0.058920
    59  H    0.095403
    60  H    0.026787
    61  H    0.008001
    62  H    0.052424
    63  H    0.023432
    64  H   -0.027557
    65  H    0.028571
    66  H    0.008164
    67  H    0.009251
    68  H    0.023880
    69  H    0.059230
    70  H    0.013880
    71  H    0.023041
    72  H    0.011285
    73  H    0.038132
    74  H    0.050409
    75  H    0.016959
    76  H    0.053556
    77  H   -0.013895
    78  H    0.028516
    79  H    0.005730
    80  H    0.223458
    81  H    0.231577
 Sum of Mulliken charges =  -0.00000
 Mulliken charges with hydrogens summed into heavy atoms:
               1
     1  O   -0.284880
     2  O   -0.041581
     3  O   -0.007599
     4  O   -0.172358
     5  O   -0.134777
     6  O   -0.255619
     7  N    0.084472
     8  N   -0.001704
     9  N    0.022538
    10  N   -0.283673
    11  C    0.002142
    12  C    0.073394
    13  C   -0.154927
    14  C    0.017645
    15  C   -0.132504
    16  C    0.067957
    17  C   -0.036530
    18  C   -0.118849
    19  C    0.067255
    20  C    0.034628
    21  C    0.180580
    22  C    0.075091
    23  C   -0.014631
    24  C    0.184559
    25  C   -0.082243
    26  C    0.093700
    27  C    0.143937
    28  C    0.082245
    29  C    0.030309
    30  C    0.189030
    31  C   -0.149341
    32  C    0.102539
    33  C   -0.211638
    34  C    0.079457
    35  C   -0.117518
    36  C   -0.060020
    37  C    0.107407
    38  C    0.156202
    39  C    0.088369
    40  C   -0.049546
    41  C    0.173341
    42  C    0.180756
    43  C    0.072383
 Electronic spatial extent (au):  <R**2>=          30512.7928
 Charge=             -0.0000 electrons
 Dipole moment (field-independent basis, Debye):
    X=             -4.2105    Y=              1.4728    Z=             -0.1531  Tot=              4.4633
 Quadrupole moment (field-independent basis, Debye-Ang):
   XX=           -247.6663   YY=           -234.8726   ZZ=           -254.4413
   XY=             22.5708   XZ=             18.1453   YZ=            -11.8340
 Traceless Quadrupole moment (field-independent basis, Debye-Ang):
   XX=             -2.0063   YY=             10.7875   ZZ=             -8.7812
   XY=             22.5708   XZ=             18.1453   YZ=            -11.8340
 Octapole moment (field-independent basis, Debye-Ang**2):
  XXX=            -71.8120  YYY=            137.8991  ZZZ=            -26.6264  XYY=           -178.2299
  XXY=            -15.4606  XXZ=           -104.4545  XZZ=            -63.6568  YZZ=            -25.2745
  YYZ=             32.0038  XYZ=            -63.7215
 Hexadecapole moment (field-independent basis, Debye-Ang**3):
 XXXX=         -21205.2375 YYYY=         -16191.4999 ZZZZ=          -1615.8091 XXXY=           1005.0095
 XXXZ=           1037.5087 YYYX=           1130.4270 YYYZ=           -371.9094 ZZZX=            108.8583
 ZZZY=             70.7980 XXYY=          -6482.1918 XXZZ=          -4000.2968 YYZZ=          -3076.7062
 XXYZ=             51.2073 YYXZ=            317.1899 ZZXY=            253.8025
 N-N= 5.045242651340D+03 E-N=-1.462199511212D+04  KE= 1.928453022299D+03
 1\1\GINC-RYZEN-SSD1\SP\RB3LYP TD-FC\SVP\C33H38N4O6\PADAWAN\06-Jul-2019
 \0\\# td=(NStates=1) B3LYP/SVP\\TD\\0,1\O,0,-4.5479149123,-4.741404221
 6,1.9131766813\O,0,2.7243930374,-4.7837429235,1.3205599878\O,0,7.13162
 35438,-1.4934968908,1.744984719\O,0,3.59817155,-3.0787770029,0.1824811
 065\O,0,7.5729260446,-0.5451358929,-0.1504846178\O,0,-2.9950398328,2.3
 194593434,-0.1117260772\N,0,-0.2596303447,-0.4947388237,-0.598168453\N
 ,0,1.5679044731,1.8046528441,-0.3372053826\N,0,-3.3972466677,-3.136682
 7151,0.5906675381\N,0,-0.7205634592,2.871007519,-0.0368587098\C,0,0.71
 18824206,-2.4604314814,-1.4014522283\C,0,0.9171806519,-1.188828834,-0.
 8638889442\C,0,-0.6877030954,-2.6719910885,-1.2282930287\C,0,-1.264998
 6061,-1.4161452564,-0.7330347694\C,0,3.8457225136,1.4482193072,-0.4112
 773441\C,0,2.5014108341,0.7214734791,-0.5657081294\C,0,2.2149384981,-0
 .5379599418,-0.9176240074\C,0,3.6245162885,2.7246704752,-0.0790886818\
 C,0,1.5725784103,-3.4393992057,-1.8346436654\C,0,-5.6359229275,-2.6089
 428039,1.2563755776\C,0,-3.587940857,-1.8710921712,0.0855523402\C,0,2.
 1523394941,3.0004764758,-0.0305105281\C,0,-5.0577619725,-1.5577312763,
 0.3776364025\C,0,5.1123797161,0.6830779778,-0.429466003\C,0,-2.6787588
 381,-1.0165984314,-0.3944598604\C,0,-1.4682247602,-3.8854830506,-1.760
 3592796\C,0,-4.4954770145,-3.6091994256,1.3070998246\C,0,1.9744979258,
 -4.5531075305,-0.8806109169\C,0,5.473597236,-0.1857346374,0.8210102071
 \C,0,4.5653623224,3.9429555269,0.2905412379\C,0,1.2991011515,4.1398083
 883,0.1386039799\C,0,-6.9915502856,-3.0887762574,1.0746369298\C,0,-5.7
 338419867,-0.5988046104,-0.2033818126\C,0,-0.1178867777,4.0546201336,0
 .2321318388\C,0,-0.9848794496,5.189250018,0.5712617548\C,0,-2.31262658
 89,4.660822205,0.5294743503\C,0,2.9330761489,-4.0517417933,0.176949093
 9\C,0,-5.3859632571,0.2263278614,-1.3751585829\C,0,6.8629788641,-0.783
 5866428,0.6836114837\C,0,-3.4714829076,5.3392302212,0.4921200271\C,0,-
 2.0598794242,3.1552377151,0.0790888337\C,0,-0.5886830058,6.5865025183,
 0.8547605659\C,0,-4.0109496319,5.8510135063,-0.9165924349\H,0,-0.35368
 29332,0.3645921648,-0.2206026136\H,0,3.0475187665,-0.965308533,-0.9332
 728359\H,0,2.5300942603,-3.1813828452,-2.400842519\H,0,1.1891056899,-3
 .9902009377,-2.7825006166\H,0,-5.7429861048,-1.9314515343,2.3115933198
 \H,0,4.9008603962,0.1859833148,-1.3496381168\H,0,5.816433609,1.4668109
 904,-0.427094009\H,0,-2.8042185176,0.0277172679,-0.3825511607\H,0,0.55
 81321449,1.9540365867,-0.592068679\H,0,-1.721357727,-4.8097430785,-1.0
 449152972\H,0,-2.6500586356,-3.4832360256,-1.788888209\H,0,-1.04174412
 55,-4.1569538698,-2.7518387869\H,0,-2.5549292507,-3.895955744,0.702307
 4777\H,0,1.2170275095,-5.0739098735,-0.3410978273\H,0,2.7580749933,-5.
 4649992084,-1.268771391\H,0,4.8788023012,-1.3147275239,0.7143420204\H,
 0,5.2863928389,0.2621006467,1.7566701377\H,0,4.1455620765,4.7731277802
 ,-0.2246124439\H,0,5.6680634291,3.6334660658,-0.089622439\H,0,4.396179
 0353,4.2819337015,1.3141827222\H,0,1.7272185539,5.142424172,0.34271405
 83\H,0,-7.9817009417,-2.5758935839,1.2889335874\H,0,-7.0972053648,-3.9
 009078567,1.7304154094\H,0,-7.0481830023,-3.4773955031,0.0098325725\H,
 0,-7.0514524869,-0.7812884601,-0.2300810802\H,0,-4.9928741292,1.189803
 1772,-0.9568295311\H,0,-6.3543872684,0.4022678551,-1.8934760261\H,0,-4
 .5417726728,-0.0992630801,-1.9767588886\H,0,-3.369876867,6.3792505809,
 0.9980075048\H,0,-4.5331709946,4.889598092,0.9318753253\H,0,-0.2875941
 941,6.6346054204,1.9880315357\H,0,-1.4712385072,7.281774873,0.85986524
 29\H,0,0.147113899,6.8932378243,0.013397674\H,0,-3.2359738932,6.308136
 6968,-1.4903268488\H,0,-4.973839207,6.2433370747,-0.7146966114\H,0,-3.
 9314376649,4.9634778401,-1.5925889973\H,0,3.2893542419,-4.4317674069,2
 .1496536024\H,0,8.1919064353,-1.8569163439,1.7048206447\\Version=ES64L
 -G16RevA.03\State=1-A\HF=-1948.9882081\RMSD=2.523e-09\PG=C01 [X(C33H38
 N4O6)]\\@


 Just remember, when you're over the hill, you begin to pick up speed.
 -- Charles Schulz
 Job cpu time:       0 days 17 hours 33 minutes 56.7 seconds.
 Elapsed time:       0 days  4 hours 24 minutes 44.8 seconds.
 File lengths (MBytes):  RWF=   2591 Int=      0 D2E=      0 Chk=     65 Scr=      1
 Normal termination of Gaussian 16 at Sat Jul  6 15:58:43 2019.
