 Entering Gaussian System, Link 0=g16
 Input=Geometria-158-.com
 Output=Geometria-158-.log
 Initial command:
 /usr/local/g16/l1.exe "/home/padawan/israel-mol/phycocyanobilin/spectra/abs/Gau-49369.inp" -scrdir="/home/padawan/israel-mol/phycocyanobilin/spectra/abs/"
 Entering Link 1 = /usr/local/g16/l1.exe PID=     49371.
  
 Copyright (c) 1988,1990,1992,1993,1995,1998,2003,2009,2016,
            Gaussian, Inc.  All Rights Reserved.
  
 This is part of the Gaussian(R) 16 program.  It is based on
 the Gaussian(R) 09 system (copyright 2009, Gaussian, Inc.),
 the Gaussian(R) 03 system (copyright 2003, Gaussian, Inc.),
 the Gaussian(R) 98 system (copyright 1998, Gaussian, Inc.),
 the Gaussian(R) 94 system (copyright 1995, Gaussian, Inc.),
 the Gaussian 92(TM) system (copyright 1992, Gaussian, Inc.),
 the Gaussian 90(TM) system (copyright 1990, Gaussian, Inc.),
 the Gaussian 88(TM) system (copyright 1988, Gaussian, Inc.),
 the Gaussian 86(TM) system (copyright 1986, Carnegie Mellon
 University), and the Gaussian 82(TM) system (copyright 1983,
 Carnegie Mellon University). Gaussian is a federally registered
 trademark of Gaussian, Inc.
  
 This software contains proprietary and confidential information,
 including trade secrets, belonging to Gaussian, Inc.
  
 This software is provided under written license and may be
 used, copied, transmitted, or stored only in accord with that
 written license.
  
 The following legend is applicable only to US Government
 contracts under FAR:
  
                    RESTRICTED RIGHTS LEGEND
  
 Use, reproduction and disclosure by the US Government is
 subject to restrictions as set forth in subparagraphs (a)
 and (c) of the Commercial Computer Software - Restricted
 Rights clause in FAR 52.227-19.
  
 Gaussian, Inc.
 340 Quinnipiac St., Bldg. 40, Wallingford CT 06492
  
  
 ---------------------------------------------------------------
 Warning -- This program may not be used in any manner that
 competes with the business of Gaussian, Inc. or will provide
 assistance to any competitor of Gaussian, Inc.  The licensee
 of this program is prohibited from giving any competitor of
 Gaussian, Inc. access to this program.  By using this program,
 the user acknowledges that Gaussian, Inc. is engaged in the
 business of creating and licensing software in the field of
 computational chemistry and represents and warrants to the
 licensee that it is not a competitor of Gaussian, Inc. and that
 it will not use this program in any manner prohibited above.
 ---------------------------------------------------------------
  

 Cite this work as:
 Gaussian 16, Revision A.03,
 M. J. Frisch, G. W. Trucks, H. B. Schlegel, G. E. Scuseria, 
 M. A. Robb, J. R. Cheeseman, G. Scalmani, V. Barone, 
 G. A. Petersson, H. Nakatsuji, X. Li, M. Caricato, A. V. Marenich, 
 J. Bloino, B. G. Janesko, R. Gomperts, B. Mennucci, H. P. Hratchian, 
 J. V. Ortiz, A. F. Izmaylov, J. L. Sonnenberg, D. Williams-Young, 
 F. Ding, F. Lipparini, F. Egidi, J. Goings, B. Peng, A. Petrone, 
 T. Henderson, D. Ranasinghe, V. G. Zakrzewski, J. Gao, N. Rega, 
 G. Zheng, W. Liang, M. Hada, M. Ehara, K. Toyota, R. Fukuda, 
 J. Hasegawa, M. Ishida, T. Nakajima, Y. Honda, O. Kitao, H. Nakai, 
 T. Vreven, K. Throssell, J. A. Montgomery, Jr., J. E. Peralta, 
 F. Ogliaro, M. J. Bearpark, J. J. Heyd, E. N. Brothers, K. N. Kudin, 
 V. N. Staroverov, T. A. Keith, R. Kobayashi, J. Normand, 
 K. Raghavachari, A. P. Rendell, J. C. Burant, S. S. Iyengar, 
 J. Tomasi, M. Cossi, J. M. Millam, M. Klene, C. Adamo, R. Cammi, 
 J. W. Ochterski, R. L. Martin, K. Morokuma, O. Farkas, 
 J. B. Foresman, and D. J. Fox, Gaussian, Inc., Wallingford CT, 2016.
 
 ******************************************
 Gaussian 16:  ES64L-G16RevA.03 25-Dec-2016
                30-Jun-2019 
 ******************************************
 %nproc=4
 Will use up to    4 processors via shared memory.
 %Mem=4GB
 --------------------------
 # td=(NStates=1) B3LYP/SVP
 --------------------------
 1/38=1,172=1/1;
 2/12=2,17=6,18=5,40=1/2;
 3/5=18,7=101,11=9,25=1,30=1,74=-5/1,2,3,8;
 4//1;
 5/5=2,38=5/2;
 8/6=1,10=1,108=1/1;
 9/41=1,42=1,70=2/14;
 6/7=2,8=2,9=2,10=2/1;
 99/5=1,9=1/99;
 --
 TD
 --
 Symbolic Z-matrix:
 Charge =  0 Multiplicity = 1
 8                    -4.61896  -4.65644   1.97406 
 8                     2.88146  -4.73394   1.36062 
 8                     7.15332  -1.49151   1.91254 
 8                     3.9116   -3.13603  -0.02445 
 8                     7.60978  -0.72267  -0.18943 
 8                    -3.00349   2.38528  -0.1353 
 7                    -0.25367  -0.59128  -0.68038 
 7                     1.54824   1.86907  -0.48551 
 7                    -3.32173  -3.05603   0.74177 
 7                    -0.7611    2.92313  -0.07421 
 6                     0.65745  -2.48026  -1.45402 
 6                     0.96721  -1.1361   -1.02502 
 6                    -0.79528  -2.66177  -1.22837 
 6                    -1.28604  -1.44468  -0.78222 
 6                     3.82888   1.35521  -0.2791 
 6                     2.49507   0.8145   -0.59685 
 6                     2.20286  -0.50609  -0.94336 
 6                     3.58778   2.77097   0.08482 
 6                     1.66769  -3.46931  -1.86809 
 6                    -5.60061  -2.52211   1.31052 
 6                    -3.59691  -1.76121   0.22977 
 6                     2.1051    3.02043   0.0199 
 6                    -5.03672  -1.51859   0.26233 
 6                     5.16454   0.67567  -0.34666 
 6                    -2.67682  -1.05908  -0.4045 
 6                    -1.52504  -3.86653  -1.67876 
 6                    -4.48406  -3.64555   1.33724 
 6                     2.08057  -4.57818  -0.87788 
 6                     5.43148  -0.25398   0.71672 
 6                     4.46968   3.82137   0.46488 
 6                     1.26073   4.09838   0.28958 
 6                    -6.95739  -3.12492   0.97509 
 6                    -5.82405  -0.50676  -0.21076 
 6                    -0.11603   3.96121   0.12785 
 6                    -1.00731   5.11126   0.47409 
 6                    -2.31364   4.6847    0.3097 
 6                     3.11274  -4.01429   0.16822 
 6                    -5.60004   0.40032  -1.36114 
 6                     6.88353  -0.7965    0.73742 
 6                    -3.60343   5.32479   0.53169 
 6                    -2.09863   3.21975   0.01127 
 6                    -0.55977   6.48435   0.76137 
 6                    -4.18725   5.74267  -0.8001 
 1                    -0.40911   0.24208  -0.01365 
 1                     3.02386  -1.03925  -1.22406 
 1                     2.33873  -2.79128  -2.29034 
 1                     1.05967  -4.1369   -2.64079 
 1                    -5.53685  -1.96036   2.49444 
 1                     5.28143   0.26632  -1.14133 
 1                     5.99955   1.41212  -0.6929 
 1                    -2.80624   0.00578  -0.5378 
 1                     0.56591   1.88931  -0.5602 
 1                    -1.62893  -4.63669  -0.82997 
 1                    -2.53815  -3.3317   -2.23131 
 1                    -0.98336  -4.6508   -2.46292 
 1                    -2.37059  -3.52919   0.6554 
 1                     1.32461  -5.06524  -0.42197 
 1                     2.43086  -5.54448  -1.47134 
 1                     4.99354  -1.39684   0.73248 
 1                     5.31601   0.25263   1.7789 
 1                     4.77673   4.46228  -0.45418 
 1                     5.58845   3.58246   0.75794 
 1                     4.06569   4.59006   1.43532 
 1                     1.80252   4.94551   0.75054 
 1                    -7.80007  -2.36848   1.24652 
 1                    -7.19002  -3.91283   1.77214 
 1                    -7.22579  -3.23351  -0.00453 
 1                    -6.9629   -0.62972   0.24691 
 1                    -4.89541   1.31588  -1.20726 
 1                    -6.56556   0.68599  -1.69059 
 1                    -4.99257   0.05748  -2.37636 
 1                    -3.62607   6.33798   1.24651 
 1                    -4.19374   4.63836   1.05938 
 1                     0.35399   6.74798   1.46628 
 1                    -1.21333   7.18311   1.01245 
 1                    -0.13572   6.83449  -0.24017 
 1                    -3.66572   6.82759  -1.04469 
 1                    -5.25245   6.00159  -0.69852 
 1                    -4.1109    4.75071  -1.55114 
 1                     3.47575  -4.49391   2.00138 
 1                     8.03349  -1.88207   1.41576 
 
 Stoichiometry    C33H38N4O6
 Framework group  C1[X(C33H38N4O6)]
 Deg. of freedom   237
 Full point group                 C1      NOp   1
 Largest Abelian subgroup         C1      NOp   1
 Largest concise Abelian subgroup C1      NOp   1
                         Standard orientation:                         
 ---------------------------------------------------------------------
 Center     Atomic      Atomic             Coordinates (Angstroms)
 Number     Number       Type             X           Y           Z
 ---------------------------------------------------------------------
      1          8           0       -4.499376   -4.769516    1.985629
      2          8           0        3.000305   -4.658655    1.368280
      3          8           0        7.189182   -1.308403    1.912206
      4          8           0        3.989078   -3.037693   -0.020149
      5          8           0        7.625042   -0.532002   -0.191355
      6          8           0       -3.063308    2.307011   -0.136949
      7          7           0       -0.239460   -0.600106   -0.678290
      8          7           0        1.499836    1.905304   -0.488710
      9          7           0       -3.243587   -3.139043    0.749834
     10          7           0       -0.835184    2.901435   -0.078016
     11          6           0        0.718691   -2.466842   -1.449109
     12          6           0        0.994615   -1.114532   -1.022631
     13          6           0       -0.728880   -2.684581   -1.222362
     14          6           0       -1.249998   -1.479484   -0.778079
     15          6           0        3.792827    1.449571   -0.282634
     16          6           0        2.472941    0.874791   -0.598713
     17          6           0        2.214002   -0.453367   -0.942744
     18          6           0        3.516230    2.859427    0.078935
     19          6           0        1.753384   -3.430792   -1.861988
     20          6           0       -5.534943   -2.661842    1.318875
     21          6           0       -3.551637   -1.852489    0.235707
     22          6           0        2.027693    3.071251    0.014384
     23          6           0       -4.997097   -1.646247    0.268627
     24          6           0        5.145194    0.803859   -0.349716
     25          6           0       -2.649884   -1.128469   -0.400287
     26          6           0       -1.428200   -3.908181   -1.670243
     27          6           0       -4.390359   -3.756675    1.346964
     28          6           0        2.194628   -4.527128   -0.870062
     29          6           0        5.436052   -0.116872    0.715145
     30          6           0        4.371508    3.932442    0.456677
     31          6           0        1.156494    4.128013    0.282624
     32          6           0       -6.876229   -3.299312    0.985231
     33          6           0       -5.809966   -0.655459   -0.205820
     34          6           0       -0.216437    3.955828    0.121879
     35          6           0       -1.136311    5.083613    0.466584
     36          6           0       -2.431528    4.623911    0.303647
     37          6           0        3.212751   -3.935501    0.174490
     38          6           0       -5.609509    0.254945   -1.357904
     39          6           0        6.901348   -0.622507    0.736010
     40          6           0       -3.736962    5.231609    0.525212
     41          6           0       -2.179742    3.164333    0.007670
     42          6           0       -0.723449    6.468073    0.751213
     43          6           0       -4.331810    5.632262   -0.806999
     44          1           0       -0.415566    0.230237   -0.012944
     45          1           0        3.048065   -0.966117   -1.222957
     46          1           0        2.406874   -2.736780   -2.285793
     47          1           0        1.162040   -4.114882   -2.633188
     48          1           0       -5.484801   -2.096570    2.501774
     49          1           0        5.271985    0.396192   -1.143730
     50          1           0        5.961163    1.560547   -0.697701
     51          1           0       -2.806223   -0.067457   -0.535380
     52          1           0        0.517272    1.900598   -0.562901
     53          1           0       -1.512184   -4.679213   -0.820051
     54          1           0       -2.454765   -3.400084   -2.223185
     55          1           0       -0.867272   -4.679907   -2.453318
     56          1           0       -2.280845   -3.588178    0.663781
     57          1           0        1.451436   -5.032317   -0.412886
     58          1           0        2.568921   -5.485317   -1.462016
     59          1           0        5.027124   -1.270392    0.733150
     60          1           0        5.308343    0.388537    1.776500
     61          1           0        4.661811    4.579271   -0.463665
     62          1           0        5.496093    3.722378    0.749556
     63          1           0        3.948707    4.692398    1.425992
     64          1           0        1.676943    4.989369    0.741811
     65          1           0       -7.737616   -2.563920    1.255791
     66          1           0       -7.088499   -4.091436    1.783789
     67          1           0       -7.142290   -3.416377    0.005952
     68          1           0       -6.945123   -0.806341    0.252679
     69          1           0       -4.928151    1.188280   -1.206017
     70          1           0       -6.582093    0.515559   -1.687332
     71          1           0       -4.994070   -0.074229   -2.372850
     72          1           0       -3.784836    6.245163    1.238264
     73          1           0       -4.309487    4.531427    1.054417
     74          1           0        0.183711    6.755935    1.455165
     75          1           0       -1.394326    7.150540    1.001419
     76          1           0       -0.308877    6.827041   -0.251167
     77          1           0       -3.837967    6.729569   -1.053774
     78          1           0       -5.403159    5.864377   -0.705302
     79          1           0       -4.230801    4.641215   -1.556343
     80          1           0        3.588664   -4.402567    2.008292
     81          1           0        8.078694   -1.677489    1.415637
 ---------------------------------------------------------------------
 Rotational constants (GHZ):           0.0765716           0.0537727           0.0338215
 Standard basis: SVP (5D, 7F)
 There are   835 symmetry adapted cartesian basis functions of A   symmetry.
 There are   792 symmetry adapted basis functions of A   symmetry.
   792 basis functions,  1341 primitive gaussians,   835 cartesian basis functions
   156 alpha electrons      156 beta electrons
       nuclear repulsion energy      5026.8501821427 Hartrees.
 NAtoms=   81 NActive=   81 NUniq=   81 SFac= 1.00D+00 NAtFMM=   60 NAOKFM=T Big=T
 Integral buffers will be    131072 words long.
 Regular integral format.
 Two-electron integral symmetry is turned on.
 One-electron integrals computed using PRISM.
 NBasis=   792 RedAO= T EigKep=  3.66D-04  NBF=   792
 NBsUse=   792 1.00D-06 EigRej= -1.00D+00 NBFU=   792
 ExpMin= 1.22D-01 ExpMax= 2.27D+03 ExpMxC= 3.41D+02 IAcc=3 IRadAn=         5 AccDes= 0.00D+00
 Harris functional with IExCor=  402 and IRadAn=       5 diagonalized for initial guess.
 HarFok:  IExCor=  402 AccDes= 0.00D+00 IRadAn=         5 IDoV= 1 UseB2=F ITyADJ=14
 ICtDFT=  3500011 ScaDFX=  1.000000  1.000000  1.000000  1.000000
 FoFCou: FMM=F IPFlag=           0 FMFlag=      100000 FMFlg1=        2001
         NFxFlg=           0 DoJE=T BraDBF=F KetDBF=T FulRan=T
         wScrn=  0.000000 ICntrl=       500 IOpCl=  0 I1Cent=   200000004 NGrid=           0
         NMat0=    1 NMatS0=      1 NMatT0=    0 NMatD0=    1 NMtDS0=    0 NMtDT0=    0
 Petite list used in FoFCou.
 Requested convergence on RMS density matrix=1.00D-08 within 128 cycles.
 Requested convergence on MAX density matrix=1.00D-06.
 Requested convergence on             energy=1.00D-06.
 No special actions if energy rises.
 Integral accuracy reduced to 1.0D-05 until final iterations.
 Initial convergence to 1.0D-05 achieved.  Increase integral accuracy.
 SCF Done:  E(RB3LYP) =  -1948.98420759     A.U. after   16 cycles
            NFock= 16  Conv=0.88D-08     -V/T= 2.0109
 DoSCS=F DFT=T ScalE2(SS,OS)=  1.000000  1.000000
 ExpMin= 1.22D-01 ExpMax= 2.27D+03 ExpMxC= 3.41D+02 IAcc=3 IRadAn=         5 AccDes= 0.00D+00
 HarFok:  IExCor=  205 AccDes= 0.00D+00 IRadAn=         5 IDoV=-2 UseB2=F ITyADJ=14
 ICtDFT= 12500011 ScaDFX=  1.000000  1.000000  1.000000  1.000000
 GSVD:  LWork=       -2193 too small for GESVD, short by        9890 words or        9890 for optimal perf.
 Range of M.O.s used for correlation:    44   792
 NBasis=   792 NAE=   156 NBE=   156 NFC=    43 NFV=     0
 NROrb=    749 NOA=   113 NOB=   113 NVA=   636 NVB=   636

 **** Warning!!: The smallest alpha delta epsilon is  0.76149421D-01

 Orbital symmetries:
       Occupied  (A) (A) (A) (A) (A) (A) (A) (A) (A) (A) (A) (A)
                 (A) (A) (A) (A) (A) (A) (A) (A) (A) (A) (A) (A)
                 (A) (A) (A) (A) (A) (A) (A) (A) (A) (A) (A) (A)
                 (A) (A) (A) (A) (A) (A) (A) (A) (A) (A) (A) (A)
                 (A) (A) (A) (A) (A) (A) (A) (A) (A) (A) (A) (A)
                 (A) (A) (A) (A) (A) (A) (A) (A) (A) (A) (A) (A)
                 (A) (A) (A) (A) (A) (A) (A) (A) (A) (A) (A) (A)
                 (A) (A) (A) (A) (A) (A) (A) (A) (A) (A) (A) (A)
                 (A) (A) (A) (A) (A) (A) (A) (A) (A) (A) (A) (A)
                 (A) (A) (A) (A) (A) (A) (A) (A) (A) (A) (A) (A)
                 (A) (A) (A) (A) (A) (A) (A) (A) (A) (A) (A) (A)
                 (A) (A) (A) (A) (A) (A) (A) (A) (A) (A) (A) (A)
                 (A) (A) (A) (A) (A) (A) (A) (A) (A) (A) (A) (A)
       Virtual   (A) (A) (A) (A) (A) (A) (A) (A) (A) (A) (A) (A)
                 (A) (A) (A) (A) (A) (A) (A) (A) (A) (A) (A) (A)
                 (A) (A) (A) (A) (A) (A) (A) (A) (A) (A) (A) (A)
                 (A) (A) (A) (A) (A) (A) (A) (A) (A) (A) (A) (A)
                 (A) (A) (A) (A) (A) (A) (A) (A) (A) (A) (A) (A)
                 (A) (A) (A) (A) (A) (A) (A) (A) (A) (A) (A) (A)
                 (A) (A) (A) (A) (A) (A) (A) (A) (A) (A) (A) (A)
                 (A) (A) (A) (A) (A) (A) (A) (A) (A) (A) (A) (A)
                 (A) (A) (A) (A) (A) (A) (A) (A) (A) (A) (A) (A)
                 (A) (A) (A) (A) (A) (A) (A) (A) (A) (A) (A) (A)
                 (A) (A) (A) (A) (A) (A) (A) (A) (A) (A) (A) (A)
                 (A) (A) (A) (A) (A) (A) (A) (A) (A) (A) (A) (A)
                 (A) (A) (A) (A) (A) (A) (A) (A) (A) (A) (A) (A)
                 (A) (A) (A) (A) (A) (A) (A) (A) (A) (A) (A) (A)
                 (A) (A) (A) (A) (A) (A) (A) (A) (A) (A) (A) (A)
                 (A) (A) (A) (A) (A) (A) (A) (A) (A) (A) (A) (A)
                 (A) (A) (A) (A) (A) (A) (A) (A) (A) (A) (A) (A)
                 (A) (A) (A) (A) (A) (A) (A) (A) (A) (A) (A) (A)
                 (A) (A) (A) (A) (A) (A) (A) (A) (A) (A) (A) (A)
                 (A) (A) (A) (A) (A) (A) (A) (A) (A) (A) (A) (A)
                 (A) (A) (A) (A) (A) (A) (A) (A) (A) (A) (A) (A)
                 (A) (A) (A) (A) (A) (A) (A) (A) (A) (A) (A) (A)
                 (A) (A) (A) (A) (A) (A) (A) (A) (A) (A) (A) (A)
                 (A) (A) (A) (A) (A) (A) (A) (A) (A) (A) (A) (A)
                 (A) (A) (A) (A) (A) (A) (A) (A) (A) (A) (A) (A)
                 (A) (A) (A) (A) (A) (A) (A) (A) (A) (A) (A) (A)
                 (A) (A) (A) (A) (A) (A) (A) (A) (A) (A) (A) (A)
                 (A) (A) (A) (A) (A) (A) (A) (A) (A) (A) (A) (A)
                 (A) (A) (A) (A) (A) (A) (A) (A) (A) (A) (A) (A)
                 (A) (A) (A) (A) (A) (A) (A) (A) (A) (A) (A) (A)
                 (A) (A) (A) (A) (A) (A) (A) (A) (A) (A) (A) (A)
                 (A) (A) (A) (A) (A) (A) (A) (A) (A) (A) (A) (A)
                 (A) (A) (A) (A) (A) (A) (A) (A) (A) (A) (A) (A)
                 (A) (A) (A) (A) (A) (A) (A) (A) (A) (A) (A) (A)
                 (A) (A) (A) (A) (A) (A) (A) (A) (A) (A) (A) (A)
                 (A) (A) (A) (A) (A) (A) (A) (A) (A) (A) (A) (A)
                 (A) (A) (A) (A) (A) (A) (A) (A) (A) (A) (A) (A)
                 (A) (A) (A) (A) (A) (A) (A) (A) (A) (A) (A) (A)
                 (A) (A) (A) (A) (A) (A) (A) (A) (A) (A) (A) (A)
                 (A) (A) (A) (A) (A) (A) (A) (A) (A) (A) (A) (A)
                 (A) (A) (A) (A) (A) (A) (A) (A) (A) (A) (A) (A)
                 (A) (A) (A) (A) (A) (A) (A) (A) (A) (A) (A) (A)
                 (A) (A) (A) (A) (A) (A) (A) (A) (A) (A) (A) (A)
                 (A) (A) (A) (A) (A) (A) (A) (A) (A) (A) (A) (A)
                 (A) (A) (A) (A) (A) (A) (A) (A) (A) (A) (A) (A)
                 (A) (A) (A) (A) (A) (A) (A) (A) (A) (A) (A) (A)
                 (A) (A) (A) (A) (A) (A) (A) (A) (A) (A) (A) (A)
                 (A) (A) (A) (A) (A) (A) (A) (A) (A) (A) (A) (A)
                 (A) (A) (A) (A) (A) (A) (A) (A) (A) (A) (A) (A)
                 (A) (A) (A) (A) (A) (A) (A) (A) (A) (A) (A) (A)
                 (A) (A) (A) (A) (A) (A) (A) (A) (A) (A) (A) (A)
                 (A) (A) (A) (A) (A) (A) (A) (A) (A) (A) (A) (A)
                 (A) (A) (A) (A) (A) (A) (A) (A) (A) (A) (A) (A)
     4 initial guesses have been made.
 Convergence on wavefunction:    0.001000000000000
 Iteration     1 Dimension     4 NMult     0 NNew      4
 CISAX will form     4 AO SS matrices at one time.
 Iteration     2 Dimension     6 NMult     4 NNew      2
 Iteration     3 Dimension     8 NMult     6 NNew      2
 Iteration     4 Dimension    10 NMult     8 NNew      2
 Iteration     5 Dimension    12 NMult    10 NNew      2
 Iteration     6 Dimension    14 NMult    12 NNew      2
 ***********************************************************************
 Excited states from <AA,BB:AA,BB> singles matrix:
 ***********************************************************************
 
 Ground to excited state transition densities written to RWF  633
 Ground to excited state transition electric dipole moments (Au):
       state          X           Y           Z        Dip. S.      Osc.
         1         0.7453      2.7810      0.3070      8.3838      0.4001
 Ground to excited state transition velocity dipole moments (Au):
       state          X           Y           Z        Dip. S.      Osc.
         1        -0.0534     -0.1918     -0.0202      0.0400      0.3729
 Ground to excited state transition magnetic dipole moments (Au):
       state          X           Y           Z
         1        -0.3825      0.5952     -2.2812
 Ground to excited state transition velocity quadrupole moments (Au):
       state          XX          YY          ZZ          XY          XZ          YZ
         1         0.3724     -0.6329      0.1079      0.3953     -0.0609     -0.0024
 <0|del|b> * <b|rxdel|0> + <0|del|b> * <b|delr+rdel|0>
 Rotatory Strengths (R) in cgs (10**-40 erg-esu-cm/Gauss)
       state          XX          YY          ZZ    R(velocity)    E-M Angle
         1      -433.1788    368.6778   -405.8317   -156.7776       95.72
 1/2[<0|r|b>*<b|rxdel|0> + (<0|rxdel|b>*<b|r|0>)*]
 Rotatory Strengths (R) in cgs (10**-40 erg-esu-cm/Gauss)
       state          XX          YY          ZZ     R(length)
         1       201.5778  -1170.5238    495.1827   -157.9211
  1/2[<0|del|b>*<b|r|0> + (<0|r|b>*<b|del|0>)*] (Au)
       state          X           Y           Z        Dip. S.   Osc.(frdel)
         1        -0.0398     -0.5334     -0.0062      0.5793      0.3862

 Excitation energies and oscillator strengths:
 
 Excited State   1:      Singlet-A      1.9481 eV  636.43 nm  f=0.4001  <S**2>=0.000
     156 ->157         0.70432
     156 <-157        -0.11691
 This state for optimization and/or second-order correction.
 Total Energy, E(TD-HF/TD-DFT) =  -1948.91261587    
 Copying the excited state density for this state as the 1-particle RhoCI density.
 SavETr:  write IOETrn=   770 NScale= 10 NData=  16 NLR=1 NState=    1 LETran=      28.

 **********************************************************************

            Population analysis using the SCF density.

 **********************************************************************

 Orbital symmetries:
       Occupied  (A) (A) (A) (A) (A) (A) (A) (A) (A) (A) (A) (A)
                 (A) (A) (A) (A) (A) (A) (A) (A) (A) (A) (A) (A)
                 (A) (A) (A) (A) (A) (A) (A) (A) (A) (A) (A) (A)
                 (A) (A) (A) (A) (A) (A) (A) (A) (A) (A) (A) (A)
                 (A) (A) (A) (A) (A) (A) (A) (A) (A) (A) (A) (A)
                 (A) (A) (A) (A) (A) (A) (A) (A) (A) (A) (A) (A)
                 (A) (A) (A) (A) (A) (A) (A) (A) (A) (A) (A) (A)
                 (A) (A) (A) (A) (A) (A) (A) (A) (A) (A) (A) (A)
                 (A) (A) (A) (A) (A) (A) (A) (A) (A) (A) (A) (A)
                 (A) (A) (A) (A) (A) (A) (A) (A) (A) (A) (A) (A)
                 (A) (A) (A) (A) (A) (A) (A) (A) (A) (A) (A) (A)
                 (A) (A) (A) (A) (A) (A) (A) (A) (A) (A) (A) (A)
                 (A) (A) (A) (A) (A) (A) (A) (A) (A) (A) (A) (A)
       Virtual   (A) (A) (A) (A) (A) (A) (A) (A) (A) (A) (A) (A)
                 (A) (A) (A) (A) (A) (A) (A) (A) (A) (A) (A) (A)
                 (A) (A) (A) (A) (A) (A) (A) (A) (A) (A) (A) (A)
                 (A) (A) (A) (A) (A) (A) (A) (A) (A) (A) (A) (A)
                 (A) (A) (A) (A) (A) (A) (A) (A) (A) (A) (A) (A)
                 (A) (A) (A) (A) (A) (A) (A) (A) (A) (A) (A) (A)
                 (A) (A) (A) (A) (A) (A) (A) (A) (A) (A) (A) (A)
                 (A) (A) (A) (A) (A) (A) (A) (A) (A) (A) (A) (A)
                 (A) (A) (A) (A) (A) (A) (A) (A) (A) (A) (A) (A)
                 (A) (A) (A) (A) (A) (A) (A) (A) (A) (A) (A) (A)
                 (A) (A) (A) (A) (A) (A) (A) (A) (A) (A) (A) (A)
                 (A) (A) (A) (A) (A) (A) (A) (A) (A) (A) (A) (A)
                 (A) (A) (A) (A) (A) (A) (A) (A) (A) (A) (A) (A)
                 (A) (A) (A) (A) (A) (A) (A) (A) (A) (A) (A) (A)
                 (A) (A) (A) (A) (A) (A) (A) (A) (A) (A) (A) (A)
                 (A) (A) (A) (A) (A) (A) (A) (A) (A) (A) (A) (A)
                 (A) (A) (A) (A) (A) (A) (A) (A) (A) (A) (A) (A)
                 (A) (A) (A) (A) (A) (A) (A) (A) (A) (A) (A) (A)
                 (A) (A) (A) (A) (A) (A) (A) (A) (A) (A) (A) (A)
                 (A) (A) (A) (A) (A) (A) (A) (A) (A) (A) (A) (A)
                 (A) (A) (A) (A) (A) (A) (A) (A) (A) (A) (A) (A)
                 (A) (A) (A) (A) (A) (A) (A) (A) (A) (A) (A) (A)
                 (A) (A) (A) (A) (A) (A) (A) (A) (A) (A) (A) (A)
                 (A) (A) (A) (A) (A) (A) (A) (A) (A) (A) (A) (A)
                 (A) (A) (A) (A) (A) (A) (A) (A) (A) (A) (A) (A)
                 (A) (A) (A) (A) (A) (A) (A) (A) (A) (A) (A) (A)
                 (A) (A) (A) (A) (A) (A) (A) (A) (A) (A) (A) (A)
                 (A) (A) (A) (A) (A) (A) (A) (A) (A) (A) (A) (A)
                 (A) (A) (A) (A) (A) (A) (A) (A) (A) (A) (A) (A)
                 (A) (A) (A) (A) (A) (A) (A) (A) (A) (A) (A) (A)
                 (A) (A) (A) (A) (A) (A) (A) (A) (A) (A) (A) (A)
                 (A) (A) (A) (A) (A) (A) (A) (A) (A) (A) (A) (A)
                 (A) (A) (A) (A) (A) (A) (A) (A) (A) (A) (A) (A)
                 (A) (A) (A) (A) (A) (A) (A) (A) (A) (A) (A) (A)
                 (A) (A) (A) (A) (A) (A) (A) (A) (A) (A) (A) (A)
                 (A) (A) (A) (A) (A) (A) (A) (A) (A) (A) (A) (A)
                 (A) (A) (A) (A) (A) (A) (A) (A) (A) (A) (A) (A)
                 (A) (A) (A) (A) (A) (A) (A) (A) (A) (A) (A) (A)
                 (A) (A) (A) (A) (A) (A) (A) (A) (A) (A) (A) (A)
                 (A) (A) (A) (A) (A) (A) (A) (A) (A) (A) (A) (A)
                 (A) (A) (A) (A) (A) (A) (A) (A) (A) (A) (A) (A)
                 (A) (A) (A) (A) (A) (A) (A) (A) (A) (A) (A) (A)
                 (A) (A) (A) (A) (A) (A) (A) (A) (A) (A) (A) (A)
                 (A) (A) (A) (A) (A) (A) (A) (A) (A) (A) (A) (A)
                 (A) (A) (A) (A) (A) (A) (A) (A) (A) (A) (A) (A)
                 (A) (A) (A) (A) (A) (A) (A) (A) (A) (A) (A) (A)
                 (A) (A) (A) (A) (A) (A) (A) (A) (A) (A) (A) (A)
                 (A) (A) (A) (A) (A) (A) (A) (A) (A) (A) (A) (A)
                 (A) (A) (A) (A) (A) (A) (A) (A) (A) (A) (A) (A)
                 (A) (A) (A) (A) (A) (A) (A) (A) (A) (A) (A) (A)
                 (A) (A) (A) (A) (A) (A) (A) (A) (A) (A) (A) (A)
                 (A) (A) (A) (A) (A) (A) (A) (A) (A) (A) (A) (A)
                 (A) (A) (A) (A) (A) (A) (A) (A) (A) (A) (A) (A)
 The electronic state is 1-A.
 Alpha  occ. eigenvalues --  -19.19363 -19.18793 -19.16702 -19.14051 -19.11475
 Alpha  occ. eigenvalues --  -19.10636 -14.37968 -14.37093 -14.35476 -14.28946
 Alpha  occ. eigenvalues --  -10.35210 -10.32070 -10.29339 -10.26965 -10.24198
 Alpha  occ. eigenvalues --  -10.24105 -10.23906 -10.23443 -10.23221 -10.22936
 Alpha  occ. eigenvalues --  -10.22599 -10.22381 -10.22217 -10.22099 -10.21919
 Alpha  occ. eigenvalues --  -10.21557 -10.21323 -10.21273 -10.21094 -10.20903
 Alpha  occ. eigenvalues --  -10.20371 -10.20146 -10.19937 -10.19841 -10.19570
 Alpha  occ. eigenvalues --  -10.19325 -10.19227 -10.19136 -10.19020 -10.18615
 Alpha  occ. eigenvalues --  -10.18581 -10.18372 -10.18307  -1.10774  -1.10074
 Alpha  occ. eigenvalues --   -1.04173  -1.03439  -1.01483  -1.01100  -0.98782
 Alpha  occ. eigenvalues --   -0.96884  -0.94468  -0.93923  -0.83185  -0.82479
 Alpha  occ. eigenvalues --   -0.81283  -0.80584  -0.80451  -0.78748  -0.77977
 Alpha  occ. eigenvalues --   -0.77353  -0.76609  -0.75395  -0.74051  -0.72793
 Alpha  occ. eigenvalues --   -0.70926  -0.69457  -0.69267  -0.68234  -0.67952
 Alpha  occ. eigenvalues --   -0.67059  -0.65449  -0.63650  -0.62725  -0.61677
 Alpha  occ. eigenvalues --   -0.60989  -0.59011  -0.57633  -0.56661  -0.55598
 Alpha  occ. eigenvalues --   -0.55452  -0.55200  -0.54808  -0.53527  -0.53240
 Alpha  occ. eigenvalues --   -0.52969  -0.52140  -0.51778  -0.51084  -0.50214
 Alpha  occ. eigenvalues --   -0.49422  -0.49223  -0.48345  -0.48029  -0.47570
 Alpha  occ. eigenvalues --   -0.47318  -0.46622  -0.46079  -0.45785  -0.45662
 Alpha  occ. eigenvalues --   -0.45146  -0.44777  -0.44345  -0.44131  -0.43961
 Alpha  occ. eigenvalues --   -0.43677  -0.43558  -0.42944  -0.42785  -0.42567
 Alpha  occ. eigenvalues --   -0.42227  -0.42074  -0.41730  -0.41430  -0.41148
 Alpha  occ. eigenvalues --   -0.40949  -0.40266  -0.40196  -0.39774  -0.39571
 Alpha  occ. eigenvalues --   -0.39404  -0.39103  -0.38935  -0.38517  -0.38347
 Alpha  occ. eigenvalues --   -0.37818  -0.37685  -0.37118  -0.36722  -0.36624
 Alpha  occ. eigenvalues --   -0.35578  -0.35370  -0.35180  -0.34426  -0.34304
 Alpha  occ. eigenvalues --   -0.33932  -0.33697  -0.33502  -0.33336  -0.32951
 Alpha  occ. eigenvalues --   -0.32605  -0.32480  -0.32163  -0.31303  -0.30272
 Alpha  occ. eigenvalues --   -0.28602  -0.27775  -0.26067  -0.25797  -0.25002
 Alpha  occ. eigenvalues --   -0.24669  -0.24513  -0.24162  -0.23515  -0.21791
 Alpha  occ. eigenvalues --   -0.18029
 Alpha virt. eigenvalues --   -0.10414  -0.06167  -0.04473  -0.03115  -0.01089
 Alpha virt. eigenvalues --    0.00939   0.01337   0.02256   0.02555   0.03401
 Alpha virt. eigenvalues --    0.03510   0.03963   0.04320   0.05099   0.05269
 Alpha virt. eigenvalues --    0.05896   0.06481   0.06673   0.06905   0.07446
 Alpha virt. eigenvalues --    0.07602   0.07732   0.08007   0.08330   0.08652
 Alpha virt. eigenvalues --    0.08827   0.09155   0.10137   0.10268   0.10564
 Alpha virt. eigenvalues --    0.11008   0.11425   0.11755   0.12121   0.12320
 Alpha virt. eigenvalues --    0.12419   0.13231   0.13429   0.13617   0.13930
 Alpha virt. eigenvalues --    0.14248   0.14674   0.15062   0.15366   0.15911
 Alpha virt. eigenvalues --    0.16096   0.16195   0.16804   0.17276   0.17709
 Alpha virt. eigenvalues --    0.17840   0.18339   0.18800   0.19405   0.20229
 Alpha virt. eigenvalues --    0.20502   0.20976   0.21070   0.21307   0.21801
 Alpha virt. eigenvalues --    0.22017   0.22461   0.23168   0.23569   0.23888
 Alpha virt. eigenvalues --    0.24214   0.24714   0.25111   0.25717   0.26134
 Alpha virt. eigenvalues --    0.26934   0.27628   0.27720   0.28012   0.28293
 Alpha virt. eigenvalues --    0.28565   0.29051   0.29535   0.29659   0.29947
 Alpha virt. eigenvalues --    0.30786   0.31480   0.31767   0.32179   0.32765
 Alpha virt. eigenvalues --    0.33349   0.33482   0.34316   0.35420   0.35951
 Alpha virt. eigenvalues --    0.36409   0.36832   0.37212   0.37988   0.38411
 Alpha virt. eigenvalues --    0.38868   0.39035   0.39833   0.40479   0.40759
 Alpha virt. eigenvalues --    0.41413   0.41678   0.42078   0.42367   0.42661
 Alpha virt. eigenvalues --    0.43074   0.43173   0.43558   0.44051   0.44523
 Alpha virt. eigenvalues --    0.44717   0.45079   0.45399   0.45847   0.46059
 Alpha virt. eigenvalues --    0.46278   0.46950   0.47104   0.47305   0.47972
 Alpha virt. eigenvalues --    0.48106   0.48463   0.48758   0.49088   0.49570
 Alpha virt. eigenvalues --    0.49705   0.50235   0.50324   0.50660   0.51183
 Alpha virt. eigenvalues --    0.51270   0.51916   0.52250   0.52627   0.53126
 Alpha virt. eigenvalues --    0.53229   0.53428   0.54248   0.54896   0.55277
 Alpha virt. eigenvalues --    0.55748   0.55965   0.56323   0.56961   0.57221
 Alpha virt. eigenvalues --    0.57877   0.58055   0.58244   0.58558   0.58882
 Alpha virt. eigenvalues --    0.59283   0.59538   0.59771   0.59965   0.60069
 Alpha virt. eigenvalues --    0.60508   0.60782   0.61060   0.61308   0.61412
 Alpha virt. eigenvalues --    0.61569   0.62093   0.62348   0.62584   0.62693
 Alpha virt. eigenvalues --    0.63012   0.63267   0.63424   0.64079   0.64127
 Alpha virt. eigenvalues --    0.64390   0.64631   0.64906   0.65103   0.65208
 Alpha virt. eigenvalues --    0.65474   0.65624   0.66369   0.66555   0.66927
 Alpha virt. eigenvalues --    0.67036   0.67268   0.67595   0.67662   0.68325
 Alpha virt. eigenvalues --    0.68435   0.68699   0.68838   0.69017   0.69480
 Alpha virt. eigenvalues --    0.69736   0.69844   0.70234   0.70340   0.70666
 Alpha virt. eigenvalues --    0.70907   0.70961   0.71580   0.71779   0.72027
 Alpha virt. eigenvalues --    0.72065   0.72555   0.72608   0.72926   0.73496
 Alpha virt. eigenvalues --    0.73737   0.74124   0.74506   0.75192   0.75313
 Alpha virt. eigenvalues --    0.75476   0.75962   0.76070   0.76619   0.76813
 Alpha virt. eigenvalues --    0.77333   0.77646   0.78318   0.78672   0.79694
 Alpha virt. eigenvalues --    0.80158   0.81189   0.81426   0.81564   0.82324
 Alpha virt. eigenvalues --    0.82919   0.83528   0.83985   0.84690   0.85265
 Alpha virt. eigenvalues --    0.85531   0.85844   0.86344   0.87237   0.88276
 Alpha virt. eigenvalues --    0.88943   0.89490   0.89996   0.91199   0.91981
 Alpha virt. eigenvalues --    0.93008   0.93304   0.93462   0.93784   0.94284
 Alpha virt. eigenvalues --    0.94568   0.95210   0.95931   0.96508   0.96953
 Alpha virt. eigenvalues --    0.97870   0.98088   0.99038   0.99330   1.00108
 Alpha virt. eigenvalues --    1.00615   1.00952   1.01687   1.02263   1.02685
 Alpha virt. eigenvalues --    1.02896   1.03549   1.04937   1.05069   1.06747
 Alpha virt. eigenvalues --    1.06881   1.07521   1.08125   1.09018   1.09169
 Alpha virt. eigenvalues --    1.09737   1.10830   1.11536   1.12349   1.13351
 Alpha virt. eigenvalues --    1.13650   1.14864   1.15754   1.16201   1.16376
 Alpha virt. eigenvalues --    1.16962   1.17777   1.18680   1.19549   1.20043
 Alpha virt. eigenvalues --    1.20446   1.21129   1.21263   1.22526   1.22694
 Alpha virt. eigenvalues --    1.23033   1.23653   1.24450   1.25197   1.25314
 Alpha virt. eigenvalues --    1.26579   1.27606   1.27830   1.28197   1.29289
 Alpha virt. eigenvalues --    1.29838   1.30202   1.30985   1.31705   1.32894
 Alpha virt. eigenvalues --    1.33122   1.33609   1.33839   1.35070   1.35690
 Alpha virt. eigenvalues --    1.36416   1.36982   1.37423   1.37719   1.38212
 Alpha virt. eigenvalues --    1.38838   1.39338   1.40406   1.40571   1.41174
 Alpha virt. eigenvalues --    1.41847   1.42911   1.43366   1.43861   1.44382
 Alpha virt. eigenvalues --    1.44731   1.45250   1.45582   1.46190   1.46986
 Alpha virt. eigenvalues --    1.48341   1.48776   1.49781   1.50154   1.50807
 Alpha virt. eigenvalues --    1.51165   1.51942   1.52063   1.52360   1.53249
 Alpha virt. eigenvalues --    1.53815   1.54485   1.54755   1.55406   1.55761
 Alpha virt. eigenvalues --    1.56473   1.57096   1.58048   1.58495   1.58698
 Alpha virt. eigenvalues --    1.58985   1.59512   1.59687   1.60900   1.61505
 Alpha virt. eigenvalues --    1.62499   1.62780   1.63273   1.63532   1.63889
 Alpha virt. eigenvalues --    1.64526   1.64782   1.65052   1.65347   1.65760
 Alpha virt. eigenvalues --    1.65825   1.66661   1.67195   1.67524   1.67864
 Alpha virt. eigenvalues --    1.68743   1.69534   1.69619   1.70060   1.70261
 Alpha virt. eigenvalues --    1.70679   1.71501   1.71744   1.73145   1.73283
 Alpha virt. eigenvalues --    1.73982   1.74155   1.74477   1.74606   1.75061
 Alpha virt. eigenvalues --    1.75633   1.76233   1.76584   1.76918   1.77313
 Alpha virt. eigenvalues --    1.77810   1.78073   1.78132   1.78817   1.79161
 Alpha virt. eigenvalues --    1.79513   1.79886   1.80134   1.80248   1.80595
 Alpha virt. eigenvalues --    1.80659   1.81113   1.81150   1.81855   1.82188
 Alpha virt. eigenvalues --    1.82347   1.82768   1.83393   1.83666   1.83826
 Alpha virt. eigenvalues --    1.84407   1.84749   1.85029   1.85121   1.85852
 Alpha virt. eigenvalues --    1.86275   1.86816   1.87209   1.87305   1.87832
 Alpha virt. eigenvalues --    1.88647   1.88953   1.89724   1.90219   1.90808
 Alpha virt. eigenvalues --    1.91084   1.91655   1.91974   1.92480   1.92962
 Alpha virt. eigenvalues --    1.93619   1.93846   1.94210   1.94944   1.95485
 Alpha virt. eigenvalues --    1.95740   1.95879   1.96178   1.96750   1.97466
 Alpha virt. eigenvalues --    1.97942   1.98602   1.99087   1.99832   2.00051
 Alpha virt. eigenvalues --    2.00523   2.00876   2.02215   2.02545   2.02690
 Alpha virt. eigenvalues --    2.03365   2.03622   2.04547   2.05029   2.05737
 Alpha virt. eigenvalues --    2.06073   2.06434   2.06707   2.07450   2.08214
 Alpha virt. eigenvalues --    2.08411   2.10079   2.10319   2.10830   2.11370
 Alpha virt. eigenvalues --    2.11614   2.12259   2.12763   2.12901   2.13955
 Alpha virt. eigenvalues --    2.14730   2.15200   2.15470   2.15565   2.17218
 Alpha virt. eigenvalues --    2.17688   2.17987   2.18518   2.19399   2.20107
 Alpha virt. eigenvalues --    2.20703   2.20836   2.21092   2.22316   2.22761
 Alpha virt. eigenvalues --    2.23810   2.24895   2.25226   2.25413   2.26129
 Alpha virt. eigenvalues --    2.26501   2.28081   2.28220   2.28523   2.29350
 Alpha virt. eigenvalues --    2.29888   2.30022   2.30353   2.31568   2.32534
 Alpha virt. eigenvalues --    2.32941   2.33539   2.34067   2.35277   2.36092
 Alpha virt. eigenvalues --    2.36597   2.38168   2.38940   2.39262   2.40006
 Alpha virt. eigenvalues --    2.40435   2.41981   2.42540   2.42740   2.43525
 Alpha virt. eigenvalues --    2.44264   2.44843   2.45166   2.45432   2.47312
 Alpha virt. eigenvalues --    2.47467   2.47975   2.49425   2.49837   2.50502
 Alpha virt. eigenvalues --    2.50993   2.51250   2.51758   2.52618   2.53658
 Alpha virt. eigenvalues --    2.55073   2.55599   2.56563   2.57190   2.58928
 Alpha virt. eigenvalues --    2.59813   2.60542   2.61050   2.61549   2.61801
 Alpha virt. eigenvalues --    2.62201   2.62796   2.63752   2.63920   2.64232
 Alpha virt. eigenvalues --    2.64516   2.64786   2.65526   2.66835   2.67216
 Alpha virt. eigenvalues --    2.67305   2.68501   2.68761   2.69359   2.69898
 Alpha virt. eigenvalues --    2.70338   2.72060   2.72230   2.72588   2.73417
 Alpha virt. eigenvalues --    2.73777   2.73908   2.75060   2.76722   2.76845
 Alpha virt. eigenvalues --    2.77272   2.77622   2.78471   2.78718   2.79393
 Alpha virt. eigenvalues --    2.80443   2.81661   2.82250   2.83732   2.84259
 Alpha virt. eigenvalues --    2.84885   2.85160   2.86995   2.87784   2.88537
 Alpha virt. eigenvalues --    2.89499   2.90217   2.90836   2.91243   2.91607
 Alpha virt. eigenvalues --    2.91877   2.92578   2.93713   2.94364   2.95293
 Alpha virt. eigenvalues --    2.95926   2.96974   2.98777   2.99478   3.00320
 Alpha virt. eigenvalues --    3.01025   3.03112   3.03980   3.04430   3.05240
 Alpha virt. eigenvalues --    3.05592   3.07851   3.09666   3.10771   3.12088
 Alpha virt. eigenvalues --    3.13449   3.14117   3.15130   3.15284   3.17241
 Alpha virt. eigenvalues --    3.17406   3.18115   3.20325   3.21487   3.21842
 Alpha virt. eigenvalues --    3.24722   3.25434   3.28726   3.30331   3.33333
 Alpha virt. eigenvalues --    3.37830   3.39300   3.42117   3.45833   3.47918
 Alpha virt. eigenvalues --    3.49544   3.50044   3.52237   3.59193   3.62734
 Alpha virt. eigenvalues --    3.64626   3.66404   3.66933   3.68467   3.72158
 Alpha virt. eigenvalues --    3.80159
          Condensed to atoms (all electrons):
 Mulliken charges:
               1
     1  O   -0.191373
     2  O   -0.185009
     3  O   -0.261221
     4  O   -0.185189
     5  O   -0.206783
     6  O   -0.220500
     7  N   -0.074647
     8  N   -0.086579
     9  N   -0.196589
    10  N   -0.180025
    11  C   -0.132649
    12  C    0.086283
    13  C   -0.134034
    14  C    0.019742
    15  C   -0.097510
    16  C    0.099896
    17  C   -0.018569
    18  C   -0.050700
    19  C    0.090620
    20  C   -0.183699
    21  C    0.182432
    22  C    0.056155
    23  C   -0.009948
    24  C    0.289683
    25  C   -0.118782
    26  C   -0.064300
    27  C    0.181378
    28  C    0.075627
    29  C   -0.094574
    30  C   -0.074063
    31  C   -0.141760
    32  C    0.076987
    33  C   -0.115087
    34  C    0.105374
    35  C   -0.114338
    36  C   -0.133208
    37  C    0.176181
    38  C   -0.020092
    39  C    0.133776
    40  C    0.053326
    41  C    0.120662
    42  C    0.108752
    43  C   -0.061255
    44  H    0.173541
    45  H   -0.054590
    46  H    0.010064
    47  H    0.011647
    48  H    0.078183
    49  H   -0.111486
    50  H    0.015712
    51  H    0.009350
    52  H    0.092341
    53  H    0.033417
    54  H    0.082100
    55  H    0.034212
    56  H    0.152431
    57  H   -0.022473
    58  H    0.053653
    59  H    0.102780
    60  H    0.046278
    61  H    0.043025
    62  H    0.027323
    63  H    0.057484
    64  H   -0.026325
    65  H    0.003080
    66  H    0.042512
    67  H   -0.003010
    68  H    0.030378
    69  H    0.082683
    70  H    0.008517
    71  H    0.036105
    72  H    0.015215
    73  H    0.000692
    74  H    0.025311
    75  H   -0.035343
    76  H    0.027536
    77  H    0.032618
    78  H    0.011990
    79  H    0.058423
    80  H    0.148670
    81  H    0.201568
 Sum of Mulliken charges =  -0.00000
 Mulliken charges with hydrogens summed into heavy atoms:
               1
     1  O   -0.191373
     2  O   -0.036339
     3  O   -0.059654
     4  O   -0.185189
     5  O   -0.206783
     6  O   -0.220500
     7  N    0.098895
     8  N    0.005761
     9  N   -0.044159
    10  N   -0.180025
    11  C   -0.132649
    12  C    0.086283
    13  C   -0.134034
    14  C    0.019742
    15  C   -0.097510
    16  C    0.099896
    17  C   -0.073158
    18  C   -0.050700
    19  C    0.112331
    20  C   -0.105516
    21  C    0.182432
    22  C    0.056155
    23  C   -0.009948
    24  C    0.193909
    25  C   -0.109432
    26  C    0.085430
    27  C    0.181378
    28  C    0.106806
    29  C    0.054484
    30  C    0.053769
    31  C   -0.168085
    32  C    0.119569
    33  C   -0.084708
    34  C    0.105374
    35  C   -0.114338
    36  C   -0.133208
    37  C    0.176181
    38  C    0.107212
    39  C    0.133776
    40  C    0.069233
    41  C    0.120662
    42  C    0.126256
    43  C    0.041776
 Electronic spatial extent (au):  <R**2>=          30708.1978
 Charge=             -0.0000 electrons
 Dipole moment (field-independent basis, Debye):
    X=              2.9931    Y=              0.5213    Z=             -0.2988  Tot=              3.0528
 Quadrupole moment (field-independent basis, Debye-Ang):
   XX=           -255.9588   YY=           -237.3870   ZZ=           -259.1540
   XY=            -18.0903   XZ=             11.4534   YZ=             13.4253
 Traceless Quadrupole moment (field-independent basis, Debye-Ang):
   XX=             -5.1256   YY=             13.4463   ZZ=             -8.3207
   XY=            -18.0903   XZ=             11.4534   YZ=             13.4253
 Octapole moment (field-independent basis, Debye-Ang**2):
  XXX=            -18.3484  YYY=             99.9307  ZZZ=             21.4391  XYY=            176.7513
  XXY=             13.5556  XXZ=             38.3024  XZZ=             35.1373  YZZ=            -17.5513
  YYZ=            -26.7847  XYZ=            -57.8788
 Hexadecapole moment (field-independent basis, Debye-Ang**3):
 XXXX=         -22701.9593 YYYY=         -15868.3592 ZZZZ=          -1714.0981 XXXY=           -593.0092
 XXXZ=            549.9287 YYYX=          -1032.0217 YYYZ=            473.7588 ZZZX=             37.6781
 ZZZY=            -73.5531 XXYY=          -6579.8441 XXZZ=          -4234.8963 YYZZ=          -3127.8837
 XXYZ=             27.2552 YYXZ=            276.9705 ZZXY=           -169.0580
 N-N= 5.026850182143D+03 E-N=-1.458404257403D+04  KE= 1.927987448258D+03
 1\1\GINC-RYZEN-SSD1\SP\RB3LYP TD-FC\SVP\C33H38N4O6\PADAWAN\30-Jun-2019
 \0\\# td=(NStates=1) B3LYP/SVP\\TD\\0,1\O,0,-4.618962017,-4.6564357248
 ,1.9740627699\O,0,2.881458744,-4.733937943,1.3606239942\O,0,7.15331571
 3,-1.4915066918,1.9125414746\O,0,3.9116028931,-3.1360327285,-0.0244495
 866\O,0,7.60977973,-0.7226736467,-0.1894285122\O,0,-3.0034906779,2.385
 2759251,-0.1352984344\N,0,-0.2536697487,-0.5912784776,-0.6803766739\N,
 0,1.548242507,1.8690692857,-0.4855102131\N,0,-3.3217291159,-3.05603465
 03,0.7417726486\N,0,-0.7610975127,2.9231327315,-0.0742124451\C,0,0.657
 4469771,-2.4802634646,-1.4540174848\C,0,0.9672056544,-1.1361035615,-1.
 0250150568\C,0,-0.7952838535,-2.6617700664,-1.2283730367\C,0,-1.286040
 7103,-1.4446781097,-0.7822196879\C,0,3.8288808294,1.3552100063,-0.2791
 041268\C,0,2.4950702,0.8145027821,-0.5968512437\C,0,2.20285729,-0.5060
 867545,-0.9433565807\C,0,3.5877826152,2.7709651047,0.0848177089\C,0,1.
 6676879213,-3.469312197,-1.8680870097\C,0,-5.6006093961,-2.522114121,1
 .3105209921\C,0,-3.5969117541,-1.7612111831,0.2297667617\C,0,2.1051047
 707,3.020428471,0.0199045135\C,0,-5.0367198683,-1.5185873619,0.2623348
 724\C,0,5.1645449326,0.6756672367,-0.3466577222\C,0,-2.6768186441,-1.0
 590826799,-0.4045008645\C,0,-1.5250404417,-3.8665311554,-1.6787611198\
 C,0,-4.4840558724,-3.645553061,1.3372428389\C,0,2.0805685329,-4.578180
 0377,-0.8778806439\C,0,5.4314830246,-0.253981462,0.7167197781\C,0,4.46
 96827545,3.8213733686,0.4648786717\C,0,1.2607273141,4.0983842459,0.289
 5790774\C,0,-6.9573868693,-3.1249198718,0.9750869748\C,0,-5.8240510076
 ,-0.5067554054,-0.2107625507\C,0,-0.1160265917,3.9612107927,0.12785141
 07\C,0,-1.0073116929,5.1112622192,0.4740920378\C,0,-2.3136366899,4.684
 7045933,0.3097023731\C,0,3.1127441157,-4.0142880479,0.1682182208\C,0,-
 5.6000446653,0.4003152601,-1.3611371807\C,0,6.8835309193,-0.7964979339
 ,0.7374168643\C,0,-3.6034261019,5.3247887771,0.5316939845\C,0,-2.09863
 32996,3.2197541667,0.011272052\C,0,-0.5597701145,6.4843523032,0.761371
 2269\C,0,-4.1872472616,5.7426726722,-0.8001007858\H,0,-0.4091084757,0.
 2420799136,-0.0136519185\H,0,3.0238564002,-1.0392459267,-1.2240619148\
 H,0,2.3387251234,-2.7912838353,-2.2903414688\H,0,1.0596727466,-4.13689
 56072,-2.6407864451\H,0,-5.5368454907,-1.9603644255,2.4944416047\H,0,5
 .281428453,0.2663213486,-1.1413272857\H,0,5.9995519208,1.4121155209,-0
 .6929005897\H,0,-2.8062387196,0.0057750737,-0.5377966853\H,0,0.5659129
 23,1.889310114,-0.5601954916\H,0,-1.628928484,-4.6366857728,-0.8299738
 031\H,0,-2.5381474444,-3.3317008721,-2.2313124514\H,0,-0.9833582869,-4
 .6508032547,-2.462919895\H,0,-2.3705908169,-3.5291890673,0.6554027873\
 H,0,1.3246082675,-5.0652390064,-0.4219659141\H,0,2.430862272,-5.544477
 1562,-1.4713416481\H,0,4.9935437754,-1.3968357347,0.7324838346\H,0,5.3
 160058002,0.2526296996,1.7789023609\H,0,4.7767251928,4.4622766951,-0.4
 541754002\H,0,5.5884454673,3.5824609653,0.7579423174\H,0,4.065685986,4
 .5900645146,1.4353248364\H,0,1.8025160836,4.945514481,0.7505448414\H,0
 ,-7.8000727789,-2.3684828428,1.2465193459\H,0,-7.1900246468,-3.9128290
 488,1.7721395819\H,0,-7.2257907631,-3.2335111146,-0.0045288637\H,0,-6.
 9629036321,-0.6297233036,0.2469066186\H,0,-4.8954143832,1.3158757845,-
 1.2072645746\H,0,-6.5655583855,0.6859862269,-1.6905857371\H,0,-4.99256
 77523,0.0574825945,-2.3763588486\H,0,-3.6260724865,6.3379764534,1.2465
 123552\H,0,-4.1937370512,4.6383629685,1.0593780756\H,0,0.3539899643,6.
 7479767576,1.4662793604\H,0,-1.2133327166,7.183105006,1.0124505015\H,0
 ,-0.1357243848,6.8344919497,-0.2401676826\H,0,-3.6657168675,6.82758864
 2,-1.0446922853\H,0,-5.2524470678,6.0015929003,-0.6985249942\H,0,-4.11
 08956107,4.750706563,-1.5511448529\H,0,3.4757528818,-4.4939136216,2.00
 13787749\H,0,8.0334905938,-1.8820688592,1.4157617388\\Version=ES64L-G1
 6RevA.03\State=1-A\HF=-1948.9842076\RMSD=8.839e-09\PG=C01 [X(C33H38N4O
 6)]\\@


 YE HAVE SOWN MUCH, AND BRING IN LITTLE.
 YE EAT, BUT YE HAVE NOT ENOUGH.
 YE DRINK, BUT YE ARE NOT FILLED WITH DRINK.
 YE CLOTHE YOU, BUT THERE IS NONE WARM.
 AND HE THAT EARNETH WAGES EARNETH WAGES TO PUT
 IT INTO A BAG WITH HOLES.
                                     HAGGAI I,6
 Job cpu time:       0 days 15 hours 48 minutes  0.5 seconds.
 Elapsed time:       0 days  3 hours 58 minutes  5.2 seconds.
 File lengths (MBytes):  RWF=   2591 Int=      0 D2E=      0 Chk=     65 Scr=      1
 Normal termination of Gaussian 16 at Sun Jun 30 10:33:15 2019.
