 Entering Gaussian System, Link 0=g16
 Input=Geometria-52-.com
 Output=Geometria-52-.log
 Initial command:
 /usr/local/g16/l1.exe "/home/padawan/israel-mol/phycocyanobilin/spectra/abs/Gau-36407.inp" -scrdir="/home/padawan/israel-mol/phycocyanobilin/spectra/abs/"
 Entering Link 1 = /usr/local/g16/l1.exe PID=     36409.
  
 Copyright (c) 1988,1990,1992,1993,1995,1998,2003,2009,2016,
            Gaussian, Inc.  All Rights Reserved.
  
 This is part of the Gaussian(R) 16 program.  It is based on
 the Gaussian(R) 09 system (copyright 2009, Gaussian, Inc.),
 the Gaussian(R) 03 system (copyright 2003, Gaussian, Inc.),
 the Gaussian(R) 98 system (copyright 1998, Gaussian, Inc.),
 the Gaussian(R) 94 system (copyright 1995, Gaussian, Inc.),
 the Gaussian 92(TM) system (copyright 1992, Gaussian, Inc.),
 the Gaussian 90(TM) system (copyright 1990, Gaussian, Inc.),
 the Gaussian 88(TM) system (copyright 1988, Gaussian, Inc.),
 the Gaussian 86(TM) system (copyright 1986, Carnegie Mellon
 University), and the Gaussian 82(TM) system (copyright 1983,
 Carnegie Mellon University). Gaussian is a federally registered
 trademark of Gaussian, Inc.
  
 This software contains proprietary and confidential information,
 including trade secrets, belonging to Gaussian, Inc.
  
 This software is provided under written license and may be
 used, copied, transmitted, or stored only in accord with that
 written license.
  
 The following legend is applicable only to US Government
 contracts under FAR:
  
                    RESTRICTED RIGHTS LEGEND
  
 Use, reproduction and disclosure by the US Government is
 subject to restrictions as set forth in subparagraphs (a)
 and (c) of the Commercial Computer Software - Restricted
 Rights clause in FAR 52.227-19.
  
 Gaussian, Inc.
 340 Quinnipiac St., Bldg. 40, Wallingford CT 06492
  
  
 ---------------------------------------------------------------
 Warning -- This program may not be used in any manner that
 competes with the business of Gaussian, Inc. or will provide
 assistance to any competitor of Gaussian, Inc.  The licensee
 of this program is prohibited from giving any competitor of
 Gaussian, Inc. access to this program.  By using this program,
 the user acknowledges that Gaussian, Inc. is engaged in the
 business of creating and licensing software in the field of
 computational chemistry and represents and warrants to the
 licensee that it is not a competitor of Gaussian, Inc. and that
 it will not use this program in any manner prohibited above.
 ---------------------------------------------------------------
  

 Cite this work as:
 Gaussian 16, Revision A.03,
 M. J. Frisch, G. W. Trucks, H. B. Schlegel, G. E. Scuseria, 
 M. A. Robb, J. R. Cheeseman, G. Scalmani, V. Barone, 
 G. A. Petersson, H. Nakatsuji, X. Li, M. Caricato, A. V. Marenich, 
 J. Bloino, B. G. Janesko, R. Gomperts, B. Mennucci, H. P. Hratchian, 
 J. V. Ortiz, A. F. Izmaylov, J. L. Sonnenberg, D. Williams-Young, 
 F. Ding, F. Lipparini, F. Egidi, J. Goings, B. Peng, A. Petrone, 
 T. Henderson, D. Ranasinghe, V. G. Zakrzewski, J. Gao, N. Rega, 
 G. Zheng, W. Liang, M. Hada, M. Ehara, K. Toyota, R. Fukuda, 
 J. Hasegawa, M. Ishida, T. Nakajima, Y. Honda, O. Kitao, H. Nakai, 
 T. Vreven, K. Throssell, J. A. Montgomery, Jr., J. E. Peralta, 
 F. Ogliaro, M. J. Bearpark, J. J. Heyd, E. N. Brothers, K. N. Kudin, 
 V. N. Staroverov, T. A. Keith, R. Kobayashi, J. Normand, 
 K. Raghavachari, A. P. Rendell, J. C. Burant, S. S. Iyengar, 
 J. Tomasi, M. Cossi, J. M. Millam, M. Klene, C. Adamo, R. Cammi, 
 J. W. Ochterski, R. L. Martin, K. Morokuma, O. Farkas, 
 J. B. Foresman, and D. J. Fox, Gaussian, Inc., Wallingford CT, 2016.
 
 ******************************************
 Gaussian 16:  ES64L-G16RevA.03 25-Dec-2016
                27-Jun-2019 
 ******************************************
 %nproc=4
 Will use up to    4 processors via shared memory.
 %Mem=4GB
 --------------------------
 # td=(NStates=1) B3LYP/SVP
 --------------------------
 1/38=1,172=1/1;
 2/12=2,17=6,18=5,40=1/2;
 3/5=18,7=101,11=9,25=1,30=1,74=-5/1,2,3,8;
 4//1;
 5/5=2,38=5/2;
 8/6=1,10=1,108=1/1;
 9/41=1,42=1,70=2/14;
 6/7=2,8=2,9=2,10=2/1;
 99/5=1,9=1/99;
 --
 TD
 --
 Symbolic Z-matrix:
 Charge =  0 Multiplicity = 1
 8                    -4.57434  -4.73459   1.80329 
 8                     2.81437  -4.75255   1.47625 
 8                     7.07011  -1.36537   1.78542 
 8                     3.61992  -3.0992    0.22049 
 8                     7.56393  -0.75201  -0.3408 
 8                    -3.04957   2.43378  -0.21448 
 7                    -0.26187  -0.58665  -0.67907 
 7                     1.58921   1.73661  -0.43332 
 7                    -3.42966  -3.03486   0.6289 
 7                    -0.81774   2.87713   0.06693 
 6                     0.64468  -2.43552  -1.27395 
 6                     0.95555  -1.10965  -0.92547 
 6                    -0.72327  -2.75405  -1.16259 
 6                    -1.23551  -1.50963  -0.70889 
 6                     3.81028   1.45669  -0.47224 
 6                     2.46404   0.80279  -0.65895 
 6                     2.15271  -0.51963  -0.98941 
 6                     3.59035   2.76194   0.00747 
 6                     1.65239  -3.42559  -1.90418 
 6                    -5.6517   -2.48355   1.29272 
 6                    -3.655    -1.86883   0.04806 
 6                     2.10408   2.99767   0.051 
 6                    -5.03276  -1.48454   0.31095 
 6                     5.09419   0.74307  -0.55525 
 6                    -2.60176  -1.12099  -0.44835 
 6                    -1.35834  -4.05374  -1.63395 
 6                    -4.54247  -3.62869   1.36541 
 6                     2.05085  -4.59955  -0.83903 
 6                     5.544    -0.10269   0.74064 
 6                     4.56412   3.80781   0.31694 
 6                     1.35421   4.13327   0.42234 
 6                    -7.00039  -3.06648   0.89602 
 6                    -5.76592  -0.56923  -0.28686 
 6                    -0.08995   4.06237   0.29438 
 6                    -0.93995   5.13341   0.42965 
 6                    -2.24763   4.70195   0.38257 
 6                     2.92116  -4.06916   0.27162 
 6                    -5.26298   0.38862  -1.37503 
 6                     6.79334  -0.74693   0.712 
 6                    -3.50332   5.24797   0.58899 
 6                    -2.09472   3.21441   0.19407 
 6                    -0.51944   6.53977   0.75124 
 6                    -4.20214   5.60778  -0.69596 
 1                    -0.28204   0.42172  -0.22256 
 1                     2.97942  -1.10553  -1.04351 
 1                     2.29999  -2.87978  -2.16282 
 1                     1.22427  -3.97807  -2.7896 
 1                    -5.49317  -2.00762   2.18743 
 1                     4.99556   0.12105  -1.6693 
 1                     5.85115   1.45178  -0.51536 
 1                    -2.86913  -0.1104   -0.58746 
 1                     0.50432   1.93284  -0.57419 
 1                    -1.31649  -4.87313  -0.98488 
 1                    -2.37536  -3.85633  -1.8212 
 1                    -0.81788  -4.52214  -2.43256 
 1                    -2.58834  -3.511     0.78293 
 1                     1.00564  -4.97153  -0.52507 
 1                     2.57172  -5.34544  -1.43663 
 1                     4.76182  -0.95548   0.71418 
 1                     5.33181   0.33381   1.76906 
 1                     4.38805   4.64405  -0.32991 
 1                     5.70982   3.73539   0.21569 
 1                     4.31985   4.07669   1.33761 
 1                     1.83355   5.07473   0.6191 
 1                    -7.62325  -2.21816   0.94342 
 1                    -7.36765  -3.63341   1.75782 
 1                    -6.88208  -3.62113  -0.03249 
 1                    -6.87856  -0.10537   0.09615 
 1                    -4.86107   1.21722  -0.81387 
 1                    -6.31061   0.84427  -1.80921 
 1                    -4.5968    0.1813   -2.18881 
 1                    -3.72477   6.04073   1.39349 
 1                    -4.05729   4.37994   0.91913 
 1                     0.45728   6.62341   1.32453 
 1                    -1.40581   7.25174   1.18338 
 1                    -0.15247   7.02491  -0.05286 
 1                    -3.60918   6.4156   -1.2152 
 1                    -5.0491    6.34986  -0.62046 
 1                    -4.30238   4.88029  -1.22317 
 1                     3.53428  -4.52637   2.15818 
 1                     8.028    -1.53107   1.34665 
 
 Stoichiometry    C33H38N4O6
 Framework group  C1[X(C33H38N4O6)]
 Deg. of freedom   237
 Full point group                 C1      NOp   1
 Largest Abelian subgroup         C1      NOp   1
 Largest concise Abelian subgroup C1      NOp   1
                         Standard orientation:                         
 ---------------------------------------------------------------------
 Center     Atomic      Atomic             Coordinates (Angstroms)
 Number     Number       Type             X           Y           Z
 ---------------------------------------------------------------------
      1          8           0       -4.629050   -4.677877    1.815805
      2          8           0        2.760293   -4.772853    1.517647
      3          8           0        7.049064   -1.427236    1.822804
      4          8           0        3.587434   -3.135475    0.255022
      5          8           0        7.557240   -0.831925   -0.305167
      6          8           0       -3.023684    2.462176   -0.239514
      7          7           0       -0.265114   -0.589187   -0.674891
      8          7           0        1.608556    1.716612   -0.436063
      9          7           0       -3.462643   -2.997068    0.635582
     10          7           0       -0.788560    2.884551    0.047882
     11          6           0        0.624842   -2.450769   -1.254998
     12          6           0        0.947861   -1.126020   -0.913367
     13          6           0       -0.746688   -2.754707   -1.147029
     14          6           0       -1.247970   -1.502405   -0.702900
     15          6           0        3.826798    1.413926   -0.464633
     16          6           0        2.474696    0.772601   -0.652601
     17          6           0        2.151197   -0.548585   -0.976235
     18          6           0        3.618331    2.724254    0.006282
     19          6           0        1.624831   -3.454854   -1.875276
     20          6           0       -5.681488   -2.419174    1.287383
     21          6           0       -3.673875   -1.832382    0.046794
     22          6           0        2.134383    2.975317    0.042591
     23          6           0       -5.048651   -1.432525    0.301980
     24          6           0        5.103686    0.686816   -0.538303
     25          6           0       -2.611188   -1.098321   -0.450039
     26          6           0       -1.393149   -4.050740   -1.612954
     27          6           0       -4.584254   -3.575053    1.371342
     28          6           0        2.007239   -4.626269   -0.801467
     29          6           0        5.539904   -0.155529    0.764443
     30          6           0        4.601501    3.762053    0.313186
     31          6           0        1.394683    4.120723    0.404108
     32          6           0       -7.034508   -2.990798    0.888984
     33          6           0       -5.770158   -0.513488   -0.304229
     34          6           0       -0.049623    4.063712    0.270956
     35          6           0       -0.889192    5.144138    0.396406
     36          6           0       -2.201000    4.725690    0.346860
     37          6           0        2.878649   -4.097964    0.309316
     38          6           0       -5.253337    0.432541   -1.396229
     39          6           0        6.782721   -0.812591    0.744583
     40          6           0       -3.451846    5.285688    0.545069
     41          6           0       -2.062519    3.235556    0.167997
     42          6           0       -0.455617    6.548089    0.711085
     43          6           0       -4.142043    5.644710   -0.744754
     44          1           0       -0.276764    0.422104   -0.224604
     45          1           0        2.972103   -1.143174   -1.023559
     46          1           0        2.278943   -2.917244   -2.134701
     47          1           0        1.194509   -4.008363   -2.758984
     48          1           0       -5.521548   -1.939416    2.179798
     49          1           0        5.003002    0.059023   -1.648931
     50          1           0        5.867661    1.388030   -0.499777
     51          1           0       -2.867718   -0.085935   -0.596332
     52          1           0        0.526268    1.922991   -0.582337
     53          1           0       -1.362121   -4.866528   -0.958763
     54          1           0       -2.407380   -3.844166   -1.805362
     55          1           0       -0.854426   -4.529478   -2.406594
     56          1           0       -2.626811   -3.480770    0.795770
     57          1           0        0.957103   -4.985688   -0.489324
     58          1           0        2.522777   -5.381044   -1.392494
     59          1           0        4.749189   -1.000484    0.740119
     60          1           0        5.328222    0.289376    1.789358
     61          1           0        4.436424    4.596070   -0.339419
     62          1           0        5.746779    3.677381    0.216833
     63          1           0        4.356071    4.039636    1.331236
     64          1           0        1.882825    5.058452    0.597010
     65          1           0       -7.648873   -2.135918    0.928805
     66          1           0       -7.410819   -3.548687    1.752775
     67          1           0       -6.918288   -3.552283   -0.035673
     68          1           0       -6.879479   -0.036021    0.071624
     69          1           0       -4.845168    1.260425   -0.838549
     70          1           0       -6.294606    0.896140   -1.837243
     71          1           0       -4.586186    0.213497   -2.206137
     72          1           0       -3.668303    6.085555    1.343868
     73          1           0       -4.015890    4.425358    0.878321
     74          1           0        0.519696    6.625317    1.287649
     75          1           0       -1.336351    7.271655    1.135435
     76          1           0       -0.080651    7.024556   -0.094512
     77          1           0       -3.538910    6.443276   -1.266578
     78          1           0       -4.981688    6.395798   -0.677058
     79          1           0       -4.247667    4.915066   -1.267923
     80          1           0        3.479846   -4.549826    2.200997
     81          1           0        8.006894   -1.605333    1.388787
 ---------------------------------------------------------------------
 Rotational constants (GHZ):           0.0766887           0.0548115           0.0341403
 Standard basis: SVP (5D, 7F)
 There are   835 symmetry adapted cartesian basis functions of A   symmetry.
 There are   792 symmetry adapted basis functions of A   symmetry.
   792 basis functions,  1341 primitive gaussians,   835 cartesian basis functions
   156 alpha electrons      156 beta electrons
       nuclear repulsion energy      5055.0345724423 Hartrees.
 NAtoms=   81 NActive=   81 NUniq=   81 SFac= 1.00D+00 NAtFMM=   60 NAOKFM=T Big=T
 Integral buffers will be    131072 words long.
 Regular integral format.
 Two-electron integral symmetry is turned on.
 One-electron integrals computed using PRISM.
 NBasis=   792 RedAO= T EigKep=  3.47D-04  NBF=   792
 NBsUse=   792 1.00D-06 EigRej= -1.00D+00 NBFU=   792
 ExpMin= 1.22D-01 ExpMax= 2.27D+03 ExpMxC= 3.41D+02 IAcc=3 IRadAn=         5 AccDes= 0.00D+00
 Harris functional with IExCor=  402 and IRadAn=       5 diagonalized for initial guess.
 HarFok:  IExCor=  402 AccDes= 0.00D+00 IRadAn=         5 IDoV= 1 UseB2=F ITyADJ=14
 ICtDFT=  3500011 ScaDFX=  1.000000  1.000000  1.000000  1.000000
 FoFCou: FMM=F IPFlag=           0 FMFlag=      100000 FMFlg1=        2001
         NFxFlg=           0 DoJE=T BraDBF=F KetDBF=T FulRan=T
         wScrn=  0.000000 ICntrl=       500 IOpCl=  0 I1Cent=   200000004 NGrid=           0
         NMat0=    1 NMatS0=      1 NMatT0=    0 NMatD0=    1 NMtDS0=    0 NMtDT0=    0
 Petite list used in FoFCou.
 Requested convergence on RMS density matrix=1.00D-08 within 128 cycles.
 Requested convergence on MAX density matrix=1.00D-06.
 Requested convergence on             energy=1.00D-06.
 No special actions if energy rises.
 Integral accuracy reduced to 1.0D-05 until final iterations.
 EnCoef did     2 forward-backward iterations
 Initial convergence to 1.0D-05 achieved.  Increase integral accuracy.
 SCF Done:  E(RB3LYP) =  -1948.99530771     A.U. after   20 cycles
            NFock= 20  Conv=0.56D-08     -V/T= 2.0098
 DoSCS=F DFT=T ScalE2(SS,OS)=  1.000000  1.000000
 ExpMin= 1.22D-01 ExpMax= 2.27D+03 ExpMxC= 3.41D+02 IAcc=3 IRadAn=         5 AccDes= 0.00D+00
 HarFok:  IExCor=  205 AccDes= 0.00D+00 IRadAn=         5 IDoV=-2 UseB2=F ITyADJ=14
 ICtDFT= 12500011 ScaDFX=  1.000000  1.000000  1.000000  1.000000
 GSVD:  LWork=       -2193 too small for GESVD, short by        9890 words or        9890 for optimal perf.
 Range of M.O.s used for correlation:    44   792
 NBasis=   792 NAE=   156 NBE=   156 NFC=    43 NFV=     0
 NROrb=    749 NOA=   113 NOB=   113 NVA=   636 NVB=   636

 **** Warning!!: The largest alpha MO coefficient is  0.10268151D+02


 **** Warning!!: The smallest alpha delta epsilon is  0.62993982D-01

 Orbital symmetries:
       Occupied  (A) (A) (A) (A) (A) (A) (A) (A) (A) (A) (A) (A)
                 (A) (A) (A) (A) (A) (A) (A) (A) (A) (A) (A) (A)
                 (A) (A) (A) (A) (A) (A) (A) (A) (A) (A) (A) (A)
                 (A) (A) (A) (A) (A) (A) (A) (A) (A) (A) (A) (A)
                 (A) (A) (A) (A) (A) (A) (A) (A) (A) (A) (A) (A)
                 (A) (A) (A) (A) (A) (A) (A) (A) (A) (A) (A) (A)
                 (A) (A) (A) (A) (A) (A) (A) (A) (A) (A) (A) (A)
                 (A) (A) (A) (A) (A) (A) (A) (A) (A) (A) (A) (A)
                 (A) (A) (A) (A) (A) (A) (A) (A) (A) (A) (A) (A)
                 (A) (A) (A) (A) (A) (A) (A) (A) (A) (A) (A) (A)
                 (A) (A) (A) (A) (A) (A) (A) (A) (A) (A) (A) (A)
                 (A) (A) (A) (A) (A) (A) (A) (A) (A) (A) (A) (A)
                 (A) (A) (A) (A) (A) (A) (A) (A) (A) (A) (A) (A)
       Virtual   (A) (A) (A) (A) (A) (A) (A) (A) (A) (A) (A) (A)
                 (A) (A) (A) (A) (A) (A) (A) (A) (A) (A) (A) (A)
                 (A) (A) (A) (A) (A) (A) (A) (A) (A) (A) (A) (A)
                 (A) (A) (A) (A) (A) (A) (A) (A) (A) (A) (A) (A)
                 (A) (A) (A) (A) (A) (A) (A) (A) (A) (A) (A) (A)
                 (A) (A) (A) (A) (A) (A) (A) (A) (A) (A) (A) (A)
                 (A) (A) (A) (A) (A) (A) (A) (A) (A) (A) (A) (A)
                 (A) (A) (A) (A) (A) (A) (A) (A) (A) (A) (A) (A)
                 (A) (A) (A) (A) (A) (A) (A) (A) (A) (A) (A) (A)
                 (A) (A) (A) (A) (A) (A) (A) (A) (A) (A) (A) (A)
                 (A) (A) (A) (A) (A) (A) (A) (A) (A) (A) (A) (A)
                 (A) (A) (A) (A) (A) (A) (A) (A) (A) (A) (A) (A)
                 (A) (A) (A) (A) (A) (A) (A) (A) (A) (A) (A) (A)
                 (A) (A) (A) (A) (A) (A) (A) (A) (A) (A) (A) (A)
                 (A) (A) (A) (A) (A) (A) (A) (A) (A) (A) (A) (A)
                 (A) (A) (A) (A) (A) (A) (A) (A) (A) (A) (A) (A)
                 (A) (A) (A) (A) (A) (A) (A) (A) (A) (A) (A) (A)
                 (A) (A) (A) (A) (A) (A) (A) (A) (A) (A) (A) (A)
                 (A) (A) (A) (A) (A) (A) (A) (A) (A) (A) (A) (A)
                 (A) (A) (A) (A) (A) (A) (A) (A) (A) (A) (A) (A)
                 (A) (A) (A) (A) (A) (A) (A) (A) (A) (A) (A) (A)
                 (A) (A) (A) (A) (A) (A) (A) (A) (A) (A) (A) (A)
                 (A) (A) (A) (A) (A) (A) (A) (A) (A) (A) (A) (A)
                 (A) (A) (A) (A) (A) (A) (A) (A) (A) (A) (A) (A)
                 (A) (A) (A) (A) (A) (A) (A) (A) (A) (A) (A) (A)
                 (A) (A) (A) (A) (A) (A) (A) (A) (A) (A) (A) (A)
                 (A) (A) (A) (A) (A) (A) (A) (A) (A) (A) (A) (A)
                 (A) (A) (A) (A) (A) (A) (A) (A) (A) (A) (A) (A)
                 (A) (A) (A) (A) (A) (A) (A) (A) (A) (A) (A) (A)
                 (A) (A) (A) (A) (A) (A) (A) (A) (A) (A) (A) (A)
                 (A) (A) (A) (A) (A) (A) (A) (A) (A) (A) (A) (A)
                 (A) (A) (A) (A) (A) (A) (A) (A) (A) (A) (A) (A)
                 (A) (A) (A) (A) (A) (A) (A) (A) (A) (A) (A) (A)
                 (A) (A) (A) (A) (A) (A) (A) (A) (A) (A) (A) (A)
                 (A) (A) (A) (A) (A) (A) (A) (A) (A) (A) (A) (A)
                 (A) (A) (A) (A) (A) (A) (A) (A) (A) (A) (A) (A)
                 (A) (A) (A) (A) (A) (A) (A) (A) (A) (A) (A) (A)
                 (A) (A) (A) (A) (A) (A) (A) (A) (A) (A) (A) (A)
                 (A) (A) (A) (A) (A) (A) (A) (A) (A) (A) (A) (A)
                 (A) (A) (A) (A) (A) (A) (A) (A) (A) (A) (A) (A)
                 (A) (A) (A) (A) (A) (A) (A) (A) (A) (A) (A) (A)
                 (A) (A) (A) (A) (A) (A) (A) (A) (A) (A) (A) (A)
                 (A) (A) (A) (A) (A) (A) (A) (A) (A) (A) (A) (A)
                 (A) (A) (A) (A) (A) (A) (A) (A) (A) (A) (A) (A)
                 (A) (A) (A) (A) (A) (A) (A) (A) (A) (A) (A) (A)
                 (A) (A) (A) (A) (A) (A) (A) (A) (A) (A) (A) (A)
                 (A) (A) (A) (A) (A) (A) (A) (A) (A) (A) (A) (A)
                 (A) (A) (A) (A) (A) (A) (A) (A) (A) (A) (A) (A)
                 (A) (A) (A) (A) (A) (A) (A) (A) (A) (A) (A) (A)
                 (A) (A) (A) (A) (A) (A) (A) (A) (A) (A) (A) (A)
                 (A) (A) (A) (A) (A) (A) (A) (A) (A) (A) (A) (A)
                 (A) (A) (A) (A) (A) (A) (A) (A) (A) (A) (A) (A)
                 (A) (A) (A) (A) (A) (A) (A) (A) (A) (A) (A) (A)
     4 initial guesses have been made.
 Convergence on wavefunction:    0.001000000000000
 Iteration     1 Dimension     4 NMult     0 NNew      4
 CISAX will form     4 AO SS matrices at one time.
 Iteration     2 Dimension     6 NMult     4 NNew      2
 Iteration     3 Dimension     8 NMult     6 NNew      2
 Iteration     4 Dimension    10 NMult     8 NNew      2
 Iteration     5 Dimension    12 NMult    10 NNew      2
 Iteration     6 Dimension    14 NMult    12 NNew      2
 ***********************************************************************
 Excited states from <AA,BB:AA,BB> singles matrix:
 ***********************************************************************
 
 Ground to excited state transition densities written to RWF  633
 Ground to excited state transition electric dipole moments (Au):
       state          X           Y           Z        Dip. S.      Osc.
         1         0.8516      2.8997      0.2249      9.1838      0.3828
 Ground to excited state transition velocity dipole moments (Au):
       state          X           Y           Z        Dip. S.      Osc.
         1        -0.0527     -0.1759     -0.0129      0.0339      0.3615
 Ground to excited state transition magnetic dipole moments (Au):
       state          X           Y           Z
         1        -0.3575      0.5832     -2.3059
 Ground to excited state transition velocity quadrupole moments (Au):
       state          XX          YY          ZZ          XY          XZ          YZ
         1         0.4190     -0.6438      0.0672      0.5539     -0.0134     -0.0391
 <0|del|b> * <b|rxdel|0> + <0|del|b> * <b|delr+rdel|0>
 Rotatory Strengths (R) in cgs (10**-40 erg-esu-cm/Gauss)
       state          XX          YY          ZZ    R(velocity)    E-M Angle
         1      -465.8156    326.9214   -472.0068   -203.6337       97.00
 1/2[<0|r|b>*<b|rxdel|0> + (<0|rxdel|b>*<b|r|0>)*]
 Rotatory Strengths (R) in cgs (10**-40 erg-esu-cm/Gauss)
       state          XX          YY          ZZ     R(length)
         1       215.3022  -1195.8631    366.8001   -204.5869
  1/2[<0|del|b>*<b|r|0> + (<0|r|b>*<b|del|0>)*] (Au)
       state          X           Y           Z        Dip. S.   Osc.(frdel)
         1        -0.0449     -0.5102     -0.0029      0.5580      0.3720

 Excitation energies and oscillator strengths:
 
 Excited State   1:      Singlet-A      1.7012 eV  728.79 nm  f=0.3828  <S**2>=0.000
     156 ->157         0.71606
     156 <-157        -0.16105
 This state for optimization and/or second-order correction.
 Total Energy, E(TD-HF/TD-DFT) =  -1948.93278822    
 Copying the excited state density for this state as the 1-particle RhoCI density.
 SavETr:  write IOETrn=   770 NScale= 10 NData=  16 NLR=1 NState=    1 LETran=      28.

 **********************************************************************

            Population analysis using the SCF density.

 **********************************************************************

 Orbital symmetries:
       Occupied  (A) (A) (A) (A) (A) (A) (A) (A) (A) (A) (A) (A)
                 (A) (A) (A) (A) (A) (A) (A) (A) (A) (A) (A) (A)
                 (A) (A) (A) (A) (A) (A) (A) (A) (A) (A) (A) (A)
                 (A) (A) (A) (A) (A) (A) (A) (A) (A) (A) (A) (A)
                 (A) (A) (A) (A) (A) (A) (A) (A) (A) (A) (A) (A)
                 (A) (A) (A) (A) (A) (A) (A) (A) (A) (A) (A) (A)
                 (A) (A) (A) (A) (A) (A) (A) (A) (A) (A) (A) (A)
                 (A) (A) (A) (A) (A) (A) (A) (A) (A) (A) (A) (A)
                 (A) (A) (A) (A) (A) (A) (A) (A) (A) (A) (A) (A)
                 (A) (A) (A) (A) (A) (A) (A) (A) (A) (A) (A) (A)
                 (A) (A) (A) (A) (A) (A) (A) (A) (A) (A) (A) (A)
                 (A) (A) (A) (A) (A) (A) (A) (A) (A) (A) (A) (A)
                 (A) (A) (A) (A) (A) (A) (A) (A) (A) (A) (A) (A)
       Virtual   (A) (A) (A) (A) (A) (A) (A) (A) (A) (A) (A) (A)
                 (A) (A) (A) (A) (A) (A) (A) (A) (A) (A) (A) (A)
                 (A) (A) (A) (A) (A) (A) (A) (A) (A) (A) (A) (A)
                 (A) (A) (A) (A) (A) (A) (A) (A) (A) (A) (A) (A)
                 (A) (A) (A) (A) (A) (A) (A) (A) (A) (A) (A) (A)
                 (A) (A) (A) (A) (A) (A) (A) (A) (A) (A) (A) (A)
                 (A) (A) (A) (A) (A) (A) (A) (A) (A) (A) (A) (A)
                 (A) (A) (A) (A) (A) (A) (A) (A) (A) (A) (A) (A)
                 (A) (A) (A) (A) (A) (A) (A) (A) (A) (A) (A) (A)
                 (A) (A) (A) (A) (A) (A) (A) (A) (A) (A) (A) (A)
                 (A) (A) (A) (A) (A) (A) (A) (A) (A) (A) (A) (A)
                 (A) (A) (A) (A) (A) (A) (A) (A) (A) (A) (A) (A)
                 (A) (A) (A) (A) (A) (A) (A) (A) (A) (A) (A) (A)
                 (A) (A) (A) (A) (A) (A) (A) (A) (A) (A) (A) (A)
                 (A) (A) (A) (A) (A) (A) (A) (A) (A) (A) (A) (A)
                 (A) (A) (A) (A) (A) (A) (A) (A) (A) (A) (A) (A)
                 (A) (A) (A) (A) (A) (A) (A) (A) (A) (A) (A) (A)
                 (A) (A) (A) (A) (A) (A) (A) (A) (A) (A) (A) (A)
                 (A) (A) (A) (A) (A) (A) (A) (A) (A) (A) (A) (A)
                 (A) (A) (A) (A) (A) (A) (A) (A) (A) (A) (A) (A)
                 (A) (A) (A) (A) (A) (A) (A) (A) (A) (A) (A) (A)
                 (A) (A) (A) (A) (A) (A) (A) (A) (A) (A) (A) (A)
                 (A) (A) (A) (A) (A) (A) (A) (A) (A) (A) (A) (A)
                 (A) (A) (A) (A) (A) (A) (A) (A) (A) (A) (A) (A)
                 (A) (A) (A) (A) (A) (A) (A) (A) (A) (A) (A) (A)
                 (A) (A) (A) (A) (A) (A) (A) (A) (A) (A) (A) (A)
                 (A) (A) (A) (A) (A) (A) (A) (A) (A) (A) (A) (A)
                 (A) (A) (A) (A) (A) (A) (A) (A) (A) (A) (A) (A)
                 (A) (A) (A) (A) (A) (A) (A) (A) (A) (A) (A) (A)
                 (A) (A) (A) (A) (A) (A) (A) (A) (A) (A) (A) (A)
                 (A) (A) (A) (A) (A) (A) (A) (A) (A) (A) (A) (A)
                 (A) (A) (A) (A) (A) (A) (A) (A) (A) (A) (A) (A)
                 (A) (A) (A) (A) (A) (A) (A) (A) (A) (A) (A) (A)
                 (A) (A) (A) (A) (A) (A) (A) (A) (A) (A) (A) (A)
                 (A) (A) (A) (A) (A) (A) (A) (A) (A) (A) (A) (A)
                 (A) (A) (A) (A) (A) (A) (A) (A) (A) (A) (A) (A)
                 (A) (A) (A) (A) (A) (A) (A) (A) (A) (A) (A) (A)
                 (A) (A) (A) (A) (A) (A) (A) (A) (A) (A) (A) (A)
                 (A) (A) (A) (A) (A) (A) (A) (A) (A) (A) (A) (A)
                 (A) (A) (A) (A) (A) (A) (A) (A) (A) (A) (A) (A)
                 (A) (A) (A) (A) (A) (A) (A) (A) (A) (A) (A) (A)
                 (A) (A) (A) (A) (A) (A) (A) (A) (A) (A) (A) (A)
                 (A) (A) (A) (A) (A) (A) (A) (A) (A) (A) (A) (A)
                 (A) (A) (A) (A) (A) (A) (A) (A) (A) (A) (A) (A)
                 (A) (A) (A) (A) (A) (A) (A) (A) (A) (A) (A) (A)
                 (A) (A) (A) (A) (A) (A) (A) (A) (A) (A) (A) (A)
                 (A) (A) (A) (A) (A) (A) (A) (A) (A) (A) (A) (A)
                 (A) (A) (A) (A) (A) (A) (A) (A) (A) (A) (A) (A)
                 (A) (A) (A) (A) (A) (A) (A) (A) (A) (A) (A) (A)
                 (A) (A) (A) (A) (A) (A) (A) (A) (A) (A) (A) (A)
                 (A) (A) (A) (A) (A) (A) (A) (A) (A) (A) (A) (A)
                 (A) (A) (A) (A) (A) (A) (A) (A) (A) (A) (A) (A)
                 (A) (A) (A) (A) (A) (A) (A) (A) (A) (A) (A) (A)
 The electronic state is 1-A.
 Alpha  occ. eigenvalues --  -19.20484 -19.18375 -19.14520 -19.13595 -19.11622
 Alpha  occ. eigenvalues --  -19.08366 -14.37923 -14.36924 -14.36156 -14.28449
 Alpha  occ. eigenvalues --  -10.33861 -10.31877 -10.30459 -10.24706 -10.24628
 Alpha  occ. eigenvalues --  -10.24441 -10.24333 -10.23131 -10.23056 -10.22315
 Alpha  occ. eigenvalues --  -10.22142 -10.21432 -10.21022 -10.20959 -10.20525
 Alpha  occ. eigenvalues --  -10.20403 -10.20188 -10.20134 -10.19994 -10.19812
 Alpha  occ. eigenvalues --  -10.19753 -10.19731 -10.19710 -10.19668 -10.19604
 Alpha  occ. eigenvalues --  -10.19185 -10.18830 -10.18341 -10.17996 -10.17956
 Alpha  occ. eigenvalues --  -10.17913 -10.17393 -10.15811  -1.13284  -1.09767
 Alpha  occ. eigenvalues --   -1.05990  -1.00862  -1.00067  -0.97509  -0.97186
 Alpha  occ. eigenvalues --   -0.96874  -0.96627  -0.90348  -0.82546  -0.82492
 Alpha  occ. eigenvalues --   -0.81991  -0.81277  -0.80592  -0.79196  -0.77616
 Alpha  occ. eigenvalues --   -0.77539  -0.77117  -0.75889  -0.74407  -0.72892
 Alpha  occ. eigenvalues --   -0.72384  -0.70718  -0.69513  -0.69049  -0.68494
 Alpha  occ. eigenvalues --   -0.67254  -0.66449  -0.64802  -0.63937  -0.61863
 Alpha  occ. eigenvalues --   -0.60706  -0.60234  -0.58593  -0.58181  -0.57270
 Alpha  occ. eigenvalues --   -0.56626  -0.55156  -0.54029  -0.53464  -0.52916
 Alpha  occ. eigenvalues --   -0.52645  -0.52082  -0.51927  -0.51422  -0.49997
 Alpha  occ. eigenvalues --   -0.49780  -0.49230  -0.49118  -0.48882  -0.48432
 Alpha  occ. eigenvalues --   -0.47619  -0.47292  -0.46484  -0.46061  -0.45781
 Alpha  occ. eigenvalues --   -0.45689  -0.45396  -0.44941  -0.44689  -0.44047
 Alpha  occ. eigenvalues --   -0.43813  -0.43546  -0.43311  -0.42738  -0.42616
 Alpha  occ. eigenvalues --   -0.42463  -0.41683  -0.41416  -0.41142  -0.40864
 Alpha  occ. eigenvalues --   -0.40528  -0.40358  -0.40179  -0.39883  -0.39358
 Alpha  occ. eigenvalues --   -0.39148  -0.39073  -0.38947  -0.38803  -0.38472
 Alpha  occ. eigenvalues --   -0.37967  -0.37638  -0.37437  -0.37384  -0.37277
 Alpha  occ. eigenvalues --   -0.37161  -0.36497  -0.36121  -0.35008  -0.34855
 Alpha  occ. eigenvalues --   -0.34392  -0.33718  -0.33436  -0.33392  -0.32938
 Alpha  occ. eigenvalues --   -0.32140  -0.30749  -0.30555  -0.29854  -0.29692
 Alpha  occ. eigenvalues --   -0.27461  -0.27446  -0.26891  -0.26325  -0.25672
 Alpha  occ. eigenvalues --   -0.25561  -0.24165  -0.23272  -0.21962  -0.21338
 Alpha  occ. eigenvalues --   -0.17120
 Alpha virt. eigenvalues --   -0.10821  -0.06132  -0.03665  -0.01844  -0.00716
 Alpha virt. eigenvalues --   -0.00250   0.02733   0.03153   0.03593   0.03846
 Alpha virt. eigenvalues --    0.04339   0.04570   0.04745   0.04956   0.05511
 Alpha virt. eigenvalues --    0.06355   0.06871   0.07194   0.07874   0.08140
 Alpha virt. eigenvalues --    0.08574   0.09127   0.09260   0.09517   0.10091
 Alpha virt. eigenvalues --    0.10188   0.10603   0.10766   0.10916   0.11028
 Alpha virt. eigenvalues --    0.11246   0.11897   0.12344   0.12986   0.13178
 Alpha virt. eigenvalues --    0.13941   0.14040   0.14491   0.14552   0.14817
 Alpha virt. eigenvalues --    0.15178   0.15347   0.15472   0.15789   0.16220
 Alpha virt. eigenvalues --    0.16662   0.16823   0.17479   0.17672   0.18137
 Alpha virt. eigenvalues --    0.18520   0.19182   0.19398   0.19463   0.19788
 Alpha virt. eigenvalues --    0.20497   0.20737   0.21394   0.21673   0.22305
 Alpha virt. eigenvalues --    0.22489   0.23264   0.23394   0.23966   0.24277
 Alpha virt. eigenvalues --    0.24298   0.24736   0.24954   0.25520   0.26470
 Alpha virt. eigenvalues --    0.26787   0.27402   0.27728   0.28072   0.29036
 Alpha virt. eigenvalues --    0.29126   0.29751   0.30034   0.30716   0.31259
 Alpha virt. eigenvalues --    0.31511   0.32192   0.32902   0.33073   0.34083
 Alpha virt. eigenvalues --    0.34640   0.34782   0.35245   0.35755   0.36534
 Alpha virt. eigenvalues --    0.37245   0.37683   0.37896   0.38227   0.39133
 Alpha virt. eigenvalues --    0.39935   0.40040   0.40509   0.40831   0.40875
 Alpha virt. eigenvalues --    0.41477   0.41818   0.41861   0.42664   0.42871
 Alpha virt. eigenvalues --    0.43156   0.44249   0.44378   0.44602   0.44797
 Alpha virt. eigenvalues --    0.45459   0.45555   0.46060   0.46110   0.46580
 Alpha virt. eigenvalues --    0.46735   0.47123   0.47481   0.47653   0.48017
 Alpha virt. eigenvalues --    0.48371   0.48859   0.49027   0.49352   0.49793
 Alpha virt. eigenvalues --    0.49905   0.50098   0.50481   0.50792   0.51675
 Alpha virt. eigenvalues --    0.52185   0.52475   0.53122   0.53417   0.53566
 Alpha virt. eigenvalues --    0.53932   0.54411   0.54905   0.55532   0.56435
 Alpha virt. eigenvalues --    0.56585   0.57120   0.57133   0.57295   0.57810
 Alpha virt. eigenvalues --    0.58391   0.58626   0.59131   0.59340   0.59711
 Alpha virt. eigenvalues --    0.59986   0.60094   0.60511   0.60622   0.60972
 Alpha virt. eigenvalues --    0.61302   0.61584   0.61841   0.62085   0.62434
 Alpha virt. eigenvalues --    0.62744   0.63016   0.63584   0.63728   0.64011
 Alpha virt. eigenvalues --    0.64400   0.64576   0.64800   0.64841   0.65391
 Alpha virt. eigenvalues --    0.65510   0.66077   0.66252   0.66285   0.66546
 Alpha virt. eigenvalues --    0.66789   0.66869   0.67056   0.67164   0.67594
 Alpha virt. eigenvalues --    0.67790   0.67903   0.68403   0.68529   0.68622
 Alpha virt. eigenvalues --    0.69063   0.69174   0.69460   0.69772   0.69816
 Alpha virt. eigenvalues --    0.70123   0.70459   0.70739   0.70948   0.71200
 Alpha virt. eigenvalues --    0.71470   0.71686   0.72179   0.72342   0.72498
 Alpha virt. eigenvalues --    0.72757   0.73260   0.73748   0.74382   0.74718
 Alpha virt. eigenvalues --    0.74763   0.75067   0.75526   0.76183   0.76436
 Alpha virt. eigenvalues --    0.76894   0.77367   0.78119   0.78810   0.79234
 Alpha virt. eigenvalues --    0.79404   0.79740   0.80209   0.80604   0.80764
 Alpha virt. eigenvalues --    0.81143   0.81699   0.81974   0.82949   0.83559
 Alpha virt. eigenvalues --    0.84462   0.84955   0.85633   0.86450   0.86918
 Alpha virt. eigenvalues --    0.87487   0.87528   0.88624   0.88999   0.90180
 Alpha virt. eigenvalues --    0.90319   0.90569   0.91355   0.92436   0.92663
 Alpha virt. eigenvalues --    0.93043   0.93625   0.94357   0.94425   0.94960
 Alpha virt. eigenvalues --    0.95105   0.96297   0.96574   0.96952   0.97229
 Alpha virt. eigenvalues --    0.97613   0.98167   0.98756   0.99656   1.00483
 Alpha virt. eigenvalues --    1.00756   1.01195   1.02024   1.02807   1.03938
 Alpha virt. eigenvalues --    1.04593   1.05118   1.06465   1.06687   1.07522
 Alpha virt. eigenvalues --    1.07893   1.09060   1.09501   1.09843   1.10209
 Alpha virt. eigenvalues --    1.10666   1.11008   1.11741   1.13183   1.13872
 Alpha virt. eigenvalues --    1.14233   1.14784   1.15455   1.16495   1.17860
 Alpha virt. eigenvalues --    1.18099   1.18278   1.19555   1.19696   1.20251
 Alpha virt. eigenvalues --    1.20384   1.21057   1.21364   1.22049   1.22893
 Alpha virt. eigenvalues --    1.23463   1.24336   1.25056   1.25334   1.26392
 Alpha virt. eigenvalues --    1.26671   1.26957   1.27916   1.29027   1.29430
 Alpha virt. eigenvalues --    1.30691   1.30971   1.31910   1.32661   1.33017
 Alpha virt. eigenvalues --    1.33367   1.34569   1.35110   1.36142   1.36412
 Alpha virt. eigenvalues --    1.36622   1.36959   1.37215   1.38062   1.38592
 Alpha virt. eigenvalues --    1.38994   1.39406   1.40646   1.42105   1.42372
 Alpha virt. eigenvalues --    1.42883   1.43405   1.43894   1.44738   1.45978
 Alpha virt. eigenvalues --    1.46498   1.47194   1.47829   1.48997   1.49765
 Alpha virt. eigenvalues --    1.50078   1.50906   1.51288   1.51755   1.52166
 Alpha virt. eigenvalues --    1.52560   1.52847   1.54045   1.54197   1.54329
 Alpha virt. eigenvalues --    1.55117   1.55939   1.56579   1.56998   1.57253
 Alpha virt. eigenvalues --    1.57584   1.58018   1.58386   1.59233   1.60531
 Alpha virt. eigenvalues --    1.61203   1.61293   1.62299   1.62698   1.63083
 Alpha virt. eigenvalues --    1.63425   1.63782   1.64137   1.64613   1.65366
 Alpha virt. eigenvalues --    1.65451   1.66056   1.66440   1.67071   1.67453
 Alpha virt. eigenvalues --    1.68251   1.68614   1.69151   1.69279   1.69829
 Alpha virt. eigenvalues --    1.70106   1.71032   1.71583   1.71911   1.72178
 Alpha virt. eigenvalues --    1.72731   1.73020   1.73378   1.73673   1.73858
 Alpha virt. eigenvalues --    1.74412   1.75433   1.76330   1.76370   1.77123
 Alpha virt. eigenvalues --    1.77565   1.78114   1.78662   1.79065   1.79621
 Alpha virt. eigenvalues --    1.80033   1.80120   1.80564   1.81289   1.81913
 Alpha virt. eigenvalues --    1.82550   1.82697   1.83215   1.83525   1.83895
 Alpha virt. eigenvalues --    1.84203   1.84265   1.84406   1.84852   1.85061
 Alpha virt. eigenvalues --    1.85334   1.85729   1.85914   1.86571   1.87059
 Alpha virt. eigenvalues --    1.87376   1.87771   1.88089   1.88595   1.89126
 Alpha virt. eigenvalues --    1.89346   1.89455   1.90192   1.90379   1.90608
 Alpha virt. eigenvalues --    1.90940   1.91884   1.92730   1.93030   1.93206
 Alpha virt. eigenvalues --    1.93267   1.93551   1.94092   1.94805   1.95227
 Alpha virt. eigenvalues --    1.95999   1.96311   1.96804   1.97007   1.97437
 Alpha virt. eigenvalues --    1.97846   1.98352   1.98607   1.98958   1.99700
 Alpha virt. eigenvalues --    2.00740   2.01100   2.01436   2.01818   2.01915
 Alpha virt. eigenvalues --    2.02743   2.03212   2.03476   2.03753   2.04588
 Alpha virt. eigenvalues --    2.04945   2.06688   2.06934   2.07178   2.08076
 Alpha virt. eigenvalues --    2.08707   2.08794   2.09661   2.10002   2.10362
 Alpha virt. eigenvalues --    2.11295   2.11726   2.12333   2.12671   2.13247
 Alpha virt. eigenvalues --    2.14139   2.14396   2.14942   2.15985   2.16263
 Alpha virt. eigenvalues --    2.17087   2.17655   2.17927   2.18323   2.18939
 Alpha virt. eigenvalues --    2.19225   2.20181   2.20435   2.20995   2.23223
 Alpha virt. eigenvalues --    2.23725   2.24542   2.25154   2.25166   2.26735
 Alpha virt. eigenvalues --    2.27662   2.28245   2.29126   2.29540   2.30473
 Alpha virt. eigenvalues --    2.30802   2.31550   2.32260   2.32472   2.33873
 Alpha virt. eigenvalues --    2.34535   2.35064   2.36444   2.37066   2.37420
 Alpha virt. eigenvalues --    2.38441   2.38801   2.40063   2.40611   2.41444
 Alpha virt. eigenvalues --    2.42038   2.42234   2.42792   2.43196   2.43750
 Alpha virt. eigenvalues --    2.44671   2.45859   2.46163   2.47053   2.47407
 Alpha virt. eigenvalues --    2.48208   2.49344   2.49471   2.49780   2.50375
 Alpha virt. eigenvalues --    2.51114   2.51865   2.52306   2.52708   2.53895
 Alpha virt. eigenvalues --    2.55605   2.56427   2.57464   2.58278   2.58379
 Alpha virt. eigenvalues --    2.58540   2.59018   2.60322   2.61487   2.61976
 Alpha virt. eigenvalues --    2.62155   2.62605   2.62929   2.63418   2.64824
 Alpha virt. eigenvalues --    2.65328   2.65503   2.65910   2.66929   2.67536
 Alpha virt. eigenvalues --    2.68403   2.68469   2.69560   2.69609   2.70374
 Alpha virt. eigenvalues --    2.71289   2.71481   2.71788   2.72628   2.73468
 Alpha virt. eigenvalues --    2.74220   2.74495   2.75187   2.75656   2.75897
 Alpha virt. eigenvalues --    2.76379   2.77141   2.77358   2.78202   2.78634
 Alpha virt. eigenvalues --    2.79678   2.80410   2.80851   2.83100   2.83397
 Alpha virt. eigenvalues --    2.84860   2.85240   2.86747   2.87418   2.88473
 Alpha virt. eigenvalues --    2.88848   2.89082   2.89421   2.90755   2.91043
 Alpha virt. eigenvalues --    2.91302   2.92818   2.93202   2.93634   2.94847
 Alpha virt. eigenvalues --    2.95581   2.95801   2.98393   2.98484   2.99637
 Alpha virt. eigenvalues --    2.99986   3.00755   3.02095   3.03899   3.05454
 Alpha virt. eigenvalues --    3.05499   3.06425   3.07026   3.08542   3.08924
 Alpha virt. eigenvalues --    3.09905   3.11465   3.11789   3.12099   3.14003
 Alpha virt. eigenvalues --    3.14934   3.15801   3.15996   3.16360   3.18064
 Alpha virt. eigenvalues --    3.18952   3.19671   3.19948   3.22032   3.22107
 Alpha virt. eigenvalues --    3.26473   3.29286   3.31697   3.32669   3.36152
 Alpha virt. eigenvalues --    3.36733   3.44109   3.46305   3.46448   3.52831
 Alpha virt. eigenvalues --    3.54293   3.55801   3.57484   3.57837   3.60865
 Alpha virt. eigenvalues --    3.61790   3.63650   3.65632   3.68214   3.69576
 Alpha virt. eigenvalues --    3.72157
          Condensed to atoms (all electrons):
 Mulliken charges:
               1
     1  O   -0.158652
     2  O   -0.250086
     3  O   -0.142157
     4  O   -0.195156
     5  O   -0.350730
     6  O   -0.307619
     7  N   -0.058037
     8  N   -0.143589
     9  N   -0.110604
    10  N   -0.294450
    11  C   -0.170179
    12  C    0.124465
    13  C   -0.148896
    14  C    0.062282
    15  C   -0.105368
    16  C    0.039903
    17  C   -0.050719
    18  C   -0.101831
    19  C    0.240645
    20  C   -0.036839
    21  C    0.091881
    22  C    0.073089
    23  C   -0.012958
    24  C    0.098971
    25  C   -0.090357
    26  C    0.181255
    27  C    0.103265
    28  C   -0.010040
    29  C   -0.033514
    30  C    0.071450
    31  C   -0.073744
    32  C    0.153311
    33  C   -0.221794
    34  C    0.091952
    35  C   -0.106869
    36  C   -0.142073
    37  C    0.160820
    38  C    0.014552
    39  C    0.157846
    40  C    0.068655
    41  C    0.142268
    42  C    0.126966
    43  C    0.115035
    44  H    0.182779
    45  H   -0.043508
    46  H   -0.115015
    47  H    0.011864
    48  H    0.007658
    49  H    0.063243
    50  H   -0.018491
    51  H   -0.019480
    52  H    0.188535
    53  H    0.001604
    54  H    0.016373
    55  H   -0.009714
    56  H    0.110098
    57  H    0.050837
    58  H    0.049560
    59  H    0.074398
    60  H    0.044301
    61  H    0.019315
    62  H    0.031314
    63  H    0.021583
    64  H   -0.028463
    65  H   -0.003089
    66  H    0.016595
    67  H    0.032197
    68  H    0.051644
    69  H    0.068647
    70  H    0.005519
    71  H    0.035012
    72  H    0.008080
    73  H   -0.003192
    74  H    0.004725
    75  H    0.038855
    76  H   -0.027986
    77  H   -0.018406
    78  H   -0.002700
    79  H   -0.058623
    80  H    0.213007
    81  H    0.198578
 Sum of Mulliken charges =  -0.00000
 Mulliken charges with hydrogens summed into heavy atoms:
               1
     1  O   -0.158652
     2  O   -0.037080
     3  O    0.056420
     4  O   -0.195156
     5  O   -0.350730
     6  O   -0.307619
     7  N    0.124741
     8  N    0.044945
     9  N   -0.000506
    10  N   -0.294450
    11  C   -0.170179
    12  C    0.124465
    13  C   -0.148896
    14  C    0.062282
    15  C   -0.105368
    16  C    0.039903
    17  C   -0.094227
    18  C   -0.101831
    19  C    0.137494
    20  C   -0.029181
    21  C    0.091881
    22  C    0.073089
    23  C   -0.012958
    24  C    0.143723
    25  C   -0.109837
    26  C    0.189518
    27  C    0.103265
    28  C    0.090357
    29  C    0.085184
    30  C    0.143662
    31  C   -0.102207
    32  C    0.199014
    33  C   -0.170150
    34  C    0.091952
    35  C   -0.106869
    36  C   -0.142073
    37  C    0.160820
    38  C    0.123730
    39  C    0.157846
    40  C    0.073543
    41  C    0.142268
    42  C    0.142560
    43  C    0.035306
 Electronic spatial extent (au):  <R**2>=          30351.4484
 Charge=             -0.0000 electrons
 Dipole moment (field-independent basis, Debye):
    X=              1.5938    Y=             -0.9083    Z=              1.3089  Tot=              2.2536
 Quadrupole moment (field-independent basis, Debye-Ang):
   XX=           -255.2014   YY=           -234.3143   ZZ=           -253.2758
   XY=             -5.3014   XZ=             14.6667   YZ=             10.9268
 Traceless Quadrupole moment (field-independent basis, Debye-Ang):
   XX=             -7.6043   YY=             13.2829   ZZ=             -5.6786
   XY=             -5.3014   XZ=             14.6667   YZ=             10.9268
 Octapole moment (field-independent basis, Debye-Ang**2):
  XXX=            -96.2611  YYY=             68.9939  ZZZ=             27.8919  XYY=            162.8573
  XXY=             19.8606  XXZ=            139.8585  XZZ=             38.2959  YZZ=            -40.9218
  YYZ=            -40.6278  XYZ=            -49.5891
 Hexadecapole moment (field-independent basis, Debye-Ang**3):
 XXXX=         -22568.1493 YYYY=         -15770.4900 ZZZZ=          -1572.3130 XXXY=           -304.7340
 XXXZ=            878.3507 YYYX=           -811.8971 YYYZ=            342.8087 ZZZX=             56.8901
 ZZZY=           -103.1822 XXYY=          -6417.2990 XXZZ=          -4016.9775 YYZZ=          -3026.3650
 XXYZ=            -47.0169 YYXZ=            257.1249 ZZXY=           -182.0341
 N-N= 5.055034572442D+03 E-N=-1.464236144334D+04  KE= 1.929992315458D+03
 1\1\GINC-RYZEN-SSD1\SP\RB3LYP TD-FC\SVP\C33H38N4O6\PADAWAN\27-Jun-2019
 \0\\# td=(NStates=1) B3LYP/SVP\\TD\\0,1\O,0,-4.5743375546,-4.734593540
 6,1.8032856922\O,0,2.8143720353,-4.7525498042,1.4762455564\O,0,7.07010
 73921,-1.3653740785,1.7854187624\O,0,3.6199237252,-3.0991990451,0.2204
 949079\O,0,7.5639251445,-0.75200658,-0.3408036497\O,0,-3.0495652853,2.
 4337807756,-0.2144763522\N,0,-0.2618705688,-0.5866480146,-0.6790665429
 \N,0,1.5892066034,1.7366060394,-0.4333249946\N,0,-3.429659909,-3.03486
 25331,0.6289013614\N,0,-0.8177431772,2.877128131,0.0669316693\C,0,0.64
 46757,-2.4355189902,-1.273949478\C,0,0.9555544892,-1.1096509162,-0.925
 4651018\C,0,-0.7232666518,-2.7540492943,-1.162586458\C,0,-1.2355056568
 ,-1.5096346054,-0.7088923551\C,0,3.8102789692,1.4566901543,-0.47224344
 07\C,0,2.4640370967,0.802791611,-0.6589474533\C,0,2.1527122755,-0.5196
 281086,-0.9894111861\C,0,3.5903528722,2.7619442026,0.0074699741\C,0,1.
 6523863911,-3.4255878246,-1.9041806191\C,0,-5.6517045057,-2.4835502646
 ,1.2927192119\C,0,-3.6549975627,-1.8688319452,0.0480585909\C,0,2.10408
 46687,2.9976661948,0.0509976228\C,0,-5.0327594722,-1.4845439576,0.3109
 497339\C,0,5.0941878969,0.7430739774,-0.5552485813\C,0,-2.6017611383,-
 1.1209888705,-0.4483452489\C,0,-1.3583437721,-4.0537398763,-1.63394663
 84\C,0,-4.542471714,-3.6286913748,1.3654056552\C,0,2.0508455606,-4.599
 5521749,-0.8390267585\C,0,5.5440042767,-0.1026863325,0.7406421703\C,0,
 4.5641221984,3.8078120125,0.3169438782\C,0,1.3542066621,4.1332677343,0
 .4223423537\C,0,-7.0003911697,-3.0664840282,0.896019068\C,0,-5.7659151
 94,-0.5692316531,-0.2868601604\C,0,-0.0899539844,4.0623709087,0.294378
 0634\C,0,-0.9399549572,5.1334144344,0.4296475934\C,0,-2.2476300892,4.7
 019463174,0.3825696599\C,0,2.9211649578,-4.0691635355,0.2716185609\C,0
 ,-5.2629809589,0.388624091,-1.3750285699\C,0,6.7933419004,-0.746932977
 4,0.712004323\C,0,-3.5033160909,5.2479710953,0.5889897141\C,0,-2.09472
 29086,3.2144136327,0.1940703318\C,0,-0.5194360811,6.5397678448,0.75124
 02138\C,0,-4.2021387508,5.6077791828,-0.6959603717\H,0,-0.2820357685,0
 .4217178774,-0.2225628096\H,0,2.9794219568,-1.1055325554,-1.04351386\H
 ,0,2.29999125,-2.8797826852,-2.1628187166\H,0,1.2242692062,-3.97806972
 46,-2.7896013266\H,0,-5.4931711233,-2.007619151,2.1874309036\H,0,4.995
 5598662,0.1210468212,-1.669300083\H,0,5.8511470803,1.4517794872,-0.515
 3628359\H,0,-2.8691250082,-0.1103965435,-0.5874616518\H,0,0.5043167634
 ,1.9328444674,-0.5741868908\H,0,-1.3164872399,-4.8731294171,-0.9848792
 936\H,0,-2.3753611658,-3.8563333353,-1.8212014403\H,0,-0.8178817393,-4
 .5221403884,-2.4325568587\H,0,-2.5883425921,-3.5109972481,0.7829255396
 \H,0,1.0056363703,-4.9715296355,-0.5250662241\H,0,2.5717163574,-5.3454
 372522,-1.4366281767\H,0,4.7618206031,-0.9554815993,0.7141820044\H,0,5
 .3318073803,0.3338078174,1.7690613768\H,0,4.3880463249,4.6440548729,-0
 .329912974\H,0,5.7098176046,3.7353862578,0.215688092\H,0,4.3198514025,
 4.0766931774,1.3376050644\H,0,1.8335491869,5.0747274023,0.6191016971\H
 ,0,-7.6232450961,-2.2181578103,0.9434190359\H,0,-7.3676524095,-3.63341
 1107,1.7578181497\H,0,-6.8820763916,-3.6211298765,-0.03249166\H,0,-6.8
 785551972,-0.1053708684,0.0961515431\H,0,-4.8610709489,1.2172159185,-0
 .8138652346\H,0,-6.310612891,0.8442720555,-1.8092075993\H,0,-4.5967981
 753,0.1813049767,-2.1888100937\H,0,-3.7247723565,6.0407267285,1.393487
 0527\H,0,-4.0572934068,4.3799371259,0.9191340512\H,0,0.4572802933,6.62
 34143013,1.324525185\H,0,-1.4058119645,7.2517418697,1.1833775942\H,0,-
 0.152466059,7.0249109916,-0.0528589517\H,0,-3.6091812139,6.4155974428,
 -1.215199336\H,0,-5.0490967328,6.3498577268,-0.6204571874\H,0,-4.30238
 47596,4.8802895213,-1.2231720556\H,0,3.5342787344,-4.5263668669,2.1581
 844554\H,0,8.0280000447,-1.5310737597,1.3466548281\\Version=ES64L-G16R
 evA.03\State=1-A\HF=-1948.9953077\RMSD=5.626e-09\PG=C01 [X(C33H38N4O6)
 ]\\@


 EDUCATION DOESN'T COST 
           ... IT PAYS!

 -- POSTMARK, UNIV. OF MISSISSIPPI, DEC 78
 Job cpu time:       0 days 16 hours 41 minutes 28.1 seconds.
 Elapsed time:       0 days  4 hours 11 minutes 32.2 seconds.
 File lengths (MBytes):  RWF=   2591 Int=      0 D2E=      0 Chk=     65 Scr=      1
 Normal termination of Gaussian 16 at Thu Jun 27 23:30:29 2019.
