 Entering Gaussian System, Link 0=g16
 Input=Geometria-337-.com
 Output=Geometria-337-.log
 Initial command:
 /usr/local/g16/l1.exe "/home/padawan/israel-mol/phycocyanobilin/spectra/abs/Gau-71047.inp" -scrdir="/home/padawan/israel-mol/phycocyanobilin/spectra/abs/"
 Entering Link 1 = /usr/local/g16/l1.exe PID=     71049.
  
 Copyright (c) 1988,1990,1992,1993,1995,1998,2003,2009,2016,
            Gaussian, Inc.  All Rights Reserved.
  
 This is part of the Gaussian(R) 16 program.  It is based on
 the Gaussian(R) 09 system (copyright 2009, Gaussian, Inc.),
 the Gaussian(R) 03 system (copyright 2003, Gaussian, Inc.),
 the Gaussian(R) 98 system (copyright 1998, Gaussian, Inc.),
 the Gaussian(R) 94 system (copyright 1995, Gaussian, Inc.),
 the Gaussian 92(TM) system (copyright 1992, Gaussian, Inc.),
 the Gaussian 90(TM) system (copyright 1990, Gaussian, Inc.),
 the Gaussian 88(TM) system (copyright 1988, Gaussian, Inc.),
 the Gaussian 86(TM) system (copyright 1986, Carnegie Mellon
 University), and the Gaussian 82(TM) system (copyright 1983,
 Carnegie Mellon University). Gaussian is a federally registered
 trademark of Gaussian, Inc.
  
 This software contains proprietary and confidential information,
 including trade secrets, belonging to Gaussian, Inc.
  
 This software is provided under written license and may be
 used, copied, transmitted, or stored only in accord with that
 written license.
  
 The following legend is applicable only to US Government
 contracts under FAR:
  
                    RESTRICTED RIGHTS LEGEND
  
 Use, reproduction and disclosure by the US Government is
 subject to restrictions as set forth in subparagraphs (a)
 and (c) of the Commercial Computer Software - Restricted
 Rights clause in FAR 52.227-19.
  
 Gaussian, Inc.
 340 Quinnipiac St., Bldg. 40, Wallingford CT 06492
  
  
 ---------------------------------------------------------------
 Warning -- This program may not be used in any manner that
 competes with the business of Gaussian, Inc. or will provide
 assistance to any competitor of Gaussian, Inc.  The licensee
 of this program is prohibited from giving any competitor of
 Gaussian, Inc. access to this program.  By using this program,
 the user acknowledges that Gaussian, Inc. is engaged in the
 business of creating and licensing software in the field of
 computational chemistry and represents and warrants to the
 licensee that it is not a competitor of Gaussian, Inc. and that
 it will not use this program in any manner prohibited above.
 ---------------------------------------------------------------
  

 Cite this work as:
 Gaussian 16, Revision A.03,
 M. J. Frisch, G. W. Trucks, H. B. Schlegel, G. E. Scuseria, 
 M. A. Robb, J. R. Cheeseman, G. Scalmani, V. Barone, 
 G. A. Petersson, H. Nakatsuji, X. Li, M. Caricato, A. V. Marenich, 
 J. Bloino, B. G. Janesko, R. Gomperts, B. Mennucci, H. P. Hratchian, 
 J. V. Ortiz, A. F. Izmaylov, J. L. Sonnenberg, D. Williams-Young, 
 F. Ding, F. Lipparini, F. Egidi, J. Goings, B. Peng, A. Petrone, 
 T. Henderson, D. Ranasinghe, V. G. Zakrzewski, J. Gao, N. Rega, 
 G. Zheng, W. Liang, M. Hada, M. Ehara, K. Toyota, R. Fukuda, 
 J. Hasegawa, M. Ishida, T. Nakajima, Y. Honda, O. Kitao, H. Nakai, 
 T. Vreven, K. Throssell, J. A. Montgomery, Jr., J. E. Peralta, 
 F. Ogliaro, M. J. Bearpark, J. J. Heyd, E. N. Brothers, K. N. Kudin, 
 V. N. Staroverov, T. A. Keith, R. Kobayashi, J. Normand, 
 K. Raghavachari, A. P. Rendell, J. C. Burant, S. S. Iyengar, 
 J. Tomasi, M. Cossi, J. M. Millam, M. Klene, C. Adamo, R. Cammi, 
 J. W. Ochterski, R. L. Martin, K. Morokuma, O. Farkas, 
 J. B. Foresman, and D. J. Fox, Gaussian, Inc., Wallingford CT, 2016.
 
 ******************************************
 Gaussian 16:  ES64L-G16RevA.03 25-Dec-2016
                 4-Jul-2019 
 ******************************************
 %nproc=4
 Will use up to    4 processors via shared memory.
 %Mem=4GB
 --------------------------
 # td=(NStates=1) B3LYP/SVP
 --------------------------
 1/38=1,172=1/1;
 2/12=2,17=6,18=5,40=1/2;
 3/5=18,7=101,11=9,25=1,30=1,74=-5/1,2,3,8;
 4//1;
 5/5=2,38=5/2;
 8/6=1,10=1,108=1/1;
 9/41=1,42=1,70=2/14;
 6/7=2,8=2,9=2,10=2/1;
 99/5=1,9=1/99;
 --
 TD
 --
 Symbolic Z-matrix:
 Charge =  0 Multiplicity = 1
 8                    -4.35179  -4.72334   1.9194 
 8                     2.93906  -4.68442   1.40241 
 8                     7.03218  -1.56946   1.86583 
 8                     3.72023  -3.0607    0.0255 
 8                     7.61727  -0.58028  -0.09874 
 8                    -3.09604   2.48146  -0.4296 
 7                    -0.26951  -0.52752  -0.79779 
 7                     1.57791   1.78475  -0.42886 
 7                    -3.37977  -3.06411   0.57503 
 7                    -0.74745   2.7917   -0.24899 
 6                     0.62264  -2.45427  -1.38378 
 6                     0.99073  -1.12733  -0.90616 
 6                    -0.67959  -2.51443  -1.31289 
 6                    -1.31473  -1.33794  -0.8254 
 6                     3.8165    1.40321  -0.39818 
 6                     2.61576   0.81467  -0.67562 
 6                     2.18317  -0.46332  -0.9459 
 6                     3.55586   2.7255    0.15238 
 6                     1.48389  -3.51615  -1.86259 
 6                    -5.52965  -2.61268   1.38374 
 6                    -3.60377  -1.73339   0.16099 
 6                     2.12102   2.88825  -0.07039 
 6                    -5.03774  -1.52307   0.40841 
 6                     5.10679   0.7267   -0.43327 
 6                    -2.62343  -0.88026  -0.52357 
 6                    -1.53426  -3.7505   -1.69311 
 6                    -4.33365  -3.5744    1.38688 
 6                     1.8762   -4.59922  -0.78952 
 6                     5.34922  -0.1949    0.73382 
 6                     4.59918   3.731     0.4316 
 6                     1.30741   4.01368   0.32422 
 6                    -6.91307  -3.19514   1.27555 
 6                    -5.89139  -0.6374   -0.21531 
 6                    -0.07563   3.91577   0.14183 
 6                    -0.95732   5.08064   0.60377 
 6                    -2.26831   4.6199    0.36613 
 6                     2.98214  -3.98898   0.17329 
 6                    -5.56391   0.38015  -1.25476 
 6                     6.85336  -0.77531   0.84419 
 6                    -3.66047   5.18686   0.44899 
 6                    -2.0761    3.15435  -0.12001 
 6                    -0.55174   6.39012   1.14622 
 6                    -4.01368   5.89281  -0.97847 
 1                    -0.347     0.42929  -0.34385 
 1                     2.99524  -1.25797  -1.38444 
 1                     2.21845  -2.9932   -2.35245 
 1                     1.02132  -4.06599  -2.71221 
 1                    -5.51031  -2.19413   2.47671 
 1                     5.03012   0.14487  -1.28543 
 1                     6.02623   1.53347  -0.46399 
 1                    -2.87877   0.21519  -0.6124 
 1                     0.40231   1.63809  -0.64917 
 1                    -1.41967  -4.64211  -1.12738 
 1                    -2.38005  -3.39571  -1.9466 
 1                    -1.26614  -4.14866  -2.58258 
 1                    -2.52434  -3.53944   0.56891 
 1                     1.08986  -4.93883  -0.20124 
 1                     2.36547  -5.49384  -1.25774 
 1                     4.72069  -1.13541   0.805 
 1                     4.91607   0.41913   1.71907 
 1                     4.52651   4.5131   -0.44954 
 1                     5.51345   3.09985   0.39392 
 1                     4.5075    4.16756   1.48975 
 1                     1.71619   4.89742   0.71568 
 1                    -7.72497  -2.65766   1.6693 
 1                    -7.0883   -4.15412   1.82053 
 1                    -7.02609  -3.47286   0.19877 
 1                    -7.06399  -0.59546   0.10549 
 1                    -4.83428   1.09985  -1.03869 
 1                    -6.67389   0.89384  -1.41336 
 1                    -5.09653  -0.10066  -2.13122 
 1                    -3.62312   6.15829   1.12749 
 1                    -4.26123   4.35526   0.68432 
 1                     0.22224   6.12327   2.13286 
 1                    -1.32987   7.21881   1.53933 
 1                     0.07333   6.96181   0.42209 
 1                    -3.2312    6.48785  -1.50213 
 1                    -5.12018   6.28951  -1.21239 
 1                    -4.09269   4.91629  -1.60204 
 1                     3.64781  -4.31603   1.98885 
 1                     7.94256  -1.66639   2.09729 
 
 Stoichiometry    C33H38N4O6
 Framework group  C1[X(C33H38N4O6)]
 Deg. of freedom   237
 Full point group                 C1      NOp   1
 Largest Abelian subgroup         C1      NOp   1
 Largest concise Abelian subgroup C1      NOp   1
                         Standard orientation:                         
 ---------------------------------------------------------------------
 Center     Atomic      Atomic             Coordinates (Angstroms)
 Number     Number       Type             X           Y           Z
 ---------------------------------------------------------------------
      1          8           0       -4.341150   -4.730732    1.912139
      2          8           0        2.947598   -4.686344    1.366740
      3          8           0        7.041301   -1.572015    1.829235
      4          8           0        3.722728   -3.055625   -0.005316
      5          8           0        7.618289   -0.573055   -0.132779
      6          8           0       -3.097420    2.485908   -0.406704
      7          7           0       -0.271197   -0.520098   -0.800610
      8          7           0        1.576761    1.791103   -0.427699
      9          7           0       -3.375066   -3.064586    0.572048
     10          7           0       -0.748256    2.796222   -0.233807
     11          6           0        0.619395   -2.443614   -1.399460
     12          6           0        0.988839   -1.118864   -0.916845
     13          6           0       -0.682529   -2.504640   -1.323755
     14          6           0       -1.316206   -1.330794   -0.828064
     15          6           0        3.815605    1.410330   -0.407651
     16          6           0        2.614016    0.822657   -0.683238
     17          6           0        2.180855   -0.454185   -0.958028
     18          6           0        3.556618    2.729818    0.150352
     19          6           0        1.479165   -3.502800   -1.886800
     20          6           0       -5.521926   -2.617972    1.391376
     21          6           0       -3.601202   -1.731963    0.165370
     22          6           0        2.120848    2.893062   -0.066001
     23          6           0       -5.034268   -1.523429    0.419434
     24          6           0        5.106009    0.734519   -0.451093
     25          6           0       -2.623887   -0.875124   -0.518878
     26          6           0       -1.538206   -3.739198   -1.706626
     27          6           0       -4.325550   -3.579204    1.385146
     28          6           0        1.876102   -4.590920   -0.820562
     29          6           0        5.353380   -0.192642    0.710539
     30          6           0        4.600634    3.734376    0.430352
     31          6           0        1.308365    4.016231    0.337273
     32          6           0       -6.905535   -3.200454    1.285783
     33          6           0       -5.890700   -0.635084   -0.196620
     34          6           0       -0.075347    3.918648    0.159838
     35          6           0       -0.955661    5.080904    0.630885
     36          6           0       -2.267401    4.620792    0.396157
     37          6           0        2.985580   -3.984912    0.140857
     38          6           0       -5.567700    0.387641   -1.232380
     39          6           0        6.858159   -0.772972    0.812179
     40          6           0       -3.659444    5.186785    0.487233
     41          6           0       -2.076534    3.157700   -0.097853
     42          6           0       -0.548463    6.387900    1.178105
     43          6           0       -4.018526    5.899515   -0.935375
     44          1           0       -0.347274    0.434463   -0.341729
     45          1           0        2.991512   -1.246360   -1.403611
     46          1           0        2.211598   -2.977185   -2.376991
     47          1           0        1.013475   -4.048693   -2.737269
     48          1           0       -5.498458   -2.204727    2.486285
     49          1           0        5.026223    0.156804   -1.305770
     50          1           0        6.025014    1.541797   -0.481499
     51          1           0       -2.879990    0.220642   -0.601379
     52          1           0        0.400363    1.645043   -0.644105
     53          1           0       -1.421048   -4.633498   -1.145693
     54          1           0       -2.385122   -3.383521   -1.955068
     55          1           0       -1.273422   -4.132924   -2.599066
     56          1           0       -2.519474   -3.539538    0.560268
     57          1           0        1.092216   -4.933699   -0.230862
     58          1           0        2.363873   -5.483055   -1.295042
     59          1           0        4.725490   -1.133746    0.779611
     60          1           0        4.923855    0.416407    1.700450
     61          1           0        4.524207    4.520718   -0.446683
     62          1           0        5.514995    3.103785    0.386017
     63          1           0        4.512944    4.165748    1.490969
     64          1           0        1.718332    4.898227    0.731417
     65          1           0       -7.716084   -2.665228    1.685329
     66          1           0       -7.078256   -4.162149    1.826784
     67          1           0       -7.022673   -3.472980    0.208122
     68          1           0       -7.062054   -0.595181    0.128985
     69          1           0       -4.837503    1.106579   -1.015679
     70          1           0       -6.678491    0.901639   -1.384125
     71          1           0       -5.103576   -0.088720   -2.113003
     72          1           0       -3.619806    6.154914    1.170301
     73          1           0       -4.258956    4.353807    0.720877
     74          1           0        0.229483    6.116572    2.160388
     75          1           0       -1.325369    7.214349    1.578294
     76          1           0        0.073534    6.963359    0.454315
     77          1           0       -3.238342    6.497418   -1.459201
     78          1           0       -5.126093    6.296903   -1.163017
     79          1           0       -4.099610    4.926011   -1.563373
     80          1           0        3.658499   -4.320514    1.952178
     81          1           0        7.952618   -1.669693    2.056650
 ---------------------------------------------------------------------
 Rotational constants (GHZ):           0.0774779           0.0545409           0.0344470
 Standard basis: SVP (5D, 7F)
 There are   835 symmetry adapted cartesian basis functions of A   symmetry.
 There are   792 symmetry adapted basis functions of A   symmetry.
   792 basis functions,  1341 primitive gaussians,   835 cartesian basis functions
   156 alpha electrons      156 beta electrons
       nuclear repulsion energy      5054.8103906310 Hartrees.
 NAtoms=   81 NActive=   81 NUniq=   81 SFac= 1.00D+00 NAtFMM=   60 NAOKFM=T Big=T
 Integral buffers will be    131072 words long.
 Regular integral format.
 Two-electron integral symmetry is turned on.
 One-electron integrals computed using PRISM.
 NBasis=   792 RedAO= T EigKep=  3.33D-04  NBF=   792
 NBsUse=   792 1.00D-06 EigRej= -1.00D+00 NBFU=   792
 ExpMin= 1.22D-01 ExpMax= 2.27D+03 ExpMxC= 3.41D+02 IAcc=3 IRadAn=         5 AccDes= 0.00D+00
 Harris functional with IExCor=  402 and IRadAn=       5 diagonalized for initial guess.
 HarFok:  IExCor=  402 AccDes= 0.00D+00 IRadAn=         5 IDoV= 1 UseB2=F ITyADJ=14
 ICtDFT=  3500011 ScaDFX=  1.000000  1.000000  1.000000  1.000000
 FoFCou: FMM=F IPFlag=           0 FMFlag=      100000 FMFlg1=        2001
         NFxFlg=           0 DoJE=T BraDBF=F KetDBF=T FulRan=T
         wScrn=  0.000000 ICntrl=       500 IOpCl=  0 I1Cent=   200000004 NGrid=           0
         NMat0=    1 NMatS0=      1 NMatT0=    0 NMatD0=    1 NMtDS0=    0 NMtDT0=    0
 Petite list used in FoFCou.
 Requested convergence on RMS density matrix=1.00D-08 within 128 cycles.
 Requested convergence on MAX density matrix=1.00D-06.
 Requested convergence on             energy=1.00D-06.
 No special actions if energy rises.
 Integral accuracy reduced to 1.0D-05 until final iterations.
 Initial convergence to 1.0D-05 achieved.  Increase integral accuracy.
 SCF Done:  E(RB3LYP) =  -1949.07012367     A.U. after   17 cycles
            NFock= 17  Conv=0.48D-08     -V/T= 2.0109
 DoSCS=F DFT=T ScalE2(SS,OS)=  1.000000  1.000000
 ExpMin= 1.22D-01 ExpMax= 2.27D+03 ExpMxC= 3.41D+02 IAcc=3 IRadAn=         5 AccDes= 0.00D+00
 HarFok:  IExCor=  205 AccDes= 0.00D+00 IRadAn=         5 IDoV=-2 UseB2=F ITyADJ=14
 ICtDFT= 12500011 ScaDFX=  1.000000  1.000000  1.000000  1.000000
 GSVD:  LWork=       -2193 too small for GESVD, short by        9890 words or        9890 for optimal perf.
 Range of M.O.s used for correlation:    44   792
 NBasis=   792 NAE=   156 NBE=   156 NFC=    43 NFV=     0
 NROrb=    749 NOA=   113 NOB=   113 NVA=   636 NVB=   636

 **** Warning!!: The smallest alpha delta epsilon is  0.76808721D-01

 Orbital symmetries:
       Occupied  (A) (A) (A) (A) (A) (A) (A) (A) (A) (A) (A) (A)
                 (A) (A) (A) (A) (A) (A) (A) (A) (A) (A) (A) (A)
                 (A) (A) (A) (A) (A) (A) (A) (A) (A) (A) (A) (A)
                 (A) (A) (A) (A) (A) (A) (A) (A) (A) (A) (A) (A)
                 (A) (A) (A) (A) (A) (A) (A) (A) (A) (A) (A) (A)
                 (A) (A) (A) (A) (A) (A) (A) (A) (A) (A) (A) (A)
                 (A) (A) (A) (A) (A) (A) (A) (A) (A) (A) (A) (A)
                 (A) (A) (A) (A) (A) (A) (A) (A) (A) (A) (A) (A)
                 (A) (A) (A) (A) (A) (A) (A) (A) (A) (A) (A) (A)
                 (A) (A) (A) (A) (A) (A) (A) (A) (A) (A) (A) (A)
                 (A) (A) (A) (A) (A) (A) (A) (A) (A) (A) (A) (A)
                 (A) (A) (A) (A) (A) (A) (A) (A) (A) (A) (A) (A)
                 (A) (A) (A) (A) (A) (A) (A) (A) (A) (A) (A) (A)
       Virtual   (A) (A) (A) (A) (A) (A) (A) (A) (A) (A) (A) (A)
                 (A) (A) (A) (A) (A) (A) (A) (A) (A) (A) (A) (A)
                 (A) (A) (A) (A) (A) (A) (A) (A) (A) (A) (A) (A)
                 (A) (A) (A) (A) (A) (A) (A) (A) (A) (A) (A) (A)
                 (A) (A) (A) (A) (A) (A) (A) (A) (A) (A) (A) (A)
                 (A) (A) (A) (A) (A) (A) (A) (A) (A) (A) (A) (A)
                 (A) (A) (A) (A) (A) (A) (A) (A) (A) (A) (A) (A)
                 (A) (A) (A) (A) (A) (A) (A) (A) (A) (A) (A) (A)
                 (A) (A) (A) (A) (A) (A) (A) (A) (A) (A) (A) (A)
                 (A) (A) (A) (A) (A) (A) (A) (A) (A) (A) (A) (A)
                 (A) (A) (A) (A) (A) (A) (A) (A) (A) (A) (A) (A)
                 (A) (A) (A) (A) (A) (A) (A) (A) (A) (A) (A) (A)
                 (A) (A) (A) (A) (A) (A) (A) (A) (A) (A) (A) (A)
                 (A) (A) (A) (A) (A) (A) (A) (A) (A) (A) (A) (A)
                 (A) (A) (A) (A) (A) (A) (A) (A) (A) (A) (A) (A)
                 (A) (A) (A) (A) (A) (A) (A) (A) (A) (A) (A) (A)
                 (A) (A) (A) (A) (A) (A) (A) (A) (A) (A) (A) (A)
                 (A) (A) (A) (A) (A) (A) (A) (A) (A) (A) (A) (A)
                 (A) (A) (A) (A) (A) (A) (A) (A) (A) (A) (A) (A)
                 (A) (A) (A) (A) (A) (A) (A) (A) (A) (A) (A) (A)
                 (A) (A) (A) (A) (A) (A) (A) (A) (A) (A) (A) (A)
                 (A) (A) (A) (A) (A) (A) (A) (A) (A) (A) (A) (A)
                 (A) (A) (A) (A) (A) (A) (A) (A) (A) (A) (A) (A)
                 (A) (A) (A) (A) (A) (A) (A) (A) (A) (A) (A) (A)
                 (A) (A) (A) (A) (A) (A) (A) (A) (A) (A) (A) (A)
                 (A) (A) (A) (A) (A) (A) (A) (A) (A) (A) (A) (A)
                 (A) (A) (A) (A) (A) (A) (A) (A) (A) (A) (A) (A)
                 (A) (A) (A) (A) (A) (A) (A) (A) (A) (A) (A) (A)
                 (A) (A) (A) (A) (A) (A) (A) (A) (A) (A) (A) (A)
                 (A) (A) (A) (A) (A) (A) (A) (A) (A) (A) (A) (A)
                 (A) (A) (A) (A) (A) (A) (A) (A) (A) (A) (A) (A)
                 (A) (A) (A) (A) (A) (A) (A) (A) (A) (A) (A) (A)
                 (A) (A) (A) (A) (A) (A) (A) (A) (A) (A) (A) (A)
                 (A) (A) (A) (A) (A) (A) (A) (A) (A) (A) (A) (A)
                 (A) (A) (A) (A) (A) (A) (A) (A) (A) (A) (A) (A)
                 (A) (A) (A) (A) (A) (A) (A) (A) (A) (A) (A) (A)
                 (A) (A) (A) (A) (A) (A) (A) (A) (A) (A) (A) (A)
                 (A) (A) (A) (A) (A) (A) (A) (A) (A) (A) (A) (A)
                 (A) (A) (A) (A) (A) (A) (A) (A) (A) (A) (A) (A)
                 (A) (A) (A) (A) (A) (A) (A) (A) (A) (A) (A) (A)
                 (A) (A) (A) (A) (A) (A) (A) (A) (A) (A) (A) (A)
                 (A) (A) (A) (A) (A) (A) (A) (A) (A) (A) (A) (A)
                 (A) (A) (A) (A) (A) (A) (A) (A) (A) (A) (A) (A)
                 (A) (A) (A) (A) (A) (A) (A) (A) (A) (A) (A) (A)
                 (A) (A) (A) (A) (A) (A) (A) (A) (A) (A) (A) (A)
                 (A) (A) (A) (A) (A) (A) (A) (A) (A) (A) (A) (A)
                 (A) (A) (A) (A) (A) (A) (A) (A) (A) (A) (A) (A)
                 (A) (A) (A) (A) (A) (A) (A) (A) (A) (A) (A) (A)
                 (A) (A) (A) (A) (A) (A) (A) (A) (A) (A) (A) (A)
                 (A) (A) (A) (A) (A) (A) (A) (A) (A) (A) (A) (A)
                 (A) (A) (A) (A) (A) (A) (A) (A) (A) (A) (A) (A)
                 (A) (A) (A) (A) (A) (A) (A) (A) (A) (A) (A) (A)
                 (A) (A) (A) (A) (A) (A) (A) (A) (A) (A) (A) (A)
     4 initial guesses have been made.
 Convergence on wavefunction:    0.001000000000000
 Iteration     1 Dimension     4 NMult     0 NNew      4
 CISAX will form     4 AO SS matrices at one time.
 Iteration     2 Dimension     6 NMult     4 NNew      2
 Iteration     3 Dimension     8 NMult     6 NNew      2
 Iteration     4 Dimension    10 NMult     8 NNew      2
 Iteration     5 Dimension    12 NMult    10 NNew      2
 Iteration     6 Dimension    14 NMult    12 NNew      2
 ***********************************************************************
 Excited states from <AA,BB:AA,BB> singles matrix:
 ***********************************************************************
 
 Ground to excited state transition densities written to RWF  633
 Ground to excited state transition electric dipole moments (Au):
       state          X           Y           Z        Dip. S.      Osc.
         1         1.3615      2.6332      0.1492      8.8096      0.4182
 Ground to excited state transition velocity dipole moments (Au):
       state          X           Y           Z        Dip. S.      Osc.
         1        -0.0975     -0.1809     -0.0112      0.0424      0.3966
 Ground to excited state transition magnetic dipole moments (Au):
       state          X           Y           Z
         1        -0.3503      0.7100     -2.2866
 Ground to excited state transition velocity quadrupole moments (Au):
       state          XX          YY          ZZ          XY          XZ          YZ
         1         0.5797     -0.6395      0.0744      0.4491     -0.0848     -0.0623
 <0|del|b> * <b|rxdel|0> + <0|del|b> * <b|delr+rdel|0>
 Rotatory Strengths (R) in cgs (10**-40 erg-esu-cm/Gauss)
       state          XX          YY          ZZ    R(velocity)    E-M Angle
         1      -611.5531    352.2527   -422.2438   -227.1814       97.92
 1/2[<0|r|b>*<b|rxdel|0> + (<0|rxdel|b>*<b|r|0>)*]
 Rotatory Strengths (R) in cgs (10**-40 erg-esu-cm/Gauss)
       state          XX          YY          ZZ     R(length)
         1       337.2720  -1322.0409    241.2718   -247.8324
  1/2[<0|del|b>*<b|r|0> + (<0|r|b>*<b|del|0>)*] (Au)
       state          X           Y           Z        Dip. S.   Osc.(frdel)
         1        -0.1327     -0.4764     -0.0017      0.6108      0.4072

 Excitation energies and oscillator strengths:
 
 Excited State   1:      Singlet-A      1.9376 eV  639.90 nm  f=0.4182  <S**2>=0.000
     156 ->157         0.70824
     156 <-157        -0.11103
 This state for optimization and/or second-order correction.
 Total Energy, E(TD-HF/TD-DFT) =  -1948.99891985    
 Copying the excited state density for this state as the 1-particle RhoCI density.
 SavETr:  write IOETrn=   770 NScale= 10 NData=  16 NLR=1 NState=    1 LETran=      28.

 **********************************************************************

            Population analysis using the SCF density.

 **********************************************************************

 Orbital symmetries:
       Occupied  (A) (A) (A) (A) (A) (A) (A) (A) (A) (A) (A) (A)
                 (A) (A) (A) (A) (A) (A) (A) (A) (A) (A) (A) (A)
                 (A) (A) (A) (A) (A) (A) (A) (A) (A) (A) (A) (A)
                 (A) (A) (A) (A) (A) (A) (A) (A) (A) (A) (A) (A)
                 (A) (A) (A) (A) (A) (A) (A) (A) (A) (A) (A) (A)
                 (A) (A) (A) (A) (A) (A) (A) (A) (A) (A) (A) (A)
                 (A) (A) (A) (A) (A) (A) (A) (A) (A) (A) (A) (A)
                 (A) (A) (A) (A) (A) (A) (A) (A) (A) (A) (A) (A)
                 (A) (A) (A) (A) (A) (A) (A) (A) (A) (A) (A) (A)
                 (A) (A) (A) (A) (A) (A) (A) (A) (A) (A) (A) (A)
                 (A) (A) (A) (A) (A) (A) (A) (A) (A) (A) (A) (A)
                 (A) (A) (A) (A) (A) (A) (A) (A) (A) (A) (A) (A)
                 (A) (A) (A) (A) (A) (A) (A) (A) (A) (A) (A) (A)
       Virtual   (A) (A) (A) (A) (A) (A) (A) (A) (A) (A) (A) (A)
                 (A) (A) (A) (A) (A) (A) (A) (A) (A) (A) (A) (A)
                 (A) (A) (A) (A) (A) (A) (A) (A) (A) (A) (A) (A)
                 (A) (A) (A) (A) (A) (A) (A) (A) (A) (A) (A) (A)
                 (A) (A) (A) (A) (A) (A) (A) (A) (A) (A) (A) (A)
                 (A) (A) (A) (A) (A) (A) (A) (A) (A) (A) (A) (A)
                 (A) (A) (A) (A) (A) (A) (A) (A) (A) (A) (A) (A)
                 (A) (A) (A) (A) (A) (A) (A) (A) (A) (A) (A) (A)
                 (A) (A) (A) (A) (A) (A) (A) (A) (A) (A) (A) (A)
                 (A) (A) (A) (A) (A) (A) (A) (A) (A) (A) (A) (A)
                 (A) (A) (A) (A) (A) (A) (A) (A) (A) (A) (A) (A)
                 (A) (A) (A) (A) (A) (A) (A) (A) (A) (A) (A) (A)
                 (A) (A) (A) (A) (A) (A) (A) (A) (A) (A) (A) (A)
                 (A) (A) (A) (A) (A) (A) (A) (A) (A) (A) (A) (A)
                 (A) (A) (A) (A) (A) (A) (A) (A) (A) (A) (A) (A)
                 (A) (A) (A) (A) (A) (A) (A) (A) (A) (A) (A) (A)
                 (A) (A) (A) (A) (A) (A) (A) (A) (A) (A) (A) (A)
                 (A) (A) (A) (A) (A) (A) (A) (A) (A) (A) (A) (A)
                 (A) (A) (A) (A) (A) (A) (A) (A) (A) (A) (A) (A)
                 (A) (A) (A) (A) (A) (A) (A) (A) (A) (A) (A) (A)
                 (A) (A) (A) (A) (A) (A) (A) (A) (A) (A) (A) (A)
                 (A) (A) (A) (A) (A) (A) (A) (A) (A) (A) (A) (A)
                 (A) (A) (A) (A) (A) (A) (A) (A) (A) (A) (A) (A)
                 (A) (A) (A) (A) (A) (A) (A) (A) (A) (A) (A) (A)
                 (A) (A) (A) (A) (A) (A) (A) (A) (A) (A) (A) (A)
                 (A) (A) (A) (A) (A) (A) (A) (A) (A) (A) (A) (A)
                 (A) (A) (A) (A) (A) (A) (A) (A) (A) (A) (A) (A)
                 (A) (A) (A) (A) (A) (A) (A) (A) (A) (A) (A) (A)
                 (A) (A) (A) (A) (A) (A) (A) (A) (A) (A) (A) (A)
                 (A) (A) (A) (A) (A) (A) (A) (A) (A) (A) (A) (A)
                 (A) (A) (A) (A) (A) (A) (A) (A) (A) (A) (A) (A)
                 (A) (A) (A) (A) (A) (A) (A) (A) (A) (A) (A) (A)
                 (A) (A) (A) (A) (A) (A) (A) (A) (A) (A) (A) (A)
                 (A) (A) (A) (A) (A) (A) (A) (A) (A) (A) (A) (A)
                 (A) (A) (A) (A) (A) (A) (A) (A) (A) (A) (A) (A)
                 (A) (A) (A) (A) (A) (A) (A) (A) (A) (A) (A) (A)
                 (A) (A) (A) (A) (A) (A) (A) (A) (A) (A) (A) (A)
                 (A) (A) (A) (A) (A) (A) (A) (A) (A) (A) (A) (A)
                 (A) (A) (A) (A) (A) (A) (A) (A) (A) (A) (A) (A)
                 (A) (A) (A) (A) (A) (A) (A) (A) (A) (A) (A) (A)
                 (A) (A) (A) (A) (A) (A) (A) (A) (A) (A) (A) (A)
                 (A) (A) (A) (A) (A) (A) (A) (A) (A) (A) (A) (A)
                 (A) (A) (A) (A) (A) (A) (A) (A) (A) (A) (A) (A)
                 (A) (A) (A) (A) (A) (A) (A) (A) (A) (A) (A) (A)
                 (A) (A) (A) (A) (A) (A) (A) (A) (A) (A) (A) (A)
                 (A) (A) (A) (A) (A) (A) (A) (A) (A) (A) (A) (A)
                 (A) (A) (A) (A) (A) (A) (A) (A) (A) (A) (A) (A)
                 (A) (A) (A) (A) (A) (A) (A) (A) (A) (A) (A) (A)
                 (A) (A) (A) (A) (A) (A) (A) (A) (A) (A) (A) (A)
                 (A) (A) (A) (A) (A) (A) (A) (A) (A) (A) (A) (A)
                 (A) (A) (A) (A) (A) (A) (A) (A) (A) (A) (A) (A)
                 (A) (A) (A) (A) (A) (A) (A) (A) (A) (A) (A) (A)
                 (A) (A) (A) (A) (A) (A) (A) (A) (A) (A) (A) (A)
 The electronic state is 1-A.
 Alpha  occ. eigenvalues --  -19.19785 -19.18757 -19.15958 -19.12540 -19.10840
 Alpha  occ. eigenvalues --  -19.09313 -14.38656 -14.38520 -14.35288 -14.29955
 Alpha  occ. eigenvalues --  -10.34493 -10.32763 -10.29553 -10.26980 -10.26169
 Alpha  occ. eigenvalues --  -10.24528 -10.23588 -10.23468 -10.22910 -10.22647
 Alpha  occ. eigenvalues --  -10.22349 -10.22242 -10.21880 -10.21631 -10.21530
 Alpha  occ. eigenvalues --  -10.21310 -10.21214 -10.21181 -10.21103 -10.20501
 Alpha  occ. eigenvalues --  -10.20002 -10.19897 -10.19695 -10.19641 -10.19547
 Alpha  occ. eigenvalues --  -10.19517 -10.19450 -10.18921 -10.18780 -10.18710
 Alpha  occ. eigenvalues --  -10.18681 -10.17650 -10.17643  -1.11576  -1.10279
 Alpha  occ. eigenvalues --   -1.02290  -1.01826  -1.00704  -1.00694  -0.98839
 Alpha  occ. eigenvalues --   -0.97790  -0.95479  -0.90581  -0.84451  -0.82696
 Alpha  occ. eigenvalues --   -0.81843  -0.81651  -0.78696  -0.78380  -0.78214
 Alpha  occ. eigenvalues --   -0.76568  -0.75936  -0.74949  -0.73956  -0.73128
 Alpha  occ. eigenvalues --   -0.71579  -0.70810  -0.70146  -0.68691  -0.67827
 Alpha  occ. eigenvalues --   -0.66721  -0.65992  -0.64599  -0.62540  -0.61666
 Alpha  occ. eigenvalues --   -0.61012  -0.60275  -0.59378  -0.58535  -0.57627
 Alpha  occ. eigenvalues --   -0.56477  -0.55133  -0.54262  -0.53632  -0.52917
 Alpha  occ. eigenvalues --   -0.52099  -0.51590  -0.50966  -0.50463  -0.49557
 Alpha  occ. eigenvalues --   -0.49182  -0.48934  -0.48598  -0.48314  -0.48033
 Alpha  occ. eigenvalues --   -0.47368  -0.46847  -0.46252  -0.46055  -0.45352
 Alpha  occ. eigenvalues --   -0.45256  -0.44634  -0.44567  -0.44284  -0.43761
 Alpha  occ. eigenvalues --   -0.43515  -0.43280  -0.42893  -0.42552  -0.42404
 Alpha  occ. eigenvalues --   -0.42199  -0.41792  -0.41713  -0.40935  -0.40874
 Alpha  occ. eigenvalues --   -0.40584  -0.40423  -0.40239  -0.40004  -0.39429
 Alpha  occ. eigenvalues --   -0.39269  -0.38924  -0.38257  -0.38160  -0.38043
 Alpha  occ. eigenvalues --   -0.37242  -0.37178  -0.37027  -0.36918  -0.36477
 Alpha  occ. eigenvalues --   -0.36205  -0.35642  -0.35323  -0.34866  -0.34737
 Alpha  occ. eigenvalues --   -0.34581  -0.34167  -0.33343  -0.33097  -0.32948
 Alpha  occ. eigenvalues --   -0.32544  -0.32348  -0.30857  -0.30470  -0.29955
 Alpha  occ. eigenvalues --   -0.28310  -0.27698  -0.27340  -0.26621  -0.25933
 Alpha  occ. eigenvalues --   -0.24981  -0.23666  -0.23521  -0.22421  -0.21841
 Alpha  occ. eigenvalues --   -0.18033
 Alpha virt. eigenvalues --   -0.10352  -0.06143  -0.04499  -0.02054  -0.00962
 Alpha virt. eigenvalues --   -0.00139   0.01706   0.02880   0.03455   0.03875
 Alpha virt. eigenvalues --    0.04165   0.04457   0.04759   0.05005   0.05183
 Alpha virt. eigenvalues --    0.05746   0.06614   0.07106   0.07584   0.07595
 Alpha virt. eigenvalues --    0.07836   0.08410   0.08728   0.08955   0.09141
 Alpha virt. eigenvalues --    0.09713   0.10119   0.10406   0.10657   0.10961
 Alpha virt. eigenvalues --    0.11331   0.11690   0.12286   0.12465   0.12643
 Alpha virt. eigenvalues --    0.12936   0.13346   0.13568   0.14031   0.14260
 Alpha virt. eigenvalues --    0.14299   0.14687   0.14834   0.15463   0.15697
 Alpha virt. eigenvalues --    0.16088   0.16423   0.16788   0.16931   0.17383
 Alpha virt. eigenvalues --    0.18235   0.18348   0.18661   0.19186   0.20016
 Alpha virt. eigenvalues --    0.20241   0.20590   0.21019   0.21511   0.21925
 Alpha virt. eigenvalues --    0.22576   0.22758   0.23385   0.23461   0.23864
 Alpha virt. eigenvalues --    0.24309   0.24572   0.24827   0.25227   0.25743
 Alpha virt. eigenvalues --    0.25886   0.26529   0.27123   0.27518   0.28047
 Alpha virt. eigenvalues --    0.28520   0.29219   0.29504   0.30002   0.30745
 Alpha virt. eigenvalues --    0.31090   0.31477   0.31749   0.32542   0.33073
 Alpha virt. eigenvalues --    0.33757   0.34259   0.35129   0.35510   0.35949
 Alpha virt. eigenvalues --    0.36979   0.37219   0.37596   0.38276   0.39072
 Alpha virt. eigenvalues --    0.39606   0.39914   0.40037   0.41309   0.41338
 Alpha virt. eigenvalues --    0.41870   0.42079   0.42558   0.42883   0.43439
 Alpha virt. eigenvalues --    0.43627   0.43824   0.44057   0.44243   0.44828
 Alpha virt. eigenvalues --    0.44980   0.45346   0.45420   0.45509   0.45766
 Alpha virt. eigenvalues --    0.45826   0.46565   0.47233   0.47705   0.48062
 Alpha virt. eigenvalues --    0.48219   0.48321   0.48747   0.49283   0.49718
 Alpha virt. eigenvalues --    0.50318   0.50702   0.50886   0.51231   0.51541
 Alpha virt. eigenvalues --    0.52081   0.52316   0.52666   0.52957   0.53211
 Alpha virt. eigenvalues --    0.53677   0.53992   0.54518   0.54953   0.55273
 Alpha virt. eigenvalues --    0.55753   0.55842   0.56078   0.56707   0.57177
 Alpha virt. eigenvalues --    0.57396   0.57592   0.57955   0.58359   0.58556
 Alpha virt. eigenvalues --    0.58873   0.59257   0.59382   0.59818   0.60548
 Alpha virt. eigenvalues --    0.60636   0.60954   0.61129   0.61597   0.61837
 Alpha virt. eigenvalues --    0.61942   0.62112   0.62334   0.63102   0.63322
 Alpha virt. eigenvalues --    0.63365   0.63631   0.63764   0.64082   0.64360
 Alpha virt. eigenvalues --    0.64373   0.64564   0.64819   0.64921   0.65039
 Alpha virt. eigenvalues --    0.65679   0.66104   0.66332   0.66454   0.66525
 Alpha virt. eigenvalues --    0.66785   0.66885   0.66974   0.67317   0.67712
 Alpha virt. eigenvalues --    0.67842   0.68085   0.68360   0.68561   0.68719
 Alpha virt. eigenvalues --    0.69186   0.69473   0.69881   0.70204   0.70249
 Alpha virt. eigenvalues --    0.70709   0.70970   0.71303   0.71577   0.71942
 Alpha virt. eigenvalues --    0.72066   0.72272   0.72815   0.72864   0.73422
 Alpha virt. eigenvalues --    0.73922   0.74349   0.74543   0.74897   0.75311
 Alpha virt. eigenvalues --    0.75820   0.76151   0.76332   0.77127   0.77470
 Alpha virt. eigenvalues --    0.77845   0.78351   0.78782   0.79341   0.79587
 Alpha virt. eigenvalues --    0.80636   0.81103   0.81678   0.82034   0.82210
 Alpha virt. eigenvalues --    0.82729   0.83391   0.83781   0.84103   0.85524
 Alpha virt. eigenvalues --    0.86410   0.86613   0.86975   0.87718   0.88333
 Alpha virt. eigenvalues --    0.88896   0.89282   0.90378   0.90647   0.91866
 Alpha virt. eigenvalues --    0.92263   0.93218   0.93933   0.94292   0.94603
 Alpha virt. eigenvalues --    0.95156   0.95638   0.95905   0.96876   0.97180
 Alpha virt. eigenvalues --    0.97626   0.98087   0.99134   0.99489   1.00234
 Alpha virt. eigenvalues --    1.00958   1.01620   1.01863   1.02565   1.02771
 Alpha virt. eigenvalues --    1.02912   1.03840   1.05065   1.05911   1.06086
 Alpha virt. eigenvalues --    1.06792   1.07865   1.08359   1.09110   1.09871
 Alpha virt. eigenvalues --    1.10673   1.10835   1.11408   1.11822   1.12223
 Alpha virt. eigenvalues --    1.13108   1.14342   1.15584   1.16482   1.16736
 Alpha virt. eigenvalues --    1.17316   1.17851   1.18194   1.18826   1.19208
 Alpha virt. eigenvalues --    1.19894   1.20459   1.21173   1.21669   1.22554
 Alpha virt. eigenvalues --    1.23889   1.24756   1.25341   1.26050   1.26301
 Alpha virt. eigenvalues --    1.26707   1.27270   1.28147   1.29091   1.29721
 Alpha virt. eigenvalues --    1.30124   1.31401   1.31915   1.32022   1.33162
 Alpha virt. eigenvalues --    1.34066   1.34741   1.34889   1.35438   1.36244
 Alpha virt. eigenvalues --    1.36627   1.37494   1.37667   1.38685   1.39534
 Alpha virt. eigenvalues --    1.39885   1.40702   1.41084   1.41877   1.43127
 Alpha virt. eigenvalues --    1.43561   1.44680   1.45055   1.46670   1.46788
 Alpha virt. eigenvalues --    1.47215   1.47751   1.48265   1.48621   1.49021
 Alpha virt. eigenvalues --    1.49381   1.49929   1.50443   1.50720   1.51380
 Alpha virt. eigenvalues --    1.51785   1.52156   1.52906   1.53534   1.54918
 Alpha virt. eigenvalues --    1.54979   1.55071   1.55592   1.56092   1.57246
 Alpha virt. eigenvalues --    1.57806   1.58184   1.58758   1.59016   1.59977
 Alpha virt. eigenvalues --    1.60203   1.60453   1.60953   1.61420   1.62211
 Alpha virt. eigenvalues --    1.62640   1.63305   1.63526   1.63933   1.64535
 Alpha virt. eigenvalues --    1.64759   1.65085   1.65541   1.65993   1.66101
 Alpha virt. eigenvalues --    1.66744   1.67368   1.67575   1.68191   1.68445
 Alpha virt. eigenvalues --    1.68726   1.69034   1.69598   1.70003   1.70695
 Alpha virt. eigenvalues --    1.71201   1.71715   1.71911   1.72225   1.72868
 Alpha virt. eigenvalues --    1.73937   1.74067   1.74774   1.75170   1.75509
 Alpha virt. eigenvalues --    1.75835   1.76356   1.76377   1.76950   1.77182
 Alpha virt. eigenvalues --    1.77438   1.77876   1.78355   1.78565   1.79172
 Alpha virt. eigenvalues --    1.79452   1.79737   1.79985   1.80397   1.80694
 Alpha virt. eigenvalues --    1.81044   1.81442   1.82257   1.82838   1.83100
 Alpha virt. eigenvalues --    1.83500   1.84115   1.84402   1.84956   1.85979
 Alpha virt. eigenvalues --    1.86121   1.86566   1.86674   1.86998   1.87147
 Alpha virt. eigenvalues --    1.87787   1.88097   1.88856   1.89068   1.89223
 Alpha virt. eigenvalues --    1.89874   1.90159   1.90835   1.91554   1.91856
 Alpha virt. eigenvalues --    1.91984   1.92087   1.92874   1.93984   1.94589
 Alpha virt. eigenvalues --    1.95189   1.95571   1.95782   1.95845   1.96319
 Alpha virt. eigenvalues --    1.97104   1.97165   1.97569   1.98129   1.98975
 Alpha virt. eigenvalues --    1.99093   1.99934   2.00096   2.00256   2.00901
 Alpha virt. eigenvalues --    2.02400   2.02872   2.03083   2.03304   2.03562
 Alpha virt. eigenvalues --    2.04023   2.04287   2.04742   2.05397   2.06248
 Alpha virt. eigenvalues --    2.06378   2.06902   2.07470   2.08273   2.08694
 Alpha virt. eigenvalues --    2.09922   2.10566   2.11279   2.11763   2.12070
 Alpha virt. eigenvalues --    2.12617   2.13168   2.13776   2.14146   2.14737
 Alpha virt. eigenvalues --    2.15647   2.16631   2.17453   2.17730   2.18632
 Alpha virt. eigenvalues --    2.19084   2.19334   2.20169   2.20621   2.21337
 Alpha virt. eigenvalues --    2.21634   2.22041   2.22441   2.23865   2.24104
 Alpha virt. eigenvalues --    2.24538   2.25326   2.26604   2.26959   2.27251
 Alpha virt. eigenvalues --    2.27694   2.29025   2.29402   2.30125   2.30889
 Alpha virt. eigenvalues --    2.31482   2.32487   2.33014   2.33754   2.34147
 Alpha virt. eigenvalues --    2.34460   2.34885   2.35767   2.36173   2.36366
 Alpha virt. eigenvalues --    2.36914   2.37093   2.37740   2.38408   2.39809
 Alpha virt. eigenvalues --    2.41054   2.41300   2.42790   2.43143   2.43955
 Alpha virt. eigenvalues --    2.44647   2.45188   2.45614   2.47101   2.47270
 Alpha virt. eigenvalues --    2.47810   2.49162   2.49515   2.50301   2.51287
 Alpha virt. eigenvalues --    2.52513   2.53577   2.53837   2.54181   2.54701
 Alpha virt. eigenvalues --    2.55944   2.55979   2.56714   2.58268   2.59140
 Alpha virt. eigenvalues --    2.59947   2.61117   2.61583   2.62684   2.63152
 Alpha virt. eigenvalues --    2.63833   2.63986   2.64633   2.65335   2.65409
 Alpha virt. eigenvalues --    2.66009   2.67217   2.67681   2.68283   2.68679
 Alpha virt. eigenvalues --    2.69616   2.70023   2.71013   2.71201   2.72446
 Alpha virt. eigenvalues --    2.73295   2.73539   2.74319   2.74754   2.75686
 Alpha virt. eigenvalues --    2.75943   2.76747   2.77196   2.78291   2.78533
 Alpha virt. eigenvalues --    2.79333   2.79870   2.80295   2.81154   2.81737
 Alpha virt. eigenvalues --    2.82657   2.83492   2.84380   2.85489   2.85918
 Alpha virt. eigenvalues --    2.86177   2.87178   2.87284   2.87725   2.88188
 Alpha virt. eigenvalues --    2.88242   2.89242   2.91085   2.91900   2.92188
 Alpha virt. eigenvalues --    2.92764   2.93129   2.94634   2.95434   2.95670
 Alpha virt. eigenvalues --    2.97451   2.98025   2.98428   2.98626   3.00657
 Alpha virt. eigenvalues --    3.01898   3.02712   3.04212   3.04676   3.05165
 Alpha virt. eigenvalues --    3.06022   3.06300   3.07327   3.08873   3.10407
 Alpha virt. eigenvalues --    3.10871   3.11169   3.13416   3.13518   3.13983
 Alpha virt. eigenvalues --    3.15285   3.16146   3.16755   3.17173   3.18063
 Alpha virt. eigenvalues --    3.20970   3.23521   3.24675   3.26914   3.30652
 Alpha virt. eigenvalues --    3.36390   3.41565   3.42594   3.45834   3.47140
 Alpha virt. eigenvalues --    3.48039   3.49404   3.50347   3.53223   3.58149
 Alpha virt. eigenvalues --    3.63546   3.63626   3.66243   3.67243   3.71771
 Alpha virt. eigenvalues --    3.75079
          Condensed to atoms (all electrons):
 Mulliken charges:
               1
     1  O   -0.265673
     2  O   -0.243426
     3  O   -0.126763
     4  O   -0.181386
     5  O   -0.239950
     6  O   -0.282842
     7  N   -0.078196
     8  N   -0.170513
     9  N   -0.066003
    10  N   -0.318558
    11  C   -0.062897
    12  C    0.010501
    13  C   -0.231463
    14  C    0.095429
    15  C   -0.090162
    16  C    0.131344
    17  C   -0.115386
    18  C   -0.188178
    19  C    0.135043
    20  C   -0.063283
    21  C    0.071475
    22  C    0.109152
    23  C   -0.011561
    24  C    0.159318
    25  C   -0.113396
    26  C    0.276549
    27  C    0.105036
    28  C    0.067887
    29  C   -0.124609
    30  C    0.066403
    31  C   -0.117802
    32  C    0.073370
    33  C   -0.170849
    34  C    0.114828
    35  C   -0.070339
    36  C   -0.178850
    37  C    0.136987
    38  C    0.034695
    39  C    0.149007
    40  C    0.104166
    41  C    0.178504
    42  C   -0.024473
    43  C   -0.088692
    44  H    0.142627
    45  H    0.053624
    46  H   -0.016383
    47  H   -0.000282
    48  H    0.053360
    49  H   -0.017358
    50  H    0.046852
    51  H    0.050303
    52  H    0.229426
    53  H    0.009731
    54  H   -0.044815
    55  H   -0.053427
    56  H    0.118947
    57  H    0.020308
    58  H    0.054670
    59  H    0.058471
    60  H    0.036430
    61  H    0.057345
    62  H    0.008783
    63  H    0.035256
    64  H   -0.056669
    65  H    0.002842
    66  H    0.024862
    67  H    0.015262
    68  H    0.039584
    69  H    0.061130
    70  H    0.032477
    71  H    0.027501
    72  H    0.018398
    73  H    0.018584
    74  H    0.041530
    75  H    0.049966
    76  H    0.035060
    77  H    0.030549
    78  H    0.031090
    79  H    0.021607
    80  H    0.192293
    81  H    0.175619
 Sum of Mulliken charges =  -0.00000
 Mulliken charges with hydrogens summed into heavy atoms:
               1
     1  O   -0.265673
     2  O   -0.051133
     3  O    0.048856
     4  O   -0.181386
     5  O   -0.239950
     6  O   -0.282842
     7  N    0.064431
     8  N    0.058913
     9  N    0.052944
    10  N   -0.318558
    11  C   -0.062897
    12  C    0.010501
    13  C   -0.231463
    14  C    0.095429
    15  C   -0.090162
    16  C    0.131344
    17  C   -0.061762
    18  C   -0.188178
    19  C    0.118378
    20  C   -0.009923
    21  C    0.071475
    22  C    0.109152
    23  C   -0.011561
    24  C    0.188812
    25  C   -0.063093
    26  C    0.188038
    27  C    0.105036
    28  C    0.142864
    29  C   -0.029708
    30  C    0.167787
    31  C   -0.174471
    32  C    0.116337
    33  C   -0.131265
    34  C    0.114828
    35  C   -0.070339
    36  C   -0.178850
    37  C    0.136987
    38  C    0.155804
    39  C    0.149007
    40  C    0.141147
    41  C    0.178504
    42  C    0.102083
    43  C   -0.005446
 Electronic spatial extent (au):  <R**2>=          30225.4793
 Charge=             -0.0000 electrons
 Dipole moment (field-independent basis, Debye):
    X=              2.9686    Y=             -1.7072    Z=              0.6292  Tot=              3.4818
 Quadrupole moment (field-independent basis, Debye-Ang):
   XX=           -248.0508   YY=           -249.0719   ZZ=           -252.2356
   XY=            -13.3409   XZ=             21.1022   YZ=             15.3233
 Traceless Quadrupole moment (field-independent basis, Debye-Ang):
   XX=              1.7353   YY=              0.7142   ZZ=             -2.4495
   XY=            -13.3409   XZ=             21.1022   YZ=             15.3233
 Octapole moment (field-independent basis, Debye-Ang**2):
  XXX=             -8.8570  YYY=             56.8239  ZZZ=             21.0462  XYY=            186.2796
  XXY=            -51.5949  XXZ=            174.8873  XZZ=             74.0189  YZZ=            -35.4616
  YYZ=            -56.8858  XYZ=            -58.5752
 Hexadecapole moment (field-independent basis, Debye-Ang**3):
 XXXX=         -21430.7003 YYYY=         -16015.8459 ZZZZ=          -1737.7427 XXXY=           -574.1170
 XXXZ=           1303.2524 YYYX=           -804.1583 YYYZ=            483.2871 ZZZX=            142.2062
 ZZZY=            -53.3340 XXYY=          -6623.3327 XXZZ=          -3805.8414 YYZZ=          -3042.7629
 XXYZ=           -163.1682 YYXZ=            290.0578 ZZXY=           -204.4476
 N-N= 5.054810390631D+03 E-N=-1.464032240824D+04  KE= 1.928135075224D+03
 1\1\GINC-RYZEN-SSD1\SP\RB3LYP TD-FC\SVP\C33H38N4O6\PADAWAN\04-Jul-2019
 \0\\# td=(NStates=1) B3LYP/SVP\\TD\\0,1\O,0,-4.3517852993,-4.723342415
 4,1.9193973033\O,0,2.9390645046,-4.6844229915,1.4024081726\O,0,7.03218
 35998,-1.5694644875,1.8658268032\O,0,3.7202337562,-3.0606951947,0.0254
 954079\O,0,7.617270479,-0.5802794072,-0.0987394432\O,0,-3.0960399328,2
 .4814555431,-0.4295978644\N,0,-0.2695113328,-0.527522102,-0.797788415\
 N,0,1.5779054732,1.7847508539,-0.4288645486\N,0,-3.3797749205,-3.06410
 54573,0.5750259739\N,0,-0.7474461475,2.7916995882,-0.2489899229\C,0,0.
 6226434967,-2.4542708654,-1.3837804611\C,0,0.9907280066,-1.1273326844,
 -0.9061631716\C,0,-0.6795922843,-2.5144253319,-1.3128914885\C,0,-1.314
 7335796,-1.3379374356,-0.8254040063\C,0,3.8164995913,1.4032148068,-0.3
 98176034\C,0,2.6157622692,0.8146727991,-0.6756191205\C,0,2.1831653208,
 -0.463322478,-0.9458968347\C,0,3.5558594228,2.7255005583,0.1523844655\
 C,0,1.4838895415,-3.5161468805,-1.8625864596\C,0,-5.5296523004,-2.6126
 831779,1.3837383138\C,0,-3.6037724401,-1.7333884008,0.160989884\C,0,2.
 1210163618,2.8882452527,-0.0703945165\C,0,-5.0377399703,-1.52306781,0.
 4084094798\C,0,5.106789157,0.7267023402,-0.433266383\C,0,-2.6234333055
 ,-0.8802647981,-0.5235727717\C,0,-1.5342613638,-3.7504995523,-1.693112
 555\C,0,-4.3336508319,-3.5743959453,1.3868778024\C,0,1.8761980958,-4.5
 992221419,-0.789521808\C,0,5.3492247988,-0.1948955535,0.7338214882\C,0
 ,4.5991757038,3.7310043317,0.4315953433\C,0,1.3074119826,4.0136757751,
 0.3242225418\C,0,-6.9130724378,-3.1951368935,1.2755470208\C,0,-5.89138
 77413,-0.6373984697,-0.2153130057\C,0,-0.0756325523,3.9157662482,0.141
 8328089\C,0,-0.9573166934,5.0806391569,0.6037650051\C,0,-2.2683121574,
 4.6198981126,0.3661280157\C,0,2.9821410554,-3.9889755167,0.1732887279\
 C,0,-5.5639110519,0.3801532439,-1.2547565427\C,0,6.853357902,-0.775305
 8147,0.8441875414\C,0,-3.6604718065,5.1868649847,0.4489857137\C,0,-2.0
 761010464,3.1543476261,-0.1200110763\C,0,-0.5517393114,6.3901228803,1.
 1462197118\C,0,-4.0136799049,5.8928076857,-0.9784686226\H,0,-0.3470022
 651,0.4292886345,-0.3438549388\H,0,2.995243539,-1.2579677989,-1.384437
 9524\H,0,2.2184530962,-2.9932040273,-2.3524476795\H,0,1.0213189112,-4.
 0659885165,-2.7122135879\H,0,-5.5103128375,-2.1941278019,2.4767098315\
 H,0,5.0301233225,0.1448692034,-1.2854316962\H,0,6.0262345891,1.5334676
 561,-0.4639876984\H,0,-2.8787659723,0.2151860148,-0.612404146\H,0,0.40
 23065624,1.6380949925,-0.6491743895\H,0,-1.419667558,-4.6421063148,-1.
 1273835441\H,0,-2.3800516349,-3.3957072727,-1.9466039806\H,0,-1.266136
 5648,-4.1486630407,-2.5825818612\H,0,-2.5243361914,-3.5394400924,0.568
 9141384\H,0,1.0898647932,-4.9388263651,-0.2012438419\H,0,2.3654657324,
 -5.4938420927,-1.2577402879\H,0,4.7206864896,-1.1354095921,0.805001086
 3\H,0,4.9160658062,0.4191263492,1.7190663773\H,0,4.5265101713,4.513101
 7776,-0.4495449372\H,0,5.5134479676,3.0998527045,0.3939159148\H,0,4.50
 75001674,4.1675622643,1.4897502789\H,0,1.7161874507,4.8974196716,0.715
 681355\H,0,-7.7249652681,-2.6576617607,1.6693016242\H,0,-7.0883044747,
 -4.1541231782,1.8205344213\H,0,-7.0260907931,-3.472855049,0.1987714663
 \H,0,-7.0639937411,-0.5954598773,0.1054924771\H,0,-4.8342782696,1.0998
 541823,-1.0386877169\H,0,-6.6738892186,0.893837012,-1.4133580143\H,0,-
 5.0965281483,-0.1006632201,-2.1312243351\H,0,-3.6231221915,6.158288484
 6,1.127490453\H,0,-4.2612338009,4.3552646587,0.6843205699\H,0,0.222236
 789,6.1232742873,2.1328560181\H,0,-1.3298743707,7.2188085764,1.5393331
 897\H,0,0.0733265203,6.961814682,0.4220885431\H,0,-3.2312034161,6.4878
 546686,-1.5021280289\H,0,-5.1201838415,6.2895116922,-1.2123863803\H,0,
 -4.0926937905,4.9162931216,-1.6020399424\H,0,3.6478100875,-4.316025832
 8,1.9888475218\H,0,7.9425615009,-1.666387291,2.0972898916\\Version=ES6
 4L-G16RevA.03\State=1-A\HF=-1949.0701237\RMSD=4.753e-09\PG=C01 [X(C33H
 38N4O6)]\\@


 ONLY A FOOL KNOWS EVERYTHING.

               -- THE CHEMIST ANALYST, SEPTEMBER 1946
 Job cpu time:       0 days 17 hours  7 minutes 30.5 seconds.
 Elapsed time:       0 days  4 hours 18 minutes  3.7 seconds.
 File lengths (MBytes):  RWF=   2591 Int=      0 D2E=      0 Chk=     65 Scr=      1
 Normal termination of Gaussian 16 at Thu Jul  4 15:11:30 2019.
