 Entering Gaussian System, Link 0=g16
 Input=Geometria-156-.com
 Output=Geometria-156-.log
 Initial command:
 /usr/local/g16/l1.exe "/home/padawan/israel-mol/phycocyanobilin/spectra/abs/Gau-49179.inp" -scrdir="/home/padawan/israel-mol/phycocyanobilin/spectra/abs/"
 Entering Link 1 = /usr/local/g16/l1.exe PID=     49181.
  
 Copyright (c) 1988,1990,1992,1993,1995,1998,2003,2009,2016,
            Gaussian, Inc.  All Rights Reserved.
  
 This is part of the Gaussian(R) 16 program.  It is based on
 the Gaussian(R) 09 system (copyright 2009, Gaussian, Inc.),
 the Gaussian(R) 03 system (copyright 2003, Gaussian, Inc.),
 the Gaussian(R) 98 system (copyright 1998, Gaussian, Inc.),
 the Gaussian(R) 94 system (copyright 1995, Gaussian, Inc.),
 the Gaussian 92(TM) system (copyright 1992, Gaussian, Inc.),
 the Gaussian 90(TM) system (copyright 1990, Gaussian, Inc.),
 the Gaussian 88(TM) system (copyright 1988, Gaussian, Inc.),
 the Gaussian 86(TM) system (copyright 1986, Carnegie Mellon
 University), and the Gaussian 82(TM) system (copyright 1983,
 Carnegie Mellon University). Gaussian is a federally registered
 trademark of Gaussian, Inc.
  
 This software contains proprietary and confidential information,
 including trade secrets, belonging to Gaussian, Inc.
  
 This software is provided under written license and may be
 used, copied, transmitted, or stored only in accord with that
 written license.
  
 The following legend is applicable only to US Government
 contracts under FAR:
  
                    RESTRICTED RIGHTS LEGEND
  
 Use, reproduction and disclosure by the US Government is
 subject to restrictions as set forth in subparagraphs (a)
 and (c) of the Commercial Computer Software - Restricted
 Rights clause in FAR 52.227-19.
  
 Gaussian, Inc.
 340 Quinnipiac St., Bldg. 40, Wallingford CT 06492
  
  
 ---------------------------------------------------------------
 Warning -- This program may not be used in any manner that
 competes with the business of Gaussian, Inc. or will provide
 assistance to any competitor of Gaussian, Inc.  The licensee
 of this program is prohibited from giving any competitor of
 Gaussian, Inc. access to this program.  By using this program,
 the user acknowledges that Gaussian, Inc. is engaged in the
 business of creating and licensing software in the field of
 computational chemistry and represents and warrants to the
 licensee that it is not a competitor of Gaussian, Inc. and that
 it will not use this program in any manner prohibited above.
 ---------------------------------------------------------------
  

 Cite this work as:
 Gaussian 16, Revision A.03,
 M. J. Frisch, G. W. Trucks, H. B. Schlegel, G. E. Scuseria, 
 M. A. Robb, J. R. Cheeseman, G. Scalmani, V. Barone, 
 G. A. Petersson, H. Nakatsuji, X. Li, M. Caricato, A. V. Marenich, 
 J. Bloino, B. G. Janesko, R. Gomperts, B. Mennucci, H. P. Hratchian, 
 J. V. Ortiz, A. F. Izmaylov, J. L. Sonnenberg, D. Williams-Young, 
 F. Ding, F. Lipparini, F. Egidi, J. Goings, B. Peng, A. Petrone, 
 T. Henderson, D. Ranasinghe, V. G. Zakrzewski, J. Gao, N. Rega, 
 G. Zheng, W. Liang, M. Hada, M. Ehara, K. Toyota, R. Fukuda, 
 J. Hasegawa, M. Ishida, T. Nakajima, Y. Honda, O. Kitao, H. Nakai, 
 T. Vreven, K. Throssell, J. A. Montgomery, Jr., J. E. Peralta, 
 F. Ogliaro, M. J. Bearpark, J. J. Heyd, E. N. Brothers, K. N. Kudin, 
 V. N. Staroverov, T. A. Keith, R. Kobayashi, J. Normand, 
 K. Raghavachari, A. P. Rendell, J. C. Burant, S. S. Iyengar, 
 J. Tomasi, M. Cossi, J. M. Millam, M. Klene, C. Adamo, R. Cammi, 
 J. W. Ochterski, R. L. Martin, K. Morokuma, O. Farkas, 
 J. B. Foresman, and D. J. Fox, Gaussian, Inc., Wallingford CT, 2016.
 
 ******************************************
 Gaussian 16:  ES64L-G16RevA.03 25-Dec-2016
                30-Jun-2019 
 ******************************************
 %nproc=4
 Will use up to    4 processors via shared memory.
 %Mem=4GB
 --------------------------
 # td=(NStates=1) B3LYP/SVP
 --------------------------
 1/38=1,172=1/1;
 2/12=2,17=6,18=5,40=1/2;
 3/5=18,7=101,11=9,25=1,30=1,74=-5/1,2,3,8;
 4//1;
 5/5=2,38=5/2;
 8/6=1,10=1,108=1/1;
 9/41=1,42=1,70=2/14;
 6/7=2,8=2,9=2,10=2/1;
 99/5=1,9=1/99;
 --
 TD
 --
 Symbolic Z-matrix:
 Charge =  0 Multiplicity = 1
 8                    -4.56638  -4.66539   1.88049 
 8                     2.65288  -4.89655   1.36549 
 8                     7.16592  -1.4339    1.86685 
 8                     3.49342  -3.15557   0.30133 
 8                     7.69131  -0.52566  -0.16325 
 8                    -3.01595   2.44465  -0.29209 
 7                    -0.22494  -0.64834  -0.59138 
 7                     1.52483   1.84115  -0.39372 
 7                    -3.39705  -3.0797    0.62356 
 7                    -0.72154   2.90723  -0.12393 
 6                     0.67407  -2.51445  -1.40239 
 6                     0.96584  -1.17849  -0.94365 
 6                    -0.73551  -2.70417  -1.16789 
 6                    -1.2302   -1.51413  -0.66755 
 6                     3.74602   1.48634  -0.34946 
 6                     2.51451   0.79438  -0.64981 
 6                     2.22211  -0.50053  -0.91261 
 6                     3.54266   2.75011  -0.00357 
 6                     1.68258  -3.45712  -1.97638 
 6                    -5.52406  -2.51777   1.3486 
 6                    -3.62609  -1.85601   0.07012 
 6                     2.19939   2.94947  -0.12211 
 6                    -4.98952  -1.48193   0.34862 
 6                     5.0611    0.77999  -0.48683 
 6                    -2.601    -1.09985  -0.45508 
 6                    -1.5019   -3.74697  -1.79871 
 6                    -4.51032  -3.63995   1.38655 
 6                     2.06259  -4.58664  -0.98994 
 6                     5.50965  -0.09354   0.73201 
 6                     4.67903   3.75029   0.354 
 6                     1.37164   4.08566   0.25429 
 6                    -6.93142  -3.17575   1.05635 
 6                    -5.78615  -0.585    -0.31255 
 6                    -0.06129   4.01519   0.31421 
 6                    -0.96573   5.16087   0.4738 
 6                    -2.24011   4.69119   0.36784 
 6                     2.77254  -4.11985   0.27673 
 6                    -5.42196   0.40743  -1.30029 
 6                     6.91235  -0.67474   0.75318 
 6                    -3.55002   5.41736   0.56177 
 6                    -2.13549   3.15115   0.00518 
 6                    -0.47579   6.54249   0.85502 
 6                    -4.41944   5.51312  -0.68318 
 1                    -0.51571   0.32043  -0.16382 
 1                     3.28273  -1.03078  -0.9677 
 1                     2.60163  -2.71575  -2.28459 
 1                     1.15634  -4.0624   -2.86507 
 1                    -5.55989  -1.90389   2.23363 
 1                     4.92162   0.01741  -1.43476 
 1                     5.88458   1.28232  -0.67007 
 1                    -2.9373   -0.05717  -0.65722 
 1                     0.45042   1.79872  -0.5546 
 1                    -1.63409  -4.58294  -1.04924 
 1                    -2.62619  -3.45937  -1.99876 
 1                    -1.04537  -4.12936  -2.66526 
 1                    -2.72369  -3.71873   0.62168 
 1                     0.98321  -4.93129  -0.68649 
 1                     2.7382   -5.24258  -1.6448 
 1                     4.79338  -1.01227   0.79398 
 1                     5.44982   0.50838   1.5634 
 1                     4.54754   4.39892  -0.38888 
 1                     5.67477   3.37582   0.33011 
 1                     4.46279   4.36493   1.19179 
 1                     1.93653   5.02168   0.39872 
 1                    -7.65964  -2.28807   1.49268 
 1                    -7.08472  -4.04556   1.80149 
 1                    -7.12745  -3.50803   0.06007 
 1                    -6.90808  -0.55458   0.09841 
 1                    -4.89266   1.27206  -0.89193 
 1                    -6.2898    0.72984  -1.82318 
 1                    -4.92623  -0.00272  -2.22856 
 1                    -3.20459   6.24618   1.07471 
 1                    -3.92385   4.59323   1.21001 
 1                     0.02541   6.48944   1.81185 
 1                    -1.26576   7.45271   1.09055 
 1                     0.25684   6.97688   0.1616 
 1                    -3.52333   6.02336  -1.34794 
 1                    -5.32061   6.24422  -0.66769 
 1                    -4.76864   4.50531  -1.18836 
 1                     3.04703  -4.33522   2.09532 
 1                     8.14706  -1.68392   1.8354 
 
 Stoichiometry    C33H38N4O6
 Framework group  C1[X(C33H38N4O6)]
 Deg. of freedom   237
 Full point group                 C1      NOp   1
 Largest Abelian subgroup         C1      NOp   1
 Largest concise Abelian subgroup C1      NOp   1
                         Standard orientation:                         
 ---------------------------------------------------------------------
 Center     Atomic      Atomic             Coordinates (Angstroms)
 Number     Number       Type             X           Y           Z
 ---------------------------------------------------------------------
      1          8           0        4.685253   -4.537831   -1.895657
      2          8           0       -2.525910   -4.958508   -1.387289
      3          8           0       -7.127089   -1.612471   -1.879279
      4          8           0       -3.412175   -3.243981   -0.317289
      5          8           0       -7.677335   -0.725842    0.153780
      6          8           0        2.948998    2.521280    0.302292
      7          7           0        0.239122   -0.644323    0.587768
      8          7           0       -1.574631    1.799571    0.398034
      9          7           0        3.474216   -2.987812   -0.633731
     10          7           0        0.643458    2.924693    0.134026
     11          6           0       -0.611636   -2.536201    1.391074
     12          6           0       -0.937713   -1.206561    0.937099
     13          6           0        0.802560   -2.688341    1.156985
     14          6           0        1.266494   -1.483962    0.661499
     15          6           0       -3.785818    1.387321    0.350674
     16          6           0       -2.536946    0.726478    0.649410
     17          6           0       -2.211164   -0.561371    0.907601
     18          6           0       -3.615133    2.657242    0.009679
     19          6           0       -1.595702   -3.506924    1.960721
     20          6           0        5.586412   -2.368067   -1.354969
     21          6           0        3.670988   -1.760677   -0.075532
     22          6           0       -2.277589    2.891001    0.130035
     23          6           0        5.024418   -1.350241   -0.351544
     24          6           0       -5.082189    0.646509    0.484350
     25          6           0        2.626216   -1.033395    0.451673
     26          6           0        1.595358   -3.713229    1.784515
     27          6           0        4.602210   -3.516066   -1.397921
     28          6           0       -1.945527   -4.642220    0.969761
     29          6           0       -5.507022   -0.233786   -0.738112
     30          6           0       -4.776874    3.628878   -0.345050
     31          6           0       -1.479386    4.049733   -0.241443
     32          6           0        7.010198   -2.990339   -1.064051
     33          6           0        5.797000   -0.435401    0.313620
     34          6           0       -0.045067    4.016753   -0.300488
     35          6           0        0.829392    5.186148   -0.455068
     36          6           0        2.115479    4.749355   -0.349846
     37          6           0       -2.666488   -4.189277   -0.295720
     38          6           0        5.406442    0.543503    1.304776
     39          6           0       -6.894127   -0.851167   -0.762574
     40          6           0        3.406206    5.510055   -0.540010
     41          6           0        2.050673    3.205764    0.006960
     42          6           0        0.303973    6.555992   -0.831503
     43          6           0        4.271970    5.623699    0.705980
     44          1           0        0.504911    0.333282    0.164068
     45          1           0       -3.257683   -1.119213    0.959852
     46          1           0       -2.533932   -2.790854    2.270974
     47          1           0       -1.054531   -4.101658    2.847560
     48          1           0        5.606887   -1.750132   -2.237657
     49          1           0       -4.923594   -0.115750    1.429525
     50          1           0       -5.918574    1.126576    0.668808
     51          1           0        2.935156    0.016902    0.657986
     52          1           0       -0.499596    1.784482    0.559616
     53          1           0        1.749761   -4.542656    1.032019
     54          1           0        2.711649   -3.397262    1.986533
     55          1           0        1.148322   -4.110616    2.649260
     56          1           0        2.817694   -3.644133   -0.634779
     57          1           0       -0.857348   -4.957548    0.665885
     58          1           0       -2.604322   -5.317956    1.621619
     59          1           0       -4.767070   -1.133350   -0.802948
     60          1           0       -5.462275    0.372601   -1.567195
     61          1           0       -4.662810    4.277911    0.400354
     62          1           0       -5.762560    3.228569   -0.323359
     63          1           0       -4.576091    4.252085   -1.180363
     64          1           0       -2.068317    4.971290   -0.382824
     65          1           0        7.715396   -2.082395   -1.496483
     66          1           0        7.186580   -3.853058   -1.812326
     67          1           0        7.214099   -3.321151   -0.068868
     68          1           0        6.918049   -0.374275   -0.096332
     69          1           0        4.855137    1.395619    0.899235
     70          1           0        6.265245    0.886397    1.829559
     71          1           0        4.920896    0.117117    2.231111
     72          1           0        3.039705    6.331540   -1.050117
     73          1           0        3.801787    4.698366   -1.191038
     74          1           0       -0.195007    6.493536   -1.788928
     75          1           0        1.070175    7.487322   -1.062992
     76          1           0       -0.440194    6.968577   -0.137049
     77          1           0        3.362435    6.107967    1.371933
     78          1           0        5.153843    6.378027    0.693949
     79          1           0        4.646897    4.623415    1.207662
     80          1           0       -2.934012   -4.404864   -2.115321
     81          1           0       -8.101424   -1.888024   -1.849555
 ---------------------------------------------------------------------
 Rotational constants (GHZ):           0.0764705           0.0542700           0.0340151
 Standard basis: SVP (5D, 7F)
 There are   835 symmetry adapted cartesian basis functions of A   symmetry.
 There are   792 symmetry adapted basis functions of A   symmetry.
   792 basis functions,  1341 primitive gaussians,   835 cartesian basis functions
   156 alpha electrons      156 beta electrons
       nuclear repulsion energy      5044.3243936441 Hartrees.
 NAtoms=   81 NActive=   81 NUniq=   81 SFac= 1.00D+00 NAtFMM=   60 NAOKFM=T Big=T
 Integral buffers will be    131072 words long.
 Regular integral format.
 Two-electron integral symmetry is turned on.
 One-electron integrals computed using PRISM.
 NBasis=   792 RedAO= T EigKep=  3.19D-04  NBF=   792
 NBsUse=   792 1.00D-06 EigRej= -1.00D+00 NBFU=   792
 ExpMin= 1.22D-01 ExpMax= 2.27D+03 ExpMxC= 3.41D+02 IAcc=3 IRadAn=         5 AccDes= 0.00D+00
 Harris functional with IExCor=  402 and IRadAn=       5 diagonalized for initial guess.
 HarFok:  IExCor=  402 AccDes= 0.00D+00 IRadAn=         5 IDoV= 1 UseB2=F ITyADJ=14
 ICtDFT=  3500011 ScaDFX=  1.000000  1.000000  1.000000  1.000000
 FoFCou: FMM=F IPFlag=           0 FMFlag=      100000 FMFlg1=        2001
         NFxFlg=           0 DoJE=T BraDBF=F KetDBF=T FulRan=T
         wScrn=  0.000000 ICntrl=       500 IOpCl=  0 I1Cent=   200000004 NGrid=           0
         NMat0=    1 NMatS0=      1 NMatT0=    0 NMatD0=    1 NMtDS0=    0 NMtDT0=    0
 Petite list used in FoFCou.
 Requested convergence on RMS density matrix=1.00D-08 within 128 cycles.
 Requested convergence on MAX density matrix=1.00D-06.
 Requested convergence on             energy=1.00D-06.
 No special actions if energy rises.
 Integral accuracy reduced to 1.0D-05 until final iterations.
 Initial convergence to 1.0D-05 achieved.  Increase integral accuracy.
 SCF Done:  E(RB3LYP) =  -1949.11406575     A.U. after   16 cycles
            NFock= 16  Conv=0.29D-08     -V/T= 2.0104
 DoSCS=F DFT=T ScalE2(SS,OS)=  1.000000  1.000000
 ExpMin= 1.22D-01 ExpMax= 2.27D+03 ExpMxC= 3.41D+02 IAcc=3 IRadAn=         5 AccDes= 0.00D+00
 HarFok:  IExCor=  205 AccDes= 0.00D+00 IRadAn=         5 IDoV=-2 UseB2=F ITyADJ=14
 ICtDFT= 12500011 ScaDFX=  1.000000  1.000000  1.000000  1.000000
 GSVD:  LWork=       -2193 too small for GESVD, short by        9890 words or        9890 for optimal perf.
 Range of M.O.s used for correlation:    44   792
 NBasis=   792 NAE=   156 NBE=   156 NFC=    43 NFV=     0
 NROrb=    749 NOA=   113 NOB=   113 NVA=   636 NVB=   636

 **** Warning!!: The smallest alpha delta epsilon is  0.80474606D-01

 Orbital symmetries:
       Occupied  (A) (A) (A) (A) (A) (A) (A) (A) (A) (A) (A) (A)
                 (A) (A) (A) (A) (A) (A) (A) (A) (A) (A) (A) (A)
                 (A) (A) (A) (A) (A) (A) (A) (A) (A) (A) (A) (A)
                 (A) (A) (A) (A) (A) (A) (A) (A) (A) (A) (A) (A)
                 (A) (A) (A) (A) (A) (A) (A) (A) (A) (A) (A) (A)
                 (A) (A) (A) (A) (A) (A) (A) (A) (A) (A) (A) (A)
                 (A) (A) (A) (A) (A) (A) (A) (A) (A) (A) (A) (A)
                 (A) (A) (A) (A) (A) (A) (A) (A) (A) (A) (A) (A)
                 (A) (A) (A) (A) (A) (A) (A) (A) (A) (A) (A) (A)
                 (A) (A) (A) (A) (A) (A) (A) (A) (A) (A) (A) (A)
                 (A) (A) (A) (A) (A) (A) (A) (A) (A) (A) (A) (A)
                 (A) (A) (A) (A) (A) (A) (A) (A) (A) (A) (A) (A)
                 (A) (A) (A) (A) (A) (A) (A) (A) (A) (A) (A) (A)
       Virtual   (A) (A) (A) (A) (A) (A) (A) (A) (A) (A) (A) (A)
                 (A) (A) (A) (A) (A) (A) (A) (A) (A) (A) (A) (A)
                 (A) (A) (A) (A) (A) (A) (A) (A) (A) (A) (A) (A)
                 (A) (A) (A) (A) (A) (A) (A) (A) (A) (A) (A) (A)
                 (A) (A) (A) (A) (A) (A) (A) (A) (A) (A) (A) (A)
                 (A) (A) (A) (A) (A) (A) (A) (A) (A) (A) (A) (A)
                 (A) (A) (A) (A) (A) (A) (A) (A) (A) (A) (A) (A)
                 (A) (A) (A) (A) (A) (A) (A) (A) (A) (A) (A) (A)
                 (A) (A) (A) (A) (A) (A) (A) (A) (A) (A) (A) (A)
                 (A) (A) (A) (A) (A) (A) (A) (A) (A) (A) (A) (A)
                 (A) (A) (A) (A) (A) (A) (A) (A) (A) (A) (A) (A)
                 (A) (A) (A) (A) (A) (A) (A) (A) (A) (A) (A) (A)
                 (A) (A) (A) (A) (A) (A) (A) (A) (A) (A) (A) (A)
                 (A) (A) (A) (A) (A) (A) (A) (A) (A) (A) (A) (A)
                 (A) (A) (A) (A) (A) (A) (A) (A) (A) (A) (A) (A)
                 (A) (A) (A) (A) (A) (A) (A) (A) (A) (A) (A) (A)
                 (A) (A) (A) (A) (A) (A) (A) (A) (A) (A) (A) (A)
                 (A) (A) (A) (A) (A) (A) (A) (A) (A) (A) (A) (A)
                 (A) (A) (A) (A) (A) (A) (A) (A) (A) (A) (A) (A)
                 (A) (A) (A) (A) (A) (A) (A) (A) (A) (A) (A) (A)
                 (A) (A) (A) (A) (A) (A) (A) (A) (A) (A) (A) (A)
                 (A) (A) (A) (A) (A) (A) (A) (A) (A) (A) (A) (A)
                 (A) (A) (A) (A) (A) (A) (A) (A) (A) (A) (A) (A)
                 (A) (A) (A) (A) (A) (A) (A) (A) (A) (A) (A) (A)
                 (A) (A) (A) (A) (A) (A) (A) (A) (A) (A) (A) (A)
                 (A) (A) (A) (A) (A) (A) (A) (A) (A) (A) (A) (A)
                 (A) (A) (A) (A) (A) (A) (A) (A) (A) (A) (A) (A)
                 (A) (A) (A) (A) (A) (A) (A) (A) (A) (A) (A) (A)
                 (A) (A) (A) (A) (A) (A) (A) (A) (A) (A) (A) (A)
                 (A) (A) (A) (A) (A) (A) (A) (A) (A) (A) (A) (A)
                 (A) (A) (A) (A) (A) (A) (A) (A) (A) (A) (A) (A)
                 (A) (A) (A) (A) (A) (A) (A) (A) (A) (A) (A) (A)
                 (A) (A) (A) (A) (A) (A) (A) (A) (A) (A) (A) (A)
                 (A) (A) (A) (A) (A) (A) (A) (A) (A) (A) (A) (A)
                 (A) (A) (A) (A) (A) (A) (A) (A) (A) (A) (A) (A)
                 (A) (A) (A) (A) (A) (A) (A) (A) (A) (A) (A) (A)
                 (A) (A) (A) (A) (A) (A) (A) (A) (A) (A) (A) (A)
                 (A) (A) (A) (A) (A) (A) (A) (A) (A) (A) (A) (A)
                 (A) (A) (A) (A) (A) (A) (A) (A) (A) (A) (A) (A)
                 (A) (A) (A) (A) (A) (A) (A) (A) (A) (A) (A) (A)
                 (A) (A) (A) (A) (A) (A) (A) (A) (A) (A) (A) (A)
                 (A) (A) (A) (A) (A) (A) (A) (A) (A) (A) (A) (A)
                 (A) (A) (A) (A) (A) (A) (A) (A) (A) (A) (A) (A)
                 (A) (A) (A) (A) (A) (A) (A) (A) (A) (A) (A) (A)
                 (A) (A) (A) (A) (A) (A) (A) (A) (A) (A) (A) (A)
                 (A) (A) (A) (A) (A) (A) (A) (A) (A) (A) (A) (A)
                 (A) (A) (A) (A) (A) (A) (A) (A) (A) (A) (A) (A)
                 (A) (A) (A) (A) (A) (A) (A) (A) (A) (A) (A) (A)
                 (A) (A) (A) (A) (A) (A) (A) (A) (A) (A) (A) (A)
                 (A) (A) (A) (A) (A) (A) (A) (A) (A) (A) (A) (A)
                 (A) (A) (A) (A) (A) (A) (A) (A) (A) (A) (A) (A)
                 (A) (A) (A) (A) (A) (A) (A) (A) (A) (A) (A) (A)
                 (A) (A) (A) (A) (A) (A) (A) (A) (A) (A) (A) (A)
     4 initial guesses have been made.
 Convergence on wavefunction:    0.001000000000000
 Iteration     1 Dimension     4 NMult     0 NNew      4
 CISAX will form     4 AO SS matrices at one time.
 Iteration     2 Dimension     6 NMult     4 NNew      2
 Iteration     3 Dimension     8 NMult     6 NNew      2
 Iteration     4 Dimension    10 NMult     8 NNew      2
 Iteration     5 Dimension    12 NMult    10 NNew      2
 Iteration     6 Dimension    14 NMult    12 NNew      2
 ***********************************************************************
 Excited states from <AA,BB:AA,BB> singles matrix:
 ***********************************************************************
 
 Ground to excited state transition densities written to RWF  633
 Ground to excited state transition electric dipole moments (Au):
       state          X           Y           Z        Dip. S.      Osc.
         1        -0.9740      2.5777     -0.2271      7.6447      0.3716
 Ground to excited state transition velocity dipole moments (Au):
       state          X           Y           Z        Dip. S.      Osc.
         1         0.0724     -0.1806      0.0162      0.0381      0.3486
 Ground to excited state transition magnetic dipole moments (Au):
       state          X           Y           Z
         1         0.3465      0.5808      2.2821
 Ground to excited state transition velocity quadrupole moments (Au):
       state          XX          YY          ZZ          XY          XZ          YZ
         1         0.4962     -0.6282      0.0853     -0.4366     -0.0401      0.0165
 <0|del|b> * <b|rxdel|0> + <0|del|b> * <b|delr+rdel|0>
 Rotatory Strengths (R) in cgs (10**-40 erg-esu-cm/Gauss)
       state          XX          YY          ZZ    R(velocity)    E-M Angle
         1      -399.0777    340.9016   -357.7191   -138.6317       95.29
 1/2[<0|r|b>*<b|rxdel|0> + (<0|rxdel|b>*<b|r|0>)*]
 Rotatory Strengths (R) in cgs (10**-40 erg-esu-cm/Gauss)
       state          XX          YY          ZZ     R(length)
         1       238.6673  -1058.7972    366.4483   -151.2272
  1/2[<0|del|b>*<b|r|0> + (<0|r|b>*<b|del|0>)*] (Au)
       state          X           Y           Z        Dip. S.   Osc.(frdel)
         1        -0.0705     -0.4656     -0.0037      0.5398      0.3598

 Excitation energies and oscillator strengths:
 
 Excited State   1:      Singlet-A      1.9838 eV  624.97 nm  f=0.3716  <S**2>=0.000
     156 ->157         0.70722
 This state for optimization and/or second-order correction.
 Total Energy, E(TD-HF/TD-DFT) =  -1949.04116132    
 Copying the excited state density for this state as the 1-particle RhoCI density.
 SavETr:  write IOETrn=   770 NScale= 10 NData=  16 NLR=1 NState=    1 LETran=      28.

 **********************************************************************

            Population analysis using the SCF density.

 **********************************************************************

 Orbital symmetries:
       Occupied  (A) (A) (A) (A) (A) (A) (A) (A) (A) (A) (A) (A)
                 (A) (A) (A) (A) (A) (A) (A) (A) (A) (A) (A) (A)
                 (A) (A) (A) (A) (A) (A) (A) (A) (A) (A) (A) (A)
                 (A) (A) (A) (A) (A) (A) (A) (A) (A) (A) (A) (A)
                 (A) (A) (A) (A) (A) (A) (A) (A) (A) (A) (A) (A)
                 (A) (A) (A) (A) (A) (A) (A) (A) (A) (A) (A) (A)
                 (A) (A) (A) (A) (A) (A) (A) (A) (A) (A) (A) (A)
                 (A) (A) (A) (A) (A) (A) (A) (A) (A) (A) (A) (A)
                 (A) (A) (A) (A) (A) (A) (A) (A) (A) (A) (A) (A)
                 (A) (A) (A) (A) (A) (A) (A) (A) (A) (A) (A) (A)
                 (A) (A) (A) (A) (A) (A) (A) (A) (A) (A) (A) (A)
                 (A) (A) (A) (A) (A) (A) (A) (A) (A) (A) (A) (A)
                 (A) (A) (A) (A) (A) (A) (A) (A) (A) (A) (A) (A)
       Virtual   (A) (A) (A) (A) (A) (A) (A) (A) (A) (A) (A) (A)
                 (A) (A) (A) (A) (A) (A) (A) (A) (A) (A) (A) (A)
                 (A) (A) (A) (A) (A) (A) (A) (A) (A) (A) (A) (A)
                 (A) (A) (A) (A) (A) (A) (A) (A) (A) (A) (A) (A)
                 (A) (A) (A) (A) (A) (A) (A) (A) (A) (A) (A) (A)
                 (A) (A) (A) (A) (A) (A) (A) (A) (A) (A) (A) (A)
                 (A) (A) (A) (A) (A) (A) (A) (A) (A) (A) (A) (A)
                 (A) (A) (A) (A) (A) (A) (A) (A) (A) (A) (A) (A)
                 (A) (A) (A) (A) (A) (A) (A) (A) (A) (A) (A) (A)
                 (A) (A) (A) (A) (A) (A) (A) (A) (A) (A) (A) (A)
                 (A) (A) (A) (A) (A) (A) (A) (A) (A) (A) (A) (A)
                 (A) (A) (A) (A) (A) (A) (A) (A) (A) (A) (A) (A)
                 (A) (A) (A) (A) (A) (A) (A) (A) (A) (A) (A) (A)
                 (A) (A) (A) (A) (A) (A) (A) (A) (A) (A) (A) (A)
                 (A) (A) (A) (A) (A) (A) (A) (A) (A) (A) (A) (A)
                 (A) (A) (A) (A) (A) (A) (A) (A) (A) (A) (A) (A)
                 (A) (A) (A) (A) (A) (A) (A) (A) (A) (A) (A) (A)
                 (A) (A) (A) (A) (A) (A) (A) (A) (A) (A) (A) (A)
                 (A) (A) (A) (A) (A) (A) (A) (A) (A) (A) (A) (A)
                 (A) (A) (A) (A) (A) (A) (A) (A) (A) (A) (A) (A)
                 (A) (A) (A) (A) (A) (A) (A) (A) (A) (A) (A) (A)
                 (A) (A) (A) (A) (A) (A) (A) (A) (A) (A) (A) (A)
                 (A) (A) (A) (A) (A) (A) (A) (A) (A) (A) (A) (A)
                 (A) (A) (A) (A) (A) (A) (A) (A) (A) (A) (A) (A)
                 (A) (A) (A) (A) (A) (A) (A) (A) (A) (A) (A) (A)
                 (A) (A) (A) (A) (A) (A) (A) (A) (A) (A) (A) (A)
                 (A) (A) (A) (A) (A) (A) (A) (A) (A) (A) (A) (A)
                 (A) (A) (A) (A) (A) (A) (A) (A) (A) (A) (A) (A)
                 (A) (A) (A) (A) (A) (A) (A) (A) (A) (A) (A) (A)
                 (A) (A) (A) (A) (A) (A) (A) (A) (A) (A) (A) (A)
                 (A) (A) (A) (A) (A) (A) (A) (A) (A) (A) (A) (A)
                 (A) (A) (A) (A) (A) (A) (A) (A) (A) (A) (A) (A)
                 (A) (A) (A) (A) (A) (A) (A) (A) (A) (A) (A) (A)
                 (A) (A) (A) (A) (A) (A) (A) (A) (A) (A) (A) (A)
                 (A) (A) (A) (A) (A) (A) (A) (A) (A) (A) (A) (A)
                 (A) (A) (A) (A) (A) (A) (A) (A) (A) (A) (A) (A)
                 (A) (A) (A) (A) (A) (A) (A) (A) (A) (A) (A) (A)
                 (A) (A) (A) (A) (A) (A) (A) (A) (A) (A) (A) (A)
                 (A) (A) (A) (A) (A) (A) (A) (A) (A) (A) (A) (A)
                 (A) (A) (A) (A) (A) (A) (A) (A) (A) (A) (A) (A)
                 (A) (A) (A) (A) (A) (A) (A) (A) (A) (A) (A) (A)
                 (A) (A) (A) (A) (A) (A) (A) (A) (A) (A) (A) (A)
                 (A) (A) (A) (A) (A) (A) (A) (A) (A) (A) (A) (A)
                 (A) (A) (A) (A) (A) (A) (A) (A) (A) (A) (A) (A)
                 (A) (A) (A) (A) (A) (A) (A) (A) (A) (A) (A) (A)
                 (A) (A) (A) (A) (A) (A) (A) (A) (A) (A) (A) (A)
                 (A) (A) (A) (A) (A) (A) (A) (A) (A) (A) (A) (A)
                 (A) (A) (A) (A) (A) (A) (A) (A) (A) (A) (A) (A)
                 (A) (A) (A) (A) (A) (A) (A) (A) (A) (A) (A) (A)
                 (A) (A) (A) (A) (A) (A) (A) (A) (A) (A) (A) (A)
                 (A) (A) (A) (A) (A) (A) (A) (A) (A) (A) (A) (A)
                 (A) (A) (A) (A) (A) (A) (A) (A) (A) (A) (A) (A)
                 (A) (A) (A) (A) (A) (A) (A) (A) (A) (A) (A) (A)
 The electronic state is 1-A.
 Alpha  occ. eigenvalues --  -19.19433 -19.18677 -19.13691 -19.13208 -19.12776
 Alpha  occ. eigenvalues --  -19.11469 -14.38011 -14.35396 -14.34578 -14.28511
 Alpha  occ. eigenvalues --  -10.33106 -10.32174 -10.29394 -10.26831 -10.24086
 Alpha  occ. eigenvalues --  -10.23172 -10.23142 -10.22899 -10.22596 -10.22552
 Alpha  occ. eigenvalues --  -10.22457 -10.22397 -10.21865 -10.20570 -10.20517
 Alpha  occ. eigenvalues --  -10.20378 -10.20286 -10.20124 -10.20062 -10.20052
 Alpha  occ. eigenvalues --  -10.20029 -10.20015 -10.19659 -10.19542 -10.19312
 Alpha  occ. eigenvalues --  -10.19299 -10.18827 -10.18513 -10.18491 -10.18416
 Alpha  occ. eigenvalues --  -10.18384 -10.18361 -10.17448  -1.11238  -1.08670
 Alpha  occ. eigenvalues --   -1.08646  -1.04651  -1.01491  -1.00331  -0.99579
 Alpha  occ. eigenvalues --   -0.97442  -0.96055  -0.90252  -0.82501  -0.82009
 Alpha  occ. eigenvalues --   -0.81705  -0.81328  -0.79296  -0.78822  -0.77422
 Alpha  occ. eigenvalues --   -0.77217  -0.75908  -0.74966  -0.74178  -0.72074
 Alpha  occ. eigenvalues --   -0.71778  -0.69917  -0.68982  -0.67796  -0.67358
 Alpha  occ. eigenvalues --   -0.67261  -0.65023  -0.64616  -0.62495  -0.61281
 Alpha  occ. eigenvalues --   -0.60445  -0.58866  -0.58652  -0.57150  -0.56525
 Alpha  occ. eigenvalues --   -0.55603  -0.55249  -0.54395  -0.54094  -0.53162
 Alpha  occ. eigenvalues --   -0.52406  -0.51043  -0.50457  -0.50168  -0.49543
 Alpha  occ. eigenvalues --   -0.49393  -0.49163  -0.49029  -0.48077  -0.47853
 Alpha  occ. eigenvalues --   -0.47031  -0.46454  -0.45919  -0.45656  -0.45353
 Alpha  occ. eigenvalues --   -0.45039  -0.44918  -0.44625  -0.44214  -0.43917
 Alpha  occ. eigenvalues --   -0.43667  -0.43273  -0.43144  -0.42620  -0.42421
 Alpha  occ. eigenvalues --   -0.41912  -0.41824  -0.41588  -0.41379  -0.40950
 Alpha  occ. eigenvalues --   -0.40636  -0.40476  -0.40364  -0.40281  -0.39869
 Alpha  occ. eigenvalues --   -0.39687  -0.39267  -0.38953  -0.38860  -0.38805
 Alpha  occ. eigenvalues --   -0.38563  -0.37944  -0.37592  -0.36819  -0.36716
 Alpha  occ. eigenvalues --   -0.36466  -0.36148  -0.35688  -0.35350  -0.34646
 Alpha  occ. eigenvalues --   -0.34340  -0.34071  -0.33932  -0.33453  -0.33326
 Alpha  occ. eigenvalues --   -0.32573  -0.32481  -0.30578  -0.30202  -0.29055
 Alpha  occ. eigenvalues --   -0.28182  -0.27860  -0.27449  -0.26177  -0.25846
 Alpha  occ. eigenvalues --   -0.24837  -0.24304  -0.23572  -0.22552  -0.20822
 Alpha  occ. eigenvalues --   -0.17777
 Alpha virt. eigenvalues --   -0.09730  -0.05015  -0.03584  -0.01346   0.00378
 Alpha virt. eigenvalues --    0.00458   0.02244   0.03240   0.03995   0.04219
 Alpha virt. eigenvalues --    0.04524   0.04668   0.05015   0.05823   0.06126
 Alpha virt. eigenvalues --    0.06287   0.06679   0.06951   0.07384   0.08157
 Alpha virt. eigenvalues --    0.08443   0.08821   0.09158   0.09597   0.09907
 Alpha virt. eigenvalues --    0.09967   0.10296   0.10701   0.11022   0.11205
 Alpha virt. eigenvalues --    0.11669   0.11960   0.12016   0.12181   0.12397
 Alpha virt. eigenvalues --    0.12863   0.13170   0.13565   0.14103   0.14518
 Alpha virt. eigenvalues --    0.15093   0.15573   0.15742   0.16183   0.16707
 Alpha virt. eigenvalues --    0.16834   0.17003   0.17373   0.17459   0.18066
 Alpha virt. eigenvalues --    0.18233   0.18745   0.19353   0.19630   0.19895
 Alpha virt. eigenvalues --    0.20410   0.20806   0.21141   0.21760   0.22211
 Alpha virt. eigenvalues --    0.22510   0.23196   0.23346   0.23444   0.24032
 Alpha virt. eigenvalues --    0.24468   0.24764   0.25242   0.25707   0.26481
 Alpha virt. eigenvalues --    0.26967   0.27084   0.27341   0.28055   0.28720
 Alpha virt. eigenvalues --    0.29331   0.29927   0.30604   0.30895   0.31269
 Alpha virt. eigenvalues --    0.31793   0.32199   0.32869   0.32984   0.33478
 Alpha virt. eigenvalues --    0.34116   0.34931   0.35447   0.36335   0.36597
 Alpha virt. eigenvalues --    0.37284   0.37919   0.37996   0.38291   0.38729
 Alpha virt. eigenvalues --    0.39511   0.40410   0.40758   0.41528   0.41581
 Alpha virt. eigenvalues --    0.41867   0.42151   0.42682   0.42860   0.43051
 Alpha virt. eigenvalues --    0.43734   0.43949   0.44087   0.44595   0.45457
 Alpha virt. eigenvalues --    0.45536   0.45708   0.46135   0.46564   0.46737
 Alpha virt. eigenvalues --    0.47081   0.47391   0.47978   0.48133   0.48430
 Alpha virt. eigenvalues --    0.48525   0.48976   0.49194   0.49300   0.49912
 Alpha virt. eigenvalues --    0.50273   0.50736   0.51154   0.51708   0.51768
 Alpha virt. eigenvalues --    0.52423   0.52495   0.52721   0.53058   0.53297
 Alpha virt. eigenvalues --    0.53481   0.53942   0.54528   0.55048   0.55101
 Alpha virt. eigenvalues --    0.55927   0.56484   0.56861   0.57572   0.58221
 Alpha virt. eigenvalues --    0.58287   0.58567   0.58744   0.58934   0.59702
 Alpha virt. eigenvalues --    0.60180   0.60563   0.60780   0.60818   0.60977
 Alpha virt. eigenvalues --    0.61629   0.61731   0.61785   0.62032   0.62245
 Alpha virt. eigenvalues --    0.62554   0.62675   0.63018   0.63094   0.63254
 Alpha virt. eigenvalues --    0.63715   0.63818   0.64147   0.64262   0.64486
 Alpha virt. eigenvalues --    0.64963   0.65360   0.65695   0.65861   0.65981
 Alpha virt. eigenvalues --    0.66134   0.66569   0.66795   0.67088   0.67482
 Alpha virt. eigenvalues --    0.67642   0.67671   0.67964   0.68267   0.68353
 Alpha virt. eigenvalues --    0.68541   0.68703   0.68858   0.69253   0.69346
 Alpha virt. eigenvalues --    0.70050   0.70111   0.70235   0.70518   0.70799
 Alpha virt. eigenvalues --    0.71122   0.71768   0.71912   0.72158   0.72209
 Alpha virt. eigenvalues --    0.72971   0.73168   0.73330   0.73705   0.73996
 Alpha virt. eigenvalues --    0.74375   0.74857   0.74955   0.75170   0.75616
 Alpha virt. eigenvalues --    0.75775   0.76220   0.76532   0.77126   0.77360
 Alpha virt. eigenvalues --    0.77581   0.78001   0.78878   0.79505   0.79795
 Alpha virt. eigenvalues --    0.80490   0.80724   0.81151   0.81656   0.82218
 Alpha virt. eigenvalues --    0.82878   0.83597   0.83918   0.84723   0.85186
 Alpha virt. eigenvalues --    0.85690   0.86429   0.87456   0.87711   0.88481
 Alpha virt. eigenvalues --    0.89019   0.89733   0.90109   0.91309   0.91499
 Alpha virt. eigenvalues --    0.92267   0.93377   0.93587   0.94107   0.94605
 Alpha virt. eigenvalues --    0.95314   0.95566   0.95740   0.96754   0.97132
 Alpha virt. eigenvalues --    0.97648   0.97879   0.98362   0.99536   0.99971
 Alpha virt. eigenvalues --    1.00323   1.00677   1.01115   1.01931   1.02947
 Alpha virt. eigenvalues --    1.03504   1.04318   1.04720   1.05413   1.06140
 Alpha virt. eigenvalues --    1.06808   1.07048   1.09044   1.09164   1.09807
 Alpha virt. eigenvalues --    1.10067   1.10584   1.11484   1.12144   1.12572
 Alpha virt. eigenvalues --    1.13345   1.14014   1.15343   1.15697   1.15969
 Alpha virt. eigenvalues --    1.17081   1.17358   1.17913   1.19327   1.20340
 Alpha virt. eigenvalues --    1.21346   1.21678   1.22239   1.22988   1.23146
 Alpha virt. eigenvalues --    1.23534   1.24422   1.25379   1.25726   1.26341
 Alpha virt. eigenvalues --    1.26820   1.27760   1.28087   1.30188   1.30494
 Alpha virt. eigenvalues --    1.31446   1.31795   1.33276   1.33725   1.33855
 Alpha virt. eigenvalues --    1.34718   1.35369   1.35725   1.36588   1.37416
 Alpha virt. eigenvalues --    1.37536   1.38567   1.39065   1.39445   1.40129
 Alpha virt. eigenvalues --    1.40514   1.41585   1.42205   1.42338   1.43260
 Alpha virt. eigenvalues --    1.43970   1.44257   1.45161   1.45575   1.46970
 Alpha virt. eigenvalues --    1.47586   1.47740   1.48426   1.48553   1.49295
 Alpha virt. eigenvalues --    1.49536   1.50420   1.51196   1.51772   1.52487
 Alpha virt. eigenvalues --    1.52790   1.52962   1.53613   1.54052   1.54744
 Alpha virt. eigenvalues --    1.54827   1.55002   1.55958   1.56213   1.57280
 Alpha virt. eigenvalues --    1.57299   1.57910   1.58460   1.58550   1.59753
 Alpha virt. eigenvalues --    1.59879   1.61306   1.61314   1.61732   1.62540
 Alpha virt. eigenvalues --    1.63290   1.63927   1.63969   1.64213   1.64866
 Alpha virt. eigenvalues --    1.65324   1.66197   1.66747   1.67066   1.67409
 Alpha virt. eigenvalues --    1.67521   1.68457   1.68659   1.68781   1.69568
 Alpha virt. eigenvalues --    1.69820   1.70056   1.70332   1.70956   1.71048
 Alpha virt. eigenvalues --    1.71794   1.71951   1.72199   1.73387   1.73759
 Alpha virt. eigenvalues --    1.74331   1.74648   1.75115   1.75468   1.75615
 Alpha virt. eigenvalues --    1.76032   1.76365   1.76763   1.77074   1.77656
 Alpha virt. eigenvalues --    1.77695   1.77845   1.78608   1.79043   1.79106
 Alpha virt. eigenvalues --    1.79401   1.80422   1.80595   1.80808   1.81536
 Alpha virt. eigenvalues --    1.81572   1.82004   1.82119   1.82766   1.82971
 Alpha virt. eigenvalues --    1.83265   1.83390   1.84168   1.84655   1.85524
 Alpha virt. eigenvalues --    1.85703   1.86119   1.86507   1.87266   1.87421
 Alpha virt. eigenvalues --    1.87659   1.88294   1.88643   1.88895   1.89454
 Alpha virt. eigenvalues --    1.90144   1.90286   1.90600   1.90998   1.91336
 Alpha virt. eigenvalues --    1.91899   1.92668   1.93027   1.93255   1.93339
 Alpha virt. eigenvalues --    1.94355   1.94616   1.95060   1.96084   1.96345
 Alpha virt. eigenvalues --    1.96621   1.97159   1.97441   1.97920   1.98758
 Alpha virt. eigenvalues --    1.99612   1.99964   2.00812   2.00891   2.00973
 Alpha virt. eigenvalues --    2.01478   2.02126   2.03038   2.03973   2.04312
 Alpha virt. eigenvalues --    2.04962   2.05380   2.05953   2.06442   2.07089
 Alpha virt. eigenvalues --    2.07374   2.08267   2.08669   2.09310   2.10111
 Alpha virt. eigenvalues --    2.10618   2.11443   2.11630   2.12332   2.12650
 Alpha virt. eigenvalues --    2.12706   2.13735   2.13950   2.14774   2.15894
 Alpha virt. eigenvalues --    2.16355   2.16464   2.17117   2.17654   2.17928
 Alpha virt. eigenvalues --    2.19031   2.19979   2.20732   2.21922   2.22980
 Alpha virt. eigenvalues --    2.23166   2.24079   2.24701   2.24982   2.25478
 Alpha virt. eigenvalues --    2.26119   2.26598   2.27197   2.27776   2.28608
 Alpha virt. eigenvalues --    2.28707   2.29738   2.30134   2.31858   2.32586
 Alpha virt. eigenvalues --    2.32991   2.33521   2.34023   2.34251   2.35127
 Alpha virt. eigenvalues --    2.35469   2.35823   2.36564   2.36700   2.37582
 Alpha virt. eigenvalues --    2.38144   2.39158   2.40479   2.41001   2.41133
 Alpha virt. eigenvalues --    2.41505   2.42230   2.43441   2.44368   2.45018
 Alpha virt. eigenvalues --    2.46451   2.46585   2.47097   2.47931   2.49037
 Alpha virt. eigenvalues --    2.49454   2.49974   2.50653   2.50805   2.51335
 Alpha virt. eigenvalues --    2.52000   2.52394   2.53208   2.54560   2.55325
 Alpha virt. eigenvalues --    2.56646   2.56695   2.57897   2.59258   2.61108
 Alpha virt. eigenvalues --    2.61776   2.61907   2.62323   2.63031   2.63787
 Alpha virt. eigenvalues --    2.64375   2.64453   2.65434   2.66368   2.66822
 Alpha virt. eigenvalues --    2.67146   2.67361   2.68556   2.69292   2.70134
 Alpha virt. eigenvalues --    2.70553   2.70870   2.71231   2.71829   2.72875
 Alpha virt. eigenvalues --    2.73648   2.74436   2.74480   2.74967   2.75150
 Alpha virt. eigenvalues --    2.75892   2.77027   2.77253   2.78431   2.78888
 Alpha virt. eigenvalues --    2.79750   2.81052   2.81741   2.82135   2.82641
 Alpha virt. eigenvalues --    2.82947   2.83852   2.83961   2.84802   2.85178
 Alpha virt. eigenvalues --    2.85632   2.85921   2.86107   2.86332   2.86987
 Alpha virt. eigenvalues --    2.87929   2.88446   2.90395   2.91084   2.91298
 Alpha virt. eigenvalues --    2.91683   2.93076   2.94069   2.95385   2.96158
 Alpha virt. eigenvalues --    2.96544   2.97137   2.97346   2.98326   2.98732
 Alpha virt. eigenvalues --    3.01119   3.03078   3.04925   3.06537   3.06605
 Alpha virt. eigenvalues --    3.06786   3.07730   3.09355   3.10086   3.10948
 Alpha virt. eigenvalues --    3.12223   3.15047   3.15427   3.16913   3.17593
 Alpha virt. eigenvalues --    3.17952   3.18987   3.20384   3.21886   3.23398
 Alpha virt. eigenvalues --    3.23745   3.24247   3.27054   3.29429   3.31246
 Alpha virt. eigenvalues --    3.32856   3.39954   3.45138   3.46479   3.49434
 Alpha virt. eigenvalues --    3.50439   3.51358   3.57099   3.59917   3.62409
 Alpha virt. eigenvalues --    3.64946   3.70997   3.71883   3.72093   3.74053
 Alpha virt. eigenvalues --    3.76850
          Condensed to atoms (all electrons):
 Mulliken charges:
               1
     1  O   -0.109917
     2  O   -0.181505
     3  O   -0.222478
     4  O   -0.222398
     5  O   -0.226173
     6  O   -0.141216
     7  N   -0.052339
     8  N   -0.146625
     9  N   -0.126766
    10  N   -0.380303
    11  C   -0.130888
    12  C    0.088732
    13  C   -0.155944
    14  C    0.080489
    15  C   -0.033189
    16  C    0.027192
    17  C   -0.066398
    18  C   -0.151978
    19  C    0.023760
    20  C   -0.078517
    21  C    0.085042
    22  C    0.066027
    23  C   -0.039153
    24  C    0.081992
    25  C   -0.127532
    26  C    0.073097
    27  C    0.114596
    28  C    0.000242
    29  C   -0.004179
    30  C    0.238461
    31  C   -0.135967
    32  C    0.002739
    33  C   -0.175989
    34  C    0.125079
    35  C   -0.064921
    36  C   -0.273914
    37  C    0.126555
    38  C    0.094443
    39  C    0.139089
    40  C    0.160106
    41  C    0.171021
    42  C    0.046902
    43  C   -0.083031
    44  H    0.172052
    45  H    0.047866
    46  H    0.046425
    47  H    0.028234
    48  H    0.043135
    49  H    0.031747
    50  H   -0.047740
    51  H    0.014957
    52  H    0.172444
    53  H    0.008190
    54  H    0.039566
    55  H    0.003396
    56  H    0.072444
    57  H    0.051353
    58  H    0.069947
    59  H    0.077624
    60  H    0.005728
    61  H   -0.021475
    62  H    0.012278
    63  H   -0.001724
    64  H   -0.034698
    65  H    0.031982
    66  H    0.048093
    67  H    0.026145
    68  H    0.017053
    69  H    0.081864
    70  H   -0.016634
    71  H    0.020794
    72  H   -0.022590
    73  H    0.014073
    74  H    0.017499
    75  H    0.031673
    76  H    0.023284
    77  H    0.024702
    78  H    0.034377
    79  H    0.061214
    80  H    0.198425
    81  H    0.202052
 Sum of Mulliken charges =  -0.00000
 Mulliken charges with hydrogens summed into heavy atoms:
               1
     1  O   -0.109917
     2  O    0.016920
     3  O   -0.020426
     4  O   -0.222398
     5  O   -0.226173
     6  O   -0.141216
     7  N    0.119712
     8  N    0.025820
     9  N   -0.054322
    10  N   -0.380303
    11  C   -0.130888
    12  C    0.088732
    13  C   -0.155944
    14  C    0.080489
    15  C   -0.033189
    16  C    0.027192
    17  C   -0.018532
    18  C   -0.151978
    19  C    0.098418
    20  C   -0.035382
    21  C    0.085042
    22  C    0.066027
    23  C   -0.039153
    24  C    0.065999
    25  C   -0.112574
    26  C    0.124249
    27  C    0.114596
    28  C    0.121541
    29  C    0.079173
    30  C    0.227541
    31  C   -0.170665
    32  C    0.108958
    33  C   -0.158936
    34  C    0.125079
    35  C   -0.064921
    36  C   -0.273914
    37  C    0.126555
    38  C    0.180468
    39  C    0.139089
    40  C    0.151590
    41  C    0.171021
    42  C    0.119359
    43  C    0.037262
 Electronic spatial extent (au):  <R**2>=          30509.5544
 Charge=              0.0000 electrons
 Dipole moment (field-independent basis, Debye):
    X=             -1.7418    Y=              0.0168    Z=             -1.1069  Tot=              2.0639
 Quadrupole moment (field-independent basis, Debye-Ang):
   XX=           -246.4819   YY=           -242.9513   ZZ=           -253.0327
   XY=              4.7048   XZ=             16.1129   YZ=            -12.2434
 Traceless Quadrupole moment (field-independent basis, Debye-Ang):
   XX=              1.0068   YY=              4.5373   ZZ=             -5.5441
   XY=              4.7048   XZ=             16.1129   YZ=            -12.2434
 Octapole moment (field-independent basis, Debye-Ang**2):
  XXX=            -22.2811  YYY=             81.2026  ZZZ=            -33.3999  XYY=           -146.7140
  XXY=              6.0532  XXZ=           -108.3403  XZZ=            -42.6586  YZZ=            -37.7842
  YYZ=             19.0063  XYZ=            -46.2518
 Hexadecapole moment (field-independent basis, Debye-Ang**3):
 XXXX=         -22132.0710 YYYY=         -16144.3383 ZZZZ=          -1672.2210 XXXY=            488.9477
 XXXZ=           1167.0487 YYYX=            478.5013 YYYZ=           -415.1662 ZZZX=            108.2030
 ZZZY=             94.0300 XXYY=          -6465.1407 XXZZ=          -3967.5543 YYZZ=          -3040.0628
 XXYZ=             60.8989 YYXZ=            217.7948 ZZXY=            173.3601
 N-N= 5.044324393644D+03 E-N=-1.462064774972D+04  KE= 1.929133746463D+03
 1\1\GINC-RYZEN-SSD1\SP\RB3LYP TD-FC\SVP\C33H38N4O6\PADAWAN\30-Jun-2019
 \0\\# td=(NStates=1) B3LYP/SVP\\TD\\0,1\O,0,-4.5663767585,-4.665386619
 9,1.8804934129\O,0,2.6528758857,-4.8965542046,1.3654944812\O,0,7.16591
 69731,-1.4339009312,1.8668469052\O,0,3.4934210749,-3.1555746827,0.3013
 329917\O,0,7.6913078828,-0.5256639457,-0.1632458939\O,0,-3.015951924,2
 .4446518627,-0.292094114\N,0,-0.2249368754,-0.6483441842,-0.591377774\
 N,0,1.5248301657,1.8411464934,-0.3937210342\N,0,-3.3970466477,-3.07969
 70165,0.6235608274\N,0,-0.7215435573,2.9072311413,-0.1239274166\C,0,0.
 6740686393,-2.514446883,-1.4023923223\C,0,0.9658355174,-1.1784877999,-
 0.94364692\C,0,-0.7355078759,-2.7041743068,-1.1678869881\C,0,-1.230195
 1257,-1.5141250544,-0.6675482207\C,0,3.7460225436,1.4863431196,-0.3494
 611625\C,0,2.5145121442,0.7943807699,-0.6498065393\C,0,2.2221092152,-0
 .5005261984,-0.9126135064\C,0,3.5426581027,2.7501130195,-0.00357113\C,
 0,1.6825794104,-3.4571209779,-1.9763778388\C,0,-5.5240617414,-2.517773
 687,1.3486048005\C,0,-3.6260946724,-1.8560106631,0.0701207971\C,0,2.19
 93941996,2.9494713753,-0.122109688\C,0,-4.9895151478,-1.4819336966,0.3
 486235013\C,0,5.0611045886,0.7799876688,-0.4868317396\C,0,-2.601001062
 3,-1.0998467563,-0.455075922\C,0,-1.5018981275,-3.7469691992,-1.798713
 115\C,0,-4.5103184986,-3.639952501,1.3865477694\C,0,2.0625867347,-4.58
 66408838,-0.98994185\C,0,5.5096508414,-0.0935354174,0.7320113072\C,0,4
 .6790336896,3.7502862599,0.3539975836\C,0,1.3716384052,4.0856629738,0.
 2542855481\C,0,-6.931424273,-3.1757549553,1.0563451006\C,0,-5.78614721
 72,-0.5850032302,-0.3125527297\C,0,-0.0612911181,4.0151861902,0.314210
 0466\C,0,-0.9657275345,5.1608671797,0.4738020088\C,0,-2.2401093371,4.6
 911852413,0.3678381867\C,0,2.7725400953,-4.119848604,0.2767290719\C,0,
 -5.4219568565,0.4074259712,-1.3002910961\C,0,6.9123538016,-0.674735757
 7,0.7531784404\C,0,-3.5500207614,5.417358034,0.5617669918\C,0,-2.13548
 6985,3.151147306,0.0051814429\C,0,-0.4757917167,6.5424881168,0.8550205
 919\C,0,-4.4194404809,5.5131197169,-0.6831790936\H,0,-0.5157091358,0.3
 204277484,-0.163816935\H,0,3.2827322878,-1.0307750796,-0.9676962782\H,
 0,2.601631414,-2.7157462815,-2.2845908938\H,0,1.1563424135,-4.06239815
 74,-2.8650688734\H,0,-5.559887795,-1.903888778,2.2336255231\H,0,4.9216
 224724,0.0174064571,-1.4347566287\H,0,5.8845804236,1.2823225416,-0.670
 0683064\H,0,-2.9373018259,-0.0571712209,-0.6572186275\H,0,0.4504213738
 ,1.7987210551,-0.5546049326\H,0,-1.6340890001,-4.5829403982,-1.0492357
 293\H,0,-2.6261862483,-3.4593736394,-1.9987591961\H,0,-1.0453744885,-4
 .1293611105,-2.665260129\H,0,-2.7236861264,-3.7187280212,0.6216794149\
 H,0,0.9832141281,-4.9312856111,-0.6864923667\H,0,2.7382030061,-5.24257
 69662,-1.6447989938\H,0,4.7933837594,-1.0122672778,0.7939799842\H,0,5.
 4498191815,0.5083752741,1.5634008108\H,0,4.5475422745,4.3989203594,-0.
 3888788706\H,0,5.6747741002,3.3758203012,0.3301095342\H,0,4.462785696,
 4.3649320013,1.1917904829\H,0,1.9365294849,5.0216820978,0.3987196589\H
 ,0,-7.6596387355,-2.288074802,1.4926839624\H,0,-7.0847241167,-4.045562
 3221,1.8014925172\H,0,-7.1274509291,-3.5080285664,0.060067596\H,0,-6.9
 080781495,-0.5545757889,0.0984117691\H,0,-4.8926641082,1.272061403,-0.
 8919330414\H,0,-6.2898008098,0.7298406124,-1.8231789964\H,0,-4.9262311
 186,-0.0027234261,-2.2285640691\H,0,-3.2045903383,6.2461772735,1.07470
 51745\H,0,-3.9238500625,4.593228455,1.2100131391\H,0,0.025407106,6.489
 440904,1.8118539179\H,0,-1.2657579591,7.4527119667,1.0905483112\H,0,0.
 2568448721,6.9768761881,0.1616024944\H,0,-3.5233326291,6.0233582189,-1
 .3479426104\H,0,-5.3206138845,6.2442171627,-0.6676919109\H,0,-4.768641
 3852,4.5053120235,-1.1883585743\H,0,3.0470300095,-4.335217752,2.095318
 1688\H,0,8.1470619509,-1.6839190442,1.835403703\\Version=ES64L-G16RevA
 .03\State=1-A\HF=-1949.1140657\RMSD=2.886e-09\PG=C01 [X(C33H38N4O6)]\\
 @


 IN THE LONG RUN, DIGGING FOR TRUTH HAS ALWAYS PROVED NOT ONLY 
 MORE INTERESTING BUT MORE PROFITABLE THAN DIGGING FOR GOLD.

                             -- GEORGE R. HARRISON
 Job cpu time:       0 days 15 hours 55 minutes 23.4 seconds.
 Elapsed time:       0 days  4 hours  0 minutes  2.4 seconds.
 File lengths (MBytes):  RWF=   2591 Int=      0 D2E=      0 Chk=     65 Scr=      1
 Normal termination of Gaussian 16 at Sun Jun 30 10:16:34 2019.
