 Entering Gaussian System, Link 0=g16
 Input=Geometria-153-.com
 Output=Geometria-153-.log
 Initial command:
 /usr/local/g16/l1.exe "/home/padawan/israel-mol/phycocyanobilin/spectra/abs/Gau-49014.inp" -scrdir="/home/padawan/israel-mol/phycocyanobilin/spectra/abs/"
 Entering Link 1 = /usr/local/g16/l1.exe PID=     49016.
  
 Copyright (c) 1988,1990,1992,1993,1995,1998,2003,2009,2016,
            Gaussian, Inc.  All Rights Reserved.
  
 This is part of the Gaussian(R) 16 program.  It is based on
 the Gaussian(R) 09 system (copyright 2009, Gaussian, Inc.),
 the Gaussian(R) 03 system (copyright 2003, Gaussian, Inc.),
 the Gaussian(R) 98 system (copyright 1998, Gaussian, Inc.),
 the Gaussian(R) 94 system (copyright 1995, Gaussian, Inc.),
 the Gaussian 92(TM) system (copyright 1992, Gaussian, Inc.),
 the Gaussian 90(TM) system (copyright 1990, Gaussian, Inc.),
 the Gaussian 88(TM) system (copyright 1988, Gaussian, Inc.),
 the Gaussian 86(TM) system (copyright 1986, Carnegie Mellon
 University), and the Gaussian 82(TM) system (copyright 1983,
 Carnegie Mellon University). Gaussian is a federally registered
 trademark of Gaussian, Inc.
  
 This software contains proprietary and confidential information,
 including trade secrets, belonging to Gaussian, Inc.
  
 This software is provided under written license and may be
 used, copied, transmitted, or stored only in accord with that
 written license.
  
 The following legend is applicable only to US Government
 contracts under FAR:
  
                    RESTRICTED RIGHTS LEGEND
  
 Use, reproduction and disclosure by the US Government is
 subject to restrictions as set forth in subparagraphs (a)
 and (c) of the Commercial Computer Software - Restricted
 Rights clause in FAR 52.227-19.
  
 Gaussian, Inc.
 340 Quinnipiac St., Bldg. 40, Wallingford CT 06492
  
  
 ---------------------------------------------------------------
 Warning -- This program may not be used in any manner that
 competes with the business of Gaussian, Inc. or will provide
 assistance to any competitor of Gaussian, Inc.  The licensee
 of this program is prohibited from giving any competitor of
 Gaussian, Inc. access to this program.  By using this program,
 the user acknowledges that Gaussian, Inc. is engaged in the
 business of creating and licensing software in the field of
 computational chemistry and represents and warrants to the
 licensee that it is not a competitor of Gaussian, Inc. and that
 it will not use this program in any manner prohibited above.
 ---------------------------------------------------------------
  

 Cite this work as:
 Gaussian 16, Revision A.03,
 M. J. Frisch, G. W. Trucks, H. B. Schlegel, G. E. Scuseria, 
 M. A. Robb, J. R. Cheeseman, G. Scalmani, V. Barone, 
 G. A. Petersson, H. Nakatsuji, X. Li, M. Caricato, A. V. Marenich, 
 J. Bloino, B. G. Janesko, R. Gomperts, B. Mennucci, H. P. Hratchian, 
 J. V. Ortiz, A. F. Izmaylov, J. L. Sonnenberg, D. Williams-Young, 
 F. Ding, F. Lipparini, F. Egidi, J. Goings, B. Peng, A. Petrone, 
 T. Henderson, D. Ranasinghe, V. G. Zakrzewski, J. Gao, N. Rega, 
 G. Zheng, W. Liang, M. Hada, M. Ehara, K. Toyota, R. Fukuda, 
 J. Hasegawa, M. Ishida, T. Nakajima, Y. Honda, O. Kitao, H. Nakai, 
 T. Vreven, K. Throssell, J. A. Montgomery, Jr., J. E. Peralta, 
 F. Ogliaro, M. J. Bearpark, J. J. Heyd, E. N. Brothers, K. N. Kudin, 
 V. N. Staroverov, T. A. Keith, R. Kobayashi, J. Normand, 
 K. Raghavachari, A. P. Rendell, J. C. Burant, S. S. Iyengar, 
 J. Tomasi, M. Cossi, J. M. Millam, M. Klene, C. Adamo, R. Cammi, 
 J. W. Ochterski, R. L. Martin, K. Morokuma, O. Farkas, 
 J. B. Foresman, and D. J. Fox, Gaussian, Inc., Wallingford CT, 2016.
 
 ******************************************
 Gaussian 16:  ES64L-G16RevA.03 25-Dec-2016
                30-Jun-2019 
 ******************************************
 %nproc=4
 Will use up to    4 processors via shared memory.
 %Mem=4GB
 --------------------------
 # td=(NStates=1) B3LYP/SVP
 --------------------------
 1/38=1,172=1/1;
 2/12=2,17=6,18=5,40=1/2;
 3/5=18,7=101,11=9,25=1,30=1,74=-5/1,2,3,8;
 4//1;
 5/5=2,38=5/2;
 8/6=1,10=1,108=1/1;
 9/41=1,42=1,70=2/14;
 6/7=2,8=2,9=2,10=2/1;
 99/5=1,9=1/99;
 --
 TD
 --
 Symbolic Z-matrix:
 Charge =  0 Multiplicity = 1
 8                    -4.47976  -4.7891    1.66913 
 8                     3.16669  -4.92185   1.26364 
 8                     6.96017  -1.55868   1.82482 
 8                     3.69507  -2.90815   0.15919 
 8                     7.51032  -0.95399  -0.32798 
 8                    -3.02093   2.40292  -0.01019 
 7                    -0.29548  -0.57936  -0.50634 
 7                     1.56863   1.71287  -0.34215 
 7                    -3.52163  -3.20931   0.55324 
 7                    -0.76221   3.00147  -0.02007 
 6                     0.64076  -2.37168  -1.34717 
 6                     0.94279  -1.07067  -0.87339 
 6                    -0.675    -2.58222  -1.17447 
 6                    -1.33016  -1.40153  -0.69191 
 6                     3.78592   1.47785  -0.27878 
 6                     2.571     0.78261  -0.46132 
 6                     2.28151  -0.54748  -0.89635 
 6                     3.56203   2.77298  -0.07961 
 6                     1.60689  -3.38533  -1.78724 
 6                    -5.63323  -2.67643   1.30617 
 6                    -3.65203  -1.92487   0.06574 
 6                     2.13153   2.94468  -0.0009 
 6                    -5.15837  -1.64657   0.38586 
 6                     5.1511    0.78339  -0.47044 
 6                    -2.67812  -1.01462  -0.45954 
 6                    -1.45266  -3.85481  -1.58185 
 6                    -4.53428  -3.71768   1.23581 
 6                     1.97467  -4.50864  -0.75095 
 6                     5.49584  -0.07829   0.75008 
 6                     4.49264   3.87432   0.2485 
 6                     1.3415    4.16267   0.29309 
 6                    -6.9445   -3.17133   1.01485 
 6                    -5.82734  -0.65939  -0.21899 
 6                    -0.03296   4.13499   0.18495 
 6                    -0.93177   5.24215   0.50053 
 6                    -2.18011   4.74925   0.45145 
 6                     3.0125   -4.04177   0.24226 
 6                    -5.44272   0.30696  -1.31934 
 6                     6.73142  -0.87044   0.65348 
 6                    -3.60789   5.38751   0.38221 
 6                    -2.12902   3.2416    0.06029 
 6                    -0.37054   6.66368   0.70249 
 6                    -4.07419   5.78143  -0.95716 
 1                    -0.58541   0.29447  -0.22554 
 1                     2.97787  -1.40951  -1.23372 
 1                     2.53038  -3.00519  -2.27823 
 1                     1.1554   -3.89062  -2.66283 
 1                    -5.71215  -2.36381   2.48133 
 1                     5.04902   0.10981  -1.33867 
 1                     6.11519   1.45054  -0.60638 
 1                    -3.0722    0.02798  -0.53126 
 1                     0.45096   1.62925  -0.37354 
 1                    -1.48649  -4.53361  -0.74593 
 1                    -2.45991  -3.45368  -1.73514 
 1                    -1.07505  -4.29196  -2.54746 
 1                    -2.54281  -3.64708   0.94912 
 1                     1.20043  -4.75194  -0.13601 
 1                     2.49951  -5.43366  -1.31638 
 1                     4.76072  -0.89038   0.89844 
 1                     5.25833   0.59583   1.67745 
 1                     4.42102   4.54473  -0.46175 
 1                     5.55481   3.64034   0.4505 
 1                     4.28576   4.37651   1.10813 
 1                     1.97748   5.05689   0.50593 
 1                    -7.62542  -2.2586    1.18533 
 1                    -7.34501  -3.95667   1.56554 
 1                    -7.2047   -3.29227  -0.17108 
 1                    -6.78648  -0.70595   0.12581 
 1                    -5.11352   1.19018  -0.57359 
 1                    -6.23592   0.61064  -1.86878 
 1                    -4.73025  -0.08625  -1.87231 
 1                    -3.77222   6.36229   1.12018 
 1                    -4.30309   4.83054   0.91262 
 1                     0.39593   6.50222   1.4664 
 1                    -1.25346   7.46612   1.10955 
 1                    -0.03896   7.1007   -0.34617 
 1                    -3.59081   6.57712  -1.22332 
 1                    -5.18489   5.84795  -0.8089 
 1                    -4.04905   4.90828  -1.79993 
 1                     3.57123  -4.18476   1.92984 
 1                     7.93133  -1.76236   1.6955 
 
 Stoichiometry    C33H38N4O6
 Framework group  C1[X(C33H38N4O6)]
 Deg. of freedom   237
 Full point group                 C1      NOp   1
 Largest Abelian subgroup         C1      NOp   1
 Largest concise Abelian subgroup C1      NOp   1
                         Standard orientation:                         
 ---------------------------------------------------------------------
 Center     Atomic      Atomic             Coordinates (Angstroms)
 Number     Number       Type             X           Y           Z
 ---------------------------------------------------------------------
      1          8           0        4.543672   -4.738534   -1.646670
      2          8           0       -3.100478   -4.971272   -1.242976
      3          8           0       -6.938227   -1.661646   -1.821196
      4          8           0       -3.656069   -2.959619   -0.148190
      5          8           0       -7.497205   -1.054207    0.328562
      6          8           0        2.988496    2.441227   -0.001725
      7          7           0        0.302845   -0.574739    0.507616
      8          7           0       -1.591593    1.691645    0.332033
      9          7           0        3.564153   -3.166419   -0.538542
     10          7           0        0.721992    3.009662    0.004621
     11          6           0       -0.609744   -2.375405    1.356586
     12          6           0       -0.928913   -1.080775    0.876587
     13          6           0        0.708768   -2.569200    1.185296
     14          6           0        1.348311   -1.382169    0.697387
     15          6           0       -3.805521    1.426797    0.269080
     16          6           0       -2.581515    0.748675    0.455271
     17          6           0       -2.274487   -0.575376    0.896661
     18          6           0       -3.598839    2.723837    0.063874
     19          6           0       -1.562453   -3.399759    1.801125
     20          6           0        5.668752   -2.608993   -1.293305
     21          6           0        3.677238   -1.878072   -0.057056
     22          6           0       -2.170722    2.914220   -0.015194
     23          6           0        5.179861   -1.581233   -0.378005
     24          6           0       -5.161405    0.715109    0.463575
     25          6           0        2.691087   -0.978421    0.463618
     26          6           0        1.503165   -3.829378    1.598918
     27          6           0        4.583748   -3.664456   -1.218387
     28          6           0       -1.914834   -4.532737    0.770023
     29          6           0       -5.494165   -0.156828   -0.752982
     30          6           0       -4.543914    3.811122   -0.269713
     31          6           0       -1.396880    4.141234   -0.314668
     32          6           0        6.986384   -3.085001   -0.999242
     33          6           0        5.835386   -0.582388    0.222398
     34          6           0       -0.022221    4.132382   -0.205963
     35          6           0        0.861880    5.249922   -0.526481
     36          6           0        2.116659    4.773946   -0.474676
     37          6           0       -2.958424   -4.084420   -0.225697
     38          6           0        5.437504    0.383916    1.318060
     39          6           0       -6.719112   -0.964903   -0.653036
     40          6           0        3.535773    5.431492   -0.407996
     41          6           0        2.085510    3.267603   -0.076432
     42          6           0        0.281830    6.662884   -0.735306
     43          6           0        3.996274    5.837895    0.929645
     44          1           0        0.581203    0.301538    0.222797
     45          1           0       -2.959432   -1.445014    1.237870
     46          1           0       -2.491115   -3.029646    2.290027
     47          1           0       -1.104601   -3.894856    2.679229
     48          1           0        5.743945   -2.300891   -2.469900
     49          1           0       -5.050678    0.047042    1.334999
     50          1           0       -6.134351    1.369984    0.596067
     51          1           0        3.071207    0.069660    0.530548
     52          1           0       -0.472916    1.623078    0.364171
     53          1           0        1.546355   -4.511590    0.766211
     54          1           0        2.504918   -3.414145    1.750636
     55          1           0        1.131042   -4.266968    2.566455
     56          1           0        2.591402   -3.619056   -0.932662
     57          1           0       -1.137186   -4.768584    0.156480
     58          1           0       -2.427516   -5.461991    1.339639
     59          1           0       -4.748233   -0.959729   -0.897279
     60          1           0       -5.265309    0.516032   -1.683443
     61          1           0       -4.481508    4.485770    0.437386
     62          1           0       -5.602802    3.562056   -0.470948
     63          1           0       -4.343422    4.311976   -1.131640
     64          1           0       -2.044648    5.025881   -0.531922
     65          1           0        7.655144   -2.164087   -1.173809
     66          1           0        7.397537   -3.867516   -1.546096
     67          1           0        7.247726   -3.196870    0.187324
     68          1           0        6.795187   -0.617784   -0.121884
     69          1           0        5.096842    1.259156    0.568050
     70          1           0        6.226375    0.700727    1.866313
     71          1           0        4.730130   -0.016145    1.872647
     72          1           0        3.687378    6.404894   -1.150501
     73          1           0        4.238536    4.881353   -0.935560
     74          1           0       -0.482136    6.487630   -1.498692
     75          1           0        1.154127    7.475098   -1.145869
     76          1           0       -0.055938    7.100377    0.311172
     77          1           0        3.502236    6.628323    1.191903
     78          1           0        5.106050    5.918514    0.781424
     79          1           0        3.982457    4.968470    1.776516
     80          1           0       -3.514558   -4.242790   -1.912767
     81          1           0       -7.906639   -1.877634   -1.691221
 ---------------------------------------------------------------------
 Rotational constants (GHZ):           0.0756313           0.0548154           0.0337540
 Standard basis: SVP (5D, 7F)
 There are   835 symmetry adapted cartesian basis functions of A   symmetry.
 There are   792 symmetry adapted basis functions of A   symmetry.
   792 basis functions,  1341 primitive gaussians,   835 cartesian basis functions
   156 alpha electrons      156 beta electrons
       nuclear repulsion energy      5046.2455444095 Hartrees.
 NAtoms=   81 NActive=   81 NUniq=   81 SFac= 1.00D+00 NAtFMM=   60 NAOKFM=T Big=T
 Integral buffers will be    131072 words long.
 Regular integral format.
 Two-electron integral symmetry is turned on.
 One-electron integrals computed using PRISM.
 NBasis=   792 RedAO= T EigKep=  2.97D-04  NBF=   792
 NBsUse=   792 1.00D-06 EigRej= -1.00D+00 NBFU=   792
 ExpMin= 1.22D-01 ExpMax= 2.27D+03 ExpMxC= 3.41D+02 IAcc=3 IRadAn=         5 AccDes= 0.00D+00
 Harris functional with IExCor=  402 and IRadAn=       5 diagonalized for initial guess.
 HarFok:  IExCor=  402 AccDes= 0.00D+00 IRadAn=         5 IDoV= 1 UseB2=F ITyADJ=14
 ICtDFT=  3500011 ScaDFX=  1.000000  1.000000  1.000000  1.000000
 FoFCou: FMM=F IPFlag=           0 FMFlag=      100000 FMFlg1=        2001
         NFxFlg=           0 DoJE=T BraDBF=F KetDBF=T FulRan=T
         wScrn=  0.000000 ICntrl=       500 IOpCl=  0 I1Cent=   200000004 NGrid=           0
         NMat0=    1 NMatS0=      1 NMatT0=    0 NMatD0=    1 NMtDS0=    0 NMtDT0=    0
 Petite list used in FoFCou.
 Requested convergence on RMS density matrix=1.00D-08 within 128 cycles.
 Requested convergence on MAX density matrix=1.00D-06.
 Requested convergence on             energy=1.00D-06.
 No special actions if energy rises.
 Integral accuracy reduced to 1.0D-05 until final iterations.
 Initial convergence to 1.0D-05 achieved.  Increase integral accuracy.
 SCF Done:  E(RB3LYP) =  -1949.06323804     A.U. after   17 cycles
            NFock= 17  Conv=0.48D-08     -V/T= 2.0104
 DoSCS=F DFT=T ScalE2(SS,OS)=  1.000000  1.000000
 ExpMin= 1.22D-01 ExpMax= 2.27D+03 ExpMxC= 3.41D+02 IAcc=3 IRadAn=         5 AccDes= 0.00D+00
 HarFok:  IExCor=  205 AccDes= 0.00D+00 IRadAn=         5 IDoV=-2 UseB2=F ITyADJ=14
 ICtDFT= 12500011 ScaDFX=  1.000000  1.000000  1.000000  1.000000
 GSVD:  LWork=       -2193 too small for GESVD, short by        9890 words or        9890 for optimal perf.
 Range of M.O.s used for correlation:    44   792
 NBasis=   792 NAE=   156 NBE=   156 NFC=    43 NFV=     0
 NROrb=    749 NOA=   113 NOB=   113 NVA=   636 NVB=   636

 **** Warning!!: The smallest alpha delta epsilon is  0.74471751D-01

 Orbital symmetries:
       Occupied  (A) (A) (A) (A) (A) (A) (A) (A) (A) (A) (A) (A)
                 (A) (A) (A) (A) (A) (A) (A) (A) (A) (A) (A) (A)
                 (A) (A) (A) (A) (A) (A) (A) (A) (A) (A) (A) (A)
                 (A) (A) (A) (A) (A) (A) (A) (A) (A) (A) (A) (A)
                 (A) (A) (A) (A) (A) (A) (A) (A) (A) (A) (A) (A)
                 (A) (A) (A) (A) (A) (A) (A) (A) (A) (A) (A) (A)
                 (A) (A) (A) (A) (A) (A) (A) (A) (A) (A) (A) (A)
                 (A) (A) (A) (A) (A) (A) (A) (A) (A) (A) (A) (A)
                 (A) (A) (A) (A) (A) (A) (A) (A) (A) (A) (A) (A)
                 (A) (A) (A) (A) (A) (A) (A) (A) (A) (A) (A) (A)
                 (A) (A) (A) (A) (A) (A) (A) (A) (A) (A) (A) (A)
                 (A) (A) (A) (A) (A) (A) (A) (A) (A) (A) (A) (A)
                 (A) (A) (A) (A) (A) (A) (A) (A) (A) (A) (A) (A)
       Virtual   (A) (A) (A) (A) (A) (A) (A) (A) (A) (A) (A) (A)
                 (A) (A) (A) (A) (A) (A) (A) (A) (A) (A) (A) (A)
                 (A) (A) (A) (A) (A) (A) (A) (A) (A) (A) (A) (A)
                 (A) (A) (A) (A) (A) (A) (A) (A) (A) (A) (A) (A)
                 (A) (A) (A) (A) (A) (A) (A) (A) (A) (A) (A) (A)
                 (A) (A) (A) (A) (A) (A) (A) (A) (A) (A) (A) (A)
                 (A) (A) (A) (A) (A) (A) (A) (A) (A) (A) (A) (A)
                 (A) (A) (A) (A) (A) (A) (A) (A) (A) (A) (A) (A)
                 (A) (A) (A) (A) (A) (A) (A) (A) (A) (A) (A) (A)
                 (A) (A) (A) (A) (A) (A) (A) (A) (A) (A) (A) (A)
                 (A) (A) (A) (A) (A) (A) (A) (A) (A) (A) (A) (A)
                 (A) (A) (A) (A) (A) (A) (A) (A) (A) (A) (A) (A)
                 (A) (A) (A) (A) (A) (A) (A) (A) (A) (A) (A) (A)
                 (A) (A) (A) (A) (A) (A) (A) (A) (A) (A) (A) (A)
                 (A) (A) (A) (A) (A) (A) (A) (A) (A) (A) (A) (A)
                 (A) (A) (A) (A) (A) (A) (A) (A) (A) (A) (A) (A)
                 (A) (A) (A) (A) (A) (A) (A) (A) (A) (A) (A) (A)
                 (A) (A) (A) (A) (A) (A) (A) (A) (A) (A) (A) (A)
                 (A) (A) (A) (A) (A) (A) (A) (A) (A) (A) (A) (A)
                 (A) (A) (A) (A) (A) (A) (A) (A) (A) (A) (A) (A)
                 (A) (A) (A) (A) (A) (A) (A) (A) (A) (A) (A) (A)
                 (A) (A) (A) (A) (A) (A) (A) (A) (A) (A) (A) (A)
                 (A) (A) (A) (A) (A) (A) (A) (A) (A) (A) (A) (A)
                 (A) (A) (A) (A) (A) (A) (A) (A) (A) (A) (A) (A)
                 (A) (A) (A) (A) (A) (A) (A) (A) (A) (A) (A) (A)
                 (A) (A) (A) (A) (A) (A) (A) (A) (A) (A) (A) (A)
                 (A) (A) (A) (A) (A) (A) (A) (A) (A) (A) (A) (A)
                 (A) (A) (A) (A) (A) (A) (A) (A) (A) (A) (A) (A)
                 (A) (A) (A) (A) (A) (A) (A) (A) (A) (A) (A) (A)
                 (A) (A) (A) (A) (A) (A) (A) (A) (A) (A) (A) (A)
                 (A) (A) (A) (A) (A) (A) (A) (A) (A) (A) (A) (A)
                 (A) (A) (A) (A) (A) (A) (A) (A) (A) (A) (A) (A)
                 (A) (A) (A) (A) (A) (A) (A) (A) (A) (A) (A) (A)
                 (A) (A) (A) (A) (A) (A) (A) (A) (A) (A) (A) (A)
                 (A) (A) (A) (A) (A) (A) (A) (A) (A) (A) (A) (A)
                 (A) (A) (A) (A) (A) (A) (A) (A) (A) (A) (A) (A)
                 (A) (A) (A) (A) (A) (A) (A) (A) (A) (A) (A) (A)
                 (A) (A) (A) (A) (A) (A) (A) (A) (A) (A) (A) (A)
                 (A) (A) (A) (A) (A) (A) (A) (A) (A) (A) (A) (A)
                 (A) (A) (A) (A) (A) (A) (A) (A) (A) (A) (A) (A)
                 (A) (A) (A) (A) (A) (A) (A) (A) (A) (A) (A) (A)
                 (A) (A) (A) (A) (A) (A) (A) (A) (A) (A) (A) (A)
                 (A) (A) (A) (A) (A) (A) (A) (A) (A) (A) (A) (A)
                 (A) (A) (A) (A) (A) (A) (A) (A) (A) (A) (A) (A)
                 (A) (A) (A) (A) (A) (A) (A) (A) (A) (A) (A) (A)
                 (A) (A) (A) (A) (A) (A) (A) (A) (A) (A) (A) (A)
                 (A) (A) (A) (A) (A) (A) (A) (A) (A) (A) (A) (A)
                 (A) (A) (A) (A) (A) (A) (A) (A) (A) (A) (A) (A)
                 (A) (A) (A) (A) (A) (A) (A) (A) (A) (A) (A) (A)
                 (A) (A) (A) (A) (A) (A) (A) (A) (A) (A) (A) (A)
                 (A) (A) (A) (A) (A) (A) (A) (A) (A) (A) (A) (A)
                 (A) (A) (A) (A) (A) (A) (A) (A) (A) (A) (A) (A)
                 (A) (A) (A) (A) (A) (A) (A) (A) (A) (A) (A) (A)
     4 initial guesses have been made.
 Convergence on wavefunction:    0.001000000000000
 Iteration     1 Dimension     4 NMult     0 NNew      4
 CISAX will form     4 AO SS matrices at one time.
 Iteration     2 Dimension     6 NMult     4 NNew      2
 Iteration     3 Dimension     8 NMult     6 NNew      2
 Iteration     4 Dimension    10 NMult     8 NNew      2
 Iteration     5 Dimension    12 NMult    10 NNew      2
 Iteration     6 Dimension    14 NMult    12 NNew      2
 ***********************************************************************
 Excited states from <AA,BB:AA,BB> singles matrix:
 ***********************************************************************
 
 Ground to excited state transition densities written to RWF  633
 Ground to excited state transition electric dipole moments (Au):
       state          X           Y           Z        Dip. S.      Osc.
         1        -0.9237      2.7812     -0.2506      8.6514      0.4056
 Ground to excited state transition velocity dipole moments (Au):
       state          X           Y           Z        Dip. S.      Osc.
         1         0.0652     -0.1868      0.0171      0.0394      0.3736
 Ground to excited state transition magnetic dipole moments (Au):
       state          X           Y           Z
         1         0.3018      0.6079      2.2743
 Ground to excited state transition velocity quadrupole moments (Au):
       state          XX          YY          ZZ          XY          XZ          YZ
         1         0.4520     -0.6613      0.0777     -0.4331     -0.0566      0.0350
 <0|del|b> * <b|rxdel|0> + <0|del|b> * <b|delr+rdel|0>
 Rotatory Strengths (R) in cgs (10**-40 erg-esu-cm/Gauss)
       state          XX          YY          ZZ    R(velocity)    E-M Angle
         1      -466.1083    342.4222   -430.2837   -184.6566       96.71
 1/2[<0|r|b>*<b|rxdel|0> + (<0|rxdel|b>*<b|r|0>)*]
 Rotatory Strengths (R) in cgs (10**-40 erg-esu-cm/Gauss)
       state          XX          YY          ZZ     R(length)
         1       197.1617  -1195.6740    403.0058   -198.5022
  1/2[<0|del|b>*<b|r|0> + (<0|r|b>*<b|del|0>)*] (Au)
       state          X           Y           Z        Dip. S.   Osc.(frdel)
         1        -0.0602     -0.5194     -0.0043      0.5839      0.3892

 Excitation energies and oscillator strengths:
 
 Excited State   1:      Singlet-A      1.9136 eV  647.90 nm  f=0.4056  <S**2>=0.000
     156 ->157         0.70831
     156 <-157        -0.12627
 This state for optimization and/or second-order correction.
 Total Energy, E(TD-HF/TD-DFT) =  -1948.99291313    
 Copying the excited state density for this state as the 1-particle RhoCI density.
 SavETr:  write IOETrn=   770 NScale= 10 NData=  16 NLR=1 NState=    1 LETran=      28.

 **********************************************************************

            Population analysis using the SCF density.

 **********************************************************************

 Orbital symmetries:
       Occupied  (A) (A) (A) (A) (A) (A) (A) (A) (A) (A) (A) (A)
                 (A) (A) (A) (A) (A) (A) (A) (A) (A) (A) (A) (A)
                 (A) (A) (A) (A) (A) (A) (A) (A) (A) (A) (A) (A)
                 (A) (A) (A) (A) (A) (A) (A) (A) (A) (A) (A) (A)
                 (A) (A) (A) (A) (A) (A) (A) (A) (A) (A) (A) (A)
                 (A) (A) (A) (A) (A) (A) (A) (A) (A) (A) (A) (A)
                 (A) (A) (A) (A) (A) (A) (A) (A) (A) (A) (A) (A)
                 (A) (A) (A) (A) (A) (A) (A) (A) (A) (A) (A) (A)
                 (A) (A) (A) (A) (A) (A) (A) (A) (A) (A) (A) (A)
                 (A) (A) (A) (A) (A) (A) (A) (A) (A) (A) (A) (A)
                 (A) (A) (A) (A) (A) (A) (A) (A) (A) (A) (A) (A)
                 (A) (A) (A) (A) (A) (A) (A) (A) (A) (A) (A) (A)
                 (A) (A) (A) (A) (A) (A) (A) (A) (A) (A) (A) (A)
       Virtual   (A) (A) (A) (A) (A) (A) (A) (A) (A) (A) (A) (A)
                 (A) (A) (A) (A) (A) (A) (A) (A) (A) (A) (A) (A)
                 (A) (A) (A) (A) (A) (A) (A) (A) (A) (A) (A) (A)
                 (A) (A) (A) (A) (A) (A) (A) (A) (A) (A) (A) (A)
                 (A) (A) (A) (A) (A) (A) (A) (A) (A) (A) (A) (A)
                 (A) (A) (A) (A) (A) (A) (A) (A) (A) (A) (A) (A)
                 (A) (A) (A) (A) (A) (A) (A) (A) (A) (A) (A) (A)
                 (A) (A) (A) (A) (A) (A) (A) (A) (A) (A) (A) (A)
                 (A) (A) (A) (A) (A) (A) (A) (A) (A) (A) (A) (A)
                 (A) (A) (A) (A) (A) (A) (A) (A) (A) (A) (A) (A)
                 (A) (A) (A) (A) (A) (A) (A) (A) (A) (A) (A) (A)
                 (A) (A) (A) (A) (A) (A) (A) (A) (A) (A) (A) (A)
                 (A) (A) (A) (A) (A) (A) (A) (A) (A) (A) (A) (A)
                 (A) (A) (A) (A) (A) (A) (A) (A) (A) (A) (A) (A)
                 (A) (A) (A) (A) (A) (A) (A) (A) (A) (A) (A) (A)
                 (A) (A) (A) (A) (A) (A) (A) (A) (A) (A) (A) (A)
                 (A) (A) (A) (A) (A) (A) (A) (A) (A) (A) (A) (A)
                 (A) (A) (A) (A) (A) (A) (A) (A) (A) (A) (A) (A)
                 (A) (A) (A) (A) (A) (A) (A) (A) (A) (A) (A) (A)
                 (A) (A) (A) (A) (A) (A) (A) (A) (A) (A) (A) (A)
                 (A) (A) (A) (A) (A) (A) (A) (A) (A) (A) (A) (A)
                 (A) (A) (A) (A) (A) (A) (A) (A) (A) (A) (A) (A)
                 (A) (A) (A) (A) (A) (A) (A) (A) (A) (A) (A) (A)
                 (A) (A) (A) (A) (A) (A) (A) (A) (A) (A) (A) (A)
                 (A) (A) (A) (A) (A) (A) (A) (A) (A) (A) (A) (A)
                 (A) (A) (A) (A) (A) (A) (A) (A) (A) (A) (A) (A)
                 (A) (A) (A) (A) (A) (A) (A) (A) (A) (A) (A) (A)
                 (A) (A) (A) (A) (A) (A) (A) (A) (A) (A) (A) (A)
                 (A) (A) (A) (A) (A) (A) (A) (A) (A) (A) (A) (A)
                 (A) (A) (A) (A) (A) (A) (A) (A) (A) (A) (A) (A)
                 (A) (A) (A) (A) (A) (A) (A) (A) (A) (A) (A) (A)
                 (A) (A) (A) (A) (A) (A) (A) (A) (A) (A) (A) (A)
                 (A) (A) (A) (A) (A) (A) (A) (A) (A) (A) (A) (A)
                 (A) (A) (A) (A) (A) (A) (A) (A) (A) (A) (A) (A)
                 (A) (A) (A) (A) (A) (A) (A) (A) (A) (A) (A) (A)
                 (A) (A) (A) (A) (A) (A) (A) (A) (A) (A) (A) (A)
                 (A) (A) (A) (A) (A) (A) (A) (A) (A) (A) (A) (A)
                 (A) (A) (A) (A) (A) (A) (A) (A) (A) (A) (A) (A)
                 (A) (A) (A) (A) (A) (A) (A) (A) (A) (A) (A) (A)
                 (A) (A) (A) (A) (A) (A) (A) (A) (A) (A) (A) (A)
                 (A) (A) (A) (A) (A) (A) (A) (A) (A) (A) (A) (A)
                 (A) (A) (A) (A) (A) (A) (A) (A) (A) (A) (A) (A)
                 (A) (A) (A) (A) (A) (A) (A) (A) (A) (A) (A) (A)
                 (A) (A) (A) (A) (A) (A) (A) (A) (A) (A) (A) (A)
                 (A) (A) (A) (A) (A) (A) (A) (A) (A) (A) (A) (A)
                 (A) (A) (A) (A) (A) (A) (A) (A) (A) (A) (A) (A)
                 (A) (A) (A) (A) (A) (A) (A) (A) (A) (A) (A) (A)
                 (A) (A) (A) (A) (A) (A) (A) (A) (A) (A) (A) (A)
                 (A) (A) (A) (A) (A) (A) (A) (A) (A) (A) (A) (A)
                 (A) (A) (A) (A) (A) (A) (A) (A) (A) (A) (A) (A)
                 (A) (A) (A) (A) (A) (A) (A) (A) (A) (A) (A) (A)
                 (A) (A) (A) (A) (A) (A) (A) (A) (A) (A) (A) (A)
                 (A) (A) (A) (A) (A) (A) (A) (A) (A) (A) (A) (A)
 The electronic state is 1-A.
 Alpha  occ. eigenvalues --  -19.22141 -19.18059 -19.15208 -19.12668 -19.11453
 Alpha  occ. eigenvalues --  -19.09645 -14.38078 -14.38024 -14.36011 -14.27269
 Alpha  occ. eigenvalues --  -10.35298 -10.32141 -10.28638 -10.25889 -10.25550
 Alpha  occ. eigenvalues --  -10.23921 -10.23745 -10.23521 -10.23234 -10.22794
 Alpha  occ. eigenvalues --  -10.22537 -10.21661 -10.21530 -10.21458 -10.20995
 Alpha  occ. eigenvalues --  -10.20439 -10.20392 -10.20303 -10.20290 -10.19708
 Alpha  occ. eigenvalues --  -10.19599 -10.19571 -10.19324 -10.19223 -10.19058
 Alpha  occ. eigenvalues --  -10.19039 -10.18935 -10.18555 -10.18316 -10.18049
 Alpha  occ. eigenvalues --  -10.18029 -10.17426 -10.17037  -1.10350  -1.07984
 Alpha  occ. eigenvalues --   -1.07947  -1.00516  -0.99919  -0.98486  -0.98416
 Alpha  occ. eigenvalues --   -0.96994  -0.96871  -0.90096  -0.83899  -0.83619
 Alpha  occ. eigenvalues --   -0.81698  -0.80791  -0.79181  -0.78874  -0.77883
 Alpha  occ. eigenvalues --   -0.77759  -0.76523  -0.75192  -0.74388  -0.72376
 Alpha  occ. eigenvalues --   -0.71977  -0.70436  -0.69904  -0.68662  -0.67443
 Alpha  occ. eigenvalues --   -0.66591  -0.66312  -0.65161  -0.62500  -0.60648
 Alpha  occ. eigenvalues --   -0.60123  -0.59263  -0.58000  -0.57180  -0.57007
 Alpha  occ. eigenvalues --   -0.56277  -0.55156  -0.54310  -0.54173  -0.52535
 Alpha  occ. eigenvalues --   -0.52188  -0.51690  -0.51039  -0.50869  -0.49800
 Alpha  occ. eigenvalues --   -0.49356  -0.49264  -0.48610  -0.48469  -0.48022
 Alpha  occ. eigenvalues --   -0.47641  -0.46690  -0.46482  -0.45917  -0.45588
 Alpha  occ. eigenvalues --   -0.45178  -0.45123  -0.44420  -0.44289  -0.43556
 Alpha  occ. eigenvalues --   -0.43410  -0.43257  -0.43067  -0.42860  -0.42723
 Alpha  occ. eigenvalues --   -0.42312  -0.42191  -0.41755  -0.41675  -0.41416
 Alpha  occ. eigenvalues --   -0.41103  -0.40581  -0.40487  -0.40134  -0.39742
 Alpha  occ. eigenvalues --   -0.39234  -0.39144  -0.38751  -0.38443  -0.38141
 Alpha  occ. eigenvalues --   -0.37983  -0.37659  -0.37260  -0.37075  -0.36722
 Alpha  occ. eigenvalues --   -0.36488  -0.35906  -0.35717  -0.35247  -0.34849
 Alpha  occ. eigenvalues --   -0.34475  -0.33773  -0.33377  -0.33078  -0.32605
 Alpha  occ. eigenvalues --   -0.32513  -0.31617  -0.30556  -0.30294  -0.29376
 Alpha  occ. eigenvalues --   -0.27994  -0.27420  -0.26397  -0.26202  -0.25963
 Alpha  occ. eigenvalues --   -0.25567  -0.25272  -0.22915  -0.22619  -0.21169
 Alpha  occ. eigenvalues --   -0.17596
 Alpha virt. eigenvalues --   -0.10149  -0.05241  -0.04914  -0.03322  -0.01225
 Alpha virt. eigenvalues --   -0.00931   0.01072   0.01899   0.02975   0.04413
 Alpha virt. eigenvalues --    0.04714   0.05080   0.05359   0.05705   0.06562
 Alpha virt. eigenvalues --    0.06799   0.07161   0.07610   0.07719   0.07986
 Alpha virt. eigenvalues --    0.08022   0.08242   0.09078   0.09268   0.09512
 Alpha virt. eigenvalues --    0.09886   0.10116   0.10441   0.10597   0.11046
 Alpha virt. eigenvalues --    0.11554   0.11918   0.12363   0.12900   0.13045
 Alpha virt. eigenvalues --    0.13205   0.13510   0.13746   0.13970   0.14298
 Alpha virt. eigenvalues --    0.14879   0.15052   0.15384   0.15685   0.15955
 Alpha virt. eigenvalues --    0.16213   0.16322   0.17031   0.17650   0.18115
 Alpha virt. eigenvalues --    0.18464   0.18536   0.19087   0.19175   0.19810
 Alpha virt. eigenvalues --    0.19943   0.20707   0.20932   0.21527   0.21605
 Alpha virt. eigenvalues --    0.22201   0.22723   0.23370   0.23473   0.24079
 Alpha virt. eigenvalues --    0.24825   0.24930   0.25372   0.25641   0.26112
 Alpha virt. eigenvalues --    0.26369   0.26717   0.27140   0.27802   0.28140
 Alpha virt. eigenvalues --    0.29127   0.29333   0.29997   0.30789   0.31319
 Alpha virt. eigenvalues --    0.31526   0.31997   0.32364   0.33227   0.33598
 Alpha virt. eigenvalues --    0.34230   0.34592   0.35436   0.36348   0.36509
 Alpha virt. eigenvalues --    0.36772   0.37566   0.37920   0.39177   0.39575
 Alpha virt. eigenvalues --    0.39758   0.40536   0.40741   0.41086   0.41404
 Alpha virt. eigenvalues --    0.41918   0.42075   0.42518   0.43050   0.43163
 Alpha virt. eigenvalues --    0.43391   0.44182   0.44386   0.44761   0.44986
 Alpha virt. eigenvalues --    0.45305   0.45461   0.46002   0.46285   0.46436
 Alpha virt. eigenvalues --    0.46738   0.46936   0.47187   0.47544   0.47899
 Alpha virt. eigenvalues --    0.48023   0.48345   0.48505   0.48717   0.49333
 Alpha virt. eigenvalues --    0.50232   0.50278   0.51043   0.51176   0.51603
 Alpha virt. eigenvalues --    0.51820   0.52442   0.52571   0.52900   0.52934
 Alpha virt. eigenvalues --    0.53834   0.54012   0.54522   0.54984   0.55485
 Alpha virt. eigenvalues --    0.55769   0.56111   0.56500   0.56688   0.57150
 Alpha virt. eigenvalues --    0.57239   0.57831   0.58168   0.58366   0.58461
 Alpha virt. eigenvalues --    0.59268   0.59559   0.59982   0.60230   0.60611
 Alpha virt. eigenvalues --    0.60965   0.61077   0.61246   0.61480   0.61838
 Alpha virt. eigenvalues --    0.61991   0.62562   0.62749   0.62959   0.63302
 Alpha virt. eigenvalues --    0.63664   0.63759   0.64123   0.64263   0.64495
 Alpha virt. eigenvalues --    0.64702   0.65088   0.65481   0.65653   0.66014
 Alpha virt. eigenvalues --    0.66162   0.66352   0.66877   0.66916   0.67048
 Alpha virt. eigenvalues --    0.67632   0.67926   0.68045   0.68615   0.68667
 Alpha virt. eigenvalues --    0.68788   0.68977   0.69278   0.69575   0.69936
 Alpha virt. eigenvalues --    0.70399   0.70483   0.70664   0.71044   0.71343
 Alpha virt. eigenvalues --    0.71522   0.71652   0.71808   0.72048   0.72447
 Alpha virt. eigenvalues --    0.72915   0.73212   0.73584   0.73694   0.74548
 Alpha virt. eigenvalues --    0.74699   0.74873   0.75141   0.75344   0.76004
 Alpha virt. eigenvalues --    0.76110   0.76495   0.76749   0.77401   0.77725
 Alpha virt. eigenvalues --    0.78323   0.78601   0.79251   0.79924   0.80097
 Alpha virt. eigenvalues --    0.80388   0.81034   0.81213   0.81723   0.82364
 Alpha virt. eigenvalues --    0.82506   0.82933   0.84747   0.84985   0.85464
 Alpha virt. eigenvalues --    0.85755   0.87615   0.87819   0.89172   0.89427
 Alpha virt. eigenvalues --    0.90181   0.90661   0.91093   0.91599   0.91987
 Alpha virt. eigenvalues --    0.92722   0.93273   0.93771   0.94430   0.95212
 Alpha virt. eigenvalues --    0.95565   0.95968   0.96277   0.96383   0.96774
 Alpha virt. eigenvalues --    0.97626   0.98533   0.98711   0.99104   1.00298
 Alpha virt. eigenvalues --    1.00783   1.01081   1.01431   1.02417   1.02906
 Alpha virt. eigenvalues --    1.04424   1.04704   1.06584   1.07009   1.07611
 Alpha virt. eigenvalues --    1.08513   1.09527   1.09993   1.10217   1.10814
 Alpha virt. eigenvalues --    1.11759   1.12073   1.12560   1.13035   1.13217
 Alpha virt. eigenvalues --    1.13909   1.14626   1.14840   1.15559   1.16685
 Alpha virt. eigenvalues --    1.17755   1.18009   1.18493   1.19407   1.19776
 Alpha virt. eigenvalues --    1.20559   1.21112   1.21810   1.22594   1.22868
 Alpha virt. eigenvalues --    1.23918   1.25155   1.25493   1.25815   1.26585
 Alpha virt. eigenvalues --    1.27239   1.27933   1.28350   1.29514   1.30230
 Alpha virt. eigenvalues --    1.30505   1.30989   1.31565   1.32318   1.34097
 Alpha virt. eigenvalues --    1.34548   1.34988   1.35425   1.36643   1.36790
 Alpha virt. eigenvalues --    1.37471   1.37685   1.38245   1.39097   1.40085
 Alpha virt. eigenvalues --    1.40384   1.40847   1.41777   1.42005   1.42780
 Alpha virt. eigenvalues --    1.43968   1.44677   1.45003   1.45562   1.45825
 Alpha virt. eigenvalues --    1.46964   1.47200   1.47351   1.47649   1.48714
 Alpha virt. eigenvalues --    1.48909   1.49702   1.50764   1.51268   1.51653
 Alpha virt. eigenvalues --    1.51958   1.52551   1.53040   1.53477   1.53822
 Alpha virt. eigenvalues --    1.53906   1.54811   1.55710   1.56109   1.56737
 Alpha virt. eigenvalues --    1.57591   1.58090   1.59308   1.60309   1.60719
 Alpha virt. eigenvalues --    1.61304   1.61415   1.61515   1.61668   1.62729
 Alpha virt. eigenvalues --    1.63634   1.64437   1.64527   1.64735   1.65192
 Alpha virt. eigenvalues --    1.66024   1.66343   1.66510   1.66837   1.67158
 Alpha virt. eigenvalues --    1.67718   1.68229   1.68577   1.68841   1.69478
 Alpha virt. eigenvalues --    1.70169   1.70352   1.71141   1.71663   1.71896
 Alpha virt. eigenvalues --    1.72144   1.72473   1.73215   1.73699   1.73842
 Alpha virt. eigenvalues --    1.74213   1.74587   1.74835   1.75402   1.76175
 Alpha virt. eigenvalues --    1.76455   1.76655   1.77440   1.77666   1.77957
 Alpha virt. eigenvalues --    1.78191   1.79100   1.79860   1.80321   1.80718
 Alpha virt. eigenvalues --    1.81433   1.81559   1.81820   1.82293   1.82566
 Alpha virt. eigenvalues --    1.82876   1.83598   1.83744   1.83770   1.84646
 Alpha virt. eigenvalues --    1.85072   1.85200   1.85520   1.85968   1.86175
 Alpha virt. eigenvalues --    1.86586   1.87092   1.87576   1.88112   1.88389
 Alpha virt. eigenvalues --    1.88815   1.89309   1.89538   1.89904   1.90635
 Alpha virt. eigenvalues --    1.91281   1.91593   1.91641   1.92179   1.92322
 Alpha virt. eigenvalues --    1.92989   1.93299   1.94191   1.94521   1.94963
 Alpha virt. eigenvalues --    1.95638   1.96114   1.96913   1.97358   1.97381
 Alpha virt. eigenvalues --    1.97841   1.97918   1.98249   1.98846   1.99046
 Alpha virt. eigenvalues --    1.99301   2.00266   2.00922   2.01374   2.01687
 Alpha virt. eigenvalues --    2.02092   2.02622   2.02778   2.03159   2.04420
 Alpha virt. eigenvalues --    2.04876   2.05823   2.05990   2.06496   2.06776
 Alpha virt. eigenvalues --    2.07265   2.07662   2.08412   2.08706   2.08932
 Alpha virt. eigenvalues --    2.09475   2.10061   2.10228   2.10979   2.11903
 Alpha virt. eigenvalues --    2.12970   2.13072   2.13835   2.14436   2.14567
 Alpha virt. eigenvalues --    2.15424   2.16036   2.16495   2.17622   2.18498
 Alpha virt. eigenvalues --    2.19254   2.19490   2.21215   2.21849   2.22601
 Alpha virt. eigenvalues --    2.22850   2.23795   2.23935   2.24791   2.25097
 Alpha virt. eigenvalues --    2.25577   2.26820   2.27438   2.28291   2.28581
 Alpha virt. eigenvalues --    2.28821   2.29017   2.29423   2.30622   2.30852
 Alpha virt. eigenvalues --    2.31622   2.32381   2.32994   2.33438   2.34172
 Alpha virt. eigenvalues --    2.35152   2.35415   2.36277   2.37748   2.38058
 Alpha virt. eigenvalues --    2.38802   2.39748   2.40558   2.41355   2.41517
 Alpha virt. eigenvalues --    2.42854   2.43568   2.44581   2.44948   2.46060
 Alpha virt. eigenvalues --    2.46441   2.46487   2.47019   2.47732   2.47974
 Alpha virt. eigenvalues --    2.49721   2.49934   2.51613   2.52227   2.52505
 Alpha virt. eigenvalues --    2.53456   2.54401   2.55177   2.56112   2.57200
 Alpha virt. eigenvalues --    2.57652   2.58439   2.58763   2.59370   2.59501
 Alpha virt. eigenvalues --    2.61349   2.63026   2.64005   2.64270   2.64393
 Alpha virt. eigenvalues --    2.64823   2.65297   2.65541   2.66810   2.66951
 Alpha virt. eigenvalues --    2.67639   2.68213   2.68586   2.69177   2.70344
 Alpha virt. eigenvalues --    2.71144   2.71641   2.72043   2.72522   2.73444
 Alpha virt. eigenvalues --    2.73842   2.74292   2.74965   2.75371   2.75705
 Alpha virt. eigenvalues --    2.76244   2.77948   2.78309   2.79030   2.79863
 Alpha virt. eigenvalues --    2.80279   2.81295   2.81691   2.82049   2.82909
 Alpha virt. eigenvalues --    2.83973   2.84443   2.85167   2.85298   2.85914
 Alpha virt. eigenvalues --    2.86274   2.87113   2.87536   2.87849   2.90283
 Alpha virt. eigenvalues --    2.90773   2.90830   2.91205   2.91873   2.92540
 Alpha virt. eigenvalues --    2.93418   2.93919   2.95107   2.96417   2.96929
 Alpha virt. eigenvalues --    2.98123   2.99083   3.00812   3.01698   3.02674
 Alpha virt. eigenvalues --    3.02868   3.04572   3.06009   3.06504   3.08375
 Alpha virt. eigenvalues --    3.08921   3.09885   3.10107   3.12524   3.12902
 Alpha virt. eigenvalues --    3.13726   3.13910   3.14824   3.16508   3.18621
 Alpha virt. eigenvalues --    3.18686   3.18909   3.20601   3.21939   3.22740
 Alpha virt. eigenvalues --    3.24057   3.24216   3.26544   3.27633   3.27944
 Alpha virt. eigenvalues --    3.30396   3.32934   3.37919   3.41024   3.42775
 Alpha virt. eigenvalues --    3.45890   3.51051   3.51115   3.54930   3.57945
 Alpha virt. eigenvalues --    3.61377   3.64671   3.65941   3.69794   3.72037
 Alpha virt. eigenvalues --    3.74323
          Condensed to atoms (all electrons):
 Mulliken charges:
               1
     1  O   -0.143046
     2  O   -0.208473
     3  O   -0.217743
     4  O   -0.321180
     5  O   -0.269244
     6  O   -0.232748
     7  N    0.007306
     8  N   -0.152338
     9  N   -0.122686
    10  N   -0.342152
    11  C   -0.080881
    12  C    0.024748
    13  C   -0.217783
    14  C    0.041519
    15  C   -0.091488
    16  C    0.117847
    17  C   -0.063244
    18  C   -0.140963
    19  C    0.086940
    20  C   -0.019568
    21  C    0.043679
    22  C    0.035022
    23  C   -0.078909
    24  C    0.101625
    25  C   -0.089864
    26  C    0.126810
    27  C    0.042210
    28  C    0.065480
    29  C   -0.057472
    30  C    0.221131
    31  C   -0.120528
    32  C    0.012383
    33  C   -0.133206
    34  C    0.136746
    35  C   -0.076667
    36  C   -0.192644
    37  C    0.167927
    38  C    0.179791
    39  C    0.182954
    40  C    0.049633
    41  C    0.171726
    42  C    0.015055
    43  C    0.056581
    44  H    0.094929
    45  H    0.058791
    46  H    0.015048
    47  H   -0.003031
    48  H    0.064039
    49  H    0.016245
    50  H    0.034537
    51  H    0.041106
    52  H    0.180364
    53  H    0.007792
    54  H    0.021261
    55  H    0.025939
    56  H    0.181976
    57  H    0.010244
    58  H    0.081043
    59  H    0.049501
    60  H    0.051246
    61  H   -0.029391
    62  H    0.002532
    63  H   -0.014001
    64  H   -0.015483
    65  H    0.016761
    66  H    0.015402
    67  H    0.025372
    68  H   -0.060612
    69  H    0.099690
    70  H   -0.012107
    71  H   -0.007962
    72  H   -0.014915
    73  H   -0.024126
    74  H    0.040780
    75  H    0.037864
    76  H    0.054758
    77  H   -0.018977
    78  H    0.010382
    79  H    0.025619
    80  H    0.235414
    81  H    0.187680
 Sum of Mulliken charges =  -0.00000
 Mulliken charges with hydrogens summed into heavy atoms:
               1
     1  O   -0.143046
     2  O    0.026941
     3  O   -0.030063
     4  O   -0.321180
     5  O   -0.269244
     6  O   -0.232748
     7  N    0.102236
     8  N    0.028026
     9  N    0.059290
    10  N   -0.342152
    11  C   -0.080881
    12  C    0.024748
    13  C   -0.217783
    14  C    0.041519
    15  C   -0.091488
    16  C    0.117847
    17  C   -0.004453
    18  C   -0.140963
    19  C    0.098958
    20  C    0.044471
    21  C    0.043679
    22  C    0.035022
    23  C   -0.078909
    24  C    0.152407
    25  C   -0.048758
    26  C    0.181801
    27  C    0.042210
    28  C    0.156767
    29  C    0.043276
    30  C    0.180271
    31  C   -0.136010
    32  C    0.069917
    33  C   -0.193818
    34  C    0.136746
    35  C   -0.076667
    36  C   -0.192644
    37  C    0.167927
    38  C    0.259412
    39  C    0.182954
    40  C    0.010592
    41  C    0.171726
    42  C    0.148457
    43  C    0.073605
 Electronic spatial extent (au):  <R**2>=          30612.1711
 Charge=              0.0000 electrons
 Dipole moment (field-independent basis, Debye):
    X=             -0.5869    Y=             -1.2422    Z=             -0.8848  Tot=              1.6342
 Quadrupole moment (field-independent basis, Debye-Ang):
   XX=           -250.8680   YY=           -248.5070   ZZ=           -251.7568
   XY=              4.4428   XZ=             15.3961   YZ=             -6.7742
 Traceless Quadrupole moment (field-independent basis, Debye-Ang):
   XX=             -0.4907   YY=              1.8703   ZZ=             -1.3796
   XY=              4.4428   XZ=             15.3961   YZ=             -6.7742
 Octapole moment (field-independent basis, Debye-Ang**2):
  XXX=            115.4652  YYY=             63.5797  ZZZ=            -21.9696  XYY=           -170.5203
  XXY=             43.4598  XXZ=           -114.6526  XZZ=            -30.7144  YZZ=            -41.7162
  YYZ=             35.0569  XYZ=            -25.4932
 Hexadecapole moment (field-independent basis, Debye-Ang**3):
 XXXX=         -22069.2212 YYYY=         -16894.8591 ZZZZ=          -1487.3356 XXXY=            175.4620
 XXXZ=            965.4950 YYYX=            693.1651 YYYZ=           -273.7868 ZZZX=             53.8536
 ZZZY=             77.3596 XXYY=          -6716.7232 XXZZ=          -3951.8617 YYZZ=          -3066.4036
 XXYZ=             76.4284 YYXZ=            182.3316 ZZXY=            144.5814
 N-N= 5.046245544410D+03 E-N=-1.462423319778D+04  KE= 1.929001290249D+03
 1\1\GINC-RYZEN-SSD1\SP\RB3LYP TD-FC\SVP\C33H38N4O6\PADAWAN\30-Jun-2019
 \0\\# td=(NStates=1) B3LYP/SVP\\TD\\0,1\O,0,-4.4797580966,-4.789098991
 1,1.6691322768\O,0,3.1666872668,-4.9218467339,1.2636442962\O,0,6.96016
 6398,-1.5586834094,1.8248227028\O,0,3.6950712399,-2.9081499402,0.15918
 87773\O,0,7.510319784,-0.953986778,-0.3279823675\O,0,-3.020932422,2.40
 29176893,-0.0101859232\N,0,-0.2954839301,-0.5793572855,-0.5063392701\N
 ,0,1.5686345462,1.7128736662,-0.3421458767\N,0,-3.5216291059,-3.209309
 9778,0.5532437957\N,0,-0.7622076237,3.0014705653,-0.0200670306\C,0,0.6
 407553079,-2.3716826066,-1.3471667998\C,0,0.9427932131,-1.0706670178,-
 0.8733898943\C,0,-0.6750018253,-2.5822221116,-1.1744676462\C,0,-1.3301
 551217,-1.4015337953,-0.691910657\C,0,3.785916533,1.4778522705,-0.2787
 840948\C,0,2.5709977928,0.7826095928,-0.4613176904\C,0,2.2815051548,-0
 .5474808939,-0.8963518802\C,0,3.5620300399,2.7729753057,-0.0796087338\
 C,0,1.6068918417,-3.3853337992,-1.7872389249\C,0,-5.6332326585,-2.6764
 295526,1.3061705571\C,0,-3.6520272656,-1.9248675488,0.065740359\C,0,2.
 1315274129,2.9446808963,-0.0008975668\C,0,-5.1583720335,-1.6465701602,
 0.3858572246\C,0,5.1511035885,0.7833880088,-0.4704401004\C,0,-2.678118
 7741,-1.0146182334,-0.459536368\C,0,-1.452663204,-3.8548099833,-1.5818
 514288\C,0,-4.5342808949,-3.7176802737,1.2358126959\C,0,1.9746679428,-
 4.508643084,-0.7509479506\C,0,5.4958394602,-0.0782938933,0.7500831144\
 C,0,4.4926350497,3.8743186632,0.2484970335\C,0,1.3414953909,4.16267067
 46,0.2930894284\C,0,-6.9444955802,-3.1713345133,1.0148509512\C,0,-5.82
 73413366,-0.659390669,-0.2189933737\C,0,-0.0329582848,4.1349881704,0.1
 849471203\C,0,-0.9317741391,5.2421453075,0.5005346821\C,0,-2.180113337
 5,4.7492510479,0.4514465476\C,0,3.0125040917,-4.0417707962,0.242255624
 6\C,0,-5.4427189327,0.3069559242,-1.3193430013\C,0,6.7314157078,-0.870
 4353276,0.6534784704\C,0,-3.607886548,5.3875050487,0.382209036\C,0,-2.
 1290163379,3.2415963509,0.0602869535\C,0,-0.3705411916,6.663680236,0.7
 024853383\C,0,-4.0741859555,5.7814265476,-0.9571564913\H,0,-0.58540610
 55,0.2944651521,-0.2255431076\H,0,2.9778718018,-1.4095129534,-1.233722
 8809\H,0,2.5303842893,-3.0051852254,-2.2782302577\H,0,1.1554023195,-3.
 8906209797,-2.6628286494\H,0,-5.7121530215,-2.3638147706,2.4813302935\
 H,0,5.0490152117,0.1098056971,-1.3386670197\H,0,6.1151934849,1.4505393
 632,-0.6063819378\H,0,-3.0721953152,0.0279772939,-0.5312560312\H,0,0.4
 509614278,1.6292541084,-0.3735368258\H,0,-1.4864942406,-4.5336054647,-
 0.7459253982\H,0,-2.4599096207,-3.4536830703,-1.7351428345\H,0,-1.0750
 474558,-4.2919573701,-2.5474583488\H,0,-2.5428080386,-3.6470808565,0.9
 491221592\H,0,1.2004258493,-4.7519376763,-0.1360073182\H,0,2.499509136
 7,-5.4336560741,-1.3163761515\H,0,4.760720493,-0.8903750886,0.89844043
 02\H,0,5.2583300326,0.59583402,1.6774522159\H,0,4.4210196223,4.5447349
 409,-0.4617461573\H,0,5.554812104,3.6403367529,0.4505015734\H,0,4.2857
 579932,4.3765131594,1.1081321171\H,0,1.9774835804,5.0568856182,0.50593
 03799\H,0,-7.6254153131,-2.2586018547,1.1853332273\H,0,-7.3450101453,-
 3.9566734332,1.5655389218\H,0,-7.2046986539,-3.2922669902,-0.171075518
 4\H,0,-6.7864759893,-0.7059509264,0.1258145094\H,0,-5.1135161934,1.190
 1832152,-0.5735912072\H,0,-6.2359154212,0.6106386922,-1.8687835569\H,0
 ,-4.7302515207,-0.086251779,-1.8723084435\H,0,-3.772217101,6.362288884
 7,1.120179722\H,0,-4.3030879863,4.8305421864,0.9126234001\H,0,0.395934
 1587,6.5022221821,1.4663993724\H,0,-1.253456729,7.4661233078,1.1095502
 114\H,0,-0.0389647089,7.1006985704,-0.3461682826\H,0,-3.5908093767,6.5
 771235955,-1.2233201481\H,0,-5.1848903121,5.8479475358,-0.8088960313\H
 ,0,-4.049049426,4.9082823205,-1.7999297314\H,0,3.5712324297,-4.1847627
 065,1.9298416212\H,0,7.9313303777,-1.762356888,1.6954997126\\Version=E
 S64L-G16RevA.03\State=1-A\HF=-1949.063238\RMSD=4.767e-09\PG=C01 [X(C33
 H38N4O6)]\\@


 THE WORLD OF CHEMICAL REACTIONS IS LIKE A STAGE,
 ON WHICH SCENE AFTER SCENE IS CEASELESSLY PLAYED.
 THE ACTORS ON IT ARE THE ELEMENTS.
   -- CLEMENS WINKLER   BER. 30,13(1897)
 (DISCOVERER OF GERMANIUM, FEB 6, 1886)
 Job cpu time:       0 days 16 hours 29 minutes 46.8 seconds.
 Elapsed time:       0 days  4 hours  8 minutes 37.7 seconds.
 File lengths (MBytes):  RWF=   2591 Int=      0 D2E=      0 Chk=     65 Scr=      1
 Normal termination of Gaussian 16 at Sun Jun 30 10:02:36 2019.
