 Entering Gaussian System, Link 0=g16
 Input=Geometria-124-.com
 Output=Geometria-124-.log
 Initial command:
 /usr/local/g16/l1.exe "/home/padawan/israel-mol/b-caroten/spectra/abs/Gau-78761.inp" -scrdir="/home/padawan/israel-mol/b-caroten/spectra/abs/"
 Entering Link 1 = /usr/local/g16/l1.exe PID=     78763.
  
 Copyright (c) 1988,1990,1992,1993,1995,1998,2003,2009,2016,
            Gaussian, Inc.  All Rights Reserved.
  
 This is part of the Gaussian(R) 16 program.  It is based on
 the Gaussian(R) 09 system (copyright 2009, Gaussian, Inc.),
 the Gaussian(R) 03 system (copyright 2003, Gaussian, Inc.),
 the Gaussian(R) 98 system (copyright 1998, Gaussian, Inc.),
 the Gaussian(R) 94 system (copyright 1995, Gaussian, Inc.),
 the Gaussian 92(TM) system (copyright 1992, Gaussian, Inc.),
 the Gaussian 90(TM) system (copyright 1990, Gaussian, Inc.),
 the Gaussian 88(TM) system (copyright 1988, Gaussian, Inc.),
 the Gaussian 86(TM) system (copyright 1986, Carnegie Mellon
 University), and the Gaussian 82(TM) system (copyright 1983,
 Carnegie Mellon University). Gaussian is a federally registered
 trademark of Gaussian, Inc.
  
 This software contains proprietary and confidential information,
 including trade secrets, belonging to Gaussian, Inc.
  
 This software is provided under written license and may be
 used, copied, transmitted, or stored only in accord with that
 written license.
  
 The following legend is applicable only to US Government
 contracts under FAR:
  
                    RESTRICTED RIGHTS LEGEND
  
 Use, reproduction and disclosure by the US Government is
 subject to restrictions as set forth in subparagraphs (a)
 and (c) of the Commercial Computer Software - Restricted
 Rights clause in FAR 52.227-19.
  
 Gaussian, Inc.
 340 Quinnipiac St., Bldg. 40, Wallingford CT 06492
  
  
 ---------------------------------------------------------------
 Warning -- This program may not be used in any manner that
 competes with the business of Gaussian, Inc. or will provide
 assistance to any competitor of Gaussian, Inc.  The licensee
 of this program is prohibited from giving any competitor of
 Gaussian, Inc. access to this program.  By using this program,
 the user acknowledges that Gaussian, Inc. is engaged in the
 business of creating and licensing software in the field of
 computational chemistry and represents and warrants to the
 licensee that it is not a competitor of Gaussian, Inc. and that
 it will not use this program in any manner prohibited above.
 ---------------------------------------------------------------
  

 Cite this work as:
 Gaussian 16, Revision A.03,
 M. J. Frisch, G. W. Trucks, H. B. Schlegel, G. E. Scuseria, 
 M. A. Robb, J. R. Cheeseman, G. Scalmani, V. Barone, 
 G. A. Petersson, H. Nakatsuji, X. Li, M. Caricato, A. V. Marenich, 
 J. Bloino, B. G. Janesko, R. Gomperts, B. Mennucci, H. P. Hratchian, 
 J. V. Ortiz, A. F. Izmaylov, J. L. Sonnenberg, D. Williams-Young, 
 F. Ding, F. Lipparini, F. Egidi, J. Goings, B. Peng, A. Petrone, 
 T. Henderson, D. Ranasinghe, V. G. Zakrzewski, J. Gao, N. Rega, 
 G. Zheng, W. Liang, M. Hada, M. Ehara, K. Toyota, R. Fukuda, 
 J. Hasegawa, M. Ishida, T. Nakajima, Y. Honda, O. Kitao, H. Nakai, 
 T. Vreven, K. Throssell, J. A. Montgomery, Jr., J. E. Peralta, 
 F. Ogliaro, M. J. Bearpark, J. J. Heyd, E. N. Brothers, K. N. Kudin, 
 V. N. Staroverov, T. A. Keith, R. Kobayashi, J. Normand, 
 K. Raghavachari, A. P. Rendell, J. C. Burant, S. S. Iyengar, 
 J. Tomasi, M. Cossi, J. M. Millam, M. Klene, C. Adamo, R. Cammi, 
 J. W. Ochterski, R. L. Martin, K. Morokuma, O. Farkas, 
 J. B. Foresman, and D. J. Fox, Gaussian, Inc., Wallingford CT, 2016.
 
 ******************************************
 Gaussian 16:  ES64L-G16RevA.03 25-Dec-2016
                27-Jul-2019 
 ******************************************
 %nproc=4
 Will use up to    4 processors via shared memory.
 %Mem=2GB
 ---------------------------------
 # td=(NStates=1) B3LYP/6-31G(d,p)
 ---------------------------------
 1/38=1,172=1/1;
 2/12=2,17=6,18=5,40=1/2;
 3/5=1,6=6,7=101,11=9,25=1,30=1,74=-5/1,2,3,8;
 4//1;
 5/5=2,38=5/2;
 8/6=1,10=2,108=1/1;
 9/41=1,42=1,70=2/14;
 6/7=2,8=2,9=2,10=2/1;
 99/5=1,9=1/99;
 --
 TD
 --
 Symbolic Z-matrix:
 Charge =  0 Multiplicity = 1
 6                     12.09919   0.60554  -0.79058 
 6                    -12.20046  -0.10561   0.74927 
 6                     13.59934  -0.30026  -0.62353 
 6                    -13.07952   1.0469    1.26949 
 6                     13.25966  -1.82604  -0.64879 
 6                    -13.52339   1.98226  -0.03232 
 6                     11.03414   0.00715   0.1969 
 6                    -10.99846   0.39803  -0.1935 
 6                     12.47724  -2.15121   0.65988 
 6                    -12.23426   2.58543  -0.54751 
 6                     11.22877  -1.28803   0.78182 
 6                    -11.10459   1.5766   -0.80305 
 6                     11.60747   0.42549  -2.24102 
 6                     12.51077   2.03683  -0.48049 
 6                    -12.92927  -1.21949   0.04772 
 6                    -11.73129  -0.72078   2.12564 
 6                     9.89735   0.90516   0.40311 
 6                    -9.91427  -0.5067   -0.40257 
 6                     10.30405  -1.75138   1.80547 
 6                    -10.13312   2.17543  -1.732 
 6                     8.59339   0.46748   0.30736 
 6                    -8.53026  -0.23843  -0.22344 
 6                     7.37529   1.24986   0.39564 
 6                    -7.51375  -1.14412  -0.37282 
 6                     7.64574   2.74583   0.50625 
 6                    -7.80461  -2.53153  -0.80933 
 6                     6.04551   0.712     0.51028 
 6                    -6.14029  -0.72672  -0.24377 
 6                     4.9086    1.37744   0.46744 
 6                    -4.96042  -1.49304  -0.34643 
 6                     3.74315   0.75623   0.41721 
 6                    -3.71497  -1.00125  -0.13782 
 6                     2.39095   1.28882   0.45385 
 6                    -2.52827  -1.88998  -0.24009 
 6                     2.17103   2.80589   0.5808 
 6                    -2.61942  -3.31797  -0.46245 
 6                     1.23294   0.51504   0.17767 
 6                    -1.32124  -1.13755  -0.05075 
 6                     1.16499  -0.85335  -0.11151 
 6                    -0.04426  -1.65402  -0.34348 
 1                     13.99621   0.25125   0.33414 
 1                     14.29728  -0.23126  -1.3935 
 1                    -12.82532   1.61904   2.07212 
 1                    -14.07129   0.53692   1.4921 
 1                     14.24812  -2.5332   -0.54969 
 1                     12.86071  -2.02963  -1.72834 
 1                    -14.35864   2.61414   0.4841 
 1                    -14.15512   1.41319  -0.825 
 1                     12.9565  -2.06121   1.57751 
 1                     11.94769  -3.16838   0.60772 
 1                    -11.95105   3.17704   0.33305 
 1                    -12.41337   3.10481  -1.3908 
 1                     11.34467  -0.56315  -2.37005 
 1                     12.18082   1.03897  -2.82668 
 1                     10.6853   0.97233  -2.50804 
 1                     12.85342   2.18889   0.58994 
 1                     11.68366   2.71732  -0.76808 
 1                     13.18385   2.51086  -1.08201 
 1                    -13.27853  -0.91372  -0.99998 
 1                    -13.71618  -1.41343   0.87618 
 1                    -12.3083  -2.05734  -0.00891 
 1                    -10.99824  -0.11293   2.71403 
 1                    -11.26018  -1.78013   1.96228 
 1                    -12.5132  -1.01037   2.87931 
 1                     9.84504   1.95697   0.45398 
 1                    -10.18621  -1.45604  -0.7374 
 1                     9.53036  -0.92189   1.87603 
 1                     10.90617  -1.97437   2.81696 
 1                     9.91182  -2.64248   1.3844 
 1                    -9.03892   1.55499  -1.74829 
 1                    -9.82712   3.16329  -1.39295 
 1                    -10.68411   2.30281  -2.68707 
 1                     8.55292  -0.68743  -0.02943 
 1                    -8.44385   0.78637   0.25231 
 1                     8.29872   2.95638   1.40235 
 1                     6.72053   3.28016   0.75744 
 1                     8.11403   3.15887  -0.30358 
 1                    -8.5053   -2.55858  -1.87269 
 1                    -8.46263  -3.17871   0.08346 
 1                    -6.88766  -3.06303  -0.89738 
 1                     6.06616  -0.49925   0.93839 
 1                    -6.04578   0.26304   0.05 
 1                     4.71824   2.46104   0.21458 
 1                    -5.17211  -2.55265  -0.4793 
 1                     3.83893  -0.39906   0.33164 
 1                    -3.36723   0.04399   0.18355 
 1                     2.72188   3.21428   1.36891 
 1                     1.22643   3.0077    0.6658 
 1                     2.33275   3.23324  -0.39664 
 1                    -2.85143  -3.55331  -1.52096 
 1                    -3.47188  -3.92436   0.14744 
 1                    -1.65036  -3.65364  -0.27425 
 1                     0.26763   0.91126   0.29781 
 1                    -1.43333  -0.18165   0.39724 
 1                     2.03598  -1.28089  -0.24101 
 1                    -0.02906  -2.72792  -0.48625 
 
 Stoichiometry    C40H56
 Framework group  C1[X(C40H56)]
 Deg. of freedom   282
 Full point group                 C1      NOp   1
 Largest Abelian subgroup         C1      NOp   1
 Largest concise Abelian subgroup C1      NOp   1
                         Standard orientation:                         
 ---------------------------------------------------------------------
 Center     Atomic      Atomic             Coordinates (Angstroms)
 Number     Number       Type             X           Y           Z
 ---------------------------------------------------------------------
      1          6           0       12.102108    0.644106   -0.766942
      2          6           0      -12.197312   -0.144296    0.738646
      3          6           0       13.603460   -0.263893   -0.624482
      4          6           0      -13.078296    0.991940    1.290437
      5          6           0       13.265976   -1.788845   -0.692656
      6          6           0      -13.522813    1.962763    0.015084
      7          6           0       11.037387    0.016790    0.202781
      8          6           0      -10.995534    0.387248   -0.188970
      9          6           0       12.483338   -2.151647    0.605948
     10          6           0      -12.234283    2.581952   -0.482282
     11          6           0       11.233571   -1.293994    0.751314
     12          6           0      -11.103028    1.582280   -0.765334
     13          6           0       11.611405    0.504058   -2.222141
     14          6           0       12.511476    2.066728   -0.416659
     15          6           0      -12.924157   -1.239124    0.005757
     16          6           0      -11.727985   -0.797110    2.097508
     17          6           0        9.899208    0.907053    0.433423
     18          6           0       -9.909944   -0.509738   -0.422691
     19          6           0       10.308979   -1.787145    1.761061
     20          6           0      -10.131929    2.208265   -1.676604
     21          6           0        8.595924    0.470381    0.324712
     22          6           0       -8.526409   -0.244631   -0.235330
     23          6           0        7.376659    1.248263    0.434185
     24          6           0       -7.508529   -1.144341   -0.409442
     25          6           0        7.644911    2.740923    0.586803
     26          6           0       -7.797171   -2.519392   -0.884803
     27          6           0        6.047593    0.705512    0.532964
     28          6           0       -6.135739   -0.728776   -0.267974
     29          6           0        4.909757    1.370285    0.508129
     30          6           0       -4.954712   -1.490240   -0.391389
     31          6           0        3.745226    0.749079    0.439869
     32          6           0       -3.710078   -1.002728   -0.168383
     33          6           0        2.392245    1.278515    0.490642
     34          6           0       -2.522059   -1.886567   -0.294834
     35          6           0        2.170086    2.791122    0.659910
     36          6           0       -2.611049   -3.307888   -0.557153
     37          6           0        1.235492    0.511139    0.192247
     38          6           0       -1.316205   -1.138025   -0.083819
     39          6           0        1.169648   -0.848713   -0.135184
     40          6           0       -0.038337   -1.644285   -0.390171
     41          1           0       13.999037    0.261137    0.348483
     42          1           0       14.301702   -0.172368   -1.391827
     43          1           0      -12.825332    1.541740    2.108923
     44          1           0      -14.069446    0.474525    1.498114
     45          1           0       14.255392   -2.497108   -0.612843
     46          1           0       12.867889   -1.962682   -1.777712
     47          1           0      -14.359240    2.578755    0.548529
     48          1           0      -14.153314    1.415228   -0.793574
     49          1           0       12.961982   -2.086707    1.526009
     50          1           0       11.955272   -3.167709    0.525018
     51          1           0      -11.952384    3.149064    0.414665
     52          1           0      -12.413687    3.124499   -1.310796
     53          1           0       11.350085   -0.480955   -2.378951
     54          1           0       12.184188    1.134507   -2.790062
     55          1           0       10.688589    1.056853   -2.474261
     56          1           0       12.853337    2.189230    0.657800
     57          1           0       11.683536    2.753838   -0.685546
     58          1           0       13.184189    2.558376   -1.004286
     59          1           0      -13.273300   -0.904621   -1.033160
     60          1           0      -13.711227   -1.457304    0.828021
     61          1           0      -12.301956   -2.074185   -0.073962
     62          1           0      -10.996116   -0.204942    2.703107
     63          1           0      -11.255274   -1.850804    1.904809
     64          1           0      -12.509869   -1.108802    2.842326
     65          1           0        9.845366    1.956955    0.513702
     66          1           0      -10.180351   -1.449709   -0.784128
     67          1           0        9.534058   -0.961048    1.854386
     68          1           0       10.910883   -2.037524    2.766249
     69          1           0        9.918245   -2.666656    1.314972
     70          1           0       -9.036839    1.590073   -1.709639
     71          1           0       -9.827523    3.186674   -1.309841
     72          1           0      -10.682601    2.361560   -2.628037
     73          1           0        8.557289   -0.674695   -0.044314
     74          1           0       -8.441717    0.766569    0.268985
     75          1           0        8.297124    2.927220    1.488814
     76          1           0        6.718812    3.266696    0.852332
     77          1           0        8.113033    3.177153   -0.210882
     78          1           0       -8.497267   -2.517640   -1.948906
     79          1           0       -8.454733   -3.192252   -0.010859
     80          1           0       -6.879421   -3.046914   -0.987187
     81          1           0        6.069750   -0.517213    0.926993
     82          1           0       -6.042794    0.252502    0.053456
     83          1           0        4.717973    2.460276    0.285618
     84          1           0       -5.164817   -2.546015   -0.554008
     85          1           0        3.842705   -0.403232    0.322029
     86          1           0       -3.364011    0.033594    0.182325
     87          1           0        2.719939    3.178060    1.459453
     88          1           0        1.225152    2.989136    0.749989
     89          1           0        2.331707    3.245913   -0.305092
     90          1           0       -2.842160   -3.513825   -1.621970
     91          1           0       -3.462957   -3.932338    0.035029
     92          1           0       -1.641602   -3.647325   -0.377882
     93          1           0        0.269547    0.902465    0.322889
     94          1           0       -1.429903   -0.195206    0.390710
     95          1           0        2.041318   -1.271221   -0.276120
     96          1           0       -0.021524   -2.713738   -0.562955
 ---------------------------------------------------------------------
 Rotational constants (GHZ):           0.2819245           0.0109244           0.0106967
 Standard basis: 6-31G(d,p) (6D, 7F)
 There are   880 symmetry adapted cartesian basis functions of A   symmetry.
 There are   880 symmetry adapted basis functions of A   symmetry.
   880 basis functions,  1512 primitive gaussians,   880 cartesian basis functions
   148 alpha electrons      148 beta electrons
       nuclear repulsion energy      3664.2387730131 Hartrees.
 NAtoms=   96 NActive=   96 NUniq=   96 SFac= 1.00D+00 NAtFMM=   60 NAOKFM=T Big=T
 Integral buffers will be    131072 words long.
 Regular integral format.
 Two-electron integral symmetry is turned on.
 One-electron integrals computed using PRISM.
 NBasis=   880 RedAO= T EigKep=  8.62D-04  NBF=   880
 NBsUse=   880 1.00D-06 EigRej= -1.00D+00 NBFU=   880
 ExpMin= 1.61D-01 ExpMax= 3.05D+03 ExpMxC= 4.57D+02 IAcc=3 IRadAn=         5 AccDes= 0.00D+00
 Harris functional with IExCor=  402 and IRadAn=       5 diagonalized for initial guess.
 HarFok:  IExCor=  402 AccDes= 0.00D+00 IRadAn=         5 IDoV= 1 UseB2=F ITyADJ=14
 ICtDFT=  3500011 ScaDFX=  1.000000  1.000000  1.000000  1.000000
 FoFCou: FMM=F IPFlag=           0 FMFlag=      100000 FMFlg1=        2001
         NFxFlg=           0 DoJE=T BraDBF=F KetDBF=T FulRan=T
         wScrn=  0.000000 ICntrl=       500 IOpCl=  0 I1Cent=   200000004 NGrid=           0
         NMat0=    1 NMatS0=      1 NMatT0=    0 NMatD0=    1 NMtDS0=    0 NMtDT0=    0
 Petite list used in FoFCou.
 Requested convergence on RMS density matrix=1.00D-08 within 128 cycles.
 Requested convergence on MAX density matrix=1.00D-06.
 Requested convergence on             energy=1.00D-06.
 No special actions if energy rises.
 Integral accuracy reduced to 1.0D-05 until final iterations.
 Initial convergence to 1.0D-05 achieved.  Increase integral accuracy.
 SCF Done:  E(RB3LYP) =  -1557.54393928     A.U. after   17 cycles
            NFock= 17  Conv=0.38D-08     -V/T= 2.0105
 DoSCS=F DFT=T ScalE2(SS,OS)=  1.000000  1.000000
 ExpMin= 1.61D-01 ExpMax= 3.05D+03 ExpMxC= 4.57D+02 IAcc=3 IRadAn=         5 AccDes= 0.00D+00
 HarFok:  IExCor=  205 AccDes= 0.00D+00 IRadAn=         5 IDoV=-2 UseB2=F ITyADJ=14
 ICtDFT= 12500011 ScaDFX=  1.000000  1.000000  1.000000  1.000000
 GSVD:  LWork=       -1920 too small for GESVD, short by        8600 words or        8600 for optimal perf.
 Range of M.O.s used for correlation:    41   880
 NBasis=   880 NAE=   148 NBE=   148 NFC=    40 NFV=     0
 NROrb=    840 NOA=   108 NOB=   108 NVA=   732 NVB=   732

 **** Warning!!: The smallest alpha delta epsilon is  0.58680114D-01

 Orbital symmetries:
       Occupied  (A) (A) (A) (A) (A) (A) (A) (A) (A) (A) (A) (A)
                 (A) (A) (A) (A) (A) (A) (A) (A) (A) (A) (A) (A)
                 (A) (A) (A) (A) (A) (A) (A) (A) (A) (A) (A) (A)
                 (A) (A) (A) (A) (A) (A) (A) (A) (A) (A) (A) (A)
                 (A) (A) (A) (A) (A) (A) (A) (A) (A) (A) (A) (A)
                 (A) (A) (A) (A) (A) (A) (A) (A) (A) (A) (A) (A)
                 (A) (A) (A) (A) (A) (A) (A) (A) (A) (A) (A) (A)
                 (A) (A) (A) (A) (A) (A) (A) (A) (A) (A) (A) (A)
                 (A) (A) (A) (A) (A) (A) (A) (A) (A) (A) (A) (A)
                 (A) (A) (A) (A) (A) (A) (A) (A) (A) (A) (A) (A)
                 (A) (A) (A) (A) (A) (A) (A) (A) (A) (A) (A) (A)
                 (A) (A) (A) (A) (A) (A) (A) (A) (A) (A) (A) (A)
                 (A) (A) (A) (A)
       Virtual   (A) (A) (A) (A) (A) (A) (A) (A) (A) (A) (A) (A)
                 (A) (A) (A) (A) (A) (A) (A) (A) (A) (A) (A) (A)
                 (A) (A) (A) (A) (A) (A) (A) (A) (A) (A) (A) (A)
                 (A) (A) (A) (A) (A) (A) (A) (A) (A) (A) (A) (A)
                 (A) (A) (A) (A) (A) (A) (A) (A) (A) (A) (A) (A)
                 (A) (A) (A) (A) (A) (A) (A) (A) (A) (A) (A) (A)
                 (A) (A) (A) (A) (A) (A) (A) (A) (A) (A) (A) (A)
                 (A) (A) (A) (A) (A) (A) (A) (A) (A) (A) (A) (A)
                 (A) (A) (A) (A) (A) (A) (A) (A) (A) (A) (A) (A)
                 (A) (A) (A) (A) (A) (A) (A) (A) (A) (A) (A) (A)
                 (A) (A) (A) (A) (A) (A) (A) (A) (A) (A) (A) (A)
                 (A) (A) (A) (A) (A) (A) (A) (A) (A) (A) (A) (A)
                 (A) (A) (A) (A) (A) (A) (A) (A) (A) (A) (A) (A)
                 (A) (A) (A) (A) (A) (A) (A) (A) (A) (A) (A) (A)
                 (A) (A) (A) (A) (A) (A) (A) (A) (A) (A) (A) (A)
                 (A) (A) (A) (A) (A) (A) (A) (A) (A) (A) (A) (A)
                 (A) (A) (A) (A) (A) (A) (A) (A) (A) (A) (A) (A)
                 (A) (A) (A) (A) (A) (A) (A) (A) (A) (A) (A) (A)
                 (A) (A) (A) (A) (A) (A) (A) (A) (A) (A) (A) (A)
                 (A) (A) (A) (A) (A) (A) (A) (A) (A) (A) (A) (A)
                 (A) (A) (A) (A) (A) (A) (A) (A) (A) (A) (A) (A)
                 (A) (A) (A) (A) (A) (A) (A) (A) (A) (A) (A) (A)
                 (A) (A) (A) (A) (A) (A) (A) (A) (A) (A) (A) (A)
                 (A) (A) (A) (A) (A) (A) (A) (A) (A) (A) (A) (A)
                 (A) (A) (A) (A) (A) (A) (A) (A) (A) (A) (A) (A)
                 (A) (A) (A) (A) (A) (A) (A) (A) (A) (A) (A) (A)
                 (A) (A) (A) (A) (A) (A) (A) (A) (A) (A) (A) (A)
                 (A) (A) (A) (A) (A) (A) (A) (A) (A) (A) (A) (A)
                 (A) (A) (A) (A) (A) (A) (A) (A) (A) (A) (A) (A)
                 (A) (A) (A) (A) (A) (A) (A) (A) (A) (A) (A) (A)
                 (A) (A) (A) (A) (A) (A) (A) (A) (A) (A) (A) (A)
                 (A) (A) (A) (A) (A) (A) (A) (A) (A) (A) (A) (A)
                 (A) (A) (A) (A) (A) (A) (A) (A) (A) (A) (A) (A)
                 (A) (A) (A) (A) (A) (A) (A) (A) (A) (A) (A) (A)
                 (A) (A) (A) (A) (A) (A) (A) (A) (A) (A) (A) (A)
                 (A) (A) (A) (A) (A) (A) (A) (A) (A) (A) (A) (A)
                 (A) (A) (A) (A) (A) (A) (A) (A) (A) (A) (A) (A)
                 (A) (A) (A) (A) (A) (A) (A) (A) (A) (A) (A) (A)
                 (A) (A) (A) (A) (A) (A) (A) (A) (A) (A) (A) (A)
                 (A) (A) (A) (A) (A) (A) (A) (A) (A) (A) (A) (A)
                 (A) (A) (A) (A) (A) (A) (A) (A) (A) (A) (A) (A)
                 (A) (A) (A) (A) (A) (A) (A) (A) (A) (A) (A) (A)
                 (A) (A) (A) (A) (A) (A) (A) (A) (A) (A) (A) (A)
                 (A) (A) (A) (A) (A) (A) (A) (A) (A) (A) (A) (A)
                 (A) (A) (A) (A) (A) (A) (A) (A) (A) (A) (A) (A)
                 (A) (A) (A) (A) (A) (A) (A) (A) (A) (A) (A) (A)
                 (A) (A) (A) (A) (A) (A) (A) (A) (A) (A) (A) (A)
                 (A) (A) (A) (A) (A) (A) (A) (A) (A) (A) (A) (A)
                 (A) (A) (A) (A) (A) (A) (A) (A) (A) (A) (A) (A)
                 (A) (A) (A) (A) (A) (A) (A) (A) (A) (A) (A) (A)
                 (A) (A) (A) (A) (A) (A) (A) (A) (A) (A) (A) (A)
                 (A) (A) (A) (A) (A) (A) (A) (A) (A) (A) (A) (A)
                 (A) (A) (A) (A) (A) (A) (A) (A) (A) (A) (A) (A)
                 (A) (A) (A) (A) (A) (A) (A) (A) (A) (A) (A) (A)
                 (A) (A) (A) (A) (A) (A) (A) (A) (A) (A) (A) (A)
                 (A) (A) (A) (A) (A) (A) (A) (A) (A) (A) (A) (A)
                 (A) (A) (A) (A) (A) (A) (A) (A) (A) (A) (A) (A)
                 (A) (A) (A) (A) (A) (A) (A) (A) (A) (A) (A) (A)
                 (A) (A) (A) (A) (A) (A) (A) (A) (A) (A) (A) (A)
                 (A) (A) (A) (A) (A) (A) (A) (A) (A) (A) (A) (A)
                 (A) (A) (A) (A) (A) (A) (A) (A) (A) (A) (A) (A)
     4 initial guesses have been made.
 Convergence on wavefunction:    0.001000000000000
 Iteration     1 Dimension     4 NMult     0 NNew      4
 CISAX will form     4 AO SS matrices at one time.
 Iteration     2 Dimension     6 NMult     4 NNew      2
 Iteration     3 Dimension     8 NMult     6 NNew      2
 Iteration     4 Dimension    10 NMult     8 NNew      2
 Iteration     5 Dimension    12 NMult    10 NNew      2
 Iteration     6 Dimension    14 NMult    12 NNew      2
 Iteration     7 Dimension    16 NMult    14 NNew      2
 ***********************************************************************
 Excited states from <AA,BB:AA,BB> singles matrix:
 ***********************************************************************
 
 Ground to excited state transition densities written to RWF  633
 Ground to excited state transition electric dipole moments (Au):
       state          X           Y           Z        Dip. S.      Osc.
         1        -8.6847     -0.6427     -0.4440     76.0343      3.2942
 Ground to excited state transition velocity dipole moments (Au):
       state          X           Y           Z        Dip. S.      Osc.
         1         0.5465      0.0400      0.0275      0.3010      3.0875
 Ground to excited state transition magnetic dipole moments (Au):
       state          X           Y           Z
         1        -0.0175     -0.0004      0.5008
 Ground to excited state transition velocity quadrupole moments (Au):
       state          XX          YY          ZZ          XY          XZ          YZ
         1         0.2340     -0.0321      0.0015      0.0046      0.0817     -0.0220
 <0|del|b> * <b|rxdel|0> + <0|del|b> * <b|delr+rdel|0>
 Rotatory Strengths (R) in cgs (10**-40 erg-esu-cm/Gauss)
       state          XX          YY          ZZ    R(velocity)    E-M Angle
         1        57.6291    -43.3143     30.9406     15.0851       89.13
 1/2[<0|r|b>*<b|rxdel|0> + (<0|rxdel|b>*<b|r|0>)*]
 Rotatory Strengths (R) in cgs (10**-40 erg-esu-cm/Gauss)
       state          XX          YY          ZZ     R(length)
         1      -107.6058     -0.1938    157.2336     16.4780
  1/2[<0|del|b>*<b|r|0> + (<0|r|b>*<b|del|0>)*] (Au)
       state          X           Y           Z        Dip. S.   Osc.(frdel)
         1        -4.7459     -0.0257     -0.0122      4.7838      3.1892

 Excitation energies and oscillator strengths:
 
 Excited State   1:      Singlet-A      1.7684 eV  701.10 nm  f=3.2942  <S**2>=0.000
     148 ->149         0.71985
     148 <-149        -0.17192
 This state for optimization and/or second-order correction.
 Total Energy, E(TD-HF/TD-DFT) =  -1557.47895084    
 Copying the excited state density for this state as the 1-particle RhoCI density.
 SavETr:  write IOETrn=   770 NScale= 10 NData=  16 NLR=1 NState=    1 LETran=      28.

 **********************************************************************

            Population analysis using the SCF density.

 **********************************************************************

 Orbital symmetries:
       Occupied  (A) (A) (A) (A) (A) (A) (A) (A) (A) (A) (A) (A)
                 (A) (A) (A) (A) (A) (A) (A) (A) (A) (A) (A) (A)
                 (A) (A) (A) (A) (A) (A) (A) (A) (A) (A) (A) (A)
                 (A) (A) (A) (A) (A) (A) (A) (A) (A) (A) (A) (A)
                 (A) (A) (A) (A) (A) (A) (A) (A) (A) (A) (A) (A)
                 (A) (A) (A) (A) (A) (A) (A) (A) (A) (A) (A) (A)
                 (A) (A) (A) (A) (A) (A) (A) (A) (A) (A) (A) (A)
                 (A) (A) (A) (A) (A) (A) (A) (A) (A) (A) (A) (A)
                 (A) (A) (A) (A) (A) (A) (A) (A) (A) (A) (A) (A)
                 (A) (A) (A) (A) (A) (A) (A) (A) (A) (A) (A) (A)
                 (A) (A) (A) (A) (A) (A) (A) (A) (A) (A) (A) (A)
                 (A) (A) (A) (A) (A) (A) (A) (A) (A) (A) (A) (A)
                 (A) (A) (A) (A)
       Virtual   (A) (A) (A) (A) (A) (A) (A) (A) (A) (A) (A) (A)
                 (A) (A) (A) (A) (A) (A) (A) (A) (A) (A) (A) (A)
                 (A) (A) (A) (A) (A) (A) (A) (A) (A) (A) (A) (A)
                 (A) (A) (A) (A) (A) (A) (A) (A) (A) (A) (A) (A)
                 (A) (A) (A) (A) (A) (A) (A) (A) (A) (A) (A) (A)
                 (A) (A) (A) (A) (A) (A) (A) (A) (A) (A) (A) (A)
                 (A) (A) (A) (A) (A) (A) (A) (A) (A) (A) (A) (A)
                 (A) (A) (A) (A) (A) (A) (A) (A) (A) (A) (A) (A)
                 (A) (A) (A) (A) (A) (A) (A) (A) (A) (A) (A) (A)
                 (A) (A) (A) (A) (A) (A) (A) (A) (A) (A) (A) (A)
                 (A) (A) (A) (A) (A) (A) (A) (A) (A) (A) (A) (A)
                 (A) (A) (A) (A) (A) (A) (A) (A) (A) (A) (A) (A)
                 (A) (A) (A) (A) (A) (A) (A) (A) (A) (A) (A) (A)
                 (A) (A) (A) (A) (A) (A) (A) (A) (A) (A) (A) (A)
                 (A) (A) (A) (A) (A) (A) (A) (A) (A) (A) (A) (A)
                 (A) (A) (A) (A) (A) (A) (A) (A) (A) (A) (A) (A)
                 (A) (A) (A) (A) (A) (A) (A) (A) (A) (A) (A) (A)
                 (A) (A) (A) (A) (A) (A) (A) (A) (A) (A) (A) (A)
                 (A) (A) (A) (A) (A) (A) (A) (A) (A) (A) (A) (A)
                 (A) (A) (A) (A) (A) (A) (A) (A) (A) (A) (A) (A)
                 (A) (A) (A) (A) (A) (A) (A) (A) (A) (A) (A) (A)
                 (A) (A) (A) (A) (A) (A) (A) (A) (A) (A) (A) (A)
                 (A) (A) (A) (A) (A) (A) (A) (A) (A) (A) (A) (A)
                 (A) (A) (A) (A) (A) (A) (A) (A) (A) (A) (A) (A)
                 (A) (A) (A) (A) (A) (A) (A) (A) (A) (A) (A) (A)
                 (A) (A) (A) (A) (A) (A) (A) (A) (A) (A) (A) (A)
                 (A) (A) (A) (A) (A) (A) (A) (A) (A) (A) (A) (A)
                 (A) (A) (A) (A) (A) (A) (A) (A) (A) (A) (A) (A)
                 (A) (A) (A) (A) (A) (A) (A) (A) (A) (A) (A) (A)
                 (A) (A) (A) (A) (A) (A) (A) (A) (A) (A) (A) (A)
                 (A) (A) (A) (A) (A) (A) (A) (A) (A) (A) (A) (A)
                 (A) (A) (A) (A) (A) (A) (A) (A) (A) (A) (A) (A)
                 (A) (A) (A) (A) (A) (A) (A) (A) (A) (A) (A) (A)
                 (A) (A) (A) (A) (A) (A) (A) (A) (A) (A) (A) (A)
                 (A) (A) (A) (A) (A) (A) (A) (A) (A) (A) (A) (A)
                 (A) (A) (A) (A) (A) (A) (A) (A) (A) (A) (A) (A)
                 (A) (A) (A) (A) (A) (A) (A) (A) (A) (A) (A) (A)
                 (A) (A) (A) (A) (A) (A) (A) (A) (A) (A) (A) (A)
                 (A) (A) (A) (A) (A) (A) (A) (A) (A) (A) (A) (A)
                 (A) (A) (A) (A) (A) (A) (A) (A) (A) (A) (A) (A)
                 (A) (A) (A) (A) (A) (A) (A) (A) (A) (A) (A) (A)
                 (A) (A) (A) (A) (A) (A) (A) (A) (A) (A) (A) (A)
                 (A) (A) (A) (A) (A) (A) (A) (A) (A) (A) (A) (A)
                 (A) (A) (A) (A) (A) (A) (A) (A) (A) (A) (A) (A)
                 (A) (A) (A) (A) (A) (A) (A) (A) (A) (A) (A) (A)
                 (A) (A) (A) (A) (A) (A) (A) (A) (A) (A) (A) (A)
                 (A) (A) (A) (A) (A) (A) (A) (A) (A) (A) (A) (A)
                 (A) (A) (A) (A) (A) (A) (A) (A) (A) (A) (A) (A)
                 (A) (A) (A) (A) (A) (A) (A) (A) (A) (A) (A) (A)
                 (A) (A) (A) (A) (A) (A) (A) (A) (A) (A) (A) (A)
                 (A) (A) (A) (A) (A) (A) (A) (A) (A) (A) (A) (A)
                 (A) (A) (A) (A) (A) (A) (A) (A) (A) (A) (A) (A)
                 (A) (A) (A) (A) (A) (A) (A) (A) (A) (A) (A) (A)
                 (A) (A) (A) (A) (A) (A) (A) (A) (A) (A) (A) (A)
                 (A) (A) (A) (A) (A) (A) (A) (A) (A) (A) (A) (A)
                 (A) (A) (A) (A) (A) (A) (A) (A) (A) (A) (A) (A)
                 (A) (A) (A) (A) (A) (A) (A) (A) (A) (A) (A) (A)
                 (A) (A) (A) (A) (A) (A) (A) (A) (A) (A) (A) (A)
                 (A) (A) (A) (A) (A) (A) (A) (A) (A) (A) (A) (A)
                 (A) (A) (A) (A) (A) (A) (A) (A) (A) (A) (A) (A)
                 (A) (A) (A) (A) (A) (A) (A) (A) (A) (A) (A) (A)
 The electronic state is 1-A.
 Alpha  occ. eigenvalues --  -10.20700 -10.20694 -10.20664 -10.20645 -10.20446
 Alpha  occ. eigenvalues --  -10.20328 -10.20287 -10.20071 -10.19543 -10.19533
 Alpha  occ. eigenvalues --  -10.19528 -10.19472 -10.19390 -10.19222 -10.19173
 Alpha  occ. eigenvalues --  -10.19009 -10.18906 -10.18833 -10.18792 -10.18588
 Alpha  occ. eigenvalues --  -10.18511 -10.18436 -10.18417 -10.18384 -10.18312
 Alpha  occ. eigenvalues --  -10.18274 -10.18256 -10.18194 -10.18166 -10.17992
 Alpha  occ. eigenvalues --  -10.17941 -10.17855 -10.17802 -10.17695 -10.17553
 Alpha  occ. eigenvalues --  -10.17535 -10.17356 -10.16996 -10.16616 -10.15752
 Alpha  occ. eigenvalues --   -0.84469  -0.83971  -0.83473  -0.83180  -0.81927
 Alpha  occ. eigenvalues --   -0.81016  -0.79109  -0.78847  -0.78480  -0.77625
 Alpha  occ. eigenvalues --   -0.76304  -0.75263  -0.74669  -0.72309  -0.71561
 Alpha  occ. eigenvalues --   -0.71184  -0.69137  -0.68587  -0.68019  -0.67605
 Alpha  occ. eigenvalues --   -0.67504  -0.67056  -0.66609  -0.65887  -0.65182
 Alpha  occ. eigenvalues --   -0.62837  -0.61559  -0.59182  -0.58143  -0.57359
 Alpha  occ. eigenvalues --   -0.56461  -0.55331  -0.55005  -0.53846  -0.52694
 Alpha  occ. eigenvalues --   -0.52333  -0.51838  -0.50626  -0.50078  -0.49768
 Alpha  occ. eigenvalues --   -0.48498  -0.47510  -0.46701  -0.46334  -0.46253
 Alpha  occ. eigenvalues --   -0.45714  -0.45239  -0.44981  -0.44072  -0.44016
 Alpha  occ. eigenvalues --   -0.43916  -0.43659  -0.43074  -0.42530  -0.42475
 Alpha  occ. eigenvalues --   -0.42219  -0.42133  -0.41782  -0.41528  -0.41014
 Alpha  occ. eigenvalues --   -0.40656  -0.40403  -0.40203  -0.39770  -0.39378
 Alpha  occ. eigenvalues --   -0.39081  -0.38923  -0.38496  -0.38434  -0.38171
 Alpha  occ. eigenvalues --   -0.38000  -0.37900  -0.37064  -0.36993  -0.36914
 Alpha  occ. eigenvalues --   -0.36330  -0.36000  -0.35921  -0.35657  -0.35621
 Alpha  occ. eigenvalues --   -0.34958  -0.34777  -0.34239  -0.34029  -0.33998
 Alpha  occ. eigenvalues --   -0.33550  -0.33360  -0.32961  -0.32625  -0.32449
 Alpha  occ. eigenvalues --   -0.32331  -0.31850  -0.31592  -0.31529  -0.31418
 Alpha  occ. eigenvalues --   -0.31030  -0.29929  -0.29580  -0.28317  -0.27554
 Alpha  occ. eigenvalues --   -0.26402  -0.26259  -0.25641  -0.23545  -0.22478
 Alpha  occ. eigenvalues --   -0.20551  -0.18220  -0.15138
 Alpha virt. eigenvalues --   -0.09270  -0.05580  -0.02516   0.00706   0.02604
 Alpha virt. eigenvalues --    0.03615   0.06022   0.06158   0.06881   0.07121
 Alpha virt. eigenvalues --    0.07733   0.08283   0.08458   0.08606   0.08994
 Alpha virt. eigenvalues --    0.09345   0.09895   0.10211   0.10384   0.10607
 Alpha virt. eigenvalues --    0.11066   0.11351   0.11734   0.11947   0.12100
 Alpha virt. eigenvalues --    0.12245   0.12447   0.13061   0.13134   0.13229
 Alpha virt. eigenvalues --    0.14199   0.14403   0.14614   0.14713   0.15007
 Alpha virt. eigenvalues --    0.15066   0.15341   0.15808   0.16015   0.16159
 Alpha virt. eigenvalues --    0.16252   0.16596   0.16676   0.16846   0.17066
 Alpha virt. eigenvalues --    0.17186   0.17718   0.17854   0.18056   0.18455
 Alpha virt. eigenvalues --    0.18602   0.18697   0.18853   0.19604   0.19677
 Alpha virt. eigenvalues --    0.19715   0.20167   0.20324   0.20691   0.21049
 Alpha virt. eigenvalues --    0.21141   0.21965   0.22037   0.22150   0.22448
 Alpha virt. eigenvalues --    0.22912   0.23028   0.23397   0.23782   0.24147
 Alpha virt. eigenvalues --    0.24214   0.24624   0.25202   0.25459   0.25527
 Alpha virt. eigenvalues --    0.25956   0.26256   0.26339   0.26905   0.27401
 Alpha virt. eigenvalues --    0.27654   0.28131   0.28530   0.28583   0.28742
 Alpha virt. eigenvalues --    0.29424   0.29780   0.30139   0.31535   0.31971
 Alpha virt. eigenvalues --    0.33219   0.34952   0.35275   0.35644   0.37108
 Alpha virt. eigenvalues --    0.37685   0.38356   0.39175   0.40769   0.41642
 Alpha virt. eigenvalues --    0.42399   0.43207   0.43666   0.43980   0.45103
 Alpha virt. eigenvalues --    0.46502   0.47468   0.48190   0.48859   0.49768
 Alpha virt. eigenvalues --    0.50450   0.50711   0.50805   0.50967   0.51389
 Alpha virt. eigenvalues --    0.51740   0.51965   0.52375   0.52565   0.53168
 Alpha virt. eigenvalues --    0.53434   0.53864   0.54121   0.54528   0.54960
 Alpha virt. eigenvalues --    0.55152   0.55440   0.55495   0.55624   0.56185
 Alpha virt. eigenvalues --    0.56456   0.56937   0.57022   0.57334   0.57622
 Alpha virt. eigenvalues --    0.58059   0.58458   0.58701   0.58734   0.59013
 Alpha virt. eigenvalues --    0.59424   0.59700   0.60340   0.60555   0.60680
 Alpha virt. eigenvalues --    0.61256   0.61536   0.61610   0.61918   0.62183
 Alpha virt. eigenvalues --    0.62698   0.62867   0.63310   0.63687   0.64059
 Alpha virt. eigenvalues --    0.64287   0.64872   0.65342   0.65792   0.66405
 Alpha virt. eigenvalues --    0.66490   0.66987   0.67301   0.67676   0.68091
 Alpha virt. eigenvalues --    0.68220   0.68389   0.68874   0.69190   0.69543
 Alpha virt. eigenvalues --    0.69718   0.70357   0.70469   0.71420   0.71542
 Alpha virt. eigenvalues --    0.71646   0.72094   0.72679   0.73177   0.73713
 Alpha virt. eigenvalues --    0.73988   0.74113   0.74685   0.75088   0.75448
 Alpha virt. eigenvalues --    0.75593   0.76093   0.76613   0.76996   0.77160
 Alpha virt. eigenvalues --    0.77678   0.78123   0.78311   0.78525   0.79852
 Alpha virt. eigenvalues --    0.80007   0.80194   0.80294   0.80433   0.80532
 Alpha virt. eigenvalues --    0.80828   0.81272   0.81820   0.82216   0.82248
 Alpha virt. eigenvalues --    0.82917   0.83229   0.83574   0.83616   0.83639
 Alpha virt. eigenvalues --    0.84216   0.84522   0.84860   0.85204   0.85333
 Alpha virt. eigenvalues --    0.85831   0.86061   0.86212   0.86784   0.87236
 Alpha virt. eigenvalues --    0.87285   0.87343   0.87572   0.87634   0.88489
 Alpha virt. eigenvalues --    0.88880   0.89047   0.89568   0.89700   0.89746
 Alpha virt. eigenvalues --    0.90415   0.90568   0.90959   0.91031   0.91678
 Alpha virt. eigenvalues --    0.92112   0.92769   0.92830   0.93502   0.93654
 Alpha virt. eigenvalues --    0.93795   0.94256   0.94446   0.94829   0.95581
 Alpha virt. eigenvalues --    0.95778   0.95850   0.96079   0.96234   0.96961
 Alpha virt. eigenvalues --    0.97278   0.97469   0.97588   0.97811   0.98105
 Alpha virt. eigenvalues --    0.98361   0.99131   0.99266   0.99582   0.99953
 Alpha virt. eigenvalues --    1.01140   1.02209   1.02896   1.03186   1.03488
 Alpha virt. eigenvalues --    1.04079   1.04234   1.04525   1.05368   1.06274
 Alpha virt. eigenvalues --    1.06636   1.07610   1.07745   1.07981   1.08262
 Alpha virt. eigenvalues --    1.08989   1.09359   1.09933   1.10029   1.11425
 Alpha virt. eigenvalues --    1.11859   1.12165   1.12628   1.13509   1.13920
 Alpha virt. eigenvalues --    1.14325   1.15486   1.15999   1.17172   1.18874
 Alpha virt. eigenvalues --    1.19705   1.20177   1.21191   1.21407   1.21978
 Alpha virt. eigenvalues --    1.22471   1.23943   1.24900   1.25922   1.26579
 Alpha virt. eigenvalues --    1.27162   1.28852   1.29753   1.30396   1.30548
 Alpha virt. eigenvalues --    1.31738   1.32587   1.33351   1.33741   1.34170
 Alpha virt. eigenvalues --    1.34614   1.35163   1.36982   1.37176   1.38375
 Alpha virt. eigenvalues --    1.39058   1.39275   1.39894   1.40569   1.42281
 Alpha virt. eigenvalues --    1.42971   1.43574   1.43708   1.43994   1.45054
 Alpha virt. eigenvalues --    1.45395   1.45607   1.46772   1.48443   1.48713
 Alpha virt. eigenvalues --    1.49568   1.50126   1.51083   1.51768   1.51966
 Alpha virt. eigenvalues --    1.52192   1.52849   1.53188   1.54146   1.54767
 Alpha virt. eigenvalues --    1.56088   1.56413   1.57893   1.58260   1.58327
 Alpha virt. eigenvalues --    1.60999   1.61110   1.62817   1.63275   1.63852
 Alpha virt. eigenvalues --    1.64087   1.64911   1.67576   1.68152   1.69180
 Alpha virt. eigenvalues --    1.69861   1.71072   1.72504   1.73308   1.73755
 Alpha virt. eigenvalues --    1.73877   1.74369   1.74593   1.74823   1.75045
 Alpha virt. eigenvalues --    1.76329   1.76576   1.77253   1.77475   1.77651
 Alpha virt. eigenvalues --    1.78284   1.78496   1.78801   1.79494   1.79662
 Alpha virt. eigenvalues --    1.79985   1.80486   1.80826   1.81420   1.81781
 Alpha virt. eigenvalues --    1.82316   1.82475   1.82657   1.82856   1.83413
 Alpha virt. eigenvalues --    1.83478   1.84085   1.84484   1.85469   1.85635
 Alpha virt. eigenvalues --    1.86127   1.86469   1.87011   1.87411   1.87475
 Alpha virt. eigenvalues --    1.88072   1.88507   1.89106   1.89568   1.89705
 Alpha virt. eigenvalues --    1.90178   1.90318   1.90750   1.90971   1.91708
 Alpha virt. eigenvalues --    1.92239   1.92757   1.93108   1.93606   1.94045
 Alpha virt. eigenvalues --    1.94558   1.94787   1.95698   1.95944   1.96467
 Alpha virt. eigenvalues --    1.97089   1.97920   1.98226   1.98561   1.99496
 Alpha virt. eigenvalues --    1.99601   2.00328   2.00503   2.01123   2.01408
 Alpha virt. eigenvalues --    2.01433   2.02232   2.02432   2.03371   2.03579
 Alpha virt. eigenvalues --    2.04421   2.04572   2.05151   2.05280   2.06096
 Alpha virt. eigenvalues --    2.06317   2.06548   2.07104   2.07451   2.08021
 Alpha virt. eigenvalues --    2.08086   2.08352   2.08408   2.09442   2.09892
 Alpha virt. eigenvalues --    2.10277   2.10397   2.10650   2.11547   2.11909
 Alpha virt. eigenvalues --    2.12554   2.13189   2.13331   2.13720   2.14094
 Alpha virt. eigenvalues --    2.14496   2.14716   2.15542   2.16031   2.16142
 Alpha virt. eigenvalues --    2.16500   2.16910   2.17552   2.17864   2.18151
 Alpha virt. eigenvalues --    2.18826   2.19035   2.19640   2.20493   2.20587
 Alpha virt. eigenvalues --    2.21113   2.21832   2.22723   2.23150   2.23567
 Alpha virt. eigenvalues --    2.23724   2.24170   2.24431   2.25326   2.25656
 Alpha virt. eigenvalues --    2.26087   2.26658   2.26951   2.27182   2.27946
 Alpha virt. eigenvalues --    2.28805   2.29734   2.30175   2.31493   2.31953
 Alpha virt. eigenvalues --    2.32102   2.32491   2.33046   2.33596   2.34026
 Alpha virt. eigenvalues --    2.34347   2.34910   2.35435   2.35875   2.36174
 Alpha virt. eigenvalues --    2.36657   2.37591   2.37899   2.38401   2.39359
 Alpha virt. eigenvalues --    2.39707   2.40216   2.40344   2.40737   2.41130
 Alpha virt. eigenvalues --    2.41223   2.41948   2.42494   2.42810   2.43340
 Alpha virt. eigenvalues --    2.44101   2.44311   2.44773   2.45476   2.45884
 Alpha virt. eigenvalues --    2.46411   2.47020   2.47186   2.47866   2.48036
 Alpha virt. eigenvalues --    2.48516   2.48862   2.49366   2.49613   2.50593
 Alpha virt. eigenvalues --    2.51102   2.51188   2.51547   2.51961   2.52200
 Alpha virt. eigenvalues --    2.52503   2.53882   2.53971   2.55519   2.55903
 Alpha virt. eigenvalues --    2.56385   2.56752   2.56863   2.57532   2.57923
 Alpha virt. eigenvalues --    2.58241   2.58895   2.59317   2.59743   2.59938
 Alpha virt. eigenvalues --    2.60357   2.60988   2.61063   2.61963   2.62350
 Alpha virt. eigenvalues --    2.63129   2.63584   2.64628   2.64854   2.65370
 Alpha virt. eigenvalues --    2.65389   2.66003   2.66326   2.67024   2.67454
 Alpha virt. eigenvalues --    2.68078   2.68633   2.68873   2.69146   2.69242
 Alpha virt. eigenvalues --    2.69496   2.70125   2.71175   2.71579   2.71617
 Alpha virt. eigenvalues --    2.72271   2.72379   2.72713   2.72923   2.73320
 Alpha virt. eigenvalues --    2.73957   2.74685   2.75970   2.76005   2.76111
 Alpha virt. eigenvalues --    2.76355   2.77068   2.77924   2.78411   2.79187
 Alpha virt. eigenvalues --    2.79243   2.80069   2.80243   2.80764   2.81769
 Alpha virt. eigenvalues --    2.82359   2.83281   2.83613   2.84099   2.85172
 Alpha virt. eigenvalues --    2.85601   2.85937   2.86985   2.87193   2.88847
 Alpha virt. eigenvalues --    2.89238   2.89591   2.89957   2.90267   2.91015
 Alpha virt. eigenvalues --    2.91179   2.92240   2.92367   2.93204   2.94026
 Alpha virt. eigenvalues --    2.94736   2.94929   2.95642   2.96654   2.96895
 Alpha virt. eigenvalues --    2.97538   2.98816   2.99960   3.01108   3.02843
 Alpha virt. eigenvalues --    3.04096   3.04575   3.05045   3.06422   3.06869
 Alpha virt. eigenvalues --    3.08476   3.08501   3.11881   3.12599   3.13618
 Alpha virt. eigenvalues --    3.14484   3.14799   3.15161   3.16669   3.17721
 Alpha virt. eigenvalues --    3.17965   3.18548   3.19419   3.19440   3.21381
 Alpha virt. eigenvalues --    3.21581   3.21604   3.22709   3.24198   3.28358
 Alpha virt. eigenvalues --    3.29573   3.32027   3.32273   3.33263   3.33734
 Alpha virt. eigenvalues --    3.33987   3.36493   3.36862   3.37142   3.37633
 Alpha virt. eigenvalues --    3.37979   3.41265   3.42937   3.43858   3.43944
 Alpha virt. eigenvalues --    3.44660   3.45248   3.45412   3.46273   3.46432
 Alpha virt. eigenvalues --    3.48401   3.49618   3.52559   3.53140   3.53911
 Alpha virt. eigenvalues --    3.54331   3.54691   3.55354   3.55810   3.56259
 Alpha virt. eigenvalues --    3.57876   3.59169   3.59493   3.61806   3.62781
 Alpha virt. eigenvalues --    3.62991   3.63910   3.64730   3.68025   3.70829
 Alpha virt. eigenvalues --    3.77175   3.80746   4.09829   4.12442   4.12483
 Alpha virt. eigenvalues --    4.12707   4.15241   4.16592   4.19172   4.20875
 Alpha virt. eigenvalues --    4.23202   4.25524   4.28159   4.30359   4.31681
 Alpha virt. eigenvalues --    4.33352   4.34425   4.36562   4.40235   4.40609
 Alpha virt. eigenvalues --    4.42799   4.44644   4.48661   4.49178   4.49988
 Alpha virt. eigenvalues --    4.50127   4.52057   4.54727   4.55343   4.57312
 Alpha virt. eigenvalues --    4.61252   4.62041   4.63857   4.64268   4.67001
 Alpha virt. eigenvalues --    4.70536   4.72203   4.73330   4.74678   4.77022
 Alpha virt. eigenvalues --    4.78124   4.79744
          Condensed to atoms (all electrons):
 Mulliken charges:
               1
     1  C   -0.000045
     2  C    0.005214
     3  C   -0.175216
     4  C   -0.180417
     5  C   -0.189327
     6  C   -0.208693
     7  C    0.056311
     8  C    0.053801
     9  C   -0.189337
    10  C   -0.191293
    11  C    0.038399
    12  C    0.067871
    13  C   -0.295842
    14  C   -0.320594
    15  C   -0.280114
    16  C   -0.314242
    17  C   -0.114810
    18  C   -0.129366
    19  C   -0.345790
    20  C   -0.358642
    21  C   -0.111232
    22  C   -0.114986
    23  C    0.078746
    24  C    0.128781
    25  C   -0.390055
    26  C   -0.344698
    27  C   -0.130180
    28  C   -0.105398
    29  C   -0.033173
    30  C   -0.096021
    31  C   -0.114959
    32  C   -0.098784
    33  C    0.065009
    34  C    0.113205
    35  C   -0.367593
    36  C   -0.370346
    37  C   -0.103054
    38  C   -0.103873
    39  C   -0.067480
    40  C   -0.122301
    41  H    0.077950
    42  H    0.095073
    43  H    0.109396
    44  H    0.080392
    45  H    0.060879
    46  H    0.103797
    47  H    0.073271
    48  H    0.082120
    49  H    0.128380
    50  H    0.085513
    51  H    0.113764
    52  H    0.098116
    53  H    0.112385
    54  H    0.105040
    55  H    0.088280
    56  H    0.099311
    57  H    0.086305
    58  H    0.111416
    59  H    0.096037
    60  H    0.087419
    61  H    0.115293
    62  H    0.101619
    63  H    0.072971
    64  H    0.097551
    65  H    0.085973
    66  H    0.083711
    67  H    0.119280
    68  H    0.083634
    69  H    0.116487
    70  H    0.091374
    71  H    0.116272
    72  H    0.109684
    73  H    0.070833
    74  H    0.083335
    75  H    0.120380
    76  H    0.106197
    77  H    0.132678
    78  H    0.091146
    79  H    0.078396
    80  H    0.109488
    81  H    0.070966
    82  H    0.068052
    83  H    0.091902
    84  H    0.078530
    85  H    0.068554
    86  H    0.079808
    87  H    0.120225
    88  H    0.118105
    89  H    0.126142
    90  H    0.128681
    91  H    0.107840
    92  H    0.116556
    93  H    0.066534
    94  H    0.086460
    95  H    0.065835
    96  H    0.085184
 Sum of Mulliken charges =  -0.00000
 Mulliken charges with hydrogens summed into heavy atoms:
               1
     1  C   -0.000045
     2  C    0.005214
     3  C   -0.002193
     4  C    0.009371
     5  C   -0.024650
     6  C   -0.053302
     7  C    0.056311
     8  C    0.053801
     9  C    0.024556
    10  C    0.020586
    11  C    0.038399
    12  C    0.067871
    13  C    0.009863
    14  C   -0.023561
    15  C    0.018635
    16  C   -0.042100
    17  C   -0.028836
    18  C   -0.045654
    19  C   -0.026389
    20  C   -0.041311
    21  C   -0.040399
    22  C   -0.031651
    23  C    0.078746
    24  C    0.128781
    25  C   -0.030801
    26  C   -0.065667
    27  C   -0.059213
    28  C   -0.037345
    29  C    0.058729
    30  C   -0.017491
    31  C   -0.046404
    32  C   -0.018976
    33  C    0.065009
    34  C    0.113205
    35  C   -0.003122
    36  C   -0.017269
    37  C   -0.036519
    38  C   -0.017413
    39  C   -0.001645
    40  C   -0.037117
 Electronic spatial extent (au):  <R**2>=          95918.8756
 Charge=             -0.0000 electrons
 Dipole moment (field-independent basis, Debye):
    X=              0.6352    Y=              0.7763    Z=              0.0582  Tot=              1.0048
 Quadrupole moment (field-independent basis, Debye-Ang):
   XX=           -229.7110   YY=           -233.3351   ZZ=           -253.4283
   XY=              1.7145   XZ=             -4.3818   YZ=              2.4014
 Traceless Quadrupole moment (field-independent basis, Debye-Ang):
   XX=              9.1138   YY=              5.4897   ZZ=            -14.6035
   XY=              1.7145   XZ=             -4.3818   YZ=              2.4014
 Octapole moment (field-independent basis, Debye-Ang**2):
  XXX=            115.7011  YYY=              5.6786  ZZZ=             -0.3896  XYY=             20.2072
  XXY=             87.3897  XXZ=             11.7298  XZZ=             -5.8910  YZZ=              7.8790
  YYZ=             -6.4710  XYZ=            -22.7205
 Hexadecapole moment (field-independent basis, Debye-Ang**3):
 XXXX=        -125929.8993 YYYY=          -4300.1756 ZZZZ=          -1516.0494 XXXY=           -242.2272
 XXXZ=           -473.5287 YYYX=            141.3208 YYYZ=             11.7847 ZZZX=            -67.0262
 ZZZY=              0.8755 XXYY=         -21582.4175 XXZZ=         -21552.0456 YYZZ=           -963.5882
 XXYZ=           -109.2204 YYXZ=             -5.1421 ZZXY=            -37.4148
 N-N= 3.664238773013D+03 E-N=-1.092868299248D+04  KE= 1.541377277004D+03
 1\1\GINC-RYZEN-SSD1\SP\RB3LYP TD-FC\6-31G(d,p)\C40H56\PADAWAN\27-Jul-2
 019\0\\# td=(NStates=1) B3LYP/6-31G(d,p)\\TD\\0,1\C,0,12.099194262,0.6
 055411546,-0.7905751764\C,0,-12.2004623603,-0.1056056022,0.7492741063\
 C,0,13.5993393466,-0.300259686,-0.6235283518\C,0,-13.0795244523,1.0468
 990814,1.2694876632\C,0,13.25965828,-1.8260382762,-0.6487866375\C,0,-1
 3.5233869348,1.9822567378,-0.0323228652\C,0,11.0341352074,0.00715498,0
 .1968972275\C,0,-10.9984575136,0.3980296853,-0.1934969845\C,0,12.47724
 21616,-2.1512074147,0.6598799643\C,0,-12.2342633089,2.5854288511,-0.54
 75130872\C,0,11.2287725853,-1.2880308576,0.7818247509\C,0,-11.10458525
 27,1.5766032821,-0.8030491786\C,0,11.6074713348,0.4254936745,-2.241022
 5809\C,0,12.5107744908,2.0368277379,-0.480489568\C,0,-12.9292705179,-1
 .2194890676,0.0477186018\C,0,-11.7312919972,-0.7207752511,2.1256407123
 \C,0,9.8973477974,0.9051566293,0.4031123117\C,0,-9.914271234,-0.506703
 2124,-0.4025743452\C,0,10.3040545818,-1.7513849502,1.8054731822\C,0,-1
 0.1331162818,2.175429282,-1.7320046654\C,0,8.5933855783,0.4674767039,0
 .3073589421\C,0,-8.530255984,-0.2384337087,-0.2234386668\C,0,7.3752860
 968,1.2498637867,0.3956421768\C,0,-7.5137502689,-1.1441228874,-0.37281
 76787\C,0,7.6457376235,2.7458272199,0.5062530623\C,0,-7.804607649,-2.5
 315331644,-0.8093282104\C,0,6.0455084523,0.7119955886,0.5102831873\C,0
 ,-6.1402926392,-0.7267234949,-0.2437664883\C,0,4.9086015109,1.37744007
 59,0.4674364026\C,0,-4.9604156534,-1.4930352813,-0.3464260242\C,0,3.74
 31530269,0.7562331885,0.4172136707\C,0,-3.7149668819,-1.0012507578,-0.
 1378162193\C,0,2.3909523966,1.2888195897,0.4538498729\C,0,-2.528271826
 6,-1.8899840571,-0.2400872888\C,0,2.1710314747,2.8058899555,0.58080245
 35\C,0,-2.6194224876,-3.317965323,-0.4624475949\C,0,1.232944843,0.5150
 428459,0.1776726843\C,0,-1.3212402971,-1.1375523272,-0.0507537805\C,0,
 1.1649908713,-0.8533502822,-0.1115086706\C,0,-0.0442638868,-1.65402164
 2,-0.3434781038\H,0,13.9962097268,0.2512475543,0.334141457\H,0,14.2972
 767415,-0.2312615019,-1.3935028887\H,0,-12.8253188969,1.6190442946,2.0
 721207769\H,0,-14.0712879864,0.5369231846,1.4920956477\H,0,14.24811543
 35,-2.5332041381,-0.5496884146\H,0,12.8607119529,-2.0296268627,-1.7283
 389572\H,0,-14.3586392521,2.6141447745,0.4840994475\H,0,-14.1551202958
 ,1.4131909933,-0.8249965218\H,0,12.9564976136,-2.0612086275,1.57750963
 3\H,0,11.9476922237,-3.1683805302,0.6077176274\H,0,-11.9510548976,3.17
 70354242,0.333049822\H,0,-12.4133675507,3.1048139892,-1.3908029815\H,0
 ,11.3446678373,-0.5631493922,-2.3700451372\H,0,12.1808249632,1.0389685
 582,-2.8266792419\H,0,10.6852961009,0.9723303447,-2.5080415237\H,0,12.
 8534162957,2.1888857905,0.5899363341\H,0,11.6836567726,2.7173216431,-0
 .7680809651\H,0,13.1838502413,2.510861356,-1.0820104721\H,0,-13.278527
 0834,-0.9137153805,-0.9999760983\H,0,-13.716183791,-1.4134271469,0.876
 1848392\H,0,-12.308298433,-2.0573441393,-0.0089067732\H,0,-10.99824231
 51,-0.1129269321,2.7140310622\H,0,-11.2601825437,-1.7801290136,1.96228
 02442\H,0,-12.5131953835,-1.0103655045,2.8793064587\H,0,9.8450379104,1
 .9569705572,0.453981306\H,0,-10.186213066,-1.4560407141,-0.737400118\H
 ,0,9.5303571132,-0.9218897837,1.8760313607\H,0,10.9061714312,-1.974373
 6353,2.8169631263\H,0,9.9118232495,-2.6424840984,1.3843980614\H,0,-9.0
 389209274,1.5549878114,-1.7482873256\H,0,-9.8271175167,3.163289851,-1.
 3929493411\H,0,-10.6841086759,2.3028052859,-2.6870686802\H,0,8.5529208
 829,-0.6874295232,-0.0294298934\H,0,-8.44384778,0.7863728314,0.2523115
 787\H,0,8.2987231044,2.956380674,1.4023496175\H,0,6.7205339341,3.28015
 57198,0.7574383235\H,0,8.1140256403,3.1588745495,-0.3035835813\H,0,-8.
 5053014823,-2.5585829174,-1.872693963\H,0,-8.462627251,-3.1787110584,0
 .0834644857\H,0,-6.8876633189,-3.0630289542,-0.8973786231\H,0,6.066157
 4802,-0.4992451513,0.9383918225\H,0,-6.0457765623,0.2630382423,0.05000
 47237\H,0,4.7182351808,2.4610445486,0.2145843652\H,0,-5.172107311,-2.5
 526487813,-0.4793000711\H,0,3.8389341601,-0.3990644763,0.3316428027\H,
 0,-3.3672343546,0.043990729,0.1835464879\H,0,2.7218828877,3.2142818243
 ,1.3689055459\H,0,1.2264298438,3.007701502,0.6657963071\H,0,2.33275033
 38,3.2332437979,-0.396643634\H,0,-2.8514270123,-3.5533136873,-1.520957
 1065\H,0,-3.4718787937,-3.9243644293,0.1474393953\H,0,-1.6503560069,-3
 .653635698,-0.2742496514\H,0,0.2676291637,0.9112570409,0.2978104262\H,
 0,-1.433334422,-0.1816501778,0.3972419981\H,0,2.0359821427,-1.28088713
 84,-0.2410136656\H,0,-0.0290623954,-2.7279178341,-0.4862494858\\Versio
 n=ES64L-G16RevA.03\State=1-A\HF=-1557.5439393\RMSD=3.843e-09\PG=C01 [X
 (C40H56)]\\@


 WE SHOULD BE CAREFUL TO GET OUT OF AN EXPERIENCE ONLY THE WISDOM
 THAT IS IN IT -- AND STOP THERE;
 LEST WE BE LIKE THE CAT THAT SITS DOWN ON A HOT STOVE-LID.
 SHE WILL NEVER SIT DOWN ON A HOT STOVE LID AGAIN;
 BUT ALSO SHE WILL NEVER SIT DOWN ON A COLD ONE ANY MORE.

                                                     -- MARK TWAIN
 Job cpu time:       0 days 11 hours 55 minutes 46.4 seconds.
 Elapsed time:       0 days  3 hours  0 minutes  6.2 seconds.
 File lengths (MBytes):  RWF=   2884 Int=      0 D2E=      0 Chk=     79 Scr=      1
 Normal termination of Gaussian 16 at Sat Jul 27 17:38:08 2019.
