 Entering Gaussian System, Link 0=g16
 Input=Geometria-263-.com
 Output=Geometria-263-.log
 Initial command:
 /usr/local/g16/l1.exe "/home/padawan/israel-mol/b-caroten/spectra/abs/Gau-91866.inp" -scrdir="/home/padawan/israel-mol/b-caroten/spectra/abs/"
 Entering Link 1 = /usr/local/g16/l1.exe PID=     91868.
  
 Copyright (c) 1988,1990,1992,1993,1995,1998,2003,2009,2016,
            Gaussian, Inc.  All Rights Reserved.
  
 This is part of the Gaussian(R) 16 program.  It is based on
 the Gaussian(R) 09 system (copyright 2009, Gaussian, Inc.),
 the Gaussian(R) 03 system (copyright 2003, Gaussian, Inc.),
 the Gaussian(R) 98 system (copyright 1998, Gaussian, Inc.),
 the Gaussian(R) 94 system (copyright 1995, Gaussian, Inc.),
 the Gaussian 92(TM) system (copyright 1992, Gaussian, Inc.),
 the Gaussian 90(TM) system (copyright 1990, Gaussian, Inc.),
 the Gaussian 88(TM) system (copyright 1988, Gaussian, Inc.),
 the Gaussian 86(TM) system (copyright 1986, Carnegie Mellon
 University), and the Gaussian 82(TM) system (copyright 1983,
 Carnegie Mellon University). Gaussian is a federally registered
 trademark of Gaussian, Inc.
  
 This software contains proprietary and confidential information,
 including trade secrets, belonging to Gaussian, Inc.
  
 This software is provided under written license and may be
 used, copied, transmitted, or stored only in accord with that
 written license.
  
 The following legend is applicable only to US Government
 contracts under FAR:
  
                    RESTRICTED RIGHTS LEGEND
  
 Use, reproduction and disclosure by the US Government is
 subject to restrictions as set forth in subparagraphs (a)
 and (c) of the Commercial Computer Software - Restricted
 Rights clause in FAR 52.227-19.
  
 Gaussian, Inc.
 340 Quinnipiac St., Bldg. 40, Wallingford CT 06492
  
  
 ---------------------------------------------------------------
 Warning -- This program may not be used in any manner that
 competes with the business of Gaussian, Inc. or will provide
 assistance to any competitor of Gaussian, Inc.  The licensee
 of this program is prohibited from giving any competitor of
 Gaussian, Inc. access to this program.  By using this program,
 the user acknowledges that Gaussian, Inc. is engaged in the
 business of creating and licensing software in the field of
 computational chemistry and represents and warrants to the
 licensee that it is not a competitor of Gaussian, Inc. and that
 it will not use this program in any manner prohibited above.
 ---------------------------------------------------------------
  

 Cite this work as:
 Gaussian 16, Revision A.03,
 M. J. Frisch, G. W. Trucks, H. B. Schlegel, G. E. Scuseria, 
 M. A. Robb, J. R. Cheeseman, G. Scalmani, V. Barone, 
 G. A. Petersson, H. Nakatsuji, X. Li, M. Caricato, A. V. Marenich, 
 J. Bloino, B. G. Janesko, R. Gomperts, B. Mennucci, H. P. Hratchian, 
 J. V. Ortiz, A. F. Izmaylov, J. L. Sonnenberg, D. Williams-Young, 
 F. Ding, F. Lipparini, F. Egidi, J. Goings, B. Peng, A. Petrone, 
 T. Henderson, D. Ranasinghe, V. G. Zakrzewski, J. Gao, N. Rega, 
 G. Zheng, W. Liang, M. Hada, M. Ehara, K. Toyota, R. Fukuda, 
 J. Hasegawa, M. Ishida, T. Nakajima, Y. Honda, O. Kitao, H. Nakai, 
 T. Vreven, K. Throssell, J. A. Montgomery, Jr., J. E. Peralta, 
 F. Ogliaro, M. J. Bearpark, J. J. Heyd, E. N. Brothers, K. N. Kudin, 
 V. N. Staroverov, T. A. Keith, R. Kobayashi, J. Normand, 
 K. Raghavachari, A. P. Rendell, J. C. Burant, S. S. Iyengar, 
 J. Tomasi, M. Cossi, J. M. Millam, M. Klene, C. Adamo, R. Cammi, 
 J. W. Ochterski, R. L. Martin, K. Morokuma, O. Farkas, 
 J. B. Foresman, and D. J. Fox, Gaussian, Inc., Wallingford CT, 2016.
 
 ******************************************
 Gaussian 16:  ES64L-G16RevA.03 25-Dec-2016
                29-Jul-2019 
 ******************************************
 %nproc=4
 Will use up to    4 processors via shared memory.
 %Mem=2GB
 ---------------------------------
 # td=(NStates=1) B3LYP/6-31G(d,p)
 ---------------------------------
 1/38=1,172=1/1;
 2/12=2,17=6,18=5,40=1/2;
 3/5=1,6=6,7=101,11=9,25=1,30=1,74=-5/1,2,3,8;
 4//1;
 5/5=2,38=5/2;
 8/6=1,10=2,108=1/1;
 9/41=1,42=1,70=2/14;
 6/7=2,8=2,9=2,10=2/1;
 99/5=1,9=1/99;
 --
 TD
 --
 Symbolic Z-matrix:
 Charge =  0 Multiplicity = 1
 6                     12.14555   0.50459  -0.68522 
 6                    -12.144   -0.07797   0.81305 
 6                     13.35819  -0.43902  -0.72439 
 6                    -13.08156   1.054     1.27629 
 6                     12.94159  -1.94349  -0.63785 
 6                    -13.46743   1.93223   0.03255 
 6                     10.99736  -0.05553   0.25829 
 6                    -10.99616   0.46904  -0.05705 
 6                     12.1702  -2.23856   0.58457 
 6                    -12.24818   2.51845  -0.62657 
 6                     11.06871  -1.28974   0.88481 
 6                    -11.03355   1.62626  -0.82508 
 6                     11.58407   0.5445   -2.10575 
 6                     12.59227   1.95124  -0.43436 
 6                    -12.81046  -1.2689    0.21644 
 6                    -11.57514  -0.64603   2.17702 
 6                     9.87653   0.93601   0.46158 
 6                    -9.81344  -0.51717  -0.21653 
 6                     10.11528  -1.72388   1.94204 
 6                    -10.03082   1.94414  -1.80802 
 6                     8.52867   0.59403   0.21164 
 6                    -8.46356  -0.15399  -0.32264 
 6                     7.35324   1.34488   0.52434 
 6                    -7.48586  -1.21556  -0.34341 
 6                     7.61613   2.86205   0.83122 
 6                    -7.95634  -2.71265  -0.6849 
 6                     6.15902   0.71388   0.26928 
 6                    -6.19693  -0.84184  -0.28744 
 6                     4.92107   1.46949   0.48617 
 6                    -4.99721  -1.70187  -0.35447 
 6                     3.66942   0.84449   0.22234 
 6                    -3.71174  -1.08022  -0.18155 
 6                     2.42018   1.3214    0.28018 
 6                    -2.40961  -1.77776  -0.34674 
 6                     2.33768   2.79435   0.63101 
 6                    -2.44478  -3.34573  -0.60915 
 6                     1.31264   0.67318   0.08108 
 6                    -1.33809  -1.009    -0.28279 
 6                     1.13173  -0.73104  -0.1849 
 6                    -0.03087  -1.52043  -0.34319 
 1                     14.1243  -0.1756    0.18434 
 1                     14.12978  -0.14634  -1.46791 
 1                    -12.75807   1.73326   2.21651 
 1                    -14.06908   0.49952   1.66846 
 1                     13.96442  -2.5327   -0.85101 
 1                     12.2286  -2.33578  -1.59602 
 1                    -14.09456   2.88769   0.25514 
 1                    -14.16085   1.39108  -0.67794 
 1                     12.90765  -2.31573   1.38525 
 1                     11.86308  -3.09384   0.33555 
 1                    -11.85579   3.49519  -0.00693 
 1                    -12.49149   2.96864  -1.57628 
 1                     11.45043  -0.39622  -2.70549 
 1                     12.22043   1.16656  -3.01171 
 1                     10.5026   0.99736  -2.10984 
 1                     13.12023   1.98254   0.35896 
 1                     11.63139   2.58725  -0.50064 
 1                     13.33847   2.38882  -1.11197 
 1                    -13.41614  -0.97525  -0.68937 
 1                    -13.51697  -1.68604   0.7922 
 1                    -12.11618  -2.17913   0.08021 
 1                    -10.79792  -0.03511   2.45141 
 1                    -11.0126  -1.66326   1.93328 
 1                    -12.32709  -0.60034   2.83546 
 1                     10.09643   2.03119   0.68668 
 1                    -9.99413  -1.46282  -0.36389 
 1                     9.33417  -1.02201   2.35686 
 1                     10.67173  -1.95489   2.8657 
 1                     9.49872  -2.634     1.69156 
 1                    -9.15179   1.26909  -2.06656 
 1                    -9.37867   2.61734  -1.44982 
 1                    -10.64885   2.17986  -2.6915 
 1                     8.42789  -0.57394   0.10831 
 1                    -8.15343   0.88335  -0.15574 
 1                     8.0187    2.87389   1.91703 
 1                     6.66364   3.34764   0.67314 
 1                     8.45413   3.26313  -0.00961 
 1                    -8.78753  -2.7183   -1.46623 
 1                    -8.18747  -3.36084   0.46602 
 1                    -7.14275  -3.44875  -1.23611 
 1                     6.14078  -0.38178   0.03443 
 1                    -5.98673   0.22003  -0.26828 
 1                     4.88983   2.46563   0.72744 
 1                    -5.0206   -2.77924  -0.45769 
 1                     3.90432  -0.19577  -0.09701 
 1                    -3.64868  -0.05566  -0.20983 
 1                     2.78287   3.23769   1.59427 
 1                     1.29009   3.24221   0.77361 
 1                     2.72802   3.46833  -0.15568 
 1                    -2.98021  -3.55338  -1.3526 
 1                    -2.95397  -3.62878   0.32226 
 1                    -1.39488  -3.87511  -0.72516 
 1                     0.30561   1.35889   0.02285 
 1                    -1.60121   0.00374   0.07402 
 1                     1.8419   -1.31154  -0.5875 
 1                     0.2871   -2.52917  -0.7108 
 
 Stoichiometry    C40H56
 Framework group  C1[X(C40H56)]
 Deg. of freedom   282
 Full point group                 C1      NOp   1
 Largest Abelian subgroup         C1      NOp   1
 Largest concise Abelian subgroup C1      NOp   1
                         Standard orientation:                         
 ---------------------------------------------------------------------
 Center     Atomic      Atomic             Coordinates (Angstroms)
 Number     Number       Type             X           Y           Z
 ---------------------------------------------------------------------
      1          6           0      -12.147246   -0.502211   -0.681625
      2          6           0       12.142682    0.073650    0.813034
      3          6           0      -13.359848    0.441598   -0.716978
      4          6           0       13.080307   -1.060086    1.271821
      5          6           0      -12.943159    1.945712   -0.624919
      6          6           0       13.465838   -1.933687    0.024725
      7          6           0      -10.998809    0.054333    0.263704
      8          6           0       10.994610   -0.470056   -0.058832
      9          6           0      -12.171470    2.236179    0.598408
     10          6           0       12.246407   -2.517388   -0.636293
     11          6           0      -11.069947    1.286199    0.894835
     12          6           0       11.031765   -1.624404   -0.831183
     13          6           0      -11.586106   -0.536839   -2.102422
     14          6           0      -12.593978   -1.949765   -0.436060
     15          6           0       12.809057    1.266770    0.220710
     16          6           0       11.574172    0.636636    2.179246
     17          6           0       -9.877971   -0.938010    0.463020
     18          6           0        9.811902    0.516798   -0.214341
     19          6           0      -10.116245    1.716348    1.953453
     20          6           0       10.028784   -1.938565   -1.815064
     21          6           0       -8.530158   -0.595161    0.214038
     22          6           0        8.461978    0.154069   -0.321487
     23          6           0       -7.354693   -1.347230    0.523650
     24          6           0        7.484321    1.215758   -0.338068
     25          6           0       -7.617581   -2.865519    0.824928
     26          6           0        7.954794    2.714092   -0.674071
     27          6           0       -6.160500   -0.715330    0.270667
     28          6           0        6.195387    0.841886   -0.283183
     29          6           0       -4.922537   -1.471804    0.484439
     30          6           0        4.995692    1.702216   -0.346713
     31          6           0       -3.670913   -0.845883    0.222652
     32          6           0        3.710232    1.079986   -0.175812
     33          6           0       -2.421681   -1.323063    0.278413
     34          6           0        2.408099    1.778201   -0.338085
     35          6           0       -2.339169   -2.797312    0.623718
     36          6           0        2.443274    3.347133   -0.594654
     37          6           0       -1.314166   -0.674151    0.081471
     38          6           0        1.336560    1.009253   -0.276749
     39          6           0       -1.133249    0.731040   -0.179309
     40          6           0        0.029350    1.520963   -0.334930
     41          1           0      -14.125762    0.174815    0.190940
     42          1           0      -14.131633    0.151730   -1.461403
     43          1           0       12.757007   -1.742832    2.209573
     44          1           0       14.067939   -0.507118    1.665828
     45          1           0      -13.966013    2.535764   -0.835638
     46          1           0      -12.230381    2.341541   -1.581788
     47          1           0       14.092978   -2.890000    0.243591
     48          1           0       14.159113   -1.389918   -0.683910
     49          1           0      -12.908727    2.310401    1.399544
     50          1           0      -11.864371    3.092375    0.352507
     51          1           0       11.854110   -3.496411   -0.020212
     52          1           0       12.489461   -2.964039   -1.587735
     53          1           0      -11.452564    0.406105   -2.698678
     54          1           0      -12.222710   -1.155490   -3.010545
     55          1           0      -10.504657   -0.989737   -2.108462
     56          1           0      -13.121751   -1.983998    0.357271
     57          1           0      -11.633142   -2.585567   -0.504941
     58          1           0      -13.340352   -2.384779   -1.115119
     59          1           0       13.414510    0.976473   -0.686324
     60          1           0       13.515729    1.681726    0.797856
     61          1           0       12.114788    2.177526    0.088050
     62          1           0       10.796995    0.024733    2.451548
     63          1           0       11.011623    1.654794    1.939440
     64          1           0       12.326277    0.588462    2.837338
     65          1           0      -10.097875   -2.034011    0.684089
     66          1           0        9.992603    1.462980   -0.358220
     67          1           0       -9.335071    1.012897    2.365467
     68          1           0      -10.672467    1.943934    2.878102
     69          1           0       -9.499709    2.627370    1.706227
     70          1           0        9.149730   -1.262518   -2.070871
     71          1           0        9.376695   -2.613067   -1.459217
     72          1           0       10.646592   -2.171021   -2.699562
     73          1           0       -8.429347    0.573179    0.115049
     74          1           0        8.151839   -0.883871   -0.158387
     75          1           0       -8.019884   -2.881397    1.910788
     76          1           0       -6.665145   -3.350562    0.664814
     77          1           0       -8.455795   -3.263426   -0.017193
     78          1           0        8.785796    2.722618   -1.455580
     79          1           0        8.186225    3.357969    0.479204
     80          1           0        7.141103    3.452278   -1.222343
     81          1           0       -6.142270    0.381198    0.039906
     82          1           0        5.985145   -0.220038   -0.267933
     83          1           0       -4.891285   -2.468834    0.721980
     84          1           0        5.019111    2.779968   -0.445918
     85          1           0       -3.905846    0.195578   -0.092761
     86          1           0        3.647124    0.055542   -0.207904
     87          1           0       -2.784152   -3.244230    1.585423
     88          1           0       -1.291564   -3.245755    0.764396
     89          1           0       -2.729729   -3.468332   -0.165386
     90          1           0        2.978542    3.557538   -1.337449
     91          1           0        2.952701    3.626688    0.337684
     92          1           0        1.393376    3.876990   -0.708440
     93          1           0       -0.307182   -1.359688    0.020442
     94          1           0        1.599717   -0.004822    0.076213
     95          1           0       -1.843493    1.313074   -0.579572
     96          1           0       -0.288662    2.531082   -0.698700
 ---------------------------------------------------------------------
 Rotational constants (GHZ):           0.2745528           0.0110607           0.0108239
 Standard basis: 6-31G(d,p) (6D, 7F)
 There are   880 symmetry adapted cartesian basis functions of A   symmetry.
 There are   880 symmetry adapted basis functions of A   symmetry.
   880 basis functions,  1512 primitive gaussians,   880 cartesian basis functions
   148 alpha electrons      148 beta electrons
       nuclear repulsion energy      3670.3737170552 Hartrees.
 NAtoms=   96 NActive=   96 NUniq=   96 SFac= 1.00D+00 NAtFMM=   60 NAOKFM=T Big=T
 Integral buffers will be    131072 words long.
 Regular integral format.
 Two-electron integral symmetry is turned on.
 One-electron integrals computed using PRISM.
 NBasis=   880 RedAO= T EigKep=  7.22D-04  NBF=   880
 NBsUse=   880 1.00D-06 EigRej= -1.00D+00 NBFU=   880
 ExpMin= 1.61D-01 ExpMax= 3.05D+03 ExpMxC= 4.57D+02 IAcc=3 IRadAn=         5 AccDes= 0.00D+00
 Harris functional with IExCor=  402 and IRadAn=       5 diagonalized for initial guess.
 HarFok:  IExCor=  402 AccDes= 0.00D+00 IRadAn=         5 IDoV= 1 UseB2=F ITyADJ=14
 ICtDFT=  3500011 ScaDFX=  1.000000  1.000000  1.000000  1.000000
 FoFCou: FMM=F IPFlag=           0 FMFlag=      100000 FMFlg1=        2001
         NFxFlg=           0 DoJE=T BraDBF=F KetDBF=T FulRan=T
         wScrn=  0.000000 ICntrl=       500 IOpCl=  0 I1Cent=   200000004 NGrid=           0
         NMat0=    1 NMatS0=      1 NMatT0=    0 NMatD0=    1 NMtDS0=    0 NMtDT0=    0
 Petite list used in FoFCou.
 Requested convergence on RMS density matrix=1.00D-08 within 128 cycles.
 Requested convergence on MAX density matrix=1.00D-06.
 Requested convergence on             energy=1.00D-06.
 No special actions if energy rises.
 Integral accuracy reduced to 1.0D-05 until final iterations.
