 Entering Gaussian System, Link 0=g16
 Input=Geometria-169-.com
 Output=Geometria-169-.log
 Initial command:
 /usr/local/g16/l1.exe "/home/padawan/israel-mol/b-caroten/spectra/abs/Gau-83287.inp" -scrdir="/home/padawan/israel-mol/b-caroten/spectra/abs/"
 Entering Link 1 = /usr/local/g16/l1.exe PID=     83289.
  
 Copyright (c) 1988,1990,1992,1993,1995,1998,2003,2009,2016,
            Gaussian, Inc.  All Rights Reserved.
  
 This is part of the Gaussian(R) 16 program.  It is based on
 the Gaussian(R) 09 system (copyright 2009, Gaussian, Inc.),
 the Gaussian(R) 03 system (copyright 2003, Gaussian, Inc.),
 the Gaussian(R) 98 system (copyright 1998, Gaussian, Inc.),
 the Gaussian(R) 94 system (copyright 1995, Gaussian, Inc.),
 the Gaussian 92(TM) system (copyright 1992, Gaussian, Inc.),
 the Gaussian 90(TM) system (copyright 1990, Gaussian, Inc.),
 the Gaussian 88(TM) system (copyright 1988, Gaussian, Inc.),
 the Gaussian 86(TM) system (copyright 1986, Carnegie Mellon
 University), and the Gaussian 82(TM) system (copyright 1983,
 Carnegie Mellon University). Gaussian is a federally registered
 trademark of Gaussian, Inc.
  
 This software contains proprietary and confidential information,
 including trade secrets, belonging to Gaussian, Inc.
  
 This software is provided under written license and may be
 used, copied, transmitted, or stored only in accord with that
 written license.
  
 The following legend is applicable only to US Government
 contracts under FAR:
  
                    RESTRICTED RIGHTS LEGEND
  
 Use, reproduction and disclosure by the US Government is
 subject to restrictions as set forth in subparagraphs (a)
 and (c) of the Commercial Computer Software - Restricted
 Rights clause in FAR 52.227-19.
  
 Gaussian, Inc.
 340 Quinnipiac St., Bldg. 40, Wallingford CT 06492
  
  
 ---------------------------------------------------------------
 Warning -- This program may not be used in any manner that
 competes with the business of Gaussian, Inc. or will provide
 assistance to any competitor of Gaussian, Inc.  The licensee
 of this program is prohibited from giving any competitor of
 Gaussian, Inc. access to this program.  By using this program,
 the user acknowledges that Gaussian, Inc. is engaged in the
 business of creating and licensing software in the field of
 computational chemistry and represents and warrants to the
 licensee that it is not a competitor of Gaussian, Inc. and that
 it will not use this program in any manner prohibited above.
 ---------------------------------------------------------------
  

 Cite this work as:
 Gaussian 16, Revision A.03,
 M. J. Frisch, G. W. Trucks, H. B. Schlegel, G. E. Scuseria, 
 M. A. Robb, J. R. Cheeseman, G. Scalmani, V. Barone, 
 G. A. Petersson, H. Nakatsuji, X. Li, M. Caricato, A. V. Marenich, 
 J. Bloino, B. G. Janesko, R. Gomperts, B. Mennucci, H. P. Hratchian, 
 J. V. Ortiz, A. F. Izmaylov, J. L. Sonnenberg, D. Williams-Young, 
 F. Ding, F. Lipparini, F. Egidi, J. Goings, B. Peng, A. Petrone, 
 T. Henderson, D. Ranasinghe, V. G. Zakrzewski, J. Gao, N. Rega, 
 G. Zheng, W. Liang, M. Hada, M. Ehara, K. Toyota, R. Fukuda, 
 J. Hasegawa, M. Ishida, T. Nakajima, Y. Honda, O. Kitao, H. Nakai, 
 T. Vreven, K. Throssell, J. A. Montgomery, Jr., J. E. Peralta, 
 F. Ogliaro, M. J. Bearpark, J. J. Heyd, E. N. Brothers, K. N. Kudin, 
 V. N. Staroverov, T. A. Keith, R. Kobayashi, J. Normand, 
 K. Raghavachari, A. P. Rendell, J. C. Burant, S. S. Iyengar, 
 J. Tomasi, M. Cossi, J. M. Millam, M. Klene, C. Adamo, R. Cammi, 
 J. W. Ochterski, R. L. Martin, K. Morokuma, O. Farkas, 
 J. B. Foresman, and D. J. Fox, Gaussian, Inc., Wallingford CT, 2016.
 
 ******************************************
 Gaussian 16:  ES64L-G16RevA.03 25-Dec-2016
                28-Jul-2019 
 ******************************************
 %nproc=4
 Will use up to    4 processors via shared memory.
 %Mem=2GB
 ---------------------------------
 # td=(NStates=1) B3LYP/6-31G(d,p)
 ---------------------------------
 1/38=1,172=1/1;
 2/12=2,17=6,18=5,40=1/2;
 3/5=1,6=6,7=101,11=9,25=1,30=1,74=-5/1,2,3,8;
 4//1;
 5/5=2,38=5/2;
 8/6=1,10=2,108=1/1;
 9/41=1,42=1,70=2/14;
 6/7=2,8=2,9=2,10=2/1;
 99/5=1,9=1/99;
 --
 TD
 --
 Symbolic Z-matrix:
 Charge =  0 Multiplicity = 1
 6                     12.23709   0.55358  -0.78915 
 6                    -12.09426  -0.04683   0.93283 
 6                     13.43065  -0.35468  -0.72639 
 6                    -13.03209   1.09285   1.27605 
 6                     13.01878  -1.84631  -0.65638 
 6                    -13.37156   1.98557   0.11483 
 6                     11.08831  -0.01379   0.1942 
 6                    -10.99607   0.44366  -0.07699 
 6                     12.38415  -2.0494    0.61726 
 6                    -12.18655   2.61671  -0.54722 
 6                     11.21465  -1.17266   0.95339 
 6                    -11.06817   1.65026  -0.78629 
 6                     11.66653   0.52865  -2.16921 
 6                     12.63815   1.97727  -0.42997 
 6                    -13.07671  -1.06267   0.07017 
 6                    -11.41499  -0.74499   2.17015 
 6                     9.87151   0.82967   0.25178 
 6                    -9.94715  -0.53373  -0.41346 
 6                     10.32225  -1.49253   2.07548 
 6                    -10.17282   2.02189  -1.81578 
 6                     8.53751   0.3698    0.37527 
 6                    -8.60605  -0.30924  -0.35245 
 6                     7.39372   1.35698   0.49278 
 6                    -7.55644  -1.28674  -0.51245 
 6                     7.67003   2.88718   0.66612 
 6                    -7.92928  -2.70098  -0.71725 
 6                     6.18723   0.71848   0.41033 
 6                    -6.22994  -0.84552  -0.30704 
 6                     4.92484   1.36689   0.55385 
 6                    -5.05841  -1.59808  -0.46691 
 6                     3.78749   0.625     0.32284 
 6                    -3.80966  -1.05816  -0.23042 
 6                     2.39592   1.15618   0.27753 
 6                    -2.54172  -1.82747  -0.34947 
 6                     2.29947   2.64996   0.61278 
 6                    -2.63688  -3.25998  -0.57307 
 6                     1.22811   0.53484   0.13609 
 6                    -1.40021  -1.07621  -0.16054 
 6                     1.08337  -0.86385  -0.0419 
 6                    -0.02615  -1.52586  -0.25435 
 1                     13.96585  -0.12791   0.17929 
 1                     14.00791  -0.3288   -1.51789 
 1                    -12.45063   1.41922   2.10955 
 1                    -13.87042   0.47086   1.83537 
 1                     13.99291  -2.57721  -0.63392 
 1                     12.64299  -1.95171  -1.64665 
 1                    -14.10523   2.6627    0.45073 
 1                    -14.15734   1.19795  -0.56146 
 1                     13.06623  -1.9282    1.36946 
 1                     11.80612  -3.04247   0.77362 
 1                    -11.90347   3.40774   0.32067 
 1                    -12.61402   3.2794   -1.34847 
 1                     11.57785  -0.52063  -2.90817 
 1                     12.46446   0.89372  -2.66812 
 1                     10.60855   1.07203  -2.61411 
 1                     13.0921   2.34541   0.69662 
 1                     11.83344   2.57183  -0.46304 
 1                     13.46021   2.35938  -1.23268 
 1                    -13.53974  -0.66983  -0.74541 
 1                    -13.81666  -1.35947   0.82487 
 1                    -12.44782  -2.05137  -0.23668 
 1                    -10.62822  -0.04957   2.36569 
 1                    -10.76628  -1.69819   1.86859 
 1                    -12.18819  -0.85192   2.87708 
 1                     10.08387   1.82777   0.34505 
 1                    -10.38934  -1.6555   -0.17427 
 1                     9.44088  -0.76467   2.38567 
 1                     11.10094  -1.88734   2.83162 
 1                     9.87956  -2.66946   1.89321 
 1                    -9.7318    1.22985  -2.19622 
 1                    -9.47363   2.73473  -1.36638 
 1                    -10.83068   2.65384  -2.73386 
 1                     8.25845  -0.79589   0.173 
 1                    -8.44873   0.73309  -0.06327 
 1                     8.34436   3.25031   1.53057 
 1                     6.76033   3.19798   0.90136 
 1                     8.20775   3.24281  -0.3041 
 1                    -8.64188  -2.78043  -1.61444 
 1                    -8.63128  -3.2155   -0.16277 
 1                    -7.25391  -3.32558  -0.78004 
 1                     6.17107  -0.2791    0.20679 
 1                    -6.14723   0.31475  -0.26427 
 1                     4.78415   2.39518   0.77512 
 1                    -5.37596  -2.68904  -0.60403 
 1                     3.9821   -0.458     0.11816 
 1                    -3.75852   0.08525  -0.11587 
 1                     3.00851   2.91848   1.37673 
 1                     1.24125   2.99151   0.60291 
 1                     2.58333   3.28373  -0.4147 
 1                    -3.10794  -3.43947  -1.53001 
 1                    -3.30518  -3.59504   0.20583 
 1                    -1.62607  -3.64499  -0.65779 
 1                     0.309     1.2786   -0.07473 
 1                    -1.55225  -0.01565  -0.02546 
 1                     2.04008  -1.28738  -0.11138 
 1                    -0.00061  -2.55804  -0.39293 
 
 Stoichiometry    C40H56
 Framework group  C1[X(C40H56)]
 Deg. of freedom   282
 Full point group                 C1      NOp   1
 Largest Abelian subgroup         C1      NOp   1
 Largest concise Abelian subgroup C1      NOp   1
                         Standard orientation:                         
 ---------------------------------------------------------------------
 Center     Atomic      Atomic             Coordinates (Angstroms)
 Number     Number       Type             X           Y           Z
 ---------------------------------------------------------------------
      1          6           0       12.239208    0.550959   -0.794050
      2          6           0      -12.091238   -0.043496    0.942700
      3          6           0       13.432278   -0.358292   -0.736598
      4          6           0      -13.028140    1.095051    1.292159
      5          6           0       13.019576   -1.850008   -0.673570
      6          6           0      -13.367925    1.993623    0.135562
      7          6           0       11.090808   -0.020521    0.187347
      8          6           0      -10.993486    0.451275   -0.065511
      9          6           0       12.385749   -2.058937    0.599518
     10          6           0      -12.183018    2.627294   -0.524266
     11          6           0       11.217011   -1.183161    0.940782
     12          6           0      -11.065389    1.661362   -0.768861
     13          6           0       11.667631    0.533112   -2.173800
     14          6           0       12.641372    1.972647   -0.428225
     15          6           0      -13.074910   -1.054536    0.075804
     16          6           0      -11.411483   -0.748088    2.176094
     17          6           0        9.874545    0.823361    0.249931
     18          6           0       -9.945398   -0.525079   -0.407513
     19          6           0       10.325231   -1.507979    2.061945
     20          6           0      -10.170564    2.037490   -1.797182
     21          6           0        8.540367    0.363679    0.372144
     22          6           0       -8.604120   -0.301686   -0.346391
     23          6           0        7.397247    1.350955    0.495312
     24          6           0       -7.555207   -1.279008   -0.511926
     25          6           0        7.674593    2.880124    0.675917
     26          6           0       -7.929030   -2.692014   -0.723354
     27          6           0        6.190323    0.713569    0.410626
     28          6           0       -6.228294   -0.839577   -0.305332
     29          6           0        4.928423    1.362017    0.558221
     30          6           0       -5.057321   -1.592039   -0.469723
     31          6           0        3.790460    0.621936    0.324430
     32          6           0       -3.808080   -1.054017   -0.231507
     33          6           0        2.399179    1.154148    0.282725
     34          6           0       -2.540691   -1.823486   -0.355238
     35          6           0        2.303860    2.646338    0.625328
     36          6           0       -2.636864   -3.254832   -0.585760
     37          6           0        1.230899    0.534204    0.139101
     38          6           0       -1.398593   -1.073829   -0.163480
     39          6           0        1.085199   -0.863521   -0.045611
     40          6           0       -0.024873   -1.523829   -0.260480
     41          1           0       13.968264   -0.136268    0.169783
     42          1           0       14.008975   -0.328894   -1.528379
     43          1           0      -12.445884    1.417005    2.126825
     44          1           0      -13.866431    0.470825    1.849048
     45          1           0       13.993284   -2.581581   -0.655388
     46          1           0       12.643001   -1.950348   -1.664073
     47          1           0      -14.100951    2.669540    0.475293
     48          1           0      -14.154662    1.209781   -0.543994
     49          1           0       13.068442   -1.941812    1.351807
     50          1           0       11.807238   -3.052418    0.751457
     51          1           0      -11.898841    3.413907    0.347271
     52          1           0      -12.610675    3.294140   -1.321955
     53          1           0       11.577796   -0.512494   -2.917812
     54          1           0       12.465422    0.900143   -2.671510
     55          1           0       10.609652    1.079278   -2.615277
     56          1           0       13.096361    2.335014    0.699820
     57          1           0       11.836996    2.567831   -0.457801
     58          1           0       13.463077    2.358181   -1.229649
     59          1           0      -13.538306   -0.657443   -0.737512
     60          1           0      -13.814497   -1.354579    0.829584
     61          1           0      -12.446837   -2.042097   -0.236327
     62          1           0      -10.624154   -0.054098    2.374455
     63          1           0      -10.763561   -1.700190    1.869417
     64          1           0      -12.184236   -0.858014    2.883057
     65          1           0       10.087572    1.820867    0.347921
     66          1           0      -10.388078   -1.647748   -0.173489
     67          1           0        9.444521   -0.781128    2.376329
     68          1           0       11.104240   -1.906942    2.815586
     69          1           0        9.881715   -2.683742    1.874253
     70          1           0       -9.730290    1.247048   -2.181805
     71          1           0       -9.470627    2.747708   -1.344810
     72          1           0      -10.828718    2.674300   -2.711686
     73          1           0        8.260470   -0.800842    0.164393
     74          1           0       -8.445966    0.739125   -0.052238
     75          1           0        8.349763    3.238630    1.541641
     76          1           0        6.765246    3.190304    0.913338
     77          1           0        8.211814    3.240172   -0.292949
     78          1           0       -8.642323   -2.766657   -1.620401
     79          1           0       -8.630937   -3.208826   -0.170883
     80          1           0       -7.254077   -3.316694   -0.789683
     81          1           0        6.173419   -0.282995    0.202225
     82          1           0       -6.144860    0.320420   -0.256952
     83          1           0        4.788503    2.389296    0.784617
     84          1           0       -5.375620   -2.682135   -0.611941
     85          1           0        3.984280   -0.460166    0.114320
     86          1           0       -3.756186    0.088791   -0.111421
     87          1           0        3.013610    2.910704    1.390064
     88          1           0        1.245833    2.988552    0.617901
     89          1           0        2.587341    3.284944   -0.399243
     90          1           0       -3.108723   -3.429373   -1.543221
     91          1           0       -3.304795   -3.593299    0.191975
     92          1           0       -1.626344   -3.640026   -0.673095
     93          1           0        0.312077    1.279525   -0.067411
     94          1           0       -1.549904   -0.013859   -0.023109
     95          1           0        2.041606   -1.287268   -0.117854
     96          1           0       -0.000043   -2.555337   -0.404117
 ---------------------------------------------------------------------
 Rotational constants (GHZ):           0.2807569           0.0109332           0.0107183
 Standard basis: 6-31G(d,p) (6D, 7F)
 There are   880 symmetry adapted cartesian basis functions of A   symmetry.
 There are   880 symmetry adapted basis functions of A   symmetry.
   880 basis functions,  1512 primitive gaussians,   880 cartesian basis functions
   148 alpha electrons      148 beta electrons
       nuclear repulsion energy      3676.6019660637 Hartrees.
 NAtoms=   96 NActive=   96 NUniq=   96 SFac= 1.00D+00 NAtFMM=   60 NAOKFM=T Big=T
 Integral buffers will be    131072 words long.
 Regular integral format.
 Two-electron integral symmetry is turned on.
 One-electron integrals computed using PRISM.
 NBasis=   880 RedAO= T EigKep=  8.65D-04  NBF=   880
 NBsUse=   880 1.00D-06 EigRej= -1.00D+00 NBFU=   880
 ExpMin= 1.61D-01 ExpMax= 3.05D+03 ExpMxC= 4.57D+02 IAcc=3 IRadAn=         5 AccDes= 0.00D+00
 Harris functional with IExCor=  402 and IRadAn=       5 diagonalized for initial guess.
 HarFok:  IExCor=  402 AccDes= 0.00D+00 IRadAn=         5 IDoV= 1 UseB2=F ITyADJ=14
 ICtDFT=  3500011 ScaDFX=  1.000000  1.000000  1.000000  1.000000
 FoFCou: FMM=F IPFlag=           0 FMFlag=      100000 FMFlg1=        2001
         NFxFlg=           0 DoJE=T BraDBF=F KetDBF=T FulRan=T
         wScrn=  0.000000 ICntrl=       500 IOpCl=  0 I1Cent=   200000004 NGrid=           0
         NMat0=    1 NMatS0=      1 NMatT0=    0 NMatD0=    1 NMtDS0=    0 NMtDT0=    0
 Petite list used in FoFCou.
 Requested convergence on RMS density matrix=1.00D-08 within 128 cycles.
 Requested convergence on MAX density matrix=1.00D-06.
 Requested convergence on             energy=1.00D-06.
 No special actions if energy rises.
 Integral accuracy reduced to 1.0D-05 until final iterations.
 Initial convergence to 1.0D-05 achieved.  Increase integral accuracy.
 SCF Done:  E(RB3LYP) =  -1557.46469934     A.U. after   15 cycles
            NFock= 15  Conv=0.65D-08     -V/T= 2.0103
 DoSCS=F DFT=T ScalE2(SS,OS)=  1.000000  1.000000
 ExpMin= 1.61D-01 ExpMax= 3.05D+03 ExpMxC= 4.57D+02 IAcc=3 IRadAn=         5 AccDes= 0.00D+00
 HarFok:  IExCor=  205 AccDes= 0.00D+00 IRadAn=         5 IDoV=-2 UseB2=F ITyADJ=14
 ICtDFT= 12500011 ScaDFX=  1.000000  1.000000  1.000000  1.000000
 GSVD:  LWork=       -1920 too small for GESVD, short by        8600 words or        8600 for optimal perf.
 Range of M.O.s used for correlation:    41   880
 NBasis=   880 NAE=   148 NBE=   148 NFC=    40 NFV=     0
 NROrb=    840 NOA=   108 NOB=   108 NVA=   732 NVB=   732

 **** Warning!!: The smallest alpha delta epsilon is  0.87004404D-01

 Orbital symmetries:
       Occupied  (A) (A) (A) (A) (A) (A) (A) (A) (A) (A) (A) (A)
                 (A) (A) (A) (A) (A) (A) (A) (A) (A) (A) (A) (A)
                 (A) (A) (A) (A) (A) (A) (A) (A) (A) (A) (A) (A)
                 (A) (A) (A) (A) (A) (A) (A) (A) (A) (A) (A) (A)
                 (A) (A) (A) (A) (A) (A) (A) (A) (A) (A) (A) (A)
                 (A) (A) (A) (A) (A) (A) (A) (A) (A) (A) (A) (A)
                 (A) (A) (A) (A) (A) (A) (A) (A) (A) (A) (A) (A)
                 (A) (A) (A) (A) (A) (A) (A) (A) (A) (A) (A) (A)
                 (A) (A) (A) (A) (A) (A) (A) (A) (A) (A) (A) (A)
                 (A) (A) (A) (A) (A) (A) (A) (A) (A) (A) (A) (A)
                 (A) (A) (A) (A) (A) (A) (A) (A) (A) (A) (A) (A)
                 (A) (A) (A) (A) (A) (A) (A) (A) (A) (A) (A) (A)
                 (A) (A) (A) (A)
       Virtual   (A) (A) (A) (A) (A) (A) (A) (A) (A) (A) (A) (A)
                 (A) (A) (A) (A) (A) (A) (A) (A) (A) (A) (A) (A)
                 (A) (A) (A) (A) (A) (A) (A) (A) (A) (A) (A) (A)
                 (A) (A) (A) (A) (A) (A) (A) (A) (A) (A) (A) (A)
                 (A) (A) (A) (A) (A) (A) (A) (A) (A) (A) (A) (A)
                 (A) (A) (A) (A) (A) (A) (A) (A) (A) (A) (A) (A)
                 (A) (A) (A) (A) (A) (A) (A) (A) (A) (A) (A) (A)
                 (A) (A) (A) (A) (A) (A) (A) (A) (A) (A) (A) (A)
                 (A) (A) (A) (A) (A) (A) (A) (A) (A) (A) (A) (A)
                 (A) (A) (A) (A) (A) (A) (A) (A) (A) (A) (A) (A)
                 (A) (A) (A) (A) (A) (A) (A) (A) (A) (A) (A) (A)
                 (A) (A) (A) (A) (A) (A) (A) (A) (A) (A) (A) (A)
                 (A) (A) (A) (A) (A) (A) (A) (A) (A) (A) (A) (A)
                 (A) (A) (A) (A) (A) (A) (A) (A) (A) (A) (A) (A)
                 (A) (A) (A) (A) (A) (A) (A) (A) (A) (A) (A) (A)
                 (A) (A) (A) (A) (A) (A) (A) (A) (A) (A) (A) (A)
                 (A) (A) (A) (A) (A) (A) (A) (A) (A) (A) (A) (A)
                 (A) (A) (A) (A) (A) (A) (A) (A) (A) (A) (A) (A)
                 (A) (A) (A) (A) (A) (A) (A) (A) (A) (A) (A) (A)
                 (A) (A) (A) (A) (A) (A) (A) (A) (A) (A) (A) (A)
                 (A) (A) (A) (A) (A) (A) (A) (A) (A) (A) (A) (A)
                 (A) (A) (A) (A) (A) (A) (A) (A) (A) (A) (A) (A)
                 (A) (A) (A) (A) (A) (A) (A) (A) (A) (A) (A) (A)
                 (A) (A) (A) (A) (A) (A) (A) (A) (A) (A) (A) (A)
                 (A) (A) (A) (A) (A) (A) (A) (A) (A) (A) (A) (A)
                 (A) (A) (A) (A) (A) (A) (A) (A) (A) (A) (A) (A)
                 (A) (A) (A) (A) (A) (A) (A) (A) (A) (A) (A) (A)
                 (A) (A) (A) (A) (A) (A) (A) (A) (A) (A) (A) (A)
                 (A) (A) (A) (A) (A) (A) (A) (A) (A) (A) (A) (A)
                 (A) (A) (A) (A) (A) (A) (A) (A) (A) (A) (A) (A)
                 (A) (A) (A) (A) (A) (A) (A) (A) (A) (A) (A) (A)
                 (A) (A) (A) (A) (A) (A) (A) (A) (A) (A) (A) (A)
                 (A) (A) (A) (A) (A) (A) (A) (A) (A) (A) (A) (A)
                 (A) (A) (A) (A) (A) (A) (A) (A) (A) (A) (A) (A)
                 (A) (A) (A) (A) (A) (A) (A) (A) (A) (A) (A) (A)
                 (A) (A) (A) (A) (A) (A) (A) (A) (A) (A) (A) (A)
                 (A) (A) (A) (A) (A) (A) (A) (A) (A) (A) (A) (A)
                 (A) (A) (A) (A) (A) (A) (A) (A) (A) (A) (A) (A)
                 (A) (A) (A) (A) (A) (A) (A) (A) (A) (A) (A) (A)
                 (A) (A) (A) (A) (A) (A) (A) (A) (A) (A) (A) (A)
                 (A) (A) (A) (A) (A) (A) (A) (A) (A) (A) (A) (A)
                 (A) (A) (A) (A) (A) (A) (A) (A) (A) (A) (A) (A)
                 (A) (A) (A) (A) (A) (A) (A) (A) (A) (A) (A) (A)
                 (A) (A) (A) (A) (A) (A) (A) (A) (A) (A) (A) (A)
                 (A) (A) (A) (A) (A) (A) (A) (A) (A) (A) (A) (A)
                 (A) (A) (A) (A) (A) (A) (A) (A) (A) (A) (A) (A)
                 (A) (A) (A) (A) (A) (A) (A) (A) (A) (A) (A) (A)
                 (A) (A) (A) (A) (A) (A) (A) (A) (A) (A) (A) (A)
                 (A) (A) (A) (A) (A) (A) (A) (A) (A) (A) (A) (A)
                 (A) (A) (A) (A) (A) (A) (A) (A) (A) (A) (A) (A)
                 (A) (A) (A) (A) (A) (A) (A) (A) (A) (A) (A) (A)
                 (A) (A) (A) (A) (A) (A) (A) (A) (A) (A) (A) (A)
                 (A) (A) (A) (A) (A) (A) (A) (A) (A) (A) (A) (A)
                 (A) (A) (A) (A) (A) (A) (A) (A) (A) (A) (A) (A)
                 (A) (A) (A) (A) (A) (A) (A) (A) (A) (A) (A) (A)
                 (A) (A) (A) (A) (A) (A) (A) (A) (A) (A) (A) (A)
                 (A) (A) (A) (A) (A) (A) (A) (A) (A) (A) (A) (A)
                 (A) (A) (A) (A) (A) (A) (A) (A) (A) (A) (A) (A)
                 (A) (A) (A) (A) (A) (A) (A) (A) (A) (A) (A) (A)
                 (A) (A) (A) (A) (A) (A) (A) (A) (A) (A) (A) (A)
                 (A) (A) (A) (A) (A) (A) (A) (A) (A) (A) (A) (A)
     4 initial guesses have been made.
 Convergence on wavefunction:    0.001000000000000
 Iteration     1 Dimension     4 NMult     0 NNew      4
 CISAX will form     4 AO SS matrices at one time.
 Iteration     2 Dimension     6 NMult     4 NNew      2
 Iteration     3 Dimension     8 NMult     6 NNew      2
 Iteration     4 Dimension    10 NMult     8 NNew      2
 Iteration     5 Dimension    12 NMult    10 NNew      2
 Iteration     6 Dimension    14 NMult    12 NNew      2
 ***********************************************************************
 Excited states from <AA,BB:AA,BB> singles matrix:
 ***********************************************************************
 
 Ground to excited state transition densities written to RWF  633
 Ground to excited state transition electric dipole moments (Au):
       state          X           Y           Z        Dip. S.      Osc.
         1         7.3371      0.2771      0.3947     54.0650      2.9570
 Ground to excited state transition velocity dipole moments (Au):
       state          X           Y           Z        Dip. S.      Osc.
         1        -0.5829     -0.0221     -0.0305      0.3411      2.7722
 Ground to excited state transition magnetic dipole moments (Au):
       state          X           Y           Z
         1         0.0626      0.0549     -0.8661
 Ground to excited state transition velocity quadrupole moments (Au):
       state          XX          YY          ZZ          XY          XZ          YZ
         1         0.9326      0.0512      0.0077     -0.2296      0.0257      0.0071
 <0|del|b> * <b|rxdel|0> + <0|del|b> * <b|delr+rdel|0>
 Rotatory Strengths (R) in cgs (10**-40 erg-esu-cm/Gauss)
       state          XX          YY          ZZ    R(velocity)    E-M Angle
         1       141.1492    -91.4451   -146.9482    -32.4147       91.27
 1/2[<0|r|b>*<b|rxdel|0> + (<0|rxdel|b>*<b|r|0>)*]
 Rotatory Strengths (R) in cgs (10**-40 erg-esu-cm/Gauss)
       state          XX          YY          ZZ     R(length)
         1      -324.6198    -10.7496    241.7324    -31.2123
  1/2[<0|del|b>*<b|r|0> + (<0|r|b>*<b|del|0>)*] (Au)
       state          X           Y           Z        Dip. S.   Osc.(frdel)
         1        -4.2765     -0.0061     -0.0120      4.2946      2.8631

 Excitation energies and oscillator strengths:
 
 Excited State   1:      Singlet-A      2.2324 eV  555.39 nm  f=2.9570  <S**2>=0.000
     148 ->149         0.70293
 This state for optimization and/or second-order correction.
 Total Energy, E(TD-HF/TD-DFT) =  -1557.38266054    
 Copying the excited state density for this state as the 1-particle RhoCI density.
 SavETr:  write IOETrn=   770 NScale= 10 NData=  16 NLR=1 NState=    1 LETran=      28.

 **********************************************************************

            Population analysis using the SCF density.

 **********************************************************************

 Orbital symmetries:
       Occupied  (A) (A) (A) (A) (A) (A) (A) (A) (A) (A) (A) (A)
                 (A) (A) (A) (A) (A) (A) (A) (A) (A) (A) (A) (A)
                 (A) (A) (A) (A) (A) (A) (A) (A) (A) (A) (A) (A)
                 (A) (A) (A) (A) (A) (A) (A) (A) (A) (A) (A) (A)
                 (A) (A) (A) (A) (A) (A) (A) (A) (A) (A) (A) (A)
                 (A) (A) (A) (A) (A) (A) (A) (A) (A) (A) (A) (A)
                 (A) (A) (A) (A) (A) (A) (A) (A) (A) (A) (A) (A)
                 (A) (A) (A) (A) (A) (A) (A) (A) (A) (A) (A) (A)
                 (A) (A) (A) (A) (A) (A) (A) (A) (A) (A) (A) (A)
                 (A) (A) (A) (A) (A) (A) (A) (A) (A) (A) (A) (A)
                 (A) (A) (A) (A) (A) (A) (A) (A) (A) (A) (A) (A)
                 (A) (A) (A) (A) (A) (A) (A) (A) (A) (A) (A) (A)
                 (A) (A) (A) (A)
       Virtual   (A) (A) (A) (A) (A) (A) (A) (A) (A) (A) (A) (A)
                 (A) (A) (A) (A) (A) (A) (A) (A) (A) (A) (A) (A)
                 (A) (A) (A) (A) (A) (A) (A) (A) (A) (A) (A) (A)
                 (A) (A) (A) (A) (A) (A) (A) (A) (A) (A) (A) (A)
                 (A) (A) (A) (A) (A) (A) (A) (A) (A) (A) (A) (A)
                 (A) (A) (A) (A) (A) (A) (A) (A) (A) (A) (A) (A)
                 (A) (A) (A) (A) (A) (A) (A) (A) (A) (A) (A) (A)
                 (A) (A) (A) (A) (A) (A) (A) (A) (A) (A) (A) (A)
                 (A) (A) (A) (A) (A) (A) (A) (A) (A) (A) (A) (A)
                 (A) (A) (A) (A) (A) (A) (A) (A) (A) (A) (A) (A)
                 (A) (A) (A) (A) (A) (A) (A) (A) (A) (A) (A) (A)
                 (A) (A) (A) (A) (A) (A) (A) (A) (A) (A) (A) (A)
                 (A) (A) (A) (A) (A) (A) (A) (A) (A) (A) (A) (A)
                 (A) (A) (A) (A) (A) (A) (A) (A) (A) (A) (A) (A)
                 (A) (A) (A) (A) (A) (A) (A) (A) (A) (A) (A) (A)
                 (A) (A) (A) (A) (A) (A) (A) (A) (A) (A) (A) (A)
                 (A) (A) (A) (A) (A) (A) (A) (A) (A) (A) (A) (A)
                 (A) (A) (A) (A) (A) (A) (A) (A) (A) (A) (A) (A)
                 (A) (A) (A) (A) (A) (A) (A) (A) (A) (A) (A) (A)
                 (A) (A) (A) (A) (A) (A) (A) (A) (A) (A) (A) (A)
                 (A) (A) (A) (A) (A) (A) (A) (A) (A) (A) (A) (A)
                 (A) (A) (A) (A) (A) (A) (A) (A) (A) (A) (A) (A)
                 (A) (A) (A) (A) (A) (A) (A) (A) (A) (A) (A) (A)
                 (A) (A) (A) (A) (A) (A) (A) (A) (A) (A) (A) (A)
                 (A) (A) (A) (A) (A) (A) (A) (A) (A) (A) (A) (A)
                 (A) (A) (A) (A) (A) (A) (A) (A) (A) (A) (A) (A)
                 (A) (A) (A) (A) (A) (A) (A) (A) (A) (A) (A) (A)
                 (A) (A) (A) (A) (A) (A) (A) (A) (A) (A) (A) (A)
                 (A) (A) (A) (A) (A) (A) (A) (A) (A) (A) (A) (A)
                 (A) (A) (A) (A) (A) (A) (A) (A) (A) (A) (A) (A)
                 (A) (A) (A) (A) (A) (A) (A) (A) (A) (A) (A) (A)
                 (A) (A) (A) (A) (A) (A) (A) (A) (A) (A) (A) (A)
                 (A) (A) (A) (A) (A) (A) (A) (A) (A) (A) (A) (A)
                 (A) (A) (A) (A) (A) (A) (A) (A) (A) (A) (A) (A)
                 (A) (A) (A) (A) (A) (A) (A) (A) (A) (A) (A) (A)
                 (A) (A) (A) (A) (A) (A) (A) (A) (A) (A) (A) (A)
                 (A) (A) (A) (A) (A) (A) (A) (A) (A) (A) (A) (A)
                 (A) (A) (A) (A) (A) (A) (A) (A) (A) (A) (A) (A)
                 (A) (A) (A) (A) (A) (A) (A) (A) (A) (A) (A) (A)
                 (A) (A) (A) (A) (A) (A) (A) (A) (A) (A) (A) (A)
                 (A) (A) (A) (A) (A) (A) (A) (A) (A) (A) (A) (A)
                 (A) (A) (A) (A) (A) (A) (A) (A) (A) (A) (A) (A)
                 (A) (A) (A) (A) (A) (A) (A) (A) (A) (A) (A) (A)
                 (A) (A) (A) (A) (A) (A) (A) (A) (A) (A) (A) (A)
                 (A) (A) (A) (A) (A) (A) (A) (A) (A) (A) (A) (A)
                 (A) (A) (A) (A) (A) (A) (A) (A) (A) (A) (A) (A)
                 (A) (A) (A) (A) (A) (A) (A) (A) (A) (A) (A) (A)
                 (A) (A) (A) (A) (A) (A) (A) (A) (A) (A) (A) (A)
                 (A) (A) (A) (A) (A) (A) (A) (A) (A) (A) (A) (A)
                 (A) (A) (A) (A) (A) (A) (A) (A) (A) (A) (A) (A)
                 (A) (A) (A) (A) (A) (A) (A) (A) (A) (A) (A) (A)
                 (A) (A) (A) (A) (A) (A) (A) (A) (A) (A) (A) (A)
                 (A) (A) (A) (A) (A) (A) (A) (A) (A) (A) (A) (A)
                 (A) (A) (A) (A) (A) (A) (A) (A) (A) (A) (A) (A)
                 (A) (A) (A) (A) (A) (A) (A) (A) (A) (A) (A) (A)
                 (A) (A) (A) (A) (A) (A) (A) (A) (A) (A) (A) (A)
                 (A) (A) (A) (A) (A) (A) (A) (A) (A) (A) (A) (A)
                 (A) (A) (A) (A) (A) (A) (A) (A) (A) (A) (A) (A)
                 (A) (A) (A) (A) (A) (A) (A) (A) (A) (A) (A) (A)
                 (A) (A) (A) (A) (A) (A) (A) (A) (A) (A) (A) (A)
                 (A) (A) (A) (A) (A) (A) (A) (A) (A) (A) (A) (A)
 The electronic state is 1-A.
 Alpha  occ. eigenvalues --  -10.20847 -10.20648 -10.20477 -10.20263 -10.20169
 Alpha  occ. eigenvalues --  -10.20016 -10.19859 -10.19817 -10.19772 -10.19649
 Alpha  occ. eigenvalues --  -10.19633 -10.19589 -10.19530 -10.19350 -10.19274
 Alpha  occ. eigenvalues --  -10.19251 -10.19220 -10.19194 -10.19036 -10.18951
 Alpha  occ. eigenvalues --  -10.18799 -10.18743 -10.18629 -10.18531 -10.18460
 Alpha  occ. eigenvalues --  -10.18377 -10.18243 -10.18134 -10.18102 -10.18091
 Alpha  occ. eigenvalues --  -10.17908 -10.17828 -10.17815 -10.17694 -10.17666
 Alpha  occ. eigenvalues --  -10.17551 -10.17289 -10.17112 -10.16410 -10.16299
 Alpha  occ. eigenvalues --   -0.85759  -0.84848  -0.83756  -0.83077  -0.82212
 Alpha  occ. eigenvalues --   -0.81374  -0.79956  -0.79052  -0.78744  -0.77673
 Alpha  occ. eigenvalues --   -0.77137  -0.75607  -0.74771  -0.72899  -0.71976
 Alpha  occ. eigenvalues --   -0.70497  -0.69487  -0.68964  -0.68287  -0.68086
 Alpha  occ. eigenvalues --   -0.67673  -0.67416  -0.66712  -0.66133  -0.65777
 Alpha  occ. eigenvalues --   -0.62384  -0.61623  -0.59713  -0.59063  -0.56879
 Alpha  occ. eigenvalues --   -0.56131  -0.55334  -0.55147  -0.54028  -0.52954
 Alpha  occ. eigenvalues --   -0.52730  -0.52040  -0.50442  -0.50164  -0.49498
 Alpha  occ. eigenvalues --   -0.48395  -0.47536  -0.47350  -0.46806  -0.46619
 Alpha  occ. eigenvalues --   -0.46404  -0.45787  -0.45372  -0.44835  -0.43837
 Alpha  occ. eigenvalues --   -0.43615  -0.43388  -0.43146  -0.42927  -0.42298
 Alpha  occ. eigenvalues --   -0.42252  -0.41922  -0.41701  -0.41117  -0.41097
 Alpha  occ. eigenvalues --   -0.40474  -0.40100  -0.39967  -0.39555  -0.39390
 Alpha  occ. eigenvalues --   -0.39084  -0.38988  -0.38827  -0.38571  -0.38262
 Alpha  occ. eigenvalues --   -0.37951  -0.37758  -0.37533  -0.36908  -0.36792
 Alpha  occ. eigenvalues --   -0.36578  -0.36450  -0.35871  -0.35764  -0.35606
 Alpha  occ. eigenvalues --   -0.35051  -0.34753  -0.34347  -0.34147  -0.33711
 Alpha  occ. eigenvalues --   -0.33615  -0.33481  -0.33131  -0.32891  -0.32199
 Alpha  occ. eigenvalues --   -0.31771  -0.31611  -0.31575  -0.31439  -0.30779
 Alpha  occ. eigenvalues --   -0.30452  -0.30171  -0.29052  -0.28850  -0.27997
 Alpha  occ. eigenvalues --   -0.27716  -0.27317  -0.26129  -0.23670  -0.22048
 Alpha  occ. eigenvalues --   -0.20387  -0.18111  -0.16363
 Alpha virt. eigenvalues --   -0.07662  -0.05286  -0.01656   0.00547   0.02353
 Alpha virt. eigenvalues --    0.04363   0.05709   0.06272   0.06641   0.06977
 Alpha virt. eigenvalues --    0.07624   0.07853   0.07966   0.08206   0.08422
 Alpha virt. eigenvalues --    0.08779   0.09226   0.09436   0.09605   0.09845
 Alpha virt. eigenvalues --    0.10268   0.10277   0.10773   0.10997   0.11225
 Alpha virt. eigenvalues --    0.11371   0.11620   0.11839   0.12326   0.12621
 Alpha virt. eigenvalues --    0.13507   0.13631   0.13905   0.14208   0.14416
 Alpha virt. eigenvalues --    0.14799   0.15063   0.15357   0.15456   0.15587
 Alpha virt. eigenvalues --    0.15839   0.16039   0.16301   0.16580   0.16891
 Alpha virt. eigenvalues --    0.17132   0.17558   0.17962   0.18171   0.18393
 Alpha virt. eigenvalues --    0.18592   0.18858   0.18869   0.19301   0.19953
 Alpha virt. eigenvalues --    0.20108   0.20407   0.20549   0.20697   0.21065
 Alpha virt. eigenvalues --    0.21176   0.21433   0.22192   0.22343   0.22803
 Alpha virt. eigenvalues --    0.23239   0.23742   0.24019   0.24208   0.24781
 Alpha virt. eigenvalues --    0.24962   0.25222   0.25451   0.25985   0.26590
 Alpha virt. eigenvalues --    0.26855   0.27089   0.27754   0.27940   0.28092
 Alpha virt. eigenvalues --    0.28214   0.28681   0.29056   0.29400   0.29497
 Alpha virt. eigenvalues --    0.30136   0.30347   0.31305   0.32541   0.33256
 Alpha virt. eigenvalues --    0.34876   0.35062   0.35606   0.36737   0.37816
 Alpha virt. eigenvalues --    0.38927   0.39321   0.39714   0.40547   0.42284
 Alpha virt. eigenvalues --    0.42698   0.43034   0.43546   0.43867   0.45297
 Alpha virt. eigenvalues --    0.46104   0.47562   0.48118   0.48781   0.49056
 Alpha virt. eigenvalues --    0.49874   0.50126   0.50553   0.50872   0.51458
 Alpha virt. eigenvalues --    0.51474   0.52048   0.52369   0.52714   0.53055
 Alpha virt. eigenvalues --    0.53607   0.54009   0.54369   0.54771   0.54963
 Alpha virt. eigenvalues --    0.55169   0.55623   0.55751   0.56374   0.56576
 Alpha virt. eigenvalues --    0.56708   0.57020   0.57094   0.57553   0.58145
 Alpha virt. eigenvalues --    0.58244   0.58503   0.58679   0.58899   0.59132
 Alpha virt. eigenvalues --    0.59927   0.60218   0.60507   0.60943   0.61061
 Alpha virt. eigenvalues --    0.61244   0.61404   0.61715   0.62242   0.62727
 Alpha virt. eigenvalues --    0.63249   0.63390   0.63670   0.64123   0.64507
 Alpha virt. eigenvalues --    0.64742   0.64942   0.65427   0.65550   0.66062
 Alpha virt. eigenvalues --    0.66540   0.67200   0.67391   0.67764   0.67999
 Alpha virt. eigenvalues --    0.68629   0.68779   0.68976   0.69409   0.69590
 Alpha virt. eigenvalues --    0.69860   0.70470   0.71070   0.71241   0.72230
 Alpha virt. eigenvalues --    0.72467   0.72768   0.72854   0.73433   0.74085
 Alpha virt. eigenvalues --    0.74338   0.74418   0.74825   0.74981   0.75655
 Alpha virt. eigenvalues --    0.75711   0.76529   0.76639   0.76931   0.77182
 Alpha virt. eigenvalues --    0.77662   0.77911   0.78101   0.78317   0.78560
 Alpha virt. eigenvalues --    0.78821   0.78931   0.79988   0.80046   0.80114
 Alpha virt. eigenvalues --    0.80216   0.80610   0.81029   0.81090   0.81582
 Alpha virt. eigenvalues --    0.82117   0.82434   0.82919   0.83373   0.83593
 Alpha virt. eigenvalues --    0.84006   0.84168   0.84306   0.85146   0.85626
 Alpha virt. eigenvalues --    0.85846   0.85959   0.86130   0.86328   0.86676
 Alpha virt. eigenvalues --    0.86881   0.87259   0.87318   0.87424   0.87843
 Alpha virt. eigenvalues --    0.88255   0.88667   0.89151   0.89307   0.90082
 Alpha virt. eigenvalues --    0.90221   0.90562   0.90956   0.91571   0.91710
 Alpha virt. eigenvalues --    0.92201   0.92299   0.92842   0.93142   0.93559
 Alpha virt. eigenvalues --    0.93690   0.94430   0.94841   0.95151   0.95406
 Alpha virt. eigenvalues --    0.95704   0.96188   0.96235   0.96521   0.97068
 Alpha virt. eigenvalues --    0.97166   0.97349   0.98290   0.99116   0.99571
 Alpha virt. eigenvalues --    0.99728   1.00255   1.00444   1.00990   1.01104
 Alpha virt. eigenvalues --    1.01135   1.01805   1.02675   1.03167   1.03656
 Alpha virt. eigenvalues --    1.04291   1.04815   1.05273   1.05772   1.05828
 Alpha virt. eigenvalues --    1.07465   1.07949   1.08220   1.08887   1.09942
 Alpha virt. eigenvalues --    1.10178   1.10363   1.10488   1.10850   1.11376
 Alpha virt. eigenvalues --    1.12271   1.12755   1.12901   1.13638   1.14513
 Alpha virt. eigenvalues --    1.16141   1.17341   1.18001   1.18233   1.19584
 Alpha virt. eigenvalues --    1.19901   1.20865   1.21315   1.21756   1.22116
 Alpha virt. eigenvalues --    1.24045   1.24926   1.26995   1.27758   1.27912
 Alpha virt. eigenvalues --    1.28360   1.28937   1.29903   1.30298   1.30823
 Alpha virt. eigenvalues --    1.31310   1.31821   1.32039   1.33207   1.33439
 Alpha virt. eigenvalues --    1.34610   1.35303   1.36165   1.36776   1.37810
 Alpha virt. eigenvalues --    1.38155   1.38559   1.38951   1.39723   1.40279
 Alpha virt. eigenvalues --    1.41030   1.41836   1.42313   1.43212   1.43927
 Alpha virt. eigenvalues --    1.44511   1.45415   1.45913   1.46289   1.47491
 Alpha virt. eigenvalues --    1.48806   1.48892   1.49194   1.50286   1.50561
 Alpha virt. eigenvalues --    1.52693   1.52856   1.53467   1.53986   1.54193
 Alpha virt. eigenvalues --    1.56265   1.56936   1.57528   1.59019   1.60017
 Alpha virt. eigenvalues --    1.60636   1.61274   1.63082   1.64831   1.65477
 Alpha virt. eigenvalues --    1.66387   1.67836   1.68656   1.69683   1.69711
 Alpha virt. eigenvalues --    1.71273   1.71544   1.72421   1.72864   1.72977
 Alpha virt. eigenvalues --    1.74038   1.74135   1.74507   1.74971   1.75478
 Alpha virt. eigenvalues --    1.76055   1.76862   1.77181   1.77519   1.77738
 Alpha virt. eigenvalues --    1.77943   1.78371   1.79037   1.79770   1.79903
 Alpha virt. eigenvalues --    1.80663   1.81164   1.81486   1.82063   1.82291
 Alpha virt. eigenvalues --    1.82347   1.83171   1.83409   1.83550   1.84251
 Alpha virt. eigenvalues --    1.84392   1.84877   1.85333   1.85754   1.86353
 Alpha virt. eigenvalues --    1.86839   1.86875   1.87293   1.87786   1.88376
 Alpha virt. eigenvalues --    1.88940   1.89143   1.89439   1.89682   1.89989
 Alpha virt. eigenvalues --    1.90553   1.91095   1.91753   1.92488   1.92624
 Alpha virt. eigenvalues --    1.93136   1.93266   1.93597   1.93803   1.94015
 Alpha virt. eigenvalues --    1.94214   1.95515   1.95954   1.96252   1.96751
 Alpha virt. eigenvalues --    1.97205   1.97755   1.98344   1.98635   1.99435
 Alpha virt. eigenvalues --    2.00370   2.00377   2.00561   2.01122   2.01211
 Alpha virt. eigenvalues --    2.01487   2.01712   2.02324   2.03061   2.03322
 Alpha virt. eigenvalues --    2.03652   2.03856   2.04011   2.04384   2.05019
 Alpha virt. eigenvalues --    2.05887   2.06251   2.06429   2.06766   2.07208
 Alpha virt. eigenvalues --    2.07912   2.08274   2.08544   2.08858   2.09498
 Alpha virt. eigenvalues --    2.10284   2.10434   2.10997   2.11287   2.11390
 Alpha virt. eigenvalues --    2.11590   2.12534   2.13622   2.14397   2.14711
 Alpha virt. eigenvalues --    2.15299   2.15715   2.15919   2.17024   2.17430
 Alpha virt. eigenvalues --    2.17670   2.18540   2.19244   2.19581   2.19752
 Alpha virt. eigenvalues --    2.19993   2.20212   2.20891   2.21441   2.21985
 Alpha virt. eigenvalues --    2.22029   2.22228   2.22694   2.23261   2.24065
 Alpha virt. eigenvalues --    2.24386   2.24880   2.25060   2.25496   2.26146
 Alpha virt. eigenvalues --    2.26240   2.26983   2.27161   2.28297   2.28549
 Alpha virt. eigenvalues --    2.29109   2.30072   2.30254   2.30732   2.31687
 Alpha virt. eigenvalues --    2.31824   2.31906   2.32725   2.33039   2.33365
 Alpha virt. eigenvalues --    2.33604   2.34011   2.34734   2.35449   2.36428
 Alpha virt. eigenvalues --    2.36602   2.37123   2.37649   2.37771   2.37930
 Alpha virt. eigenvalues --    2.38833   2.39083   2.39579   2.39899   2.40272
 Alpha virt. eigenvalues --    2.40535   2.41708   2.41870   2.41960   2.42757
 Alpha virt. eigenvalues --    2.43403   2.43650   2.44415   2.44744   2.45420
 Alpha virt. eigenvalues --    2.45604   2.46045   2.47249   2.48037   2.48353
 Alpha virt. eigenvalues --    2.48575   2.49055   2.49172   2.50046   2.50173
 Alpha virt. eigenvalues --    2.50945   2.51274   2.51567   2.52336   2.52667
 Alpha virt. eigenvalues --    2.52821   2.52927   2.54245   2.54681   2.55100
 Alpha virt. eigenvalues --    2.55178   2.55375   2.55994   2.56237   2.56953
 Alpha virt. eigenvalues --    2.57031   2.57342   2.58057   2.58387   2.59777
 Alpha virt. eigenvalues --    2.60460   2.60691   2.61217   2.61522   2.61752
 Alpha virt. eigenvalues --    2.62256   2.62802   2.63071   2.63196   2.63449
 Alpha virt. eigenvalues --    2.64172   2.65000   2.65267   2.65840   2.66252
 Alpha virt. eigenvalues --    2.67114   2.67420   2.67535   2.68229   2.68720
 Alpha virt. eigenvalues --    2.69003   2.69191   2.69781   2.70125   2.70564
 Alpha virt. eigenvalues --    2.71038   2.71970   2.72585   2.73006   2.73429
 Alpha virt. eigenvalues --    2.74506   2.75028   2.75237   2.75832   2.76579
 Alpha virt. eigenvalues --    2.77057   2.78558   2.78688   2.79189   2.79508
 Alpha virt. eigenvalues --    2.79914   2.80340   2.80982   2.81191   2.82271
 Alpha virt. eigenvalues --    2.83289   2.83558   2.83749   2.84578   2.85121
 Alpha virt. eigenvalues --    2.85217   2.86372   2.87601   2.87979   2.88033
 Alpha virt. eigenvalues --    2.88987   2.89280   2.89854   2.90713   2.91560
 Alpha virt. eigenvalues --    2.92051   2.92541   2.93112   2.93769   2.93931
 Alpha virt. eigenvalues --    2.94360   2.95759   2.96130   2.96807   2.97364
 Alpha virt. eigenvalues --    2.98364   2.98648   3.00179   3.00441   3.00911
 Alpha virt. eigenvalues --    3.01761   3.03061   3.03343   3.04720   3.05078
 Alpha virt. eigenvalues --    3.05545   3.06005   3.08134   3.09494   3.10109
 Alpha virt. eigenvalues --    3.10486   3.11807   3.13195   3.14001   3.15044
 Alpha virt. eigenvalues --    3.15790   3.17431   3.19064   3.19717   3.20745
 Alpha virt. eigenvalues --    3.21374   3.21617   3.24323   3.26390   3.27809
 Alpha virt. eigenvalues --    3.29290   3.29661   3.32193   3.32327   3.33000
 Alpha virt. eigenvalues --    3.33368   3.34382   3.35633   3.35810   3.36063
 Alpha virt. eigenvalues --    3.37554   3.38829   3.41174   3.42140   3.43447
 Alpha virt. eigenvalues --    3.43652   3.43940   3.44899   3.47833   3.47919
 Alpha virt. eigenvalues --    3.49045   3.49473   3.49877   3.50767   3.51056
 Alpha virt. eigenvalues --    3.56020   3.57884   3.58476   3.58889   3.60253
 Alpha virt. eigenvalues --    3.61252   3.61910   3.62261   3.63331   3.63974
 Alpha virt. eigenvalues --    3.67764   3.68135   3.71376   3.72298   3.73071
 Alpha virt. eigenvalues --    3.80471   3.99971   4.10975   4.12073   4.12307
 Alpha virt. eigenvalues --    4.13350   4.16825   4.17726   4.19627   4.19740
 Alpha virt. eigenvalues --    4.21595   4.24318   4.27916   4.30172   4.31394
 Alpha virt. eigenvalues --    4.33326   4.35814   4.37171   4.38354   4.40348
 Alpha virt. eigenvalues --    4.42536   4.45709   4.46417   4.46468   4.46881
 Alpha virt. eigenvalues --    4.48666   4.50766   4.51630   4.54698   4.57314
 Alpha virt. eigenvalues --    4.60081   4.60239   4.64491   4.65365   4.67638
 Alpha virt. eigenvalues --    4.70868   4.72871   4.76413   4.77099   4.80987
 Alpha virt. eigenvalues --    4.81918   4.82221
          Condensed to atoms (all electrons):
 Mulliken charges:
               1
     1  C    0.003171
     2  C   -0.020312
     3  C   -0.177354
     4  C   -0.161474
     5  C   -0.181088
     6  C   -0.158906
     7  C    0.041269
     8  C    0.054712
     9  C   -0.197647
    10  C   -0.215299
    11  C    0.089618
    12  C    0.088703
    13  C   -0.274393
    14  C   -0.286983
    15  C   -0.289093
    16  C   -0.309805
    17  C   -0.132122
    18  C   -0.153136
    19  C   -0.351575
    20  C   -0.338942
    21  C   -0.124348
    22  C   -0.102723
    23  C    0.084111
    24  C    0.122832
    25  C   -0.350541
    26  C   -0.364107
    27  C   -0.101202
    28  C   -0.123118
    29  C   -0.065927
    30  C   -0.081543
    31  C   -0.126117
    32  C   -0.126130
    33  C    0.119728
    34  C    0.111727
    35  C   -0.365228
    36  C   -0.370387
    37  C   -0.124063
    38  C   -0.102601
    39  C   -0.073072
    40  C   -0.095273
    41  H    0.095845
    42  H    0.091246
    43  H    0.089448
    44  H    0.066789
    45  H    0.058517
    46  H    0.108339
    47  H    0.101764
    48  H    0.046129
    49  H    0.119003
    50  H    0.081513
    51  H    0.087787
    52  H    0.105772
    53  H    0.064746
    54  H    0.111339
    55  H    0.086981
    56  H    0.074214
    57  H    0.121087
    58  H    0.081496
    59  H    0.121059
    60  H    0.089173
    61  H    0.063566
    62  H    0.122140
    63  H    0.093655
    64  H    0.107037
    65  H    0.080270
    66  H    0.058999
    67  H    0.132780
    68  H    0.102162
    69  H    0.062472
    70  H    0.129614
    71  H    0.117773
    72  H    0.055140
    73  H    0.084346
    74  H    0.088476
    75  H    0.112098
    76  H    0.120869
    77  H    0.122094
    78  H    0.107467
    79  H    0.125472
    80  H    0.104550
    81  H    0.077647
    82  H    0.068198
    83  H    0.083509
    84  H    0.078805
    85  H    0.076947
    86  H    0.083691
    87  H    0.124708
    88  H    0.109928
    89  H    0.077209
    90  H    0.129465
    91  H    0.131731
    92  H    0.110015
    93  H    0.068947
    94  H    0.070111
    95  H    0.079319
    96  H    0.065184
 Sum of Mulliken charges =  -0.00000
 Mulliken charges with hydrogens summed into heavy atoms:
               1
     1  C    0.003171
     2  C   -0.020312
     3  C    0.009737
     4  C   -0.005237
     5  C   -0.014232
     6  C   -0.011013
     7  C    0.041269
     8  C    0.054712
     9  C    0.002870
    10  C   -0.021740
    11  C    0.089618
    12  C    0.088703
    13  C   -0.011328
    14  C   -0.010186
    15  C   -0.015295
    16  C    0.013027
    17  C   -0.051852
    18  C   -0.094137
    19  C   -0.054162
    20  C   -0.036415
    21  C   -0.040002
    22  C   -0.014247
    23  C    0.084111
    24  C    0.122832
    25  C    0.004520
    26  C   -0.026618
    27  C   -0.023555
    28  C   -0.054920
    29  C    0.017582
    30  C   -0.002738
    31  C   -0.049171
    32  C   -0.042439
    33  C    0.119728
    34  C    0.111727
    35  C   -0.053384
    36  C    0.000824
    37  C   -0.055116
    38  C   -0.032491
    39  C    0.006247
    40  C   -0.030090
 Electronic spatial extent (au):  <R**2>=          95833.4440
 Charge=             -0.0000 electrons
 Dipole moment (field-independent basis, Debye):
    X=              1.7061    Y=              0.4750    Z=              0.1492  Tot=              1.7773
 Quadrupole moment (field-independent basis, Debye-Ang):
   XX=           -221.7647   YY=           -235.0858   ZZ=           -255.9171
   XY=              3.4050   XZ=             -4.7253   YZ=              2.7636
 Traceless Quadrupole moment (field-independent basis, Debye-Ang):
   XX=             15.8245   YY=              2.5034   ZZ=            -18.3279
   XY=              3.4050   XZ=             -4.7253   YZ=              2.7636
 Octapole moment (field-independent basis, Debye-Ang**2):
  XXX=            326.6027  YYY=             -5.5722  ZZZ=             -4.1193  XYY=            -20.5764
  XXY=             87.3697  XXZ=             29.6776  XZZ=             26.7370  YZZ=             -0.0473
  YYZ=             -0.3674  XYZ=              6.2377
 Hexadecapole moment (field-independent basis, Debye-Ang**3):
 XXXX=        -123678.3704 YYYY=          -4244.6119 ZZZZ=          -1645.1194 XXXY=           -485.0353
 XXXZ=           -966.9969 YYYX=            175.4279 YYYZ=             40.2226 ZZZX=           -110.8998
 ZZZY=             13.8069 XXYY=         -21569.1612 XXZZ=         -21878.7944 YYZZ=           -992.8903
 XXYZ=            -57.4155 YYXZ=            120.4525 ZZXY=             -8.6696
 N-N= 3.676601966064D+03 E-N=-1.095316289495D+04  KE= 1.541659992699D+03
 1\1\GINC-RYZEN-SSD1\SP\RB3LYP TD-FC\6-31G(d,p)\C40H56\PADAWAN\28-Jul-2
 019\0\\# td=(NStates=1) B3LYP/6-31G(d,p)\\TD\\0,1\C,0,12.2370880514,0.
 5535759581,-0.7891450334\C,0,-12.0942617403,-0.0468297246,0.9328324621
 \C,0,13.4306524779,-0.3546751275,-0.7263886379\C,0,-13.0320897089,1.09
 28536769,1.2760483192\C,0,13.0187841926,-1.8463103034,-0.6563773965\C,
 0,-13.3715617523,1.9855670688,0.1148318503\C,0,11.088310625,-0.0137871
 142,0.1941969575\C,0,-10.9960672745,0.4436642487,-0.0769853333\C,0,12.
 3841528527,-2.0493972337,0.6172557019\C,0,-12.1865485375,2.6167119794,
 -0.5472230582\C,0,11.2146511731,-1.1726593204,0.9533919076\C,0,-11.068
 1716114,1.6502606479,-0.7862875025\C,0,11.6665272404,0.5286539905,-2.1
 692053991\C,0,12.6381472281,1.9772717823,-0.4299745165\C,0,-13.0767052
 613,-1.062673386,0.070170847\C,0,-11.414990367,-0.7449876724,2.1701451
 627\C,0,9.8715052131,0.8296690805,0.2517771782\C,0,-9.9471545224,-0.53
 37259147,-0.4134554333\C,0,10.3222464009,-1.4925290646,2.0754801829\C,
 0,-10.1728202522,2.0218939285,-1.8157830432\C,0,8.5375099907,0.3697969
 359,0.3752657328\C,0,-8.6060535638,-0.3092407894,-0.3524515681\C,0,7.3
 9371794,1.3569844987,0.4927818908\C,0,-7.5564445384,-1.2867371488,-0.5
 124516421\C,0,7.6700300527,2.8871813553,0.6661190489\C,0,-7.9292801162
 ,-2.7009801091,-0.7172490025\C,0,6.1872326248,0.7184762366,0.410333192
 3\C,0,-6.2299416041,-0.8455153741,-0.307042816\C,0,4.924843135,1.36688
 90208,0.5538450435\C,0,-5.0584054523,-1.5980757854,-0.4669080724\C,0,3
 .7874874603,0.6250000652,0.3228442337\C,0,-3.8096563508,-1.0581564483,
 -0.2304154792\C,0,2.3959228937,1.1561763253,0.2775322411\C,0,-2.541723
 1717,-1.8274678055,-0.3494682269\C,0,2.299474319,2.6499643629,0.612775
 6509\C,0,-2.6368842338,-3.2599795245,-0.573068657\C,0,1.2281143599,0.5
 348448261,0.1360885259\C,0,-1.4002081939,-1.0762061926,-0.1605447596\C
 ,0,1.0833727095,-0.8638513323,-0.0419017099\C,0,-0.0261520756,-1.52585
 88257,-0.2543491909\H,0,13.9658466905,-0.1279103615,0.1792859715\H,0,1
 4.0079078046,-0.3288012558,-1.5178853269\H,0,-12.4506314281,1.41922431
 26,2.1095545203\H,0,-13.8704178994,0.470856578,1.8353699751\H,0,13.992
 909913,-2.5772085386,-0.6339168375\H,0,12.6429901807,-1.9517090709,-1.
 6466507884\H,0,-14.1052339116,2.66269963,0.4507261102\H,0,-14.15734051
 79,1.1979494691,-0.5614601681\H,0,13.0662285867,-1.9281953261,1.369458
 8279\H,0,11.8061180663,-3.0424679389,0.773624218\H,0,-11.9034701391,3.
 4077384945,0.3206685839\H,0,-12.6140176157,3.2794014479,-1.3484687481\
 H,0,11.5778511556,-0.5206251398,-2.9081689496\H,0,12.464463327,0.89372
 40337,-2.6681233863\H,0,10.6085484261,1.0720303147,-2.6141121307\H,0,1
 3.0921001641,2.345411443,0.6966170022\H,0,11.8334417511,2.5718270936,-
 0.463040461\H,0,13.4602078771,2.3593762075,-1.2326755387\H,0,-13.53974
 3205,-0.6698309921,-0.7454106418\H,0,-13.816663839,-1.3594717514,0.824
 8697077\H,0,-12.4478223854,-2.0513735423,-0.2366795505\H,0,-10.6282153
 124,-0.0495705965,2.3656862277\H,0,-10.7662831537,-1.6981908198,1.8685
 908753\H,0,-12.1881928833,-0.8519196599,2.8770762357\H,0,10.0838717938
 ,1.8277676369,0.3450504129\H,0,-10.389343379,-1.6555006601,-0.17427380
 54\H,0,9.4408781653,-0.7646740621,2.3856723248\H,0,11.1009409082,-1.88
 73449324,2.8316245925\H,0,9.8795600232,-2.6694567957,1.8932089425\H,0,
 -9.7318002153,1.2298452971,-2.1962221191\H,0,-9.4736321681,2.734726994
 7,-1.3663766839\H,0,-10.8306833333,2.6538403894,-2.7338633596\H,0,8.25
 84514359,-0.7958903692,0.1730003496\H,0,-8.448728268,0.7330875029,-0.0
 632699795\H,0,8.3443576679,3.2503100669,1.5305724397\H,0,6.7603279135,
 3.197977502,0.901362716\H,0,8.2077450122,3.2428129433,-0.3041036333\H,
 0,-8.6418751397,-2.7804251016,-1.6144381374\H,0,-8.6312841167,-3.21550
 47378,-0.1627701377\H,0,-7.2539099436,-3.3255752088,-0.7800368889\H,0,
 6.1710679713,-0.2791031371,0.2067886622\H,0,-6.1472267073,0.3147534138
 ,-0.2642667035\H,0,4.7841517725,2.3951779619,0.7751204188\H,0,-5.37595
 76961,-2.6890424206,-0.6040325444\H,0,3.9820984765,-0.4580003699,0.118
 1614545\H,0,-3.7585234835,0.0852548554,-0.115873454\H,0,3.0085115506,2
 .9184822443,1.3767263279\H,0,1.2412513259,2.9915098828,0.6029100185\H,
 0,2.5833253913,3.2837288464,-0.4146954391\H,0,-3.1079426639,-3.4394723
 031,-1.5300080116\H,0,-3.305182124,-3.595041497,0.2058252339\H,0,-1.62
 60735787,-3.6449948339,-0.6577880052\H,0,0.3090033011,1.2786037756,-0.
 0747268275\H,0,-1.5522463132,-0.0156535782,-0.0254602721\H,0,2.0400825
 528,-1.2873777875,-0.1113807023\H,0,-0.0006095502,-2.5580408464,-0.392
 9301539\\Version=ES64L-G16RevA.03\State=1-A\HF=-1557.4646993\RMSD=6.45
 1e-09\PG=C01 [X(C40H56)]\\@


 I DO NOT DEFINE TIME, SPACE, PLACE, AND MOTION, AS BEING WELL KNOWN TO ALL.
                                            -- NEWTON (1642-1726), PRINCIPIA
 Job cpu time:       0 days 10 hours 38 minutes  8.0 seconds.
 Elapsed time:       0 days  2 hours 40 minutes 35.4 seconds.
 File lengths (MBytes):  RWF=   2884 Int=      0 D2E=      0 Chk=     79 Scr=      1
 Normal termination of Gaussian 16 at Sun Jul 28 10:27:24 2019.
