 Entering Gaussian System, Link 0=g16
 Input=Geometria-5-.com
 Output=Geometria-5-.log
 Initial command:
 /usr/local/g16/l1.exe "/home/padawan/israel-mol/b-caroten/spectra/abs/Gau-47951.inp" -scrdir="/home/padawan/israel-mol/b-caroten/spectra/abs/"
 Entering Link 1 = /usr/local/g16/l1.exe PID=     47996.
  
 Copyright (c) 1988,1990,1992,1993,1995,1998,2003,2009,2016,
            Gaussian, Inc.  All Rights Reserved.
  
 This is part of the Gaussian(R) 16 program.  It is based on
 the Gaussian(R) 09 system (copyright 2009, Gaussian, Inc.),
 the Gaussian(R) 03 system (copyright 2003, Gaussian, Inc.),
 the Gaussian(R) 98 system (copyright 1998, Gaussian, Inc.),
 the Gaussian(R) 94 system (copyright 1995, Gaussian, Inc.),
 the Gaussian 92(TM) system (copyright 1992, Gaussian, Inc.),
 the Gaussian 90(TM) system (copyright 1990, Gaussian, Inc.),
 the Gaussian 88(TM) system (copyright 1988, Gaussian, Inc.),
 the Gaussian 86(TM) system (copyright 1986, Carnegie Mellon
 University), and the Gaussian 82(TM) system (copyright 1983,
 Carnegie Mellon University). Gaussian is a federally registered
 trademark of Gaussian, Inc.
  
 This software contains proprietary and confidential information,
 including trade secrets, belonging to Gaussian, Inc.
  
 This software is provided under written license and may be
 used, copied, transmitted, or stored only in accord with that
 written license.
  
 The following legend is applicable only to US Government
 contracts under FAR:
  
                    RESTRICTED RIGHTS LEGEND
  
 Use, reproduction and disclosure by the US Government is
 subject to restrictions as set forth in subparagraphs (a)
 and (c) of the Commercial Computer Software - Restricted
 Rights clause in FAR 52.227-19.
  
 Gaussian, Inc.
 340 Quinnipiac St., Bldg. 40, Wallingford CT 06492
  
  
 ---------------------------------------------------------------
 Warning -- This program may not be used in any manner that
 competes with the business of Gaussian, Inc. or will provide
 assistance to any competitor of Gaussian, Inc.  The licensee
 of this program is prohibited from giving any competitor of
 Gaussian, Inc. access to this program.  By using this program,
 the user acknowledges that Gaussian, Inc. is engaged in the
 business of creating and licensing software in the field of
 computational chemistry and represents and warrants to the
 licensee that it is not a competitor of Gaussian, Inc. and that
 it will not use this program in any manner prohibited above.
 ---------------------------------------------------------------
  

 Cite this work as:
 Gaussian 16, Revision A.03,
 M. J. Frisch, G. W. Trucks, H. B. Schlegel, G. E. Scuseria, 
 M. A. Robb, J. R. Cheeseman, G. Scalmani, V. Barone, 
 G. A. Petersson, H. Nakatsuji, X. Li, M. Caricato, A. V. Marenich, 
 J. Bloino, B. G. Janesko, R. Gomperts, B. Mennucci, H. P. Hratchian, 
 J. V. Ortiz, A. F. Izmaylov, J. L. Sonnenberg, D. Williams-Young, 
 F. Ding, F. Lipparini, F. Egidi, J. Goings, B. Peng, A. Petrone, 
 T. Henderson, D. Ranasinghe, V. G. Zakrzewski, J. Gao, N. Rega, 
 G. Zheng, W. Liang, M. Hada, M. Ehara, K. Toyota, R. Fukuda, 
 J. Hasegawa, M. Ishida, T. Nakajima, Y. Honda, O. Kitao, H. Nakai, 
 T. Vreven, K. Throssell, J. A. Montgomery, Jr., J. E. Peralta, 
 F. Ogliaro, M. J. Bearpark, J. J. Heyd, E. N. Brothers, K. N. Kudin, 
 V. N. Staroverov, T. A. Keith, R. Kobayashi, J. Normand, 
 K. Raghavachari, A. P. Rendell, J. C. Burant, S. S. Iyengar, 
 J. Tomasi, M. Cossi, J. M. Millam, M. Klene, C. Adamo, R. Cammi, 
 J. W. Ochterski, R. L. Martin, K. Morokuma, O. Farkas, 
 J. B. Foresman, and D. J. Fox, Gaussian, Inc., Wallingford CT, 2016.
 
 ******************************************
 Gaussian 16:  ES64L-G16RevA.03 25-Dec-2016
                23-Jul-2019 
 ******************************************
 %nproc=4
 Will use up to    4 processors via shared memory.
 %Mem=2GB
 ---------------------------------
 # td=(NStates=1) B3LYP/6-31G(d,p)
 ---------------------------------
 1/38=1,172=1/1;
 2/12=2,17=6,18=5,40=1/2;
 3/5=1,6=6,7=101,11=9,25=1,30=1,74=-5/1,2,3,8;
 4//1;
 5/5=2,38=5/2;
 8/6=1,10=2,108=1/1;
 9/41=1,42=1,70=2/14;
 6/7=2,8=2,9=2,10=2/1;
 99/5=1,9=1/99;
 --
 TD
 --
 Symbolic Z-matrix:
 Charge =  0 Multiplicity = 1
 6                     12.1832   0.59236  -0.57639 
 6                    -11.99874   0.01095   0.88622 
 6                     13.43953  -0.25088  -0.55119 
 6                    -12.93393   1.26385   1.45362 
 6                     13.10642  -1.74845  -0.59945 
 6                    -13.38846   2.04558   0.28624 
 6                     11.06709   0.02268   0.31186 
 6                    -10.92501   0.38028  -0.11699 
 6                     12.38527  -2.1641    0.62444 
 6                    -12.11269   2.60047  -0.52925 
 6                     11.12896  -1.28123   0.85885 
 6                    -11.06523   1.5697   -0.8603 
 6                     11.64475   0.60857  -2.02487 
 6                     12.64989   2.01921  -0.14957 
 6                    -12.89368  -1.06391   0.42337 
 6                    -11.47873  -0.49393   2.24522 
 6                     9.89608   0.83576   0.46066 
 6                    -9.88954  -0.61616  -0.25249 
 6                     10.12044  -1.93219   1.86031 
 6                    -10.16822   2.00113  -1.95193 
 6                     8.63046   0.57648   0.29384 
 6                    -8.56219  -0.40204  -0.22234 
 6                     7.37134   1.36946   0.43663 
 6                    -7.5661   -1.34592  -0.41039 
 6                     7.595     2.76144   0.72682 
 6                    -8.02145  -2.79256  -0.67131 
 6                     6.17517   0.71441   0.3184 
 6                    -6.31541  -0.93463  -0.35391 
 6                     4.86575   1.46221   0.45543 
 6                    -5.05745  -1.69935  -0.62294 
 6                     3.62425   0.76996   0.11691 
 6                    -3.80439  -1.21527  -0.4126 
 6                     2.3426    1.37352   0.15358 
 6                    -2.54165  -1.87989  -0.48104 
 6                     2.28564   2.79655   0.35603 
 6                    -2.53114  -3.4106   -0.60803 
 6                     1.20245   0.64683  -0.05054 
 6                    -1.38877  -1.07269  -0.29747 
 6                     1.10537  -0.83786  -0.22615 
 6                    -0.0841   -1.51561  -0.36972 
 1                     13.94524  -0.19351   0.44657 
 1                     14.07395  -0.14221  -1.47611 
 1                    -12.37514   1.79227   2.05222 
 1                    -13.78712   0.57338   1.77306 
 1                     13.94685  -2.52061  -0.72098 
 1                     12.34145  -1.97437  -1.47345 
 1                    -13.91367   2.8731    0.7854 
 1                    -14.00009   1.26163  -0.35405 
 1                     12.90292  -2.27707   1.5435 
 1                     11.869   -3.1397    0.59189 
 1                    -11.77335   3.43828   0.08041 
 1                    -12.41605   3.06852  -1.40422 
 1                     11.36337  -0.59201  -2.41506 
 1                     12.41884   0.93435  -2.80593 
 1                     10.81363   1.2127   -2.01712 
 1                     13.11769   2.02138   0.73224 
 1                     11.76215   2.8095   -0.18285 
 1                     13.53611   2.35249  -0.74447 
 1                    -13.55033  -1.08098  -0.45526 
 1                    -13.44708  -1.44902   1.43129 
 1                    -12.32246  -2.05099   0.01257 
 1                    -10.76859   0.40627   2.69157 
 1                    -10.73109  -1.45525   2.15466 
 1                    -12.12901  -0.72023   3.02573 
 1                     10.15261   1.86801   0.64854 
 1                    -10.14651  -1.57158  -0.16636 
 1                     9.49756  -1.03013   2.23515 
 1                     10.89513  -2.32345   2.58296 
 1                     9.50682  -2.66171   1.40856 
 1                    -9.49516   1.41818  -2.33389 
 1                    -9.60618   3.01088  -1.88544 
 1                    -10.76222   2.15588  -2.92781 
 1                     8.35674  -0.41773  -0.01556 
 1                    -8.16865   0.4885   -0.35519 
 1                     7.79815   2.7836    1.75951 
 1                     6.79942   3.72905   0.44354 
 1                     8.56165   3.14918   0.1526 
 1                    -8.2756   -3.0865   -1.80516 
 1                    -8.83039  -3.02745   0.11843 
 1                    -7.1191   -3.58595  -0.56373 
 1                     6.09876  -0.34093   0.07429 
 1                    -6.04183   0.14182  -0.11133 
 1                     4.81928   2.50642   0.55131 
 1                    -4.96633  -2.73541  -0.79288 
 1                     3.5276   -0.34836  -0.06124 
 1                    -3.81962   0.00808  -0.1115 
 1                     2.73113   2.95644   1.27054 
 1                     1.30257   3.47588   0.36691 
 1                     2.88483   3.29141  -0.52571 
 1                    -3.25576  -3.85038  -1.55908 
 1                    -2.68285  -4.02293   0.495 
 1                    -1.59905  -3.8268   -0.73976 
 1                     0.35318   1.0003   -0.10952 
 1                    -1.51331  -0.03714   0.17696 
 1                     1.76344  -1.55015  -0.47161 
 1                     0.06106  -2.46453  -0.73784 
 
 Stoichiometry    C40H56
 Framework group  C1[X(C40H56)]
 Deg. of freedom   282
 Full point group                 C1      NOp   1
 Largest Abelian subgroup         C1      NOp   1
 Largest concise Abelian subgroup C1      NOp   1
                         Standard orientation:                         
 ---------------------------------------------------------------------
 Center     Atomic      Atomic             Coordinates (Angstroms)
 Number     Number       Type             X           Y           Z
 ---------------------------------------------------------------------
      1          6           0      -12.182556   -0.585331   -0.582130
      2          6           0       11.999472   -0.027974    0.888453
      3          6           0      -13.438422    0.258410   -0.551035
      4          6           0       12.933871   -1.285465    1.446934
      5          6           0      -13.104471    1.756099   -0.588426
      6          6           0       13.388158   -2.058999    0.274013
      7          6           0      -11.066269   -0.022700    0.310390
      8          6           0       10.925697   -0.389452   -0.117565
      9          6           0      -12.383287    2.162495    0.638546
     10          6           0       12.112209   -2.607271   -0.545664
     11          6           0      -11.127506    1.277257    0.866777
     12          6           0       11.065376   -1.573555   -0.869430
     13          6           0      -11.643874   -0.591381   -2.030601
     14          6           0      -12.650104   -2.014962   -0.165692
     15          6           0       12.895079    1.049702    0.433517
     16          6           0       11.479518    0.467366    2.250987
     17          6           0       -9.895734   -0.837489    0.453497
     18          6           0        9.890801    0.608520   -0.246028
     19          6           0      -10.118780    1.920407    1.873068
     20          6           0       10.168301   -1.996589   -1.964280
     21          6           0       -8.629945   -0.577714    0.288753
     22          6           0        8.563328    0.394923   -0.217633
     23          6           0       -7.371286   -1.372405    0.426009
     24          6           0        7.567790    1.340695   -0.399021
     25          6           0       -7.595774   -2.766322    0.706102
     26          6           0        8.023991    2.788924   -0.649417
     27          6           0       -6.174738   -0.717185    0.312710
     28          6           0        6.316867    0.929706   -0.345706
     29          6           0       -4.865752   -1.466687    0.444533
     30          6           0        5.059371    1.697042   -0.609410
     31          6           0       -3.623817   -0.772709    0.111225
     32          6           0        3.806009    1.212160   -0.402770
     33          6           0       -2.342505   -1.377225    0.143733
     34          6           0        2.543657    1.877962   -0.466604
     35          6           0       -2.286375   -2.801713    0.335909
     36          6           0        2.534019    3.409556   -0.582538
     37          6           0       -1.201922   -0.649714   -0.054953
     38          6           0        1.390292    1.070092   -0.289048
     39          6           0       -1.103991    0.836146   -0.219820
     40          6           0        0.085881    1.514252   -0.358305
     41          1           0      -13.944326    0.194109    0.446208
     42          1           0      -14.072754    0.156774   -1.476816
     43          1           0       12.374694   -1.817884    2.041617
     44          1           0       13.787393   -0.597792    1.771495
     45          1           0      -13.944444    2.529588   -0.704502
     46          1           0      -12.339231    1.987900   -1.460653
     47          1           0       13.912828   -2.890393    0.767267
     48          1           0       14.000329   -1.270779   -0.360500
     49          1           0      -12.901022    2.269115    1.558316
     50          1           0      -11.866471    3.138016    0.613124
     51          1           0       11.772301   -3.449274    0.057881
     52          1           0       12.415447   -3.069158   -1.423947
     53          1           0      -11.361767    0.611833   -2.412064
     54          1           0      -12.418022   -0.911076   -2.814112
     55          1           0      -10.813095   -1.196017   -2.027085
     56          1           0      -13.118052   -2.023243    0.716002
     57          1           0      -11.762805   -2.805491   -0.204546
     58          1           0      -13.536411   -2.343442   -0.763124
     59          1           0       13.551888    1.072750   -0.444861
     60          1           0       13.448530    1.427211    1.444284
     61          1           0       12.324477    2.040041    0.029766
     62          1           0       10.768808   -0.435646    2.690707
     63          1           0       10.732430    1.429726    2.167251
     64          1           0       12.129798    0.687654    3.033211
     65          1           0      -10.152870   -1.870928    0.633879
     66          1           0       10.148289    1.563148   -0.152963
     67          1           0       -9.496470    1.015314    2.241479
     68          1           0      -10.893373    2.306865    2.598404
     69          1           0       -9.504687    2.652822    1.426697
     70          1           0        9.495624   -1.410523   -2.342125
     71          1           0        9.605685   -3.006482   -1.905175
     72          1           0       10.762369   -2.144616   -2.941165
     73          1           0       -8.355624    0.418552   -0.013411
     74          1           0        8.169315   -0.494418   -0.356975
     75          1           0       -7.799103   -2.795832    1.738573
     76          1           0       -6.800686   -3.732306    0.415968
     77          1           0       -8.562544   -3.149371    0.128951
     78          1           0        8.278486    3.090900   -1.781067
     79          1           0        8.832938    3.017650    0.142128
     80          1           0        7.122062    3.582021   -0.536243
     81          1           0       -6.097701    0.339843    0.076232
     82          1           0        6.042645   -0.148316   -0.110954
     83          1           0       -4.819877   -2.511589    0.532879
     84          1           0        4.968856    2.734354   -0.771875
     85          1           0       -3.526518    0.346819   -0.058828
     86          1           0        3.820513   -0.013340   -0.110510
     87          1           0       -2.732102   -2.967952    1.249166
     88          1           0       -1.303679   -3.481651    0.342034
     89          1           0       -2.885690   -3.289858   -0.549473
     90          1           0        3.259031    3.855788   -1.530271
     91          1           0        2.685888    4.013819    0.524916
     92          1           0        1.602179    3.827214   -0.711399
     93          1           0       -0.352835   -1.003222   -0.116351
     94          1           0        1.514185    0.031073    0.177909
     95          1           0       -1.761625    1.550563   -0.460230
     96          1           0       -0.058686    2.465890   -0.719588
 ---------------------------------------------------------------------
 Rotational constants (GHZ):           0.2682714           0.0110082           0.0107663
 Standard basis: 6-31G(d,p) (6D, 7F)
 There are   880 symmetry adapted cartesian basis functions of A   symmetry.
 There are   880 symmetry adapted basis functions of A   symmetry.
   880 basis functions,  1512 primitive gaussians,   880 cartesian basis functions
   148 alpha electrons      148 beta electrons
       nuclear repulsion energy      3671.6564593300 Hartrees.
 NAtoms=   96 NActive=   96 NUniq=   96 SFac= 1.00D+00 NAtFMM=   60 NAOKFM=T Big=T
 Integral buffers will be    131072 words long.
 Regular integral format.
 Two-electron integral symmetry is turned on.
 One-electron integrals computed using PRISM.
 NBasis=   880 RedAO= T EigKep=  8.96D-04  NBF=   880
 NBsUse=   880 1.00D-06 EigRej= -1.00D+00 NBFU=   880
 ExpMin= 1.61D-01 ExpMax= 3.05D+03 ExpMxC= 4.57D+02 IAcc=3 IRadAn=         5 AccDes= 0.00D+00
 Harris functional with IExCor=  402 and IRadAn=       5 diagonalized for initial guess.
 HarFok:  IExCor=  402 AccDes= 0.00D+00 IRadAn=         5 IDoV= 1 UseB2=F ITyADJ=14
 ICtDFT=  3500011 ScaDFX=  1.000000  1.000000  1.000000  1.000000
 FoFCou: FMM=F IPFlag=           0 FMFlag=      100000 FMFlg1=        2001
         NFxFlg=           0 DoJE=T BraDBF=F KetDBF=T FulRan=T
         wScrn=  0.000000 ICntrl=       500 IOpCl=  0 I1Cent=   200000004 NGrid=           0
         NMat0=    1 NMatS0=      1 NMatT0=    0 NMatD0=    1 NMtDS0=    0 NMtDT0=    0
 Petite list used in FoFCou.
 Requested convergence on RMS density matrix=1.00D-08 within 128 cycles.
 Requested convergence on MAX density matrix=1.00D-06.
 Requested convergence on             energy=1.00D-06.
 No special actions if energy rises.
 Integral accuracy reduced to 1.0D-05 until final iterations.
 Initial convergence to 1.0D-05 achieved.  Increase integral accuracy.
 SCF Done:  E(RB3LYP) =  -1557.49288096     A.U. after   16 cycles
            NFock= 16  Conv=0.34D-08     -V/T= 2.0103
 DoSCS=F DFT=T ScalE2(SS,OS)=  1.000000  1.000000
 ExpMin= 1.61D-01 ExpMax= 3.05D+03 ExpMxC= 4.57D+02 IAcc=3 IRadAn=         5 AccDes= 0.00D+00
 HarFok:  IExCor=  205 AccDes= 0.00D+00 IRadAn=         5 IDoV=-2 UseB2=F ITyADJ=14
 ICtDFT= 12500011 ScaDFX=  1.000000  1.000000  1.000000  1.000000
 GSVD:  LWork=       -1920 too small for GESVD, short by        8600 words or        8600 for optimal perf.
 Range of M.O.s used for correlation:    41   880
 NBasis=   880 NAE=   148 NBE=   148 NFC=    40 NFV=     0
 NROrb=    840 NOA=   108 NOB=   108 NVA=   732 NVB=   732

 **** Warning!!: The smallest alpha delta epsilon is  0.81857253D-01

 Orbital symmetries:
       Occupied  (A) (A) (A) (A) (A) (A) (A) (A) (A) (A) (A) (A)
                 (A) (A) (A) (A) (A) (A) (A) (A) (A) (A) (A) (A)
                 (A) (A) (A) (A) (A) (A) (A) (A) (A) (A) (A) (A)
                 (A) (A) (A) (A) (A) (A) (A) (A) (A) (A) (A) (A)
                 (A) (A) (A) (A) (A) (A) (A) (A) (A) (A) (A) (A)
                 (A) (A) (A) (A) (A) (A) (A) (A) (A) (A) (A) (A)
                 (A) (A) (A) (A) (A) (A) (A) (A) (A) (A) (A) (A)
                 (A) (A) (A) (A) (A) (A) (A) (A) (A) (A) (A) (A)
                 (A) (A) (A) (A) (A) (A) (A) (A) (A) (A) (A) (A)
                 (A) (A) (A) (A) (A) (A) (A) (A) (A) (A) (A) (A)
                 (A) (A) (A) (A) (A) (A) (A) (A) (A) (A) (A) (A)
                 (A) (A) (A) (A) (A) (A) (A) (A) (A) (A) (A) (A)
                 (A) (A) (A) (A)
       Virtual   (A) (A) (A) (A) (A) (A) (A) (A) (A) (A) (A) (A)
                 (A) (A) (A) (A) (A) (A) (A) (A) (A) (A) (A) (A)
                 (A) (A) (A) (A) (A) (A) (A) (A) (A) (A) (A) (A)
                 (A) (A) (A) (A) (A) (A) (A) (A) (A) (A) (A) (A)
                 (A) (A) (A) (A) (A) (A) (A) (A) (A) (A) (A) (A)
                 (A) (A) (A) (A) (A) (A) (A) (A) (A) (A) (A) (A)
                 (A) (A) (A) (A) (A) (A) (A) (A) (A) (A) (A) (A)
                 (A) (A) (A) (A) (A) (A) (A) (A) (A) (A) (A) (A)
                 (A) (A) (A) (A) (A) (A) (A) (A) (A) (A) (A) (A)
                 (A) (A) (A) (A) (A) (A) (A) (A) (A) (A) (A) (A)
                 (A) (A) (A) (A) (A) (A) (A) (A) (A) (A) (A) (A)
                 (A) (A) (A) (A) (A) (A) (A) (A) (A) (A) (A) (A)
                 (A) (A) (A) (A) (A) (A) (A) (A) (A) (A) (A) (A)
                 (A) (A) (A) (A) (A) (A) (A) (A) (A) (A) (A) (A)
                 (A) (A) (A) (A) (A) (A) (A) (A) (A) (A) (A) (A)
                 (A) (A) (A) (A) (A) (A) (A) (A) (A) (A) (A) (A)
                 (A) (A) (A) (A) (A) (A) (A) (A) (A) (A) (A) (A)
                 (A) (A) (A) (A) (A) (A) (A) (A) (A) (A) (A) (A)
                 (A) (A) (A) (A) (A) (A) (A) (A) (A) (A) (A) (A)
                 (A) (A) (A) (A) (A) (A) (A) (A) (A) (A) (A) (A)
                 (A) (A) (A) (A) (A) (A) (A) (A) (A) (A) (A) (A)
                 (A) (A) (A) (A) (A) (A) (A) (A) (A) (A) (A) (A)
                 (A) (A) (A) (A) (A) (A) (A) (A) (A) (A) (A) (A)
                 (A) (A) (A) (A) (A) (A) (A) (A) (A) (A) (A) (A)
                 (A) (A) (A) (A) (A) (A) (A) (A) (A) (A) (A) (A)
                 (A) (A) (A) (A) (A) (A) (A) (A) (A) (A) (A) (A)
                 (A) (A) (A) (A) (A) (A) (A) (A) (A) (A) (A) (A)
                 (A) (A) (A) (A) (A) (A) (A) (A) (A) (A) (A) (A)
                 (A) (A) (A) (A) (A) (A) (A) (A) (A) (A) (A) (A)
                 (A) (A) (A) (A) (A) (A) (A) (A) (A) (A) (A) (A)
                 (A) (A) (A) (A) (A) (A) (A) (A) (A) (A) (A) (A)
                 (A) (A) (A) (A) (A) (A) (A) (A) (A) (A) (A) (A)
                 (A) (A) (A) (A) (A) (A) (A) (A) (A) (A) (A) (A)
                 (A) (A) (A) (A) (A) (A) (A) (A) (A) (A) (A) (A)
                 (A) (A) (A) (A) (A) (A) (A) (A) (A) (A) (A) (A)
                 (A) (A) (A) (A) (A) (A) (A) (A) (A) (A) (A) (A)
                 (A) (A) (A) (A) (A) (A) (A) (A) (A) (A) (A) (A)
                 (A) (A) (A) (A) (A) (A) (A) (A) (A) (A) (A) (A)
                 (A) (A) (A) (A) (A) (A) (A) (A) (A) (A) (A) (A)
                 (A) (A) (A) (A) (A) (A) (A) (A) (A) (A) (A) (A)
                 (A) (A) (A) (A) (A) (A) (A) (A) (A) (A) (A) (A)
                 (A) (A) (A) (A) (A) (A) (A) (A) (A) (A) (A) (A)
                 (A) (A) (A) (A) (A) (A) (A) (A) (A) (A) (A) (A)
                 (A) (A) (A) (A) (A) (A) (A) (A) (A) (A) (A) (A)
                 (A) (A) (A) (A) (A) (A) (A) (A) (A) (A) (A) (A)
                 (A) (A) (A) (A) (A) (A) (A) (A) (A) (A) (A) (A)
                 (A) (A) (A) (A) (A) (A) (A) (A) (A) (A) (A) (A)
                 (A) (A) (A) (A) (A) (A) (A) (A) (A) (A) (A) (A)
                 (A) (A) (A) (A) (A) (A) (A) (A) (A) (A) (A) (A)
                 (A) (A) (A) (A) (A) (A) (A) (A) (A) (A) (A) (A)
                 (A) (A) (A) (A) (A) (A) (A) (A) (A) (A) (A) (A)
                 (A) (A) (A) (A) (A) (A) (A) (A) (A) (A) (A) (A)
                 (A) (A) (A) (A) (A) (A) (A) (A) (A) (A) (A) (A)
                 (A) (A) (A) (A) (A) (A) (A) (A) (A) (A) (A) (A)
                 (A) (A) (A) (A) (A) (A) (A) (A) (A) (A) (A) (A)
                 (A) (A) (A) (A) (A) (A) (A) (A) (A) (A) (A) (A)
                 (A) (A) (A) (A) (A) (A) (A) (A) (A) (A) (A) (A)
                 (A) (A) (A) (A) (A) (A) (A) (A) (A) (A) (A) (A)
                 (A) (A) (A) (A) (A) (A) (A) (A) (A) (A) (A) (A)
                 (A) (A) (A) (A) (A) (A) (A) (A) (A) (A) (A) (A)
                 (A) (A) (A) (A) (A) (A) (A) (A) (A) (A) (A) (A)
     4 initial guesses have been made.
 Convergence on wavefunction:    0.001000000000000
 Iteration     1 Dimension     4 NMult     0 NNew      4
 CISAX will form     4 AO SS matrices at one time.
 Iteration     2 Dimension     6 NMult     4 NNew      2
 Iteration     3 Dimension     8 NMult     6 NNew      2
 Iteration     4 Dimension    10 NMult     8 NNew      2
 Iteration     5 Dimension    12 NMult    10 NNew      2
 Iteration     6 Dimension    14 NMult    12 NNew      2
 ***********************************************************************
 Excited states from <AA,BB:AA,BB> singles matrix:
 ***********************************************************************
 
 Ground to excited state transition densities written to RWF  633
 Ground to excited state transition electric dipole moments (Au):
       state          X           Y           Z        Dip. S.      Osc.
         1        -7.3921     -0.6626      0.4037     55.2451      2.9349
 Ground to excited state transition velocity dipole moments (Au):
       state          X           Y           Z        Dip. S.      Osc.
         1         0.5724      0.0522     -0.0308      0.3313      2.7714
 Ground to excited state transition magnetic dipole moments (Au):
       state          X           Y           Z
         1         0.0230     -0.2260     -0.8405
 Ground to excited state transition velocity quadrupole moments (Au):
       state          XX          YY          ZZ          XY          XZ          YZ
         1         0.5519      0.0628      0.0308     -0.2091      0.0050      0.0045
 <0|del|b> * <b|rxdel|0> + <0|del|b> * <b|delr+rdel|0>
 Rotatory Strengths (R) in cgs (10**-40 erg-esu-cm/Gauss)
       state          XX          YY          ZZ    R(velocity)    E-M Angle
         1        90.1428    156.0626     -4.2195     80.6620       86.88
 1/2[<0|r|b>*<b|rxdel|0> + (<0|rxdel|b>*<b|r|0>)*]
 Rotatory Strengths (R) in cgs (10**-40 erg-esu-cm/Gauss)
       state          XX          YY          ZZ     R(length)
         1       120.0210   -105.8871    239.9718     84.7019
  1/2[<0|del|b>*<b|r|0> + (<0|r|b>*<b|del|0>)*] (Au)
       state          X           Y           Z        Dip. S.   Osc.(frdel)
         1        -4.2309     -0.0346     -0.0125      4.2780      2.8520

 Excitation energies and oscillator strengths:
 
 Excited State   1:      Singlet-A      2.1684 eV  571.77 nm  f=2.9349  <S**2>=0.000
     148 ->149         0.70547
     148 <-149        -0.10078
 This state for optimization and/or second-order correction.
 Total Energy, E(TD-HF/TD-DFT) =  -1557.41319235    
 Copying the excited state density for this state as the 1-particle RhoCI density.
 SavETr:  write IOETrn=   770 NScale= 10 NData=  16 NLR=1 NState=    1 LETran=      28.

 **********************************************************************

            Population analysis using the SCF density.

 **********************************************************************

 Orbital symmetries:
       Occupied  (A) (A) (A) (A) (A) (A) (A) (A) (A) (A) (A) (A)
                 (A) (A) (A) (A) (A) (A) (A) (A) (A) (A) (A) (A)
                 (A) (A) (A) (A) (A) (A) (A) (A) (A) (A) (A) (A)
                 (A) (A) (A) (A) (A) (A) (A) (A) (A) (A) (A) (A)
                 (A) (A) (A) (A) (A) (A) (A) (A) (A) (A) (A) (A)
                 (A) (A) (A) (A) (A) (A) (A) (A) (A) (A) (A) (A)
                 (A) (A) (A) (A) (A) (A) (A) (A) (A) (A) (A) (A)
                 (A) (A) (A) (A) (A) (A) (A) (A) (A) (A) (A) (A)
                 (A) (A) (A) (A) (A) (A) (A) (A) (A) (A) (A) (A)
                 (A) (A) (A) (A) (A) (A) (A) (A) (A) (A) (A) (A)
                 (A) (A) (A) (A) (A) (A) (A) (A) (A) (A) (A) (A)
                 (A) (A) (A) (A) (A) (A) (A) (A) (A) (A) (A) (A)
                 (A) (A) (A) (A)
       Virtual   (A) (A) (A) (A) (A) (A) (A) (A) (A) (A) (A) (A)
                 (A) (A) (A) (A) (A) (A) (A) (A) (A) (A) (A) (A)
                 (A) (A) (A) (A) (A) (A) (A) (A) (A) (A) (A) (A)
                 (A) (A) (A) (A) (A) (A) (A) (A) (A) (A) (A) (A)
                 (A) (A) (A) (A) (A) (A) (A) (A) (A) (A) (A) (A)
                 (A) (A) (A) (A) (A) (A) (A) (A) (A) (A) (A) (A)
                 (A) (A) (A) (A) (A) (A) (A) (A) (A) (A) (A) (A)
                 (A) (A) (A) (A) (A) (A) (A) (A) (A) (A) (A) (A)
                 (A) (A) (A) (A) (A) (A) (A) (A) (A) (A) (A) (A)
                 (A) (A) (A) (A) (A) (A) (A) (A) (A) (A) (A) (A)
                 (A) (A) (A) (A) (A) (A) (A) (A) (A) (A) (A) (A)
                 (A) (A) (A) (A) (A) (A) (A) (A) (A) (A) (A) (A)
                 (A) (A) (A) (A) (A) (A) (A) (A) (A) (A) (A) (A)
                 (A) (A) (A) (A) (A) (A) (A) (A) (A) (A) (A) (A)
                 (A) (A) (A) (A) (A) (A) (A) (A) (A) (A) (A) (A)
                 (A) (A) (A) (A) (A) (A) (A) (A) (A) (A) (A) (A)
                 (A) (A) (A) (A) (A) (A) (A) (A) (A) (A) (A) (A)
                 (A) (A) (A) (A) (A) (A) (A) (A) (A) (A) (A) (A)
                 (A) (A) (A) (A) (A) (A) (A) (A) (A) (A) (A) (A)
                 (A) (A) (A) (A) (A) (A) (A) (A) (A) (A) (A) (A)
                 (A) (A) (A) (A) (A) (A) (A) (A) (A) (A) (A) (A)
                 (A) (A) (A) (A) (A) (A) (A) (A) (A) (A) (A) (A)
                 (A) (A) (A) (A) (A) (A) (A) (A) (A) (A) (A) (A)
                 (A) (A) (A) (A) (A) (A) (A) (A) (A) (A) (A) (A)
                 (A) (A) (A) (A) (A) (A) (A) (A) (A) (A) (A) (A)
                 (A) (A) (A) (A) (A) (A) (A) (A) (A) (A) (A) (A)
                 (A) (A) (A) (A) (A) (A) (A) (A) (A) (A) (A) (A)
                 (A) (A) (A) (A) (A) (A) (A) (A) (A) (A) (A) (A)
                 (A) (A) (A) (A) (A) (A) (A) (A) (A) (A) (A) (A)
                 (A) (A) (A) (A) (A) (A) (A) (A) (A) (A) (A) (A)
                 (A) (A) (A) (A) (A) (A) (A) (A) (A) (A) (A) (A)
                 (A) (A) (A) (A) (A) (A) (A) (A) (A) (A) (A) (A)
                 (A) (A) (A) (A) (A) (A) (A) (A) (A) (A) (A) (A)
                 (A) (A) (A) (A) (A) (A) (A) (A) (A) (A) (A) (A)
                 (A) (A) (A) (A) (A) (A) (A) (A) (A) (A) (A) (A)
                 (A) (A) (A) (A) (A) (A) (A) (A) (A) (A) (A) (A)
                 (A) (A) (A) (A) (A) (A) (A) (A) (A) (A) (A) (A)
                 (A) (A) (A) (A) (A) (A) (A) (A) (A) (A) (A) (A)
                 (A) (A) (A) (A) (A) (A) (A) (A) (A) (A) (A) (A)
                 (A) (A) (A) (A) (A) (A) (A) (A) (A) (A) (A) (A)
                 (A) (A) (A) (A) (A) (A) (A) (A) (A) (A) (A) (A)
                 (A) (A) (A) (A) (A) (A) (A) (A) (A) (A) (A) (A)
                 (A) (A) (A) (A) (A) (A) (A) (A) (A) (A) (A) (A)
                 (A) (A) (A) (A) (A) (A) (A) (A) (A) (A) (A) (A)
                 (A) (A) (A) (A) (A) (A) (A) (A) (A) (A) (A) (A)
                 (A) (A) (A) (A) (A) (A) (A) (A) (A) (A) (A) (A)
                 (A) (A) (A) (A) (A) (A) (A) (A) (A) (A) (A) (A)
                 (A) (A) (A) (A) (A) (A) (A) (A) (A) (A) (A) (A)
                 (A) (A) (A) (A) (A) (A) (A) (A) (A) (A) (A) (A)
                 (A) (A) (A) (A) (A) (A) (A) (A) (A) (A) (A) (A)
                 (A) (A) (A) (A) (A) (A) (A) (A) (A) (A) (A) (A)
                 (A) (A) (A) (A) (A) (A) (A) (A) (A) (A) (A) (A)
                 (A) (A) (A) (A) (A) (A) (A) (A) (A) (A) (A) (A)
                 (A) (A) (A) (A) (A) (A) (A) (A) (A) (A) (A) (A)
                 (A) (A) (A) (A) (A) (A) (A) (A) (A) (A) (A) (A)
                 (A) (A) (A) (A) (A) (A) (A) (A) (A) (A) (A) (A)
                 (A) (A) (A) (A) (A) (A) (A) (A) (A) (A) (A) (A)
                 (A) (A) (A) (A) (A) (A) (A) (A) (A) (A) (A) (A)
                 (A) (A) (A) (A) (A) (A) (A) (A) (A) (A) (A) (A)
                 (A) (A) (A) (A) (A) (A) (A) (A) (A) (A) (A) (A)
                 (A) (A) (A) (A) (A) (A) (A) (A) (A) (A) (A) (A)
 The electronic state is 1-A.
 Alpha  occ. eigenvalues --  -10.21546 -10.21197 -10.20632 -10.20188 -10.20119
 Alpha  occ. eigenvalues --  -10.20114 -10.20052 -10.19686 -10.19666 -10.19663
 Alpha  occ. eigenvalues --  -10.19646 -10.19636 -10.19491 -10.19389 -10.19304
 Alpha  occ. eigenvalues --  -10.19091 -10.19061 -10.18910 -10.18698 -10.18657
 Alpha  occ. eigenvalues --  -10.18608 -10.18583 -10.18575 -10.18511 -10.18420
 Alpha  occ. eigenvalues --  -10.18335 -10.18334 -10.18330 -10.18208 -10.17893
 Alpha  occ. eigenvalues --  -10.17743 -10.17667 -10.17662 -10.17494 -10.17474
 Alpha  occ. eigenvalues --  -10.17425 -10.17267 -10.16897 -10.16860 -10.16171
 Alpha  occ. eigenvalues --   -0.85086  -0.84980  -0.83774  -0.83285  -0.82579
 Alpha  occ. eigenvalues --   -0.82006  -0.79116  -0.78490  -0.78283  -0.77789
 Alpha  occ. eigenvalues --   -0.77179  -0.74786  -0.73902  -0.72418  -0.71998
 Alpha  occ. eigenvalues --   -0.70050  -0.68485  -0.68416  -0.68052  -0.67701
 Alpha  occ. eigenvalues --   -0.67343  -0.67197  -0.66806  -0.66706  -0.66384
 Alpha  occ. eigenvalues --   -0.62960  -0.62349  -0.59788  -0.59352  -0.57002
 Alpha  occ. eigenvalues --   -0.56888  -0.56259  -0.55259  -0.53678  -0.52613
 Alpha  occ. eigenvalues --   -0.52338  -0.51908  -0.51306  -0.50229  -0.49450
 Alpha  occ. eigenvalues --   -0.48958  -0.47742  -0.47511  -0.46788  -0.46251
 Alpha  occ. eigenvalues --   -0.45793  -0.45606  -0.44906  -0.44764  -0.44422
 Alpha  occ. eigenvalues --   -0.43847  -0.43282  -0.43207  -0.42783  -0.42649
 Alpha  occ. eigenvalues --   -0.42384  -0.41826  -0.41795  -0.41045  -0.40768
 Alpha  occ. eigenvalues --   -0.40369  -0.39876  -0.39785  -0.39225  -0.39183
 Alpha  occ. eigenvalues --   -0.39025  -0.38870  -0.38520  -0.38321  -0.37653
 Alpha  occ. eigenvalues --   -0.37426  -0.37212  -0.37033  -0.36909  -0.36403
 Alpha  occ. eigenvalues --   -0.35912  -0.35616  -0.34933  -0.34904  -0.34735
 Alpha  occ. eigenvalues --   -0.34494  -0.34155  -0.34011  -0.33713  -0.33690
 Alpha  occ. eigenvalues --   -0.33360  -0.33281  -0.33126  -0.32753  -0.32515
 Alpha  occ. eigenvalues --   -0.32307  -0.32115  -0.32057  -0.31581  -0.31058
 Alpha  occ. eigenvalues --   -0.30764  -0.30600  -0.29688  -0.29068  -0.28627
 Alpha  occ. eigenvalues --   -0.28061  -0.26373  -0.26100  -0.24302  -0.22345
 Alpha  occ. eigenvalues --   -0.20719  -0.18861  -0.16431
 Alpha virt. eigenvalues --   -0.08245  -0.04992  -0.02085   0.00091   0.02551
 Alpha virt. eigenvalues --    0.03941   0.06321   0.06461   0.06781   0.07090
 Alpha virt. eigenvalues --    0.07137   0.07357   0.08336   0.08507   0.08815
 Alpha virt. eigenvalues --    0.09229   0.09287   0.09768   0.10258   0.10641
 Alpha virt. eigenvalues --    0.10667   0.10839   0.10916   0.11444   0.11766
 Alpha virt. eigenvalues --    0.12145   0.12222   0.12562   0.12882   0.13214
 Alpha virt. eigenvalues --    0.13325   0.13660   0.13754   0.14192   0.14287
 Alpha virt. eigenvalues --    0.14599   0.15023   0.15097   0.15570   0.15859
 Alpha virt. eigenvalues --    0.15980   0.16374   0.16592   0.16872   0.17207
 Alpha virt. eigenvalues --    0.17451   0.17622   0.17746   0.18162   0.18348
 Alpha virt. eigenvalues --    0.18562   0.18678   0.18727   0.19378   0.20024
 Alpha virt. eigenvalues --    0.20241   0.20671   0.20772   0.21078   0.21225
 Alpha virt. eigenvalues --    0.21504   0.21627   0.21798   0.22355   0.22523
 Alpha virt. eigenvalues --    0.23099   0.23373   0.23451   0.23663   0.23733
 Alpha virt. eigenvalues --    0.23964   0.24272   0.24377   0.25331   0.25599
 Alpha virt. eigenvalues --    0.25988   0.26112   0.26520   0.26692   0.27226
 Alpha virt. eigenvalues --    0.28080   0.28588   0.28736   0.29263   0.29913
 Alpha virt. eigenvalues --    0.30196   0.31302   0.31572   0.32258   0.32812
 Alpha virt. eigenvalues --    0.33706   0.34963   0.35824   0.36806   0.37010
 Alpha virt. eigenvalues --    0.38352   0.38953   0.39855   0.40461   0.42073
 Alpha virt. eigenvalues --    0.42653   0.43629   0.44055   0.44345   0.45356
 Alpha virt. eigenvalues --    0.46789   0.47638   0.48271   0.48928   0.49859
 Alpha virt. eigenvalues --    0.50085   0.50474   0.51098   0.51138   0.51853
 Alpha virt. eigenvalues --    0.52190   0.52562   0.52984   0.53030   0.53397
 Alpha virt. eigenvalues --    0.53481   0.53781   0.54026   0.54235   0.54825
 Alpha virt. eigenvalues --    0.54923   0.55045   0.55510   0.55557   0.55790
 Alpha virt. eigenvalues --    0.56186   0.56544   0.57177   0.58003   0.58241
 Alpha virt. eigenvalues --    0.58524   0.58715   0.58875   0.59374   0.60133
 Alpha virt. eigenvalues --    0.60606   0.60688   0.60905   0.61097   0.61591
 Alpha virt. eigenvalues --    0.61880   0.62054   0.62528   0.62785   0.63208
 Alpha virt. eigenvalues --    0.63378   0.63521   0.63882   0.64044   0.64148
 Alpha virt. eigenvalues --    0.64829   0.64947   0.65517   0.66047   0.66251
 Alpha virt. eigenvalues --    0.66919   0.67121   0.67518   0.67751   0.67964
 Alpha virt. eigenvalues --    0.68006   0.68571   0.69495   0.70098   0.70504
 Alpha virt. eigenvalues --    0.71180   0.71401   0.71758   0.71918   0.72559
 Alpha virt. eigenvalues --    0.73060   0.73496   0.73654   0.73678   0.74207
 Alpha virt. eigenvalues --    0.74701   0.74966   0.75125   0.75518   0.75708
 Alpha virt. eigenvalues --    0.75948   0.76140   0.76649   0.76875   0.77199
 Alpha virt. eigenvalues --    0.77753   0.78474   0.78528   0.78567   0.79264
 Alpha virt. eigenvalues --    0.79623   0.79670   0.79795   0.80138   0.80163
 Alpha virt. eigenvalues --    0.80464   0.81094   0.81239   0.81697   0.81725
 Alpha virt. eigenvalues --    0.82037   0.82068   0.82651   0.82821   0.83714
 Alpha virt. eigenvalues --    0.83993   0.84375   0.84452   0.84721   0.84848
 Alpha virt. eigenvalues --    0.85339   0.86020   0.86167   0.86203   0.86456
 Alpha virt. eigenvalues --    0.86548   0.86775   0.86971   0.87481   0.87856
 Alpha virt. eigenvalues --    0.88106   0.88345   0.88696   0.88914   0.89507
 Alpha virt. eigenvalues --    0.89835   0.90041   0.90461   0.91099   0.91611
 Alpha virt. eigenvalues --    0.91832   0.91847   0.92086   0.92463   0.92893
 Alpha virt. eigenvalues --    0.93115   0.93644   0.93729   0.94189   0.94484
 Alpha virt. eigenvalues --    0.94707   0.95013   0.95178   0.95875   0.96135
 Alpha virt. eigenvalues --    0.96751   0.97086   0.97529   0.97884   0.98714
 Alpha virt. eigenvalues --    0.98974   0.99191   0.99647   1.00439   1.00830
 Alpha virt. eigenvalues --    1.00982   1.01511   1.02478   1.03181   1.03239
 Alpha virt. eigenvalues --    1.03403   1.04359   1.04936   1.05636   1.06039
 Alpha virt. eigenvalues --    1.06724   1.06800   1.07231   1.07404   1.07749
 Alpha virt. eigenvalues --    1.08205   1.09034   1.09868   1.10693   1.11416
 Alpha virt. eigenvalues --    1.12077   1.12697   1.13896   1.14006   1.15788
 Alpha virt. eigenvalues --    1.16215   1.17204   1.17914   1.19233   1.20059
 Alpha virt. eigenvalues --    1.20526   1.21659   1.22151   1.23603   1.23903
 Alpha virt. eigenvalues --    1.23996   1.25801   1.26581   1.26914   1.27275
 Alpha virt. eigenvalues --    1.27927   1.28434   1.28848   1.29988   1.30246
 Alpha virt. eigenvalues --    1.32020   1.32427   1.33225   1.34402   1.34634
 Alpha virt. eigenvalues --    1.34747   1.35782   1.36797   1.37126   1.37693
 Alpha virt. eigenvalues --    1.38202   1.38997   1.39508   1.40323   1.40848
 Alpha virt. eigenvalues --    1.41263   1.42541   1.43209   1.44335   1.44616
 Alpha virt. eigenvalues --    1.45202   1.46338   1.48452   1.48862   1.49150
 Alpha virt. eigenvalues --    1.49726   1.49965   1.50548   1.51189   1.52175
 Alpha virt. eigenvalues --    1.52685   1.53059   1.53062   1.54429   1.56448
 Alpha virt. eigenvalues --    1.56647   1.57528   1.58622   1.60429   1.61300
 Alpha virt. eigenvalues --    1.61411   1.62251   1.64148   1.65038   1.65622
 Alpha virt. eigenvalues --    1.65783   1.66117   1.67246   1.67325   1.70065
 Alpha virt. eigenvalues --    1.71662   1.72198   1.72388   1.72689   1.72760
 Alpha virt. eigenvalues --    1.73306   1.73549   1.74099   1.74892   1.75276
 Alpha virt. eigenvalues --    1.75731   1.75814   1.76584   1.77098   1.77487
 Alpha virt. eigenvalues --    1.77683   1.78608   1.78855   1.79388   1.79642
 Alpha virt. eigenvalues --    1.80002   1.80450   1.80699   1.80930   1.81400
 Alpha virt. eigenvalues --    1.81673   1.83178   1.83597   1.84026   1.84479
 Alpha virt. eigenvalues --    1.84926   1.85328   1.85742   1.86352   1.86909
 Alpha virt. eigenvalues --    1.87484   1.87685   1.88044   1.88254   1.88599
 Alpha virt. eigenvalues --    1.88944   1.89690   1.89842   1.90149   1.90378
 Alpha virt. eigenvalues --    1.91251   1.91361   1.91645   1.91682   1.92194
 Alpha virt. eigenvalues --    1.92319   1.92560   1.93769   1.94004   1.94419
 Alpha virt. eigenvalues --    1.94888   1.95248   1.95295   1.95774   1.96147
 Alpha virt. eigenvalues --    1.96683   1.97403   1.97470   1.98139   1.98365
 Alpha virt. eigenvalues --    1.98748   1.99021   2.00246   2.00744   2.00830
 Alpha virt. eigenvalues --    2.01235   2.01658   2.02070   2.02645   2.03352
 Alpha virt. eigenvalues --    2.04094   2.04355   2.05099   2.05160   2.05443
 Alpha virt. eigenvalues --    2.05644   2.06228   2.06307   2.06464   2.07078
 Alpha virt. eigenvalues --    2.07437   2.07491   2.08065   2.08391   2.08879
 Alpha virt. eigenvalues --    2.09626   2.09792   2.10005   2.10668   2.10931
 Alpha virt. eigenvalues --    2.11193   2.11414   2.11936   2.12368   2.12588
 Alpha virt. eigenvalues --    2.13032   2.13213   2.14491   2.14705   2.14881
 Alpha virt. eigenvalues --    2.15926   2.16722   2.17278   2.17884   2.18378
 Alpha virt. eigenvalues --    2.18427   2.19996   2.20174   2.20461   2.21117
 Alpha virt. eigenvalues --    2.21464   2.21768   2.22047   2.23149   2.23578
 Alpha virt. eigenvalues --    2.24057   2.24610   2.24982   2.26116   2.27283
 Alpha virt. eigenvalues --    2.27415   2.27823   2.28144   2.28407   2.29713
 Alpha virt. eigenvalues --    2.30229   2.30687   2.31100   2.31768   2.31861
 Alpha virt. eigenvalues --    2.32397   2.33176   2.33259   2.33641   2.33964
 Alpha virt. eigenvalues --    2.34225   2.34654   2.35185   2.35676   2.35833
 Alpha virt. eigenvalues --    2.36177   2.36697   2.36751   2.37341   2.37736
 Alpha virt. eigenvalues --    2.38510   2.38751   2.38824   2.39992   2.40217
 Alpha virt. eigenvalues --    2.40813   2.40831   2.41275   2.41983   2.42139
 Alpha virt. eigenvalues --    2.43179   2.44001   2.44345   2.45110   2.45414
 Alpha virt. eigenvalues --    2.45970   2.46483   2.46833   2.47158   2.47400
 Alpha virt. eigenvalues --    2.48178   2.48614   2.48881   2.49567   2.49702
 Alpha virt. eigenvalues --    2.50852   2.52048   2.52436   2.52987   2.53113
 Alpha virt. eigenvalues --    2.53408   2.54046   2.54267   2.54664   2.55293
 Alpha virt. eigenvalues --    2.55780   2.56368   2.56916   2.57523   2.58142
 Alpha virt. eigenvalues --    2.58259   2.58714   2.59754   2.59933   2.60042
 Alpha virt. eigenvalues --    2.60739   2.61165   2.61413   2.61829   2.62314
 Alpha virt. eigenvalues --    2.62636   2.62758   2.63894   2.64240   2.64612
 Alpha virt. eigenvalues --    2.64887   2.65178   2.66007   2.66127   2.66748
 Alpha virt. eigenvalues --    2.67419   2.67749   2.68371   2.68643   2.69151
 Alpha virt. eigenvalues --    2.69691   2.70385   2.70695   2.71722   2.72589
 Alpha virt. eigenvalues --    2.72837   2.73111   2.73503   2.73774   2.74151
 Alpha virt. eigenvalues --    2.74535   2.75113   2.75422   2.76751   2.77060
 Alpha virt. eigenvalues --    2.77358   2.77974   2.78093   2.78514   2.78918
 Alpha virt. eigenvalues --    2.79283   2.79490   2.79645   2.80326   2.81109
 Alpha virt. eigenvalues --    2.81643   2.81987   2.82141   2.82783   2.84021
 Alpha virt. eigenvalues --    2.84981   2.85688   2.86113   2.86376   2.86664
 Alpha virt. eigenvalues --    2.87341   2.88099   2.89266   2.89626   2.89926
 Alpha virt. eigenvalues --    2.90956   2.91323   2.92049   2.93144   2.93313
 Alpha virt. eigenvalues --    2.93606   2.94139   2.95019   2.95691   2.96049
 Alpha virt. eigenvalues --    2.96608   2.97144   2.97701   2.98838   2.99577
 Alpha virt. eigenvalues --    2.99851   3.02080   3.02781   3.04555   3.04866
 Alpha virt. eigenvalues --    3.05150   3.06376   3.06559   3.07236   3.09096
 Alpha virt. eigenvalues --    3.11031   3.11892   3.12631   3.16973   3.17578
 Alpha virt. eigenvalues --    3.17626   3.18958   3.20004   3.21192   3.22125
 Alpha virt. eigenvalues --    3.24128   3.24321   3.25884   3.26160   3.27805
 Alpha virt. eigenvalues --    3.28048   3.29232   3.29996   3.31699   3.32337
 Alpha virt. eigenvalues --    3.33196   3.34177   3.34405   3.34937   3.35011
 Alpha virt. eigenvalues --    3.36369   3.37930   3.39065   3.40191   3.41636
 Alpha virt. eigenvalues --    3.42131   3.43460   3.45849   3.46510   3.47831
 Alpha virt. eigenvalues --    3.48499   3.48531   3.50606   3.52481   3.53053
 Alpha virt. eigenvalues --    3.55898   3.56568   3.56862   3.57202   3.57624
 Alpha virt. eigenvalues --    3.58187   3.58521   3.59734   3.62641   3.65094
 Alpha virt. eigenvalues --    3.67670   3.73416   3.75820   3.77695   3.80177
 Alpha virt. eigenvalues --    3.81661   4.00070   4.10091   4.11378   4.12627
 Alpha virt. eigenvalues --    4.14246   4.15649   4.16281   4.17423   4.18863
 Alpha virt. eigenvalues --    4.20793   4.24779   4.28506   4.31316   4.32818
 Alpha virt. eigenvalues --    4.35020   4.36541   4.38049   4.40248   4.40958
 Alpha virt. eigenvalues --    4.42676   4.45946   4.46273   4.47910   4.49619
 Alpha virt. eigenvalues --    4.49749   4.51200   4.54554   4.55106   4.58079
 Alpha virt. eigenvalues --    4.60896   4.61316   4.64266   4.67085   4.69151
 Alpha virt. eigenvalues --    4.71601   4.72404   4.75317   4.78213   4.79423
 Alpha virt. eigenvalues --    4.80992   4.82218
          Condensed to atoms (all electrons):
 Mulliken charges:
               1
     1  C   -0.001652
     2  C   -0.036146
     3  C   -0.166231
     4  C   -0.138398
     5  C   -0.188794
     6  C   -0.188960
     7  C    0.077233
     8  C    0.077969
     9  C   -0.215235
    10  C   -0.225478
    11  C    0.021950
    12  C    0.073826
    13  C   -0.268729
    14  C   -0.301884
    15  C   -0.280980
    16  C   -0.277985
    17  C   -0.146561
    18  C   -0.126217
    19  C   -0.351606
    20  C   -0.364213
    21  C   -0.081922
    22  C   -0.060317
    23  C    0.148630
    24  C    0.169371
    25  C   -0.373574
    26  C   -0.367333
    27  C   -0.135526
    28  C   -0.160315
    29  C   -0.108090
    30  C   -0.080500
    31  C   -0.117664
    32  C   -0.090227
    33  C    0.150353
    34  C    0.103874
    35  C   -0.383048
    36  C   -0.352313
    37  C   -0.095700
    38  C   -0.102298
    39  C   -0.061484
    40  C   -0.125730
    41  H    0.090470
    42  H    0.094080
    43  H    0.097897
    44  H    0.087373
    45  H    0.077159
    46  H    0.082944
    47  H    0.086492
    48  H    0.083484
    49  H    0.107092
    50  H    0.095775
    51  H    0.104808
    52  H    0.105058
    53  H    0.062310
    54  H    0.089933
    55  H    0.116316
    56  H    0.118271
    57  H    0.080449
    58  H    0.094941
    59  H    0.107731
    60  H    0.079126
    61  H    0.071612
    62  H    0.066475
    63  H    0.064016
    64  H    0.116423
    65  H    0.067746
    66  H    0.070535
    67  H    0.114848
    68  H    0.104825
    69  H    0.128148
    70  H    0.125723
    71  H    0.098791
    72  H    0.090876
    73  H    0.067636
    74  H    0.066868
    75  H    0.144667
    76  H    0.078328
    77  H    0.102415
    78  H    0.110462
    79  H    0.117146
    80  H    0.088962
    81  H    0.087516
    82  H    0.076564
    83  H    0.094014
    84  H    0.072848
    85  H    0.081831
    86  H    0.042629
    87  H    0.136188
    88  H    0.092958
    89  H    0.106909
    90  H    0.091888
    91  H    0.096736
    92  H    0.129356
    93  H    0.053586
    94  H    0.086453
    95  H    0.072683
    96  H    0.071534
 Sum of Mulliken charges =  -0.00000
 Mulliken charges with hydrogens summed into heavy atoms:
               1
     1  C   -0.001652
     2  C   -0.036146
     3  C    0.018319
     4  C    0.046872
     5  C   -0.028691
     6  C   -0.018983
     7  C    0.077233
     8  C    0.077969
     9  C   -0.012368
    10  C   -0.015612
    11  C    0.021950
    12  C    0.073826
    13  C   -0.000170
    14  C   -0.008223
    15  C   -0.022511
    16  C   -0.031071
    17  C   -0.078814
    18  C   -0.055683
    19  C   -0.003785
    20  C   -0.048821
    21  C   -0.014286
    22  C    0.006550
    23  C    0.148630
    24  C    0.169371
    25  C   -0.048165
    26  C   -0.050764
    27  C   -0.048010
    28  C   -0.083752
    29  C   -0.014076
    30  C   -0.007652
    31  C   -0.035833
    32  C   -0.047598
    33  C    0.150353
    34  C    0.103874
    35  C   -0.046993
    36  C   -0.034333
    37  C   -0.042114
    38  C   -0.015845
    39  C    0.011198
    40  C   -0.054196
 Electronic spatial extent (au):  <R**2>=          95320.4228
 Charge=             -0.0000 electrons
 Dipole moment (field-independent basis, Debye):
    X=             -1.1343    Y=              0.0857    Z=              0.1027  Tot=              1.1422
 Quadrupole moment (field-independent basis, Debye-Ang):
   XX=           -225.3730   YY=           -232.8776   ZZ=           -254.4553
   XY=             -2.4156   XZ=             -4.5432   YZ=             -3.0583
 Traceless Quadrupole moment (field-independent basis, Debye-Ang):
   XX=             12.1956   YY=              4.6910   ZZ=            -16.8867
   XY=             -2.4156   XZ=             -4.5432   YZ=             -3.0583
 Octapole moment (field-independent basis, Debye-Ang**2):
  XXX=           -240.7336  YYY=              2.4073  ZZZ=             -1.0101  XYY=             -0.4496
  XXY=              1.6848  XXZ=             54.3772  XZZ=             19.4628  YZZ=             -2.9007
  YYZ=             -1.9431  XYZ=            -11.8076
 Hexadecapole moment (field-independent basis, Debye-Ang**3):
 XXXX=        -123156.3367 YYYY=          -4480.9847 ZZZZ=          -1594.9438 XXXY=           -272.7719
 XXXZ=           -202.8459 YYYX=            -64.8744 YYYZ=            -30.8847 ZZZX=            -30.0180
 ZZZY=             -0.0656 XXYY=         -21437.4897 XXZZ=         -21623.2204 YYZZ=          -1017.9042
 XXYZ=            -31.2581 YYXZ=            -84.5376 ZZXY=            -46.4828
 N-N= 3.671656459330D+03 E-N=-1.094346266633D+04  KE= 1.541635240361D+03
 1\1\GINC-RYZEN-SSD1\SP\RB3LYP TD-FC\6-31G(d,p)\C40H56\PADAWAN\23-Jul-2
 019\0\\# td=(NStates=1) B3LYP/6-31G(d,p)\\TD\\0,1\C,0,12.1832026629,0.
 5923598365,-0.5763937583\C,0,-11.9987421883,0.010946053,0.8862178007\C
 ,0,13.439533366,-0.2508847485,-0.5511911181\C,0,-12.9339298929,1.26385
 07766,1.453616076\C,0,13.1064229565,-1.7484505175,-0.599451704\C,0,-13
 .3884634424,2.0455830704,0.286238991\C,0,11.0670885028,0.0226765322,0.
 3118587237\C,0,-10.9250101688,0.3802779101,-0.1169893337\C,0,12.385272
 9647,-2.1640987039,0.6244364199\C,0,-12.1126911517,2.6004703552,-0.529
 251261\C,0,11.1289626043,-1.2812301775,0.8588524536\C,0,-11.0652313173
 ,1.5697025921,-0.8603049042\C,0,11.6447450622,0.6085719823,-2.02487096
 57\C,0,12.6498884022,2.0192059757,-0.1495664756\C,0,-12.8936769585,-1.
 0639135101,0.4233661665\C,0,-11.4787267407,-0.4939325669,2.2452226705\
 C,0,9.8960776704,0.8357596896,0.4606580663\C,0,-9.8895387608,-0.616164
 1585,-0.2524893367\C,0,10.1204362199,-1.932193031,1.8603086658\C,0,-10
 .1682197922,2.0011318523,-1.9519266576\C,0,8.6304592856,0.576477604,0.
 29383759\C,0,-8.5621891773,-0.4020400693,-0.2223385568\C,0,7.371335701
 8,1.3694557459,0.4366262752\C,0,-7.5660955035,-1.3459230674,-0.4103914
 36\C,0,7.59500255,2.7614387811,0.7268151185\C,0,-8.0214493331,-2.79255
 9267,-0.671314409\C,0,6.1751714186,0.7144058296,0.3184039994\C,0,-6.31
 54101509,-0.934634286,-0.3539075025\C,0,4.8657472254,1.4622085528,0.45
 54252015\C,0,-5.0574453563,-1.6993459124,-0.622943676\C,0,3.6242511367
 ,0.7699645617,0.1169136407\C,0,-3.8043858238,-1.2152721599,-0.41260369
 81\C,0,2.3425975612,1.3735180595,0.1535798459\C,0,-2.5416531647,-1.879
 893048,-0.4810413842\C,0,2.2856429359,2.7965490214,0.3560299763\C,0,-2
 .5311436598,-3.410604587,-0.6080321533\C,0,1.2024517937,0.6468260242,-
 0.050540137\C,0,-1.3887670498,-1.0726858406,-0.2974684519\C,0,1.105374
 9097,-0.8378587331,-0.2261501347\C,0,-0.0840978702,-1.5156078006,-0.36
 97207281\H,0,13.9452446303,-0.1935069212,0.4465727002\H,0,14.073954409
 2,-0.142212597,-1.4761111495\H,0,-12.3751438794,1.7922716174,2.0522187
 867\H,0,-13.7871195696,0.57337683,1.7730637445\H,0,13.9468453065,-2.52
 0612879,-0.7209755434\H,0,12.3414500267,-1.9743713371,-1.4734534686\H,
 0,-13.9136747557,2.8731006701,0.7853995776\H,0,-14.0000947933,1.261625
 8368,-0.354049427\H,0,12.902922256,-2.2770702136,1.5434962316\H,0,11.8
 690043549,-3.1396976619,0.5918860442\H,0,-11.7733471268,3.4382815489,0
 .0804145585\H,0,-12.4160478187,3.0685203598,-1.4042243236\H,0,11.36336
 97075,-0.5920122785,-2.4150596387\H,0,12.4188387646,0.9343480961,-2.80
 59271667\H,0,10.8136289342,1.2127043821,-2.0171224317\H,0,13.117692723
 4,2.0213790398,0.7322405646\H,0,11.7621546224,2.809500861,-0.182852442
 2\H,0,13.5361054668,2.3524855185,-0.7444667178\H,0,-13.5503342641,-1.0
 809821072,-0.4552616269\H,0,-13.4470768803,-1.4490207063,1.4312903497\
 H,0,-12.3224598492,-2.0509935043,0.012565374\H,0,-10.7685893498,0.4062
 749881,2.691568816\H,0,-10.7310896344,-1.4552465254,2.1546594821\H,0,-
 12.1290069647,-0.7202264905,3.0257311012\H,0,10.1526086675,1.868011661
 3,0.648540762\H,0,-10.1465090956,-1.5715822682,-0.1663630143\H,0,9.497
 5638339,-1.0301306078,2.2351472723\H,0,10.8951303271,-2.3234485428,2.5
 82959726\H,0,9.5068227495,-2.6617060206,1.4085604776\H,0,-9.495156551,
 1.418184131,-2.3338858855\H,0,-9.6061754224,3.0108846105,-1.8854385901
 \H,0,-10.7622164866,2.1558805935,-2.9278127546\H,0,8.3567412649,-0.417
 7325535,-0.0155585063\H,0,-8.1686502602,0.4885030444,-0.3551891714\H,0
 ,7.7981530474,2.7836033962,1.759505333\H,0,6.7994218229,3.7290506093,0
 .4435369334\H,0,8.5616504027,3.1491835804,0.1526020373\H,0,-8.27559851
 21,-3.0864957087,-1.8051572093\H,0,-8.8303940277,-3.0274459319,0.11842
 79821\H,0,-7.1190964622,-3.5859512464,-0.5637252577\H,0,6.0987607406,-
 0.3409293197,0.0742854118\H,0,-6.0418261672,0.1418161201,-0.1113314099
 \H,0,4.8192752848,2.506419086,0.5513080376\H,0,-4.966326733,-2.7354070
 571,-0.7928814292\H,0,3.527603027,-0.3483594058,-0.0612364852\H,0,-3.8
 196195932,0.0080771376,-0.111503017\H,0,2.7311338128,2.9564360397,1.27
 05357089\H,0,1.3025674575,3.4758783196,0.3669064181\H,0,2.8848255414,3
 .2914096145,-0.5257065403\H,0,-3.2557574453,-3.8503833942,-1.559080918
 9\H,0,-2.6828498908,-4.0229342863,0.4950041518\H,0,-1.5990508764,-3.82
 68030147,-0.739756202\H,0,0.3531777186,1.0002959448,-0.1095203068\H,0,
 -1.5133124198,-0.0371357264,0.1769599699\H,0,1.763444889,-1.5501540651
 ,-0.4716067249\H,0,0.0610566165,-2.4645314954,-0.7378446454\\Version=E
 S64L-G16RevA.03\State=1-A\HF=-1557.492881\RMSD=3.381e-09\PG=C01 [X(C40
 H56)]\\@


 A MATHEMATICIAN IS A MACHINE FOR TURNING COFFEE INTO THEOREMS.
     -- QUOTED BY PAUL ERDOS
 Job cpu time:       0 days  9 hours 43 minutes 12.5 seconds.
 Elapsed time:       0 days  2 hours 26 minutes 43.5 seconds.
 File lengths (MBytes):  RWF=   2884 Int=      0 D2E=      0 Chk=     79 Scr=      1
 Normal termination of Gaussian 16 at Tue Jul 23 06:21:41 2019.
