 Entering Gaussian System, Link 0=g16
 Input=Geometria-114-.com
 Output=Geometria-114-.log
 Initial command:
 /usr/local/g16/l1.exe "/home/padawan/israel-mol/b-caroten/spectra/abs/Gau-77980.inp" -scrdir="/home/padawan/israel-mol/b-caroten/spectra/abs/"
 Entering Link 1 = /usr/local/g16/l1.exe PID=     77982.
  
 Copyright (c) 1988,1990,1992,1993,1995,1998,2003,2009,2016,
            Gaussian, Inc.  All Rights Reserved.
  
 This is part of the Gaussian(R) 16 program.  It is based on
 the Gaussian(R) 09 system (copyright 2009, Gaussian, Inc.),
 the Gaussian(R) 03 system (copyright 2003, Gaussian, Inc.),
 the Gaussian(R) 98 system (copyright 1998, Gaussian, Inc.),
 the Gaussian(R) 94 system (copyright 1995, Gaussian, Inc.),
 the Gaussian 92(TM) system (copyright 1992, Gaussian, Inc.),
 the Gaussian 90(TM) system (copyright 1990, Gaussian, Inc.),
 the Gaussian 88(TM) system (copyright 1988, Gaussian, Inc.),
 the Gaussian 86(TM) system (copyright 1986, Carnegie Mellon
 University), and the Gaussian 82(TM) system (copyright 1983,
 Carnegie Mellon University). Gaussian is a federally registered
 trademark of Gaussian, Inc.
  
 This software contains proprietary and confidential information,
 including trade secrets, belonging to Gaussian, Inc.
  
 This software is provided under written license and may be
 used, copied, transmitted, or stored only in accord with that
 written license.
  
 The following legend is applicable only to US Government
 contracts under FAR:
  
                    RESTRICTED RIGHTS LEGEND
  
 Use, reproduction and disclosure by the US Government is
 subject to restrictions as set forth in subparagraphs (a)
 and (c) of the Commercial Computer Software - Restricted
 Rights clause in FAR 52.227-19.
  
 Gaussian, Inc.
 340 Quinnipiac St., Bldg. 40, Wallingford CT 06492
  
  
 ---------------------------------------------------------------
 Warning -- This program may not be used in any manner that
 competes with the business of Gaussian, Inc. or will provide
 assistance to any competitor of Gaussian, Inc.  The licensee
 of this program is prohibited from giving any competitor of
 Gaussian, Inc. access to this program.  By using this program,
 the user acknowledges that Gaussian, Inc. is engaged in the
 business of creating and licensing software in the field of
 computational chemistry and represents and warrants to the
 licensee that it is not a competitor of Gaussian, Inc. and that
 it will not use this program in any manner prohibited above.
 ---------------------------------------------------------------
  

 Cite this work as:
 Gaussian 16, Revision A.03,
 M. J. Frisch, G. W. Trucks, H. B. Schlegel, G. E. Scuseria, 
 M. A. Robb, J. R. Cheeseman, G. Scalmani, V. Barone, 
 G. A. Petersson, H. Nakatsuji, X. Li, M. Caricato, A. V. Marenich, 
 J. Bloino, B. G. Janesko, R. Gomperts, B. Mennucci, H. P. Hratchian, 
 J. V. Ortiz, A. F. Izmaylov, J. L. Sonnenberg, D. Williams-Young, 
 F. Ding, F. Lipparini, F. Egidi, J. Goings, B. Peng, A. Petrone, 
 T. Henderson, D. Ranasinghe, V. G. Zakrzewski, J. Gao, N. Rega, 
 G. Zheng, W. Liang, M. Hada, M. Ehara, K. Toyota, R. Fukuda, 
 J. Hasegawa, M. Ishida, T. Nakajima, Y. Honda, O. Kitao, H. Nakai, 
 T. Vreven, K. Throssell, J. A. Montgomery, Jr., J. E. Peralta, 
 F. Ogliaro, M. J. Bearpark, J. J. Heyd, E. N. Brothers, K. N. Kudin, 
 V. N. Staroverov, T. A. Keith, R. Kobayashi, J. Normand, 
 K. Raghavachari, A. P. Rendell, J. C. Burant, S. S. Iyengar, 
 J. Tomasi, M. Cossi, J. M. Millam, M. Klene, C. Adamo, R. Cammi, 
 J. W. Ochterski, R. L. Martin, K. Morokuma, O. Farkas, 
 J. B. Foresman, and D. J. Fox, Gaussian, Inc., Wallingford CT, 2016.
 
 ******************************************
 Gaussian 16:  ES64L-G16RevA.03 25-Dec-2016
                27-Jul-2019 
 ******************************************
 %nproc=4
 Will use up to    4 processors via shared memory.
 %Mem=2GB
 ---------------------------------
 # td=(NStates=1) B3LYP/6-31G(d,p)
 ---------------------------------
 1/38=1,172=1/1;
 2/12=2,17=6,18=5,40=1/2;
 3/5=1,6=6,7=101,11=9,25=1,30=1,74=-5/1,2,3,8;
 4//1;
 5/5=2,38=5/2;
 8/6=1,10=2,108=1/1;
 9/41=1,42=1,70=2/14;
 6/7=2,8=2,9=2,10=2/1;
 99/5=1,9=1/99;
 --
 TD
 --
 Symbolic Z-matrix:
 Charge =  0 Multiplicity = 1
 6                     12.15965   0.54564  -0.70832 
 6                    -12.128   -0.06032   0.79064 
 6                     13.39928  -0.34372  -0.66245 
 6                    -13.11197   1.15652   1.16219 
 6                     13.15051  -1.80676  -0.61483 
 6                    -13.38247   2.02844   0.03149 
 6                     11.0454   0.04696   0.18415 
 6                    -11.03021   0.44097  -0.14979 
 6                     12.24855  -2.17512   0.59436 
 6                    -12.14024   2.67128  -0.47224 
 6                     11.21188  -1.15117   0.83053 
 6                    -11.05174   1.67517  -0.74308 
 6                     11.7041   0.60639  -2.31443 
 6                     12.48892   2.05167  -0.27464 
 6                    -12.98362  -1.08865   0.04851 
 6                    -11.65765  -0.71593   2.06615 
 6                     9.87818   0.87654   0.39652 
 6                    -9.8967   -0.5672   -0.33883 
 6                     10.17516  -1.66519   1.82334 
 6                    -9.95376   2.04357  -1.7642 
 6                     8.62184   0.43754   0.35536 
 6                    -8.58052  -0.26605  -0.14555 
 6                     7.40992   1.23446   0.56978 
 6                    -7.53388  -1.27328  -0.27098 
 6                     7.63321   2.70872   0.94118 
 6                    -7.91877  -2.69889  -0.52255 
 6                     6.12648   0.69041   0.30824 
 6                    -6.25885  -0.91491  -0.18031 
 6                     4.89892   1.40993   0.35944 
 6                    -5.06748  -1.67557  -0.24919 
 6                     3.73688   0.69253   0.12874 
 6                    -3.78997  -1.19208  -0.23372 
 6                     2.38547   1.314     0.15261 
 6                    -2.46783  -1.81403  -0.37939 
 6                     2.21646   2.7969    0.31523 
 6                    -2.5401   -3.31361  -0.66651 
 6                     1.29667   0.55826   0.09709 
 6                    -1.3692   -1.14108  -0.1811 
 6                     1.13641  -0.8432   -0.08525 
 6                     0.07133  -1.6159   -0.19991 
 1                     14.01831   0.1394    0.11292 
 1                     14.18092  -0.15489  -1.59725 
 1                    -12.57327   1.75051   1.8347 
 1                    -14.11479   0.71628   1.56073 
 1                     14.18072  -2.36489  -0.59279 
 1                     12.67354  -2.18503  -1.46349 
 1                    -14.21702   2.69667   0.42229 
 1                    -13.95403   1.39464  -0.72529 
 1                     12.95167  -2.16292   1.51283 
 1                     11.99891  -3.18779   0.43253 
 1                    -12.00796   3.36007   0.32693 
 1                    -12.18992   3.26136  -1.31698 
 1                     11.55779  -0.45879  -2.59345 
 1                     12.60608   0.96423  -2.89974 
 1                     10.77783   1.36721  -2.46887 
 1                     12.8859   2.02805   0.7987 
 1                     11.65791   2.70617  -0.49546 
 1                     13.23643   2.3175   -1.08514 
 1                    -13.81608  -0.79262  -0.64591 
 1                    -13.65759  -1.58437   0.82068 
 1                    -12.27448  -1.71876  -0.61795 
 1                    -11.00068  -0.27885   2.60323 
 1                    -11.3319  -1.84981   1.85334 
 1                    -12.53813  -0.78871   2.88288 
 1                     9.95543   1.98618   0.73564 
 1                    -10.05325  -1.85292  -0.23026 
 1                     9.45775  -0.94765   2.31975 
 1                     10.73246  -1.99387   2.71855 
 1                     9.26876  -2.27162   1.59255 
 1                    -9.54967   1.08612  -2.34321 
 1                    -9.53198   2.84301  -1.2521 
 1                    -10.40773   2.57594  -2.60264 
 1                     8.51485  -0.61951   0.22713 
 1                    -8.27469   0.68852   0.02716 
 1                     7.78939   2.90022   2.15207 
 1                     6.73382   3.42999   0.57974 
 1                     8.57463   3.12291   0.2453 
 1                    -8.44126  -2.74757  -1.60057 
 1                    -8.51157  -3.18724   0.14141 
 1                    -6.98578  -3.12915  -0.6884 
 1                     6.22231  -0.33417   0.17537 
 1                    -5.93438   0.13366   0.11713 
 1                     4.81188   2.48608   0.86281 
 1                    -5.22816  -2.84554  -0.34686 
 1                     3.62125  -0.36418  -0.27053 
 1                    -3.96474  -0.00022  -0.01576 
 1                     2.93698   3.39012   1.10999 
 1                     1.09069   3.0414    0.53897 
 1                     2.78604   3.2173   -0.4599 
 1                    -3.1029   -3.3449   -1.52416 
 1                    -3.08906  -3.83317   0.02567 
 1                    -1.46767  -3.84109  -0.9387 
 1                     0.32485   1.09364   0.16972 
 1                    -1.28232  -0.0197   -0.11513 
 1                     2.18542  -1.39432  -0.01084 
 1                     0.20651  -2.67404  -0.27813 
 
 Stoichiometry    C40H56
 Framework group  C1[X(C40H56)]
 Deg. of freedom   282
 Full point group                 C1      NOp   1
 Largest Abelian subgroup         C1      NOp   1
 Largest concise Abelian subgroup C1      NOp   1
                         Standard orientation:                         
 ---------------------------------------------------------------------
 Center     Atomic      Atomic             Coordinates (Angstroms)
 Number     Number       Type             X           Y           Z
 ---------------------------------------------------------------------
      1          6           0      -12.162779    0.550339    0.695086
      2          6           0       12.125852   -0.064206   -0.784271
      3          6           0      -13.402152   -0.339766    0.657478
      4          6           0       13.109714    1.149100   -1.167489
      5          6           0      -13.152973   -1.803137    0.624705
      6          6           0       13.379365    2.032415   -0.045467
      7          6           0      -11.047900    0.043013   -0.191703
      8          6           0       11.027415    0.446225    0.150466
      9          6           0      -12.250247   -2.183397   -0.580229
     10          6           0       12.136689    2.679952    0.451088
     11          6           0      -11.213714   -1.161595   -0.826102
     12          6           0       11.048294    1.686331    0.731332
     13          6           0      -11.708138    0.627357    2.300759
     14          6           0      -12.492202    2.051850    0.246109
     15          6           0       12.981327   -1.084792   -0.031369
     16          6           0       11.656390   -0.732733   -2.053393
     17          6           0       -9.880778    0.870731   -0.411761
     18          6           0        9.894061   -0.560298    0.348999
     19          6           0      -10.176310   -1.685292   -1.813127
     20          6           0        9.949649    2.064678    1.748085
     21          6           0       -8.624349    0.432500   -0.365498
     22          6           0        8.577912   -0.261453    0.151977
     23          6           0       -7.412519    1.227545   -0.587243
     24          6           0        7.531465   -1.267648    0.286943
     25          6           0       -7.635982    2.697939   -0.973564
     26          6           0        7.916583   -2.690559    0.553045
     27          6           0       -6.129080    0.686493   -0.319541
     28          6           0        6.256395   -0.910553    0.191973
     29          6           0       -4.901682    1.405788   -0.377285
     30          6           0        5.065176   -1.670799    0.267833
     31          6           0       -3.739586    0.691045   -0.138752
     32          6           0        3.787558   -1.187825    0.246797
     33          6           0       -2.388324    1.312608   -0.168116
     34          6           0        2.465490   -1.808627    0.397985
     35          6           0       -2.219603    2.793840   -0.345536
     36          6           0        2.537999   -3.305234    0.700201
     37          6           0       -1.299358    0.557748   -0.104404
     38          6           0        1.366795   -1.138002    0.192329
     39          6           0       -1.138832   -0.841762    0.092103
     40          6           0       -0.073615   -1.612986    0.215121
     41          1           0      -14.020879    0.135372   -0.123053
     42          1           0      -14.184356   -0.141756    1.589901
     43          1           0       12.571240    1.736154   -1.846233
     44          1           0       14.112875    0.705143   -1.561034
     45          1           0      -14.183027   -2.361735    0.607707
     46          1           0      -12.676382   -2.172736    1.477388
     47          1           0       14.213950    2.696906   -0.442503
     48          1           0       13.950666    1.406403    0.717961
     49          1           0      -12.952858   -2.180615   -1.499163
     50          1           0      -12.000432   -3.194325   -0.408086
     51          1           0       12.004671    3.360645   -0.355034
     52          1           0       12.185737    3.278508    1.289881
     53          1           0      -11.561705   -0.434926    2.590550
     54          1           0      -12.610533    0.990823    2.881940
     55          1           0      -10.782147    1.389935    2.448053
     56          1           0      -12.888577    2.017337   -0.827155
     57          1           0      -11.661487    2.708758    0.460803
     58          1           0      -13.240224    2.325618    1.053485
     59          1           0       13.813329   -0.781583    0.660500
     60          1           0       13.655857   -1.588078   -0.798145
     61          1           0       12.271980   -1.708364    0.640995
     62          1           0       10.999603   -0.301247   -2.595198
     63          1           0       11.330812   -1.864494   -1.829371
     64          1           0       12.537336   -0.813484   -2.868855
     65          1           0       -9.958131    1.976885   -0.762059
     66          1           0       10.051005   -1.847004    0.253447
     67          1           0       -9.458809   -0.972594   -2.316319
     68          1           0      -10.733029   -2.023101   -2.705294
     69          1           0       -9.269878   -2.289132   -1.575746
     70          1           0        9.545490    1.112994    2.336465
     71          1           0        9.527945    2.858820    1.227739
     72          1           0       10.403017    2.605576    2.581384
     73          1           0       -8.517154   -0.623186   -0.226582
     74          1           0        8.271929    0.691251   -0.030489
     75          1           0       -7.791545    2.877208   -2.186412
     76          1           0       -6.736979    3.423041   -0.618899
     77          1           0       -8.577902    3.118850   -0.282408
     78          1           0        8.438482   -2.728264    1.631786
     79          1           0        8.509881   -3.185403   -0.105644
     80          1           0        6.983617   -3.119374    0.722694
     81          1           0       -6.224724   -0.336727   -0.176425
     82          1           0        5.931809    0.134886   -0.116173
     83          1           0       -4.814646    2.476840   -0.891402
     84          1           0        5.226113   -2.839680    0.377348
     85          1           0       -3.623903   -0.361565    0.271186
     86          1           0        3.962139    0.001827    0.016971
     87          1           0       -2.939844    3.378850   -1.146621
     88          1           0       -1.093773    3.036383   -0.571108
     89          1           0       -2.789723    3.221862    0.425010
     90          1           0        3.100328   -3.327750    1.558433
     91          1           0        3.087474   -3.831570    0.013587
     92          1           0        1.465548   -3.830236    0.977085
     93          1           0       -0.327641    1.092627   -0.181868
     94          1           0        1.279664   -0.017366    0.115045
     95          1           0       -2.187656   -1.393880    0.022661
     96          1           0       -0.208567   -2.670327    0.303894
 ---------------------------------------------------------------------
 Rotational constants (GHZ):           0.2790310           0.0109802           0.0107430
 Standard basis: 6-31G(d,p) (6D, 7F)
 There are   880 symmetry adapted cartesian basis functions of A   symmetry.
 There are   880 symmetry adapted basis functions of A   symmetry.
   880 basis functions,  1512 primitive gaussians,   880 cartesian basis functions
   148 alpha electrons      148 beta electrons
       nuclear repulsion energy      3673.6574250756 Hartrees.
 NAtoms=   96 NActive=   96 NUniq=   96 SFac= 1.00D+00 NAtFMM=   60 NAOKFM=T Big=T
 Integral buffers will be    131072 words long.
 Regular integral format.
 Two-electron integral symmetry is turned on.
 One-electron integrals computed using PRISM.
 NBasis=   880 RedAO= T EigKep=  7.90D-04  NBF=   880
 NBsUse=   880 1.00D-06 EigRej= -1.00D+00 NBFU=   880
 ExpMin= 1.61D-01 ExpMax= 3.05D+03 ExpMxC= 4.57D+02 IAcc=3 IRadAn=         5 AccDes= 0.00D+00
 Harris functional with IExCor=  402 and IRadAn=       5 diagonalized for initial guess.
 HarFok:  IExCor=  402 AccDes= 0.00D+00 IRadAn=         5 IDoV= 1 UseB2=F ITyADJ=14
 ICtDFT=  3500011 ScaDFX=  1.000000  1.000000  1.000000  1.000000
 FoFCou: FMM=F IPFlag=           0 FMFlag=      100000 FMFlg1=        2001
         NFxFlg=           0 DoJE=T BraDBF=F KetDBF=T FulRan=T
         wScrn=  0.000000 ICntrl=       500 IOpCl=  0 I1Cent=   200000004 NGrid=           0
         NMat0=    1 NMatS0=      1 NMatT0=    0 NMatD0=    1 NMtDS0=    0 NMtDT0=    0
 Petite list used in FoFCou.
 Requested convergence on RMS density matrix=1.00D-08 within 128 cycles.
 Requested convergence on MAX density matrix=1.00D-06.
 Requested convergence on             energy=1.00D-06.
 No special actions if energy rises.
 Integral accuracy reduced to 1.0D-05 until final iterations.
 Initial convergence to 1.0D-05 achieved.  Increase integral accuracy.
 SCF Done:  E(RB3LYP) =  -1557.56240984     A.U. after   14 cycles
            NFock= 14  Conv=0.91D-08     -V/T= 2.0108
 DoSCS=F DFT=T ScalE2(SS,OS)=  1.000000  1.000000
 ExpMin= 1.61D-01 ExpMax= 3.05D+03 ExpMxC= 4.57D+02 IAcc=3 IRadAn=         5 AccDes= 0.00D+00
 HarFok:  IExCor=  205 AccDes= 0.00D+00 IRadAn=         5 IDoV=-2 UseB2=F ITyADJ=14
 ICtDFT= 12500011 ScaDFX=  1.000000  1.000000  1.000000  1.000000
 GSVD:  LWork=       -1920 too small for GESVD, short by        8600 words or        8600 for optimal perf.
 Range of M.O.s used for correlation:    41   880
 NBasis=   880 NAE=   148 NBE=   148 NFC=    40 NFV=     0
 NROrb=    840 NOA=   108 NOB=   108 NVA=   732 NVB=   732

 **** Warning!!: The smallest alpha delta epsilon is  0.98798733D-01

 Orbital symmetries:
       Occupied  (A) (A) (A) (A) (A) (A) (A) (A) (A) (A) (A) (A)
                 (A) (A) (A) (A) (A) (A) (A) (A) (A) (A) (A) (A)
                 (A) (A) (A) (A) (A) (A) (A) (A) (A) (A) (A) (A)
                 (A) (A) (A) (A) (A) (A) (A) (A) (A) (A) (A) (A)
                 (A) (A) (A) (A) (A) (A) (A) (A) (A) (A) (A) (A)
                 (A) (A) (A) (A) (A) (A) (A) (A) (A) (A) (A) (A)
                 (A) (A) (A) (A) (A) (A) (A) (A) (A) (A) (A) (A)
                 (A) (A) (A) (A) (A) (A) (A) (A) (A) (A) (A) (A)
                 (A) (A) (A) (A) (A) (A) (A) (A) (A) (A) (A) (A)
                 (A) (A) (A) (A) (A) (A) (A) (A) (A) (A) (A) (A)
                 (A) (A) (A) (A) (A) (A) (A) (A) (A) (A) (A) (A)
                 (A) (A) (A) (A) (A) (A) (A) (A) (A) (A) (A) (A)
                 (A) (A) (A) (A)
       Virtual   (A) (A) (A) (A) (A) (A) (A) (A) (A) (A) (A) (A)
                 (A) (A) (A) (A) (A) (A) (A) (A) (A) (A) (A) (A)
                 (A) (A) (A) (A) (A) (A) (A) (A) (A) (A) (A) (A)
                 (A) (A) (A) (A) (A) (A) (A) (A) (A) (A) (A) (A)
                 (A) (A) (A) (A) (A) (A) (A) (A) (A) (A) (A) (A)
                 (A) (A) (A) (A) (A) (A) (A) (A) (A) (A) (A) (A)
                 (A) (A) (A) (A) (A) (A) (A) (A) (A) (A) (A) (A)
                 (A) (A) (A) (A) (A) (A) (A) (A) (A) (A) (A) (A)
                 (A) (A) (A) (A) (A) (A) (A) (A) (A) (A) (A) (A)
                 (A) (A) (A) (A) (A) (A) (A) (A) (A) (A) (A) (A)
                 (A) (A) (A) (A) (A) (A) (A) (A) (A) (A) (A) (A)
                 (A) (A) (A) (A) (A) (A) (A) (A) (A) (A) (A) (A)
                 (A) (A) (A) (A) (A) (A) (A) (A) (A) (A) (A) (A)
                 (A) (A) (A) (A) (A) (A) (A) (A) (A) (A) (A) (A)
                 (A) (A) (A) (A) (A) (A) (A) (A) (A) (A) (A) (A)
                 (A) (A) (A) (A) (A) (A) (A) (A) (A) (A) (A) (A)
                 (A) (A) (A) (A) (A) (A) (A) (A) (A) (A) (A) (A)
                 (A) (A) (A) (A) (A) (A) (A) (A) (A) (A) (A) (A)
                 (A) (A) (A) (A) (A) (A) (A) (A) (A) (A) (A) (A)
                 (A) (A) (A) (A) (A) (A) (A) (A) (A) (A) (A) (A)
                 (A) (A) (A) (A) (A) (A) (A) (A) (A) (A) (A) (A)
                 (A) (A) (A) (A) (A) (A) (A) (A) (A) (A) (A) (A)
                 (A) (A) (A) (A) (A) (A) (A) (A) (A) (A) (A) (A)
                 (A) (A) (A) (A) (A) (A) (A) (A) (A) (A) (A) (A)
                 (A) (A) (A) (A) (A) (A) (A) (A) (A) (A) (A) (A)
                 (A) (A) (A) (A) (A) (A) (A) (A) (A) (A) (A) (A)
                 (A) (A) (A) (A) (A) (A) (A) (A) (A) (A) (A) (A)
                 (A) (A) (A) (A) (A) (A) (A) (A) (A) (A) (A) (A)
                 (A) (A) (A) (A) (A) (A) (A) (A) (A) (A) (A) (A)
                 (A) (A) (A) (A) (A) (A) (A) (A) (A) (A) (A) (A)
                 (A) (A) (A) (A) (A) (A) (A) (A) (A) (A) (A) (A)
                 (A) (A) (A) (A) (A) (A) (A) (A) (A) (A) (A) (A)
                 (A) (A) (A) (A) (A) (A) (A) (A) (A) (A) (A) (A)
                 (A) (A) (A) (A) (A) (A) (A) (A) (A) (A) (A) (A)
                 (A) (A) (A) (A) (A) (A) (A) (A) (A) (A) (A) (A)
                 (A) (A) (A) (A) (A) (A) (A) (A) (A) (A) (A) (A)
                 (A) (A) (A) (A) (A) (A) (A) (A) (A) (A) (A) (A)
                 (A) (A) (A) (A) (A) (A) (A) (A) (A) (A) (A) (A)
                 (A) (A) (A) (A) (A) (A) (A) (A) (A) (A) (A) (A)
                 (A) (A) (A) (A) (A) (A) (A) (A) (A) (A) (A) (A)
                 (A) (A) (A) (A) (A) (A) (A) (A) (A) (A) (A) (A)
                 (A) (A) (A) (A) (A) (A) (A) (A) (A) (A) (A) (A)
                 (A) (A) (A) (A) (A) (A) (A) (A) (A) (A) (A) (A)
                 (A) (A) (A) (A) (A) (A) (A) (A) (A) (A) (A) (A)
                 (A) (A) (A) (A) (A) (A) (A) (A) (A) (A) (A) (A)
                 (A) (A) (A) (A) (A) (A) (A) (A) (A) (A) (A) (A)
                 (A) (A) (A) (A) (A) (A) (A) (A) (A) (A) (A) (A)
                 (A) (A) (A) (A) (A) (A) (A) (A) (A) (A) (A) (A)
                 (A) (A) (A) (A) (A) (A) (A) (A) (A) (A) (A) (A)
                 (A) (A) (A) (A) (A) (A) (A) (A) (A) (A) (A) (A)
                 (A) (A) (A) (A) (A) (A) (A) (A) (A) (A) (A) (A)
                 (A) (A) (A) (A) (A) (A) (A) (A) (A) (A) (A) (A)
                 (A) (A) (A) (A) (A) (A) (A) (A) (A) (A) (A) (A)
                 (A) (A) (A) (A) (A) (A) (A) (A) (A) (A) (A) (A)
                 (A) (A) (A) (A) (A) (A) (A) (A) (A) (A) (A) (A)
                 (A) (A) (A) (A) (A) (A) (A) (A) (A) (A) (A) (A)
                 (A) (A) (A) (A) (A) (A) (A) (A) (A) (A) (A) (A)
                 (A) (A) (A) (A) (A) (A) (A) (A) (A) (A) (A) (A)
                 (A) (A) (A) (A) (A) (A) (A) (A) (A) (A) (A) (A)
                 (A) (A) (A) (A) (A) (A) (A) (A) (A) (A) (A) (A)
                 (A) (A) (A) (A) (A) (A) (A) (A) (A) (A) (A) (A)
     4 initial guesses have been made.
 Convergence on wavefunction:    0.001000000000000
 Iteration     1 Dimension     4 NMult     0 NNew      4
 CISAX will form     4 AO SS matrices at one time.
 Iteration     2 Dimension     6 NMult     4 NNew      2
 Iteration     3 Dimension     8 NMult     6 NNew      2
 Iteration     4 Dimension    10 NMult     8 NNew      2
 Iteration     5 Dimension    12 NMult    10 NNew      2
 Iteration     6 Dimension    14 NMult    12 NNew      2
 Iteration     7 Dimension    16 NMult    14 NNew      2
 ***********************************************************************
 Excited states from <AA,BB:AA,BB> singles matrix:
 ***********************************************************************
 
 Ground to excited state transition densities written to RWF  633
 Ground to excited state transition electric dipole moments (Au):
       state          X           Y           Z        Dip. S.      Osc.
         1         6.5869     -0.4868      0.3376     43.7378      2.6608
 Ground to excited state transition velocity dipole moments (Au):
       state          X           Y           Z        Dip. S.      Osc.
         1        -0.5831      0.0443     -0.0294      0.3429      2.5048
 Ground to excited state transition magnetic dipole moments (Au):
       state          X           Y           Z
         1         0.0100     -0.0857     -0.7071
 Ground to excited state transition velocity quadrupole moments (Au):
       state          XX          YY          ZZ          XY          XZ          YZ
         1         0.3872     -0.0345      0.0215     -0.2074      0.0995     -0.0077
 <0|del|b> * <b|rxdel|0> + <0|del|b> * <b|delr+rdel|0>
 Rotatory Strengths (R) in cgs (10**-40 erg-esu-cm/Gauss)
       state          XX          YY          ZZ    R(velocity)    E-M Angle
         1        72.4975     51.6173    -37.5870     28.8426       88.47
 1/2[<0|r|b>*<b|rxdel|0> + (<0|rxdel|b>*<b|r|0>)*]
 Rotatory Strengths (R) in cgs (10**-40 erg-esu-cm/Gauss)
       state          XX          YY          ZZ     R(length)
         1       -46.7505    -29.4897    168.7918     30.8505
  1/2[<0|del|b>*<b|r|0> + (<0|r|b>*<b|del|0>)*] (Au)
       state          X           Y           Z        Dip. S.   Osc.(frdel)
         1        -3.8409     -0.0216     -0.0099      3.8724      2.5816

 Excitation energies and oscillator strengths:
 
 Excited State   1:      Singlet-A      2.4831 eV  499.31 nm  f=2.6608  <S**2>=0.000
     148 ->149         0.70498
 This state for optimization and/or second-order correction.
 Total Energy, E(TD-HF/TD-DFT) =  -1557.47115663    
 Copying the excited state density for this state as the 1-particle RhoCI density.
 SavETr:  write IOETrn=   770 NScale= 10 NData=  16 NLR=1 NState=    1 LETran=      28.

 **********************************************************************

            Population analysis using the SCF density.

 **********************************************************************

 Orbital symmetries:
       Occupied  (A) (A) (A) (A) (A) (A) (A) (A) (A) (A) (A) (A)
                 (A) (A) (A) (A) (A) (A) (A) (A) (A) (A) (A) (A)
                 (A) (A) (A) (A) (A) (A) (A) (A) (A) (A) (A) (A)
                 (A) (A) (A) (A) (A) (A) (A) (A) (A) (A) (A) (A)
                 (A) (A) (A) (A) (A) (A) (A) (A) (A) (A) (A) (A)
                 (A) (A) (A) (A) (A) (A) (A) (A) (A) (A) (A) (A)
                 (A) (A) (A) (A) (A) (A) (A) (A) (A) (A) (A) (A)
                 (A) (A) (A) (A) (A) (A) (A) (A) (A) (A) (A) (A)
                 (A) (A) (A) (A) (A) (A) (A) (A) (A) (A) (A) (A)
                 (A) (A) (A) (A) (A) (A) (A) (A) (A) (A) (A) (A)
                 (A) (A) (A) (A) (A) (A) (A) (A) (A) (A) (A) (A)
                 (A) (A) (A) (A) (A) (A) (A) (A) (A) (A) (A) (A)
                 (A) (A) (A) (A)
       Virtual   (A) (A) (A) (A) (A) (A) (A) (A) (A) (A) (A) (A)
                 (A) (A) (A) (A) (A) (A) (A) (A) (A) (A) (A) (A)
                 (A) (A) (A) (A) (A) (A) (A) (A) (A) (A) (A) (A)
                 (A) (A) (A) (A) (A) (A) (A) (A) (A) (A) (A) (A)
                 (A) (A) (A) (A) (A) (A) (A) (A) (A) (A) (A) (A)
                 (A) (A) (A) (A) (A) (A) (A) (A) (A) (A) (A) (A)
                 (A) (A) (A) (A) (A) (A) (A) (A) (A) (A) (A) (A)
                 (A) (A) (A) (A) (A) (A) (A) (A) (A) (A) (A) (A)
                 (A) (A) (A) (A) (A) (A) (A) (A) (A) (A) (A) (A)
                 (A) (A) (A) (A) (A) (A) (A) (A) (A) (A) (A) (A)
                 (A) (A) (A) (A) (A) (A) (A) (A) (A) (A) (A) (A)
                 (A) (A) (A) (A) (A) (A) (A) (A) (A) (A) (A) (A)
                 (A) (A) (A) (A) (A) (A) (A) (A) (A) (A) (A) (A)
                 (A) (A) (A) (A) (A) (A) (A) (A) (A) (A) (A) (A)
                 (A) (A) (A) (A) (A) (A) (A) (A) (A) (A) (A) (A)
                 (A) (A) (A) (A) (A) (A) (A) (A) (A) (A) (A) (A)
                 (A) (A) (A) (A) (A) (A) (A) (A) (A) (A) (A) (A)
                 (A) (A) (A) (A) (A) (A) (A) (A) (A) (A) (A) (A)
                 (A) (A) (A) (A) (A) (A) (A) (A) (A) (A) (A) (A)
                 (A) (A) (A) (A) (A) (A) (A) (A) (A) (A) (A) (A)
                 (A) (A) (A) (A) (A) (A) (A) (A) (A) (A) (A) (A)
                 (A) (A) (A) (A) (A) (A) (A) (A) (A) (A) (A) (A)
                 (A) (A) (A) (A) (A) (A) (A) (A) (A) (A) (A) (A)
                 (A) (A) (A) (A) (A) (A) (A) (A) (A) (A) (A) (A)
                 (A) (A) (A) (A) (A) (A) (A) (A) (A) (A) (A) (A)
                 (A) (A) (A) (A) (A) (A) (A) (A) (A) (A) (A) (A)
                 (A) (A) (A) (A) (A) (A) (A) (A) (A) (A) (A) (A)
                 (A) (A) (A) (A) (A) (A) (A) (A) (A) (A) (A) (A)
                 (A) (A) (A) (A) (A) (A) (A) (A) (A) (A) (A) (A)
                 (A) (A) (A) (A) (A) (A) (A) (A) (A) (A) (A) (A)
                 (A) (A) (A) (A) (A) (A) (A) (A) (A) (A) (A) (A)
                 (A) (A) (A) (A) (A) (A) (A) (A) (A) (A) (A) (A)
                 (A) (A) (A) (A) (A) (A) (A) (A) (A) (A) (A) (A)
                 (A) (A) (A) (A) (A) (A) (A) (A) (A) (A) (A) (A)
                 (A) (A) (A) (A) (A) (A) (A) (A) (A) (A) (A) (A)
                 (A) (A) (A) (A) (A) (A) (A) (A) (A) (A) (A) (A)
                 (A) (A) (A) (A) (A) (A) (A) (A) (A) (A) (A) (A)
                 (A) (A) (A) (A) (A) (A) (A) (A) (A) (A) (A) (A)
                 (A) (A) (A) (A) (A) (A) (A) (A) (A) (A) (A) (A)
                 (A) (A) (A) (A) (A) (A) (A) (A) (A) (A) (A) (A)
                 (A) (A) (A) (A) (A) (A) (A) (A) (A) (A) (A) (A)
                 (A) (A) (A) (A) (A) (A) (A) (A) (A) (A) (A) (A)
                 (A) (A) (A) (A) (A) (A) (A) (A) (A) (A) (A) (A)
                 (A) (A) (A) (A) (A) (A) (A) (A) (A) (A) (A) (A)
                 (A) (A) (A) (A) (A) (A) (A) (A) (A) (A) (A) (A)
                 (A) (A) (A) (A) (A) (A) (A) (A) (A) (A) (A) (A)
                 (A) (A) (A) (A) (A) (A) (A) (A) (A) (A) (A) (A)
                 (A) (A) (A) (A) (A) (A) (A) (A) (A) (A) (A) (A)
                 (A) (A) (A) (A) (A) (A) (A) (A) (A) (A) (A) (A)
                 (A) (A) (A) (A) (A) (A) (A) (A) (A) (A) (A) (A)
                 (A) (A) (A) (A) (A) (A) (A) (A) (A) (A) (A) (A)
                 (A) (A) (A) (A) (A) (A) (A) (A) (A) (A) (A) (A)
                 (A) (A) (A) (A) (A) (A) (A) (A) (A) (A) (A) (A)
                 (A) (A) (A) (A) (A) (A) (A) (A) (A) (A) (A) (A)
                 (A) (A) (A) (A) (A) (A) (A) (A) (A) (A) (A) (A)
                 (A) (A) (A) (A) (A) (A) (A) (A) (A) (A) (A) (A)
                 (A) (A) (A) (A) (A) (A) (A) (A) (A) (A) (A) (A)
                 (A) (A) (A) (A) (A) (A) (A) (A) (A) (A) (A) (A)
                 (A) (A) (A) (A) (A) (A) (A) (A) (A) (A) (A) (A)
                 (A) (A) (A) (A) (A) (A) (A) (A) (A) (A) (A) (A)
                 (A) (A) (A) (A) (A) (A) (A) (A) (A) (A) (A) (A)
 The electronic state is 1-A.
 Alpha  occ. eigenvalues --  -10.21926 -10.20820 -10.20645 -10.20452 -10.20347
 Alpha  occ. eigenvalues --  -10.20282 -10.20137 -10.20119 -10.20043 -10.20017
 Alpha  occ. eigenvalues --  -10.19719 -10.19554 -10.19506 -10.19376 -10.19310
 Alpha  occ. eigenvalues --  -10.19257 -10.19127 -10.19029 -10.19025 -10.18948
 Alpha  occ. eigenvalues --  -10.18910 -10.18609 -10.18591 -10.18570 -10.18540
 Alpha  occ. eigenvalues --  -10.18467 -10.18390 -10.18374 -10.18157 -10.18130
 Alpha  occ. eigenvalues --  -10.18121 -10.18114 -10.17703 -10.17702 -10.17669
 Alpha  occ. eigenvalues --  -10.17617 -10.17459 -10.17459 -10.17390 -10.17269
 Alpha  occ. eigenvalues --   -0.85195  -0.84941  -0.83968  -0.83544  -0.82351
 Alpha  occ. eigenvalues --   -0.81612  -0.79057  -0.78686  -0.78037  -0.77391
 Alpha  occ. eigenvalues --   -0.77315  -0.75637  -0.74804  -0.72368  -0.71395
 Alpha  occ. eigenvalues --   -0.70440  -0.68854  -0.68223  -0.68101  -0.67623
 Alpha  occ. eigenvalues --   -0.67485  -0.67073  -0.66785  -0.66676  -0.65851
 Alpha  occ. eigenvalues --   -0.62399  -0.61598  -0.59661  -0.58730  -0.57218
 Alpha  occ. eigenvalues --   -0.56448  -0.55986  -0.55245  -0.53881  -0.52410
 Alpha  occ. eigenvalues --   -0.52073  -0.51620  -0.50546  -0.50344  -0.49255
 Alpha  occ. eigenvalues --   -0.48668  -0.47779  -0.46773  -0.46731  -0.46174
 Alpha  occ. eigenvalues --   -0.45783  -0.45614  -0.45328  -0.45005  -0.44082
 Alpha  occ. eigenvalues --   -0.43587  -0.43221  -0.43064  -0.42678  -0.42409
 Alpha  occ. eigenvalues --   -0.42356  -0.42079  -0.41137  -0.41042  -0.40724
 Alpha  occ. eigenvalues --   -0.40306  -0.40085  -0.39768  -0.39437  -0.39062
 Alpha  occ. eigenvalues --   -0.39024  -0.38684  -0.38571  -0.38106  -0.37726
 Alpha  occ. eigenvalues --   -0.37517  -0.37272  -0.36859  -0.36753  -0.36474
 Alpha  occ. eigenvalues --   -0.36419  -0.36071  -0.35649  -0.35541  -0.35256
 Alpha  occ. eigenvalues --   -0.34764  -0.34602  -0.34003  -0.33823  -0.33642
 Alpha  occ. eigenvalues --   -0.33532  -0.33483  -0.33270  -0.32916  -0.32428
 Alpha  occ. eigenvalues --   -0.32238  -0.31531  -0.31207  -0.31038  -0.30684
 Alpha  occ. eigenvalues --   -0.30422  -0.29732  -0.29674  -0.29195  -0.28139
 Alpha  occ. eigenvalues --   -0.27649  -0.27514  -0.26712  -0.24085  -0.22645
 Alpha  occ. eigenvalues --   -0.21492  -0.19022  -0.17494
 Alpha virt. eigenvalues --   -0.07614  -0.05358  -0.01736   0.00715   0.02290
 Alpha virt. eigenvalues --    0.04155   0.05590   0.05798   0.06789   0.06804
 Alpha virt. eigenvalues --    0.07517   0.07624   0.07775   0.08176   0.08591
 Alpha virt. eigenvalues --    0.08696   0.09266   0.09846   0.09911   0.10174
 Alpha virt. eigenvalues --    0.10865   0.11012   0.11299   0.11561   0.11773
 Alpha virt. eigenvalues --    0.12080   0.12272   0.12429   0.12539   0.12844
 Alpha virt. eigenvalues --    0.13619   0.13931   0.14027   0.14086   0.14120
 Alpha virt. eigenvalues --    0.14462   0.14784   0.14878   0.14997   0.15648
 Alpha virt. eigenvalues --    0.15824   0.16249   0.16514   0.16931   0.17287
 Alpha virt. eigenvalues --    0.17350   0.17653   0.18046   0.18254   0.18413
 Alpha virt. eigenvalues --    0.18995   0.19040   0.19080   0.19368   0.19504
 Alpha virt. eigenvalues --    0.19697   0.19822   0.20108   0.20523   0.20775
 Alpha virt. eigenvalues --    0.21123   0.21490   0.21600   0.21728   0.21999
 Alpha virt. eigenvalues --    0.22379   0.22759   0.23210   0.23417   0.23502
 Alpha virt. eigenvalues --    0.23891   0.23963   0.24223   0.24663   0.24983
 Alpha virt. eigenvalues --    0.25301   0.25714   0.26278   0.26747   0.27591
 Alpha virt. eigenvalues --    0.27803   0.28089   0.28916   0.29391   0.29805
 Alpha virt. eigenvalues --    0.30194   0.30957   0.31212   0.32233   0.34411
 Alpha virt. eigenvalues --    0.34631   0.35082   0.36167   0.37448   0.37541
 Alpha virt. eigenvalues --    0.38182   0.39175   0.39771   0.41369   0.41646
 Alpha virt. eigenvalues --    0.42596   0.43251   0.44643   0.45152   0.45675
 Alpha virt. eigenvalues --    0.46400   0.48144   0.48223   0.49513   0.49546
 Alpha virt. eigenvalues --    0.50120   0.50369   0.50497   0.51035   0.51254
 Alpha virt. eigenvalues --    0.51767   0.52071   0.52318   0.52627   0.53220
 Alpha virt. eigenvalues --    0.53565   0.53674   0.53954   0.54055   0.54403
 Alpha virt. eigenvalues --    0.55016   0.55085   0.55692   0.55876   0.56032
 Alpha virt. eigenvalues --    0.56354   0.56440   0.57310   0.57487   0.57614
 Alpha virt. eigenvalues --    0.57932   0.58101   0.58385   0.58909   0.59053
 Alpha virt. eigenvalues --    0.59344   0.60167   0.60618   0.61025   0.61072
 Alpha virt. eigenvalues --    0.61330   0.61782   0.62205   0.62671   0.62861
 Alpha virt. eigenvalues --    0.63059   0.63473   0.64016   0.64321   0.64403
 Alpha virt. eigenvalues --    0.64607   0.65063   0.65415   0.65740   0.66023
 Alpha virt. eigenvalues --    0.66215   0.66895   0.67367   0.67398   0.67627
 Alpha virt. eigenvalues --    0.67693   0.68032   0.68592   0.69479   0.69677
 Alpha virt. eigenvalues --    0.69961   0.70028   0.71021   0.71497   0.71619
 Alpha virt. eigenvalues --    0.71888   0.72736   0.73426   0.73503   0.73745
 Alpha virt. eigenvalues --    0.74024   0.74256   0.74675   0.75160   0.75606
 Alpha virt. eigenvalues --    0.75808   0.76146   0.76418   0.76592   0.77270
 Alpha virt. eigenvalues --    0.77859   0.78014   0.78210   0.78919   0.79158
 Alpha virt. eigenvalues --    0.79793   0.80052   0.80317   0.80538   0.80761
 Alpha virt. eigenvalues --    0.80940   0.81146   0.81213   0.81569   0.82081
 Alpha virt. eigenvalues --    0.82380   0.82692   0.82953   0.83341   0.83509
 Alpha virt. eigenvalues --    0.83938   0.84320   0.84721   0.84959   0.85462
 Alpha virt. eigenvalues --    0.85507   0.85736   0.86280   0.86560   0.86618
 Alpha virt. eigenvalues --    0.86795   0.87125   0.87216   0.87332   0.87470
 Alpha virt. eigenvalues --    0.88387   0.88800   0.89222   0.89625   0.89769
 Alpha virt. eigenvalues --    0.90223   0.90462   0.90668   0.91131   0.91335
 Alpha virt. eigenvalues --    0.91808   0.91838   0.91912   0.92243   0.92415
 Alpha virt. eigenvalues --    0.93036   0.93423   0.93690   0.93803   0.94566
 Alpha virt. eigenvalues --    0.94833   0.95052   0.95766   0.95976   0.96056
 Alpha virt. eigenvalues --    0.96183   0.96777   0.97213   0.97444   0.97548
 Alpha virt. eigenvalues --    0.98101   0.98532   0.98867   0.99360   0.99733
 Alpha virt. eigenvalues --    1.00104   1.00337   1.00702   1.01396   1.02326
 Alpha virt. eigenvalues --    1.02727   1.03072   1.03322   1.03759   1.04449
 Alpha virt. eigenvalues --    1.05871   1.06383   1.07411   1.07524   1.08046
 Alpha virt. eigenvalues --    1.08390   1.09206   1.10554   1.10975   1.11694
 Alpha virt. eigenvalues --    1.12094   1.12492   1.13398   1.14261   1.14562
 Alpha virt. eigenvalues --    1.16606   1.17287   1.18240   1.19354   1.20321
 Alpha virt. eigenvalues --    1.21213   1.21708   1.22420   1.23416   1.23782
 Alpha virt. eigenvalues --    1.24738   1.25655   1.26149   1.26308   1.27016
 Alpha virt. eigenvalues --    1.28156   1.29081   1.30038   1.30314   1.32166
 Alpha virt. eigenvalues --    1.32649   1.32754   1.33523   1.33780   1.34906
 Alpha virt. eigenvalues --    1.35054   1.36085   1.37285   1.38038   1.38716
 Alpha virt. eigenvalues --    1.38964   1.39410   1.40505   1.40633   1.40812
 Alpha virt. eigenvalues --    1.41924   1.42123   1.42710   1.43095   1.44310
 Alpha virt. eigenvalues --    1.45129   1.46608   1.46930   1.48576   1.49046
 Alpha virt. eigenvalues --    1.50223   1.51583   1.51880   1.52386   1.52606
 Alpha virt. eigenvalues --    1.53094   1.54081   1.54653   1.55350   1.57299
 Alpha virt. eigenvalues --    1.57571   1.57841   1.58110   1.59031   1.59893
 Alpha virt. eigenvalues --    1.62561   1.62615   1.64010   1.64117   1.65007
 Alpha virt. eigenvalues --    1.65359   1.65555   1.66805   1.68643   1.68940
 Alpha virt. eigenvalues --    1.69899   1.70257   1.71071   1.71747   1.71924
 Alpha virt. eigenvalues --    1.72107   1.72579   1.72833   1.74198   1.74445
 Alpha virt. eigenvalues --    1.75083   1.75635   1.75702   1.76995   1.77317
 Alpha virt. eigenvalues --    1.78155   1.78195   1.78561   1.78915   1.79343
 Alpha virt. eigenvalues --    1.79733   1.80227   1.80587   1.80845   1.81537
 Alpha virt. eigenvalues --    1.82062   1.82353   1.82930   1.83185   1.83746
 Alpha virt. eigenvalues --    1.84231   1.84428   1.84676   1.85086   1.85566
 Alpha virt. eigenvalues --    1.85607   1.86700   1.87149   1.87399   1.87508
 Alpha virt. eigenvalues --    1.88244   1.88622   1.88701   1.89044   1.89644
 Alpha virt. eigenvalues --    1.90063   1.90434   1.90809   1.91038   1.91922
 Alpha virt. eigenvalues --    1.92129   1.92536   1.92922   1.93599   1.94450
 Alpha virt. eigenvalues --    1.94567   1.95118   1.95698   1.96282   1.96496
 Alpha virt. eigenvalues --    1.96650   1.97124   1.97978   1.98320   1.98751
 Alpha virt. eigenvalues --    1.98971   1.99132   2.00097   2.00493   2.00944
 Alpha virt. eigenvalues --    2.01067   2.01168   2.01583   2.01740   2.02501
 Alpha virt. eigenvalues --    2.02799   2.03071   2.04034   2.04274   2.04414
 Alpha virt. eigenvalues --    2.05303   2.05512   2.06046   2.06884   2.07256
 Alpha virt. eigenvalues --    2.07924   2.08225   2.08287   2.08899   2.09313
 Alpha virt. eigenvalues --    2.09493   2.09638   2.10164   2.10669   2.11340
 Alpha virt. eigenvalues --    2.11605   2.12054   2.12671   2.13164   2.13427
 Alpha virt. eigenvalues --    2.14673   2.14997   2.15371   2.15492   2.16429
 Alpha virt. eigenvalues --    2.16536   2.16747   2.17409   2.18700   2.19215
 Alpha virt. eigenvalues --    2.19786   2.20367   2.20678   2.20776   2.20887
 Alpha virt. eigenvalues --    2.21397   2.22055   2.23072   2.23156   2.23482
 Alpha virt. eigenvalues --    2.23976   2.24296   2.24501   2.24886   2.25656
 Alpha virt. eigenvalues --    2.26521   2.26724   2.27509   2.28311   2.29125
 Alpha virt. eigenvalues --    2.29951   2.30376   2.31025   2.31073   2.31330
 Alpha virt. eigenvalues --    2.31415   2.32144   2.32821   2.32956   2.33296
 Alpha virt. eigenvalues --    2.33686   2.34041   2.34285   2.35140   2.35505
 Alpha virt. eigenvalues --    2.35784   2.36242   2.36399   2.37184   2.37578
 Alpha virt. eigenvalues --    2.38131   2.38551   2.38631   2.39015   2.39182
 Alpha virt. eigenvalues --    2.39516   2.40383   2.40635   2.41071   2.41549
 Alpha virt. eigenvalues --    2.41932   2.42211   2.43174   2.43485   2.43711
 Alpha virt. eigenvalues --    2.44399   2.45064   2.45999   2.46702   2.47214
 Alpha virt. eigenvalues --    2.48204   2.48607   2.48764   2.49274   2.49580
 Alpha virt. eigenvalues --    2.49656   2.50575   2.50797   2.51229   2.51606
 Alpha virt. eigenvalues --    2.52114   2.52471   2.53334   2.53894   2.54490
 Alpha virt. eigenvalues --    2.54887   2.55336   2.55882   2.56372   2.56752
 Alpha virt. eigenvalues --    2.57278   2.57785   2.58388   2.58427   2.58949
 Alpha virt. eigenvalues --    2.59167   2.59437   2.59934   2.60242   2.60696
 Alpha virt. eigenvalues --    2.61240   2.61553   2.61832   2.62556   2.62884
 Alpha virt. eigenvalues --    2.63086   2.64000   2.64428   2.64707   2.65491
 Alpha virt. eigenvalues --    2.65581   2.65700   2.66312   2.67143   2.67662
 Alpha virt. eigenvalues --    2.67766   2.68784   2.69196   2.69668   2.70266
 Alpha virt. eigenvalues --    2.70756   2.71056   2.71472   2.72064   2.72787
 Alpha virt. eigenvalues --    2.72948   2.73180   2.73693   2.74241   2.75406
 Alpha virt. eigenvalues --    2.75613   2.75781   2.76922   2.77814   2.78151
 Alpha virt. eigenvalues --    2.78741   2.79202   2.79905   2.80473   2.80808
 Alpha virt. eigenvalues --    2.81656   2.82183   2.82510   2.83411   2.83663
 Alpha virt. eigenvalues --    2.85170   2.86003   2.86416   2.87403   2.87651
 Alpha virt. eigenvalues --    2.88063   2.88675   2.88764   2.89527   2.90490
 Alpha virt. eigenvalues --    2.90590   2.90915   2.91830   2.92234   2.92300
 Alpha virt. eigenvalues --    2.93294   2.93950   2.94543   2.94900   2.95719
 Alpha virt. eigenvalues --    2.96369   2.96730   2.98683   2.99527   3.00166
 Alpha virt. eigenvalues --    3.02494   3.02996   3.03889   3.05615   3.05994
 Alpha virt. eigenvalues --    3.06661   3.09083   3.09246   3.09359   3.12784
 Alpha virt. eigenvalues --    3.13348   3.13610   3.14027   3.14326   3.15768
 Alpha virt. eigenvalues --    3.16747   3.16958   3.18005   3.18992   3.21058
 Alpha virt. eigenvalues --    3.21620   3.22199   3.23379   3.23672   3.24646
 Alpha virt. eigenvalues --    3.24659   3.26448   3.27498   3.28060   3.29501
 Alpha virt. eigenvalues --    3.29510   3.31119   3.31374   3.32931   3.34441
 Alpha virt. eigenvalues --    3.34957   3.36059   3.37173   3.40130   3.40311
 Alpha virt. eigenvalues --    3.42123   3.43758   3.44865   3.45532   3.46645
 Alpha virt. eigenvalues --    3.47028   3.47515   3.48522   3.48704   3.49050
 Alpha virt. eigenvalues --    3.49548   3.50116   3.52457   3.53513   3.54427
 Alpha virt. eigenvalues --    3.55366   3.57506   3.57679   3.58343   3.59032
 Alpha virt. eigenvalues --    3.59900   3.63002   3.64503   3.66059   3.67431
 Alpha virt. eigenvalues --    3.69055   3.83100   4.11139   4.12117   4.13330
 Alpha virt. eigenvalues --    4.14864   4.15732   4.18110   4.18614   4.19266
 Alpha virt. eigenvalues --    4.21419   4.24244   4.27599   4.28737   4.30771
 Alpha virt. eigenvalues --    4.33407   4.35129   4.37714   4.38404   4.40832
 Alpha virt. eigenvalues --    4.42555   4.43785   4.47369   4.48106   4.48836
 Alpha virt. eigenvalues --    4.50537   4.51830   4.54014   4.54815   4.56263
 Alpha virt. eigenvalues --    4.59226   4.61743   4.63752   4.66895   4.68372
 Alpha virt. eigenvalues --    4.70700   4.71792   4.73678   4.76275   4.78879
 Alpha virt. eigenvalues --    4.81085   4.81717
          Condensed to atoms (all electrons):
 Mulliken charges:
               1
     1  C   -0.023903
     2  C    0.016720
     3  C   -0.161208
     4  C   -0.167578
     5  C   -0.191512
     6  C   -0.183893
     7  C    0.093501
     8  C    0.062405
     9  C   -0.216105
    10  C   -0.205991
    11  C    0.066474
    12  C    0.032242
    13  C   -0.299844
    14  C   -0.307407
    15  C   -0.299658
    16  C   -0.276806
    17  C   -0.129508
    18  C   -0.159698
    19  C   -0.381570
    20  C   -0.364544
    21  C   -0.078083
    22  C   -0.046375
    23  C    0.099867
    24  C    0.114617
    25  C   -0.358038
    26  C   -0.372841
    27  C   -0.096672
    28  C   -0.123493
    29  C   -0.103312
    30  C   -0.068418
    31  C   -0.098730
    32  C   -0.124695
    33  C    0.141080
    34  C    0.120170
    35  C   -0.372900
    36  C   -0.366440
    37  C   -0.128240
    38  C   -0.122068
    39  C   -0.076195
    40  C   -0.097700
    41  H    0.092876
    42  H    0.054167
    43  H    0.090798
    44  H    0.074795
    45  H    0.076074
    46  H    0.111725
    47  H    0.078449
    48  H    0.084187
    49  H    0.095359
    50  H    0.115024
    51  H    0.111519
    52  H    0.100299
    53  H    0.103923
    54  H    0.096250
    55  H    0.086045
    56  H    0.099262
    57  H    0.109981
    58  H    0.092551
    59  H    0.093050
    60  H    0.090597
    61  H    0.095998
    62  H    0.115491
    63  H    0.077309
    64  H    0.068708
    65  H    0.085281
    66  H    0.062937
    67  H    0.105348
    68  H    0.098122
    69  H    0.110901
    70  H    0.128582
    71  H    0.130295
    72  H    0.098892
    73  H    0.076575
    74  H    0.078134
    75  H    0.106761
    76  H    0.091032
    77  H    0.095743
    78  H    0.099868
    79  H    0.136147
    80  H    0.107808
    81  H    0.080463
    82  H    0.067790
    83  H    0.094014
    84  H    0.061155
    85  H    0.090171
    86  H    0.056371
    87  H    0.083393
    88  H    0.109132
    89  H    0.139120
    90  H    0.137902
    91  H    0.134992
    92  H    0.088288
    93  H    0.068114
    94  H    0.076506
    95  H    0.064233
    96  H    0.077843
 Sum of Mulliken charges =  -0.00000
 Mulliken charges with hydrogens summed into heavy atoms:
               1
     1  C   -0.023903
     2  C    0.016720
     3  C   -0.014164
     4  C   -0.001986
     5  C   -0.003713
     6  C   -0.021258
     7  C    0.093501
     8  C    0.062405
     9  C   -0.005722
    10  C    0.005828
    11  C    0.066474
    12  C    0.032242
    13  C   -0.013627
    14  C   -0.005612
    15  C   -0.020013
    16  C   -0.015298
    17  C   -0.044227
    18  C   -0.096761
    19  C   -0.067199
    20  C   -0.006775
    21  C   -0.001508
    22  C    0.031759
    23  C    0.099867
    24  C    0.114617
    25  C   -0.064501
    26  C   -0.029018
    27  C   -0.016210
    28  C   -0.055703
    29  C   -0.009299
    30  C   -0.007264
    31  C   -0.008559
    32  C   -0.068324
    33  C    0.141080
    34  C    0.120170
    35  C   -0.041255
    36  C   -0.005259
    37  C   -0.060125
    38  C   -0.045562
    39  C   -0.011962
    40  C   -0.019857
 Electronic spatial extent (au):  <R**2>=          95542.2459
 Charge=             -0.0000 electrons
 Dipole moment (field-independent basis, Debye):
    X=              0.1545    Y=              0.3808    Z=             -0.1984  Tot=              0.4564
 Quadrupole moment (field-independent basis, Debye-Ang):
   XX=           -234.2328   YY=           -235.1500   ZZ=           -255.9971
   XY=              9.6276   XZ=              0.1230   YZ=             -3.4914
 Traceless Quadrupole moment (field-independent basis, Debye-Ang):
   XX=              7.5605   YY=              6.6433   ZZ=            -14.2038
   XY=              9.6276   XZ=              0.1230   YZ=             -3.4914
 Octapole moment (field-independent basis, Debye-Ang**2):
  XXX=             37.3374  YYY=             -2.4895  ZZZ=             -2.1341  XYY=             20.0401
  XXY=             32.7934  XXZ=            -27.9932  XZZ=             11.7183  YZZ=              3.2963
  YYZ=              4.0084  XYZ=              6.1448
 Hexadecapole moment (field-independent basis, Debye-Ang**3):
 XXXX=        -125627.6907 YYYY=          -4370.3867 ZZZZ=          -1516.8562 XXXY=           2002.7120
 XXXZ=           -457.7079 YYYX=            125.2340 YYYZ=            -19.9331 ZZZX=             53.5665
 ZZZY=             -2.4115 XXYY=         -21536.3509 XXZZ=         -21900.7131 YYZZ=           -998.5446
 XXYZ=           -139.4106 YYXZ=              8.5911 ZZXY=             50.1184
 N-N= 3.673657425076D+03 E-N=-1.094684664988D+04  KE= 1.540893424818D+03
 1\1\GINC-RYZEN-SSD1\SP\RB3LYP TD-FC\6-31G(d,p)\C40H56\PADAWAN\27-Jul-2
 019\0\\# td=(NStates=1) B3LYP/6-31G(d,p)\\TD\\0,1\C,0,12.1596503076,0.
 545635164,-0.7083169506\C,0,-12.1279951136,-0.0603210737,0.7906382427\
 C,0,13.3992793406,-0.3437240324,-0.6624522442\C,0,-13.1119676967,1.156
 5200435,1.1621869331\C,0,13.1505073649,-1.806756348,-0.6148332421\C,0,
 -13.3824728434,2.0284413562,0.0314935165\C,0,11.0453963335,0.046958960
 4,0.1841459524\C,0,-11.0302106889,0.4409739797,-0.1497926141\C,0,12.24
 85492923,-2.175119806,0.5943634126\C,0,-12.140243907,2.6712774359,-0.4
 722355595\C,0,11.2118808961,-1.1511671712,0.8305296214\C,0,-11.0517399
 682,1.6751731391,-0.743083182\C,0,11.7041009978,0.6063917643,-2.314429
 9216\C,0,12.4889223056,2.051669222,-0.2746389829\C,0,-12.9836159524,-1
 .0886459833,0.0485086808\C,0,-11.6576546335,-0.7159347671,2.0661547637
 \C,0,9.8781758802,0.876543768,0.3965216527\C,0,-9.8966994768,-0.567199
 262,-0.3388279706\C,0,10.1751616925,-1.6651863303,1.8233449694\C,0,-9.
 953758346,2.0435660957,-1.7641978847\C,0,8.6218384235,0.4375437106,0.3
 553637426\C,0,-8.5805210105,-0.2660464699,-0.145550878\C,0,7.409919560
 2,1.2344622465,0.5697795906\C,0,-7.5338822821,-1.2732758027,-0.2709774
 946\C,0,7.6332063703,2.7087235096,0.9411765547\C,0,-7.9187690651,-2.69
 88899001,-0.5225495326\C,0,6.1264765492,0.6904134303,0.3082429833\C,0,
 -6.2588544953,-0.9149123138,-0.1803101427\C,0,4.8989205428,1.409933325
 2,0.3594356026\C,0,-5.0674763594,-1.6755735352,-0.2491863002\C,0,3.736
 8823998,0.6925268179,0.1287448238\C,0,-3.7899743826,-1.1920798407,-0.2
 337158093\C,0,2.3854718486,1.3140021079,0.1526097489\C,0,-2.467825782,
 -1.8140264613,-0.3793912192\C,0,2.2164560172,2.7968990564,0.3152258959
 \C,0,-2.5401045559,-3.313614888,-0.6665080009\C,0,1.2966712156,0.55825
 71673,0.0970946265\C,0,-1.3691950926,-1.1410826803,-0.1810968148\C,0,1
 .136408013,-0.8431992671,-0.0852460443\C,0,0.0713276724,-1.6158978296,
 -0.1999137474\H,0,14.018311937,0.1393963691,0.1129193348\H,0,14.180915
 1053,-0.1548938651,-1.5972532637\H,0,-12.5732736924,1.7505074409,1.834
 6970345\H,0,-14.1147923368,0.7162811204,1.5607325114\H,0,14.1807186939
 ,-2.3648873064,-0.5927927251\H,0,12.673543236,-2.1850324032,-1.4634924
 725\H,0,-14.2170150897,2.6966730273,0.4222932669\H,0,-13.9540301868,1.
 3946391381,-0.7252865508\H,0,12.9516671305,-2.1629187985,1.5128331653\
 H,0,11.9989073452,-3.1877924713,0.4325301086\H,0,-12.0079605882,3.3600
 737281,0.3269292099\H,0,-12.1899152054,3.2613596438,-1.3169755988\H,0,
 11.5577891494,-0.4587889562,-2.5934474774\H,0,12.6060774884,0.96423108
 44,-2.8997365477\H,0,10.7778253538,1.3672098327,-2.4688676063\H,0,12.8
 858995441,2.0280497069,0.7986972102\H,0,11.6579141983,2.706170528,-0.4
 954637034\H,0,13.2364254988,2.3175020201,-1.0851407852\H,0,-13.8160808
 388,-0.7926232713,-0.6459106918\H,0,-13.6575879314,-1.5843742416,0.820
 6792886\H,0,-12.2744750507,-1.7187602809,-0.6179476773\H,0,-11.0006825
 592,-0.2788535248,2.6032299821\H,0,-11.3318997154,-1.8498059813,1.8533
 393501\H,0,-12.5381278768,-0.7887133392,2.8828768158\H,0,9.9554289495,
 1.9861834784,0.7356394718\H,0,-10.0532497697,-1.852920402,-0.230259403
 9\H,0,9.4577498525,-0.9476523599,2.3197457322\H,0,10.7324640605,-1.993
 8655845,2.7185532853\H,0,9.2687589431,-2.2716170117,1.5925488765\H,0,-
 9.5496720025,1.0861209247,-2.3432068176\H,0,-9.5319780027,2.8430078228
 ,-1.2520952557\H,0,-10.4077310381,2.5759425997,-2.6026402373\H,0,8.514
 8470755,-0.6195127315,0.2271257622\H,0,-8.2746908643,0.6885230464,0.02
 71590634\H,0,7.7893921713,2.9002150574,2.15207459\H,0,6.7338152622,3.4
 299907033,0.5797405538\H,0,8.5746317009,3.1229109531,0.2453013072\H,0,
 -8.4412550777,-2.7475718163,-1.6005667503\H,0,-8.5115721455,-3.1872419
 115,0.1414102803\H,0,-6.9857831309,-3.1291455659,-0.688397725\H,0,6.22
 23130958,-0.3341686437,0.1753655199\H,0,-5.9343754221,0.133655304,0.11
 71314363\H,0,4.8118845458,2.4860770518,0.8628091877\H,0,-5.2281629166,
 -2.8455380702,-0.3468568268\H,0,3.6212523919,-0.364180988,-0.270527414
 3\H,0,-3.9647441056,-0.0002236925,-0.015763443\H,0,2.9369843978,3.3901
 19408,1.1099896543\H,0,1.0906862694,3.0414048723,0.5389736249\H,0,2.78
 60356624,3.2173022037,-0.4598999596\H,0,-3.1029021598,-3.3449028462,-1
 .5241574265\H,0,-3.0890605119,-3.8331653094,0.0256672181\H,0,-1.467667
 7381,-3.8410944438,-0.938696096\H,0,0.3248548863,1.0936352787,0.169717
 617\H,0,-1.2823193205,-0.0197039832,-0.115129239\H,0,2.1854170862,-1.3
 943184815,-0.0108406483\H,0,0.2065111619,-2.6740424465,-0.2781286738\\
 Version=ES64L-G16RevA.03\State=1-A\HF=-1557.5624098\RMSD=9.140e-09\PG=
 C01 [X(C40H56)]\\@


 RESEARCH IS WHAT I AM DOING WHEN I DON'T KNOW WHAT I AM DOING.
     -- WERNER VON BRAUN
 Job cpu time:       0 days  9 hours 33 minutes 22.4 seconds.
 Elapsed time:       0 days  2 hours 24 minutes 10.0 seconds.
 File lengths (MBytes):  RWF=   2884 Int=      0 D2E=      0 Chk=     79 Scr=      1
 Normal termination of Gaussian 16 at Sat Jul 27 13:57:44 2019.
