 Entering Gaussian System, Link 0=g16
 Input=Geometria-41-.com
 Output=Geometria-41-.log
 Initial command:
 /usr/local/g16/l1.exe "/home/padawan/israel-mol/b-caroten/spectra/abs/Gau-57174.inp" -scrdir="/home/padawan/israel-mol/b-caroten/spectra/abs/"
 Entering Link 1 = /usr/local/g16/l1.exe PID=     57325.
  
 Copyright (c) 1988,1990,1992,1993,1995,1998,2003,2009,2016,
            Gaussian, Inc.  All Rights Reserved.
  
 This is part of the Gaussian(R) 16 program.  It is based on
 the Gaussian(R) 09 system (copyright 2009, Gaussian, Inc.),
 the Gaussian(R) 03 system (copyright 2003, Gaussian, Inc.),
 the Gaussian(R) 98 system (copyright 1998, Gaussian, Inc.),
 the Gaussian(R) 94 system (copyright 1995, Gaussian, Inc.),
 the Gaussian 92(TM) system (copyright 1992, Gaussian, Inc.),
 the Gaussian 90(TM) system (copyright 1990, Gaussian, Inc.),
 the Gaussian 88(TM) system (copyright 1988, Gaussian, Inc.),
 the Gaussian 86(TM) system (copyright 1986, Carnegie Mellon
 University), and the Gaussian 82(TM) system (copyright 1983,
 Carnegie Mellon University). Gaussian is a federally registered
 trademark of Gaussian, Inc.
  
 This software contains proprietary and confidential information,
 including trade secrets, belonging to Gaussian, Inc.
  
 This software is provided under written license and may be
 used, copied, transmitted, or stored only in accord with that
 written license.
  
 The following legend is applicable only to US Government
 contracts under FAR:
  
                    RESTRICTED RIGHTS LEGEND
  
 Use, reproduction and disclosure by the US Government is
 subject to restrictions as set forth in subparagraphs (a)
 and (c) of the Commercial Computer Software - Restricted
 Rights clause in FAR 52.227-19.
  
 Gaussian, Inc.
 340 Quinnipiac St., Bldg. 40, Wallingford CT 06492
  
  
 ---------------------------------------------------------------
 Warning -- This program may not be used in any manner that
 competes with the business of Gaussian, Inc. or will provide
 assistance to any competitor of Gaussian, Inc.  The licensee
 of this program is prohibited from giving any competitor of
 Gaussian, Inc. access to this program.  By using this program,
 the user acknowledges that Gaussian, Inc. is engaged in the
 business of creating and licensing software in the field of
 computational chemistry and represents and warrants to the
 licensee that it is not a competitor of Gaussian, Inc. and that
 it will not use this program in any manner prohibited above.
 ---------------------------------------------------------------
  

 Cite this work as:
 Gaussian 16, Revision A.03,
 M. J. Frisch, G. W. Trucks, H. B. Schlegel, G. E. Scuseria, 
 M. A. Robb, J. R. Cheeseman, G. Scalmani, V. Barone, 
 G. A. Petersson, H. Nakatsuji, X. Li, M. Caricato, A. V. Marenich, 
 J. Bloino, B. G. Janesko, R. Gomperts, B. Mennucci, H. P. Hratchian, 
 J. V. Ortiz, A. F. Izmaylov, J. L. Sonnenberg, D. Williams-Young, 
 F. Ding, F. Lipparini, F. Egidi, J. Goings, B. Peng, A. Petrone, 
 T. Henderson, D. Ranasinghe, V. G. Zakrzewski, J. Gao, N. Rega, 
 G. Zheng, W. Liang, M. Hada, M. Ehara, K. Toyota, R. Fukuda, 
 J. Hasegawa, M. Ishida, T. Nakajima, Y. Honda, O. Kitao, H. Nakai, 
 T. Vreven, K. Throssell, J. A. Montgomery, Jr., J. E. Peralta, 
 F. Ogliaro, M. J. Bearpark, J. J. Heyd, E. N. Brothers, K. N. Kudin, 
 V. N. Staroverov, T. A. Keith, R. Kobayashi, J. Normand, 
 K. Raghavachari, A. P. Rendell, J. C. Burant, S. S. Iyengar, 
 J. Tomasi, M. Cossi, J. M. Millam, M. Klene, C. Adamo, R. Cammi, 
 J. W. Ochterski, R. L. Martin, K. Morokuma, O. Farkas, 
 J. B. Foresman, and D. J. Fox, Gaussian, Inc., Wallingford CT, 2016.
 
 ******************************************
 Gaussian 16:  ES64L-G16RevA.03 25-Dec-2016
                24-Jul-2019 
 ******************************************
 %nproc=4
 Will use up to    4 processors via shared memory.
 %Mem=2GB
 ---------------------------------
 # td=(NStates=1) B3LYP/6-31G(d,p)
 ---------------------------------
 1/38=1,172=1/1;
 2/12=2,17=6,18=5,40=1/2;
 3/5=1,6=6,7=101,11=9,25=1,30=1,74=-5/1,2,3,8;
 4//1;
 5/5=2,38=5/2;
 8/6=1,10=2,108=1/1;
 9/41=1,42=1,70=2/14;
 6/7=2,8=2,9=2,10=2/1;
 99/5=1,9=1/99;
 --
 TD
 --
 Symbolic Z-matrix:
 Charge =  0 Multiplicity = 1
 6                     12.06617   0.51281  -0.842 
 6                    -12.0874   0.01839   0.81184 
 6                     13.42703  -0.2935   -0.73122 
 6                    -13.05722   1.13792   1.23241 
 6                     13.21378  -1.79788  -0.57872 
 6                    -13.47647   1.99666  -0.00277 
 6                     11.02993  -0.02218   0.12871 
 6                    -11.00991   0.47535  -0.21293 
 6                     12.35162  -2.15196   0.66962 
 6                    -12.18365   2.56368  -0.60522 
 6                     11.19614  -1.20559   0.83089 
 6                    -11.02913   1.61714  -0.88849 
 6                     11.59471   0.62462  -2.27839 
 6                     12.55036   1.92316  -0.354 
 6                    -12.8313  -1.11029   0.17847 
 6                    -11.50656  -0.60204   2.15895 
 6                     9.83957   0.80282   0.34584 
 6                    -9.99976  -0.54706  -0.30813 
 6                     10.15622  -1.75376   1.75212 
 6                    -9.96659   2.08458  -1.75265 
 6                     8.53536   0.48688   0.33193 
 6                    -8.62254  -0.3599   -0.23039 
 6                     7.41998   1.37212   0.46418 
 6                    -7.55468  -1.39477  -0.39007 
 6                     7.70528   2.84875   0.80754 
 6                    -7.90388  -2.74705  -0.59301 
 6                     6.14499   0.81922   0.43364 
 6                    -6.28058  -0.87562  -0.35372 
 6                     4.83912   1.41839   0.5586 
 6                    -5.07074  -1.56377  -0.36529 
 6                     3.69766   0.72656   0.32528 
 6                    -3.78596  -1.04248  -0.2233 
 6                     2.38205   1.31043   0.43174 
 6                    -2.5229   -1.81831  -0.3243 
 6                     2.12076   2.85743   0.59977 
 6                    -2.56916  -3.3712   -0.5879 
 6                     1.24611   0.48689   0.16757 
 6                    -1.30949  -1.18274  -0.11928 
 6                     1.23222  -0.91203  -0.14823 
 6                     0.10219  -1.6738   -0.24456 
 1                     13.99743   0.0091    0.08393 
 1                     14.10097  -0.10897  -1.69087 
 1                    -12.5025   1.79424   1.92784 
 1                    -13.92392   0.63129   1.81518 
 1                     14.20581  -2.27701  -0.63534 
 1                     12.66993  -2.26802  -1.40013 
 1                    -14.3701   2.68491   0.23636 
 1                    -13.96953   1.49622  -0.87001 
 1                     13.02684  -2.01499   1.55848 
 1                     11.97861  -3.19342   0.52277 
 1                    -11.84513   3.43695  -0.07562 
 1                    -12.45394   3.18095  -1.46939 
 1                     11.22288  -0.3392   -2.78875 
 1                     12.38811   1.06993  -2.832 
 1                     10.59569   1.30695  -2.13274 
 1                     12.97429   2.02867   0.78932 
 1                     11.61282   2.6746   -0.32383 
 1                     13.16691   2.33761  -1.12487 
 1                    -13.65419  -0.59301  -0.64975 
 1                    -13.34217  -1.56794   0.87272 
 1                    -12.22129  -1.89301  -0.31359 
 1                    -10.96934   0.0862    2.73885 
 1                    -10.83908  -1.5035    1.87395 
 1                    -12.52567  -0.7662    2.85452 
 1                     9.86293   1.80801   0.5175 
 1                    -10.22896  -1.58039  -0.50079 
 1                     9.52551  -1.0094    2.13068 
 1                     10.53576  -2.33355   2.48219 
 1                     9.57601  -2.4713    1.06035 
 1                    -9.40883   1.32531  -2.1886 
 1                    -9.4159    3.05883  -1.30014 
 1                    -10.37234   2.6716   -2.69646 
 1                     8.27854  -0.58452  -0.2974 
 1                    -8.31624   0.59153   0.03648 
 1                     8.71531   2.80165   1.39996 
 1                     6.81444   3.47739   1.35176 
 1                     8.07047   3.42899  -0.0499 
 1                    -8.27926  -2.84551  -1.62142 
 1                    -8.62758  -2.97445   0.19302 
 1                    -6.84125  -3.52484  -0.43712 
 1                     6.0176   -0.31796   0.28707 
 1                    -6.2911    0.31117  -0.3188 
 1                     4.57008   2.59092   0.6558 
 1                    -5.16801  -2.63191  -0.51494 
 1                     3.95808  -0.21654   0.06198 
 1                    -3.57545   0.10844   0.10991 
 1                     2.56773   3.20738   1.62512 
 1                     1.08475   2.92694   0.43269 
 1                     2.98392   2.99531  -0.28837 
 1                    -2.86843  -3.80915  -1.50403 
 1                    -3.07264  -3.97298   0.20395 
 1                    -1.46602  -3.96425  -0.56209 
 1                     0.40454   1.08727   0.10096 
 1                    -1.37487  -0.23478   0.27735 
 1                     2.08344  -1.46484  -0.13456 
 1                     0.05614  -2.60492  -0.57955 
 
 Stoichiometry    C40H56
 Framework group  C1[X(C40H56)]
 Deg. of freedom   282
 Full point group                 C1      NOp   1
 Largest Abelian subgroup         C1      NOp   1
 Largest concise Abelian subgroup C1      NOp   1
                         Standard orientation:                         
 ---------------------------------------------------------------------
 Center     Atomic      Atomic             Coordinates (Angstroms)
 Number     Number       Type             X           Y           Z
 ---------------------------------------------------------------------
      1          6           0       12.067249   -0.525680    0.835078
      2          6           0      -12.086332   -0.005549   -0.810729
      3          6           0       13.428712    0.280025    0.727323
      4          6           0      -13.057129   -1.122562   -1.235726
      5          6           0       13.216600    1.785189    0.581148
      6          6           0      -13.476748   -1.986116   -0.004029
      7          6           0       11.031194    0.014158   -0.133139
      8          6           0      -11.008947   -0.467616    0.211861
      9          6           0       12.354408    2.145143   -0.665494
     10          6           0      -12.184220   -2.556647    0.595733
     11          6           0       11.198151    1.200359   -0.830420
     12          6           0      -11.028892   -1.612197    0.882659
     13          6           0       11.596051   -0.643111    2.271102
     14          6           0       12.550217   -1.934355    0.341081
     15          6           0      -12.829197    1.121056   -0.172478
     16          6           0      -11.505335    0.620038   -2.155389
     17          6           0        9.840135   -0.808997   -0.353408
     18          6           0       -9.997978    0.553596    0.311078
     19          6           0       10.158435    1.753167   -1.749099
     20          6           0       -9.966509   -2.084065    1.744600
     21          6           0        8.536173   -0.492104   -0.337864
     22          6           0       -8.620918    0.365687    0.232213
     23          6           0        7.420072   -1.375913   -0.473525
     24          6           0       -7.552222    1.399052    0.395942
     25          6           0        7.704139   -2.851322   -0.823111
     26          6           0       -7.900311    2.750753    0.604600
     27          6           0        6.145519   -0.822152   -0.440363
     28          6           0       -6.278528    0.879066    0.357112
     29          6           0        4.839157   -1.419786   -0.567497
     30          6           0       -5.068149    1.566223    0.371252
     31          6           0        3.698288   -0.728042   -0.331023
     32          6           0       -3.783818    1.044531    0.226781
     33          6           0        2.382200   -1.310439   -0.439584
     34          6           0       -2.520126    1.818941    0.330693
     35          6           0        2.119658   -2.856515   -0.614003
     36          6           0       -2.565107    3.370758    0.600779
     37          6           0        1.246962   -0.487121   -0.171708
     38          6           0       -1.307260    1.183286    0.122731
     39          6           0        1.234242    0.910477    0.149927
     40          6           0        0.104833    1.672727    0.249706
     41          1           0       13.998675   -0.019622   -0.089217
     42          1           0       14.102736    0.090972    1.686033
     43          1           0      -12.503084   -1.776413   -1.934015
     44          1           0      -13.923576   -0.612836   -1.816160
     45          1           0       14.209014    2.263309    0.639517
     46          1           0       12.673316    2.252330    1.404641
     47          1           0      -14.370971   -2.672670   -0.245810
     48          1           0      -13.969205   -1.488912    0.865412
     49          1           0       13.029310    2.011360   -1.555080
     50          1           0       11.982242    3.186278   -0.514210
     51          1           0      -11.846516   -3.427970    0.062416
     52          1           0      -12.454784   -3.177308    1.457391
     53          1           0       11.225092    0.318863    2.785567
     54          1           0       12.389233   -1.091341    2.822659
     55          1           0       10.596460   -1.324050    2.122863
     56          1           0       12.973786   -2.035433   -0.802766
     57          1           0       11.612085   -2.684933    0.308011
     58          1           0       13.166631   -2.352503    1.110073
     59          1           0      -13.652292    0.600974    0.653784
     60          1           0      -13.339874    1.581998   -0.864692
     61          1           0      -12.218456    1.901242    0.322688
     62          1           0      -10.968793   -0.066203   -2.738284
     63          1           0      -10.837083    1.519780   -1.866796
     64          1           0      -12.524483    0.787888   -2.850017
     65          1           0        9.862667   -1.813480   -0.529263
     66          1           0      -10.226322    1.586298    0.508091
     67          1           0        9.527049    1.010886   -2.130602
     68          1           0       10.538254    2.335703   -2.476842
     69          1           0        9.578953    2.468271   -1.054199
     70          1           0       -9.408049   -1.327058    2.183578
     71          1           0       -9.416686   -3.056848    1.287901
     72          1           0      -10.372485   -2.674700    2.686059
     73          1           0        8.280346    0.576862    0.295987
     74          1           0       -8.315426   -0.584860   -0.038695
     75          1           0        8.714063   -2.802538   -1.415575
     76          1           0        6.812676   -3.476992   -1.369721
     77          1           0        8.069083   -3.435419    0.031814
     78          1           0       -8.275365    2.845215    1.633506
     79          1           0       -8.624030    2.981987   -0.180289
     80          1           0       -6.837113    3.528348    0.451697
     81          1           0        6.019056    0.314499   -0.289024
     82          1           0       -6.289987   -0.307561    0.317253
     83          1           0        4.569175   -2.591684   -0.669520
     84          1           0       -5.164550    2.633800    0.525383
     85          1           0        3.959506    0.213746   -0.063850
     86          1           0       -3.574278   -0.105156   -0.111279
     87          1           0        2.566106   -3.202542   -1.640910
     88          1           0        1.083634   -2.925922   -0.446957
     89          1           0        2.982925   -2.998773    0.273349
     90          1           0       -2.863813    3.805118    1.518795
     91          1           0       -3.068311    3.976224   -0.188427
     92          1           0       -1.461511    3.963047    0.577167
     93          1           0        0.404947   -1.087122   -0.107392
     94          1           0       -1.373475    0.237037   -0.277831
     95          1           0        2.085889    1.462675    0.138352
     96          1           0        0.059586    2.602470    0.588586
 ---------------------------------------------------------------------
 Rotational constants (GHZ):           0.2734877           0.0110019           0.0107628
 Standard basis: 6-31G(d,p) (6D, 7F)
 There are   880 symmetry adapted cartesian basis functions of A   symmetry.
 There are   880 symmetry adapted basis functions of A   symmetry.
   880 basis functions,  1512 primitive gaussians,   880 cartesian basis functions
   148 alpha electrons      148 beta electrons
       nuclear repulsion energy      3669.4960039492 Hartrees.
 NAtoms=   96 NActive=   96 NUniq=   96 SFac= 1.00D+00 NAtFMM=   60 NAOKFM=T Big=T
 Integral buffers will be    131072 words long.
 Regular integral format.
 Two-electron integral symmetry is turned on.
 One-electron integrals computed using PRISM.
 NBasis=   880 RedAO= T EigKep=  9.79D-04  NBF=   880
 NBsUse=   880 1.00D-06 EigRej= -1.00D+00 NBFU=   880
 ExpMin= 1.61D-01 ExpMax= 3.05D+03 ExpMxC= 4.57D+02 IAcc=3 IRadAn=         5 AccDes= 0.00D+00
 Harris functional with IExCor=  402 and IRadAn=       5 diagonalized for initial guess.
 HarFok:  IExCor=  402 AccDes= 0.00D+00 IRadAn=         5 IDoV= 1 UseB2=F ITyADJ=14
 ICtDFT=  3500011 ScaDFX=  1.000000  1.000000  1.000000  1.000000
 FoFCou: FMM=F IPFlag=           0 FMFlag=      100000 FMFlg1=        2001
         NFxFlg=           0 DoJE=T BraDBF=F KetDBF=T FulRan=T
         wScrn=  0.000000 ICntrl=       500 IOpCl=  0 I1Cent=   200000004 NGrid=           0
         NMat0=    1 NMatS0=      1 NMatT0=    0 NMatD0=    1 NMtDS0=    0 NMtDT0=    0
 Petite list used in FoFCou.
 Requested convergence on RMS density matrix=1.00D-08 within 128 cycles.
 Requested convergence on MAX density matrix=1.00D-06.
 Requested convergence on             energy=1.00D-06.
 No special actions if energy rises.
 Integral accuracy reduced to 1.0D-05 until final iterations.
 Initial convergence to 1.0D-05 achieved.  Increase integral accuracy.
 SCF Done:  E(RB3LYP) =  -1557.57022273     A.U. after   16 cycles
            NFock= 16  Conv=0.35D-08     -V/T= 2.0109
 DoSCS=F DFT=T ScalE2(SS,OS)=  1.000000  1.000000
 ExpMin= 1.61D-01 ExpMax= 3.05D+03 ExpMxC= 4.57D+02 IAcc=3 IRadAn=         5 AccDes= 0.00D+00
 HarFok:  IExCor=  205 AccDes= 0.00D+00 IRadAn=         5 IDoV=-2 UseB2=F ITyADJ=14
 ICtDFT= 12500011 ScaDFX=  1.000000  1.000000  1.000000  1.000000
 GSVD:  LWork=       -1920 too small for GESVD, short by        8600 words or        8600 for optimal perf.
 Range of M.O.s used for correlation:    41   880
 NBasis=   880 NAE=   148 NBE=   148 NFC=    40 NFV=     0
 NROrb=    840 NOA=   108 NOB=   108 NVA=   732 NVB=   732

 **** Warning!!: The smallest alpha delta epsilon is  0.83266488D-01

 Orbital symmetries:
       Occupied  (A) (A) (A) (A) (A) (A) (A) (A) (A) (A) (A) (A)
                 (A) (A) (A) (A) (A) (A) (A) (A) (A) (A) (A) (A)
                 (A) (A) (A) (A) (A) (A) (A) (A) (A) (A) (A) (A)
                 (A) (A) (A) (A) (A) (A) (A) (A) (A) (A) (A) (A)
                 (A) (A) (A) (A) (A) (A) (A) (A) (A) (A) (A) (A)
                 (A) (A) (A) (A) (A) (A) (A) (A) (A) (A) (A) (A)
                 (A) (A) (A) (A) (A) (A) (A) (A) (A) (A) (A) (A)
                 (A) (A) (A) (A) (A) (A) (A) (A) (A) (A) (A) (A)
                 (A) (A) (A) (A) (A) (A) (A) (A) (A) (A) (A) (A)
                 (A) (A) (A) (A) (A) (A) (A) (A) (A) (A) (A) (A)
                 (A) (A) (A) (A) (A) (A) (A) (A) (A) (A) (A) (A)
                 (A) (A) (A) (A) (A) (A) (A) (A) (A) (A) (A) (A)
                 (A) (A) (A) (A)
       Virtual   (A) (A) (A) (A) (A) (A) (A) (A) (A) (A) (A) (A)
                 (A) (A) (A) (A) (A) (A) (A) (A) (A) (A) (A) (A)
                 (A) (A) (A) (A) (A) (A) (A) (A) (A) (A) (A) (A)
                 (A) (A) (A) (A) (A) (A) (A) (A) (A) (A) (A) (A)
                 (A) (A) (A) (A) (A) (A) (A) (A) (A) (A) (A) (A)
                 (A) (A) (A) (A) (A) (A) (A) (A) (A) (A) (A) (A)
                 (A) (A) (A) (A) (A) (A) (A) (A) (A) (A) (A) (A)
                 (A) (A) (A) (A) (A) (A) (A) (A) (A) (A) (A) (A)
                 (A) (A) (A) (A) (A) (A) (A) (A) (A) (A) (A) (A)
                 (A) (A) (A) (A) (A) (A) (A) (A) (A) (A) (A) (A)
                 (A) (A) (A) (A) (A) (A) (A) (A) (A) (A) (A) (A)
                 (A) (A) (A) (A) (A) (A) (A) (A) (A) (A) (A) (A)
                 (A) (A) (A) (A) (A) (A) (A) (A) (A) (A) (A) (A)
                 (A) (A) (A) (A) (A) (A) (A) (A) (A) (A) (A) (A)
                 (A) (A) (A) (A) (A) (A) (A) (A) (A) (A) (A) (A)
                 (A) (A) (A) (A) (A) (A) (A) (A) (A) (A) (A) (A)
                 (A) (A) (A) (A) (A) (A) (A) (A) (A) (A) (A) (A)
                 (A) (A) (A) (A) (A) (A) (A) (A) (A) (A) (A) (A)
                 (A) (A) (A) (A) (A) (A) (A) (A) (A) (A) (A) (A)
                 (A) (A) (A) (A) (A) (A) (A) (A) (A) (A) (A) (A)
                 (A) (A) (A) (A) (A) (A) (A) (A) (A) (A) (A) (A)
                 (A) (A) (A) (A) (A) (A) (A) (A) (A) (A) (A) (A)
                 (A) (A) (A) (A) (A) (A) (A) (A) (A) (A) (A) (A)
                 (A) (A) (A) (A) (A) (A) (A) (A) (A) (A) (A) (A)
                 (A) (A) (A) (A) (A) (A) (A) (A) (A) (A) (A) (A)
                 (A) (A) (A) (A) (A) (A) (A) (A) (A) (A) (A) (A)
                 (A) (A) (A) (A) (A) (A) (A) (A) (A) (A) (A) (A)
                 (A) (A) (A) (A) (A) (A) (A) (A) (A) (A) (A) (A)
                 (A) (A) (A) (A) (A) (A) (A) (A) (A) (A) (A) (A)
                 (A) (A) (A) (A) (A) (A) (A) (A) (A) (A) (A) (A)
                 (A) (A) (A) (A) (A) (A) (A) (A) (A) (A) (A) (A)
                 (A) (A) (A) (A) (A) (A) (A) (A) (A) (A) (A) (A)
                 (A) (A) (A) (A) (A) (A) (A) (A) (A) (A) (A) (A)
                 (A) (A) (A) (A) (A) (A) (A) (A) (A) (A) (A) (A)
                 (A) (A) (A) (A) (A) (A) (A) (A) (A) (A) (A) (A)
                 (A) (A) (A) (A) (A) (A) (A) (A) (A) (A) (A) (A)
                 (A) (A) (A) (A) (A) (A) (A) (A) (A) (A) (A) (A)
                 (A) (A) (A) (A) (A) (A) (A) (A) (A) (A) (A) (A)
                 (A) (A) (A) (A) (A) (A) (A) (A) (A) (A) (A) (A)
                 (A) (A) (A) (A) (A) (A) (A) (A) (A) (A) (A) (A)
                 (A) (A) (A) (A) (A) (A) (A) (A) (A) (A) (A) (A)
                 (A) (A) (A) (A) (A) (A) (A) (A) (A) (A) (A) (A)
                 (A) (A) (A) (A) (A) (A) (A) (A) (A) (A) (A) (A)
                 (A) (A) (A) (A) (A) (A) (A) (A) (A) (A) (A) (A)
                 (A) (A) (A) (A) (A) (A) (A) (A) (A) (A) (A) (A)
                 (A) (A) (A) (A) (A) (A) (A) (A) (A) (A) (A) (A)
                 (A) (A) (A) (A) (A) (A) (A) (A) (A) (A) (A) (A)
                 (A) (A) (A) (A) (A) (A) (A) (A) (A) (A) (A) (A)
                 (A) (A) (A) (A) (A) (A) (A) (A) (A) (A) (A) (A)
                 (A) (A) (A) (A) (A) (A) (A) (A) (A) (A) (A) (A)
                 (A) (A) (A) (A) (A) (A) (A) (A) (A) (A) (A) (A)
                 (A) (A) (A) (A) (A) (A) (A) (A) (A) (A) (A) (A)
                 (A) (A) (A) (A) (A) (A) (A) (A) (A) (A) (A) (A)
                 (A) (A) (A) (A) (A) (A) (A) (A) (A) (A) (A) (A)
                 (A) (A) (A) (A) (A) (A) (A) (A) (A) (A) (A) (A)
                 (A) (A) (A) (A) (A) (A) (A) (A) (A) (A) (A) (A)
                 (A) (A) (A) (A) (A) (A) (A) (A) (A) (A) (A) (A)
                 (A) (A) (A) (A) (A) (A) (A) (A) (A) (A) (A) (A)
                 (A) (A) (A) (A) (A) (A) (A) (A) (A) (A) (A) (A)
                 (A) (A) (A) (A) (A) (A) (A) (A) (A) (A) (A) (A)
                 (A) (A) (A) (A) (A) (A) (A) (A) (A) (A) (A) (A)
     4 initial guesses have been made.
 Convergence on wavefunction:    0.001000000000000
 Iteration     1 Dimension     4 NMult     0 NNew      4
 CISAX will form     4 AO SS matrices at one time.
 Iteration     2 Dimension     6 NMult     4 NNew      2
 Iteration     3 Dimension     8 NMult     6 NNew      2
 Iteration     4 Dimension    10 NMult     8 NNew      2
 Iteration     5 Dimension    12 NMult    10 NNew      2
 Iteration     6 Dimension    14 NMult    12 NNew      2
 ***********************************************************************
 Excited states from <AA,BB:AA,BB> singles matrix:
 ***********************************************************************
 
 Ground to excited state transition densities written to RWF  633
 Ground to excited state transition electric dipole moments (Au):
       state          X           Y           Z        Dip. S.      Osc.
         1        -7.3821      0.6831      0.3551     55.0884      2.9474
 Ground to excited state transition velocity dipole moments (Au):
       state          X           Y           Z        Dip. S.      Osc.
         1         0.5735     -0.0541     -0.0273      0.3325      2.7624
 Ground to excited state transition magnetic dipole moments (Au):
       state          X           Y           Z
         1        -0.0156     -0.0194     -0.7615
 Ground to excited state transition velocity quadrupole moments (Au):
       state          XX          YY          ZZ          XY          XZ          YZ
         1        -0.1261     -0.0610     -0.0039     -0.1196     -0.0074      0.0193
 <0|del|b> * <b|rxdel|0> + <0|del|b> * <b|delr+rdel|0>
 Rotatory Strengths (R) in cgs (10**-40 erg-esu-cm/Gauss)
       state          XX          YY          ZZ    R(velocity)    E-M Angle
         1       108.8281     86.5239    -81.8613     37.8302       88.32
 1/2[<0|r|b>*<b|rxdel|0> + (<0|rxdel|b>*<b|r|0>)*]
 Rotatory Strengths (R) in cgs (10**-40 erg-esu-cm/Gauss)
       state          XX          YY          ZZ     R(length)
         1       -81.5544      9.3762    191.2016     39.6745
  1/2[<0|del|b>*<b|r|0> + (<0|r|b>*<b|del|0>)*] (Au)
       state          X           Y           Z        Dip. S.   Osc.(frdel)
         1        -4.2334     -0.0370     -0.0097      4.2801      2.8534

 Excitation energies and oscillator strengths:
 
 Excited State   1:      Singlet-A      2.1839 eV  567.73 nm  f=2.9474  <S**2>=0.000
     148 ->149         0.70857
 This state for optimization and/or second-order correction.
 Total Energy, E(TD-HF/TD-DFT) =  -1557.48996753    
 Copying the excited state density for this state as the 1-particle RhoCI density.
 SavETr:  write IOETrn=   770 NScale= 10 NData=  16 NLR=1 NState=    1 LETran=      28.

 **********************************************************************

            Population analysis using the SCF density.

 **********************************************************************

 Orbital symmetries:
       Occupied  (A) (A) (A) (A) (A) (A) (A) (A) (A) (A) (A) (A)
                 (A) (A) (A) (A) (A) (A) (A) (A) (A) (A) (A) (A)
                 (A) (A) (A) (A) (A) (A) (A) (A) (A) (A) (A) (A)
                 (A) (A) (A) (A) (A) (A) (A) (A) (A) (A) (A) (A)
                 (A) (A) (A) (A) (A) (A) (A) (A) (A) (A) (A) (A)
                 (A) (A) (A) (A) (A) (A) (A) (A) (A) (A) (A) (A)
                 (A) (A) (A) (A) (A) (A) (A) (A) (A) (A) (A) (A)
                 (A) (A) (A) (A) (A) (A) (A) (A) (A) (A) (A) (A)
                 (A) (A) (A) (A) (A) (A) (A) (A) (A) (A) (A) (A)
                 (A) (A) (A) (A) (A) (A) (A) (A) (A) (A) (A) (A)
                 (A) (A) (A) (A) (A) (A) (A) (A) (A) (A) (A) (A)
                 (A) (A) (A) (A) (A) (A) (A) (A) (A) (A) (A) (A)
                 (A) (A) (A) (A)
       Virtual   (A) (A) (A) (A) (A) (A) (A) (A) (A) (A) (A) (A)
                 (A) (A) (A) (A) (A) (A) (A) (A) (A) (A) (A) (A)
                 (A) (A) (A) (A) (A) (A) (A) (A) (A) (A) (A) (A)
                 (A) (A) (A) (A) (A) (A) (A) (A) (A) (A) (A) (A)
                 (A) (A) (A) (A) (A) (A) (A) (A) (A) (A) (A) (A)
                 (A) (A) (A) (A) (A) (A) (A) (A) (A) (A) (A) (A)
                 (A) (A) (A) (A) (A) (A) (A) (A) (A) (A) (A) (A)
                 (A) (A) (A) (A) (A) (A) (A) (A) (A) (A) (A) (A)
                 (A) (A) (A) (A) (A) (A) (A) (A) (A) (A) (A) (A)
                 (A) (A) (A) (A) (A) (A) (A) (A) (A) (A) (A) (A)
                 (A) (A) (A) (A) (A) (A) (A) (A) (A) (A) (A) (A)
                 (A) (A) (A) (A) (A) (A) (A) (A) (A) (A) (A) (A)
                 (A) (A) (A) (A) (A) (A) (A) (A) (A) (A) (A) (A)
                 (A) (A) (A) (A) (A) (A) (A) (A) (A) (A) (A) (A)
                 (A) (A) (A) (A) (A) (A) (A) (A) (A) (A) (A) (A)
                 (A) (A) (A) (A) (A) (A) (A) (A) (A) (A) (A) (A)
                 (A) (A) (A) (A) (A) (A) (A) (A) (A) (A) (A) (A)
                 (A) (A) (A) (A) (A) (A) (A) (A) (A) (A) (A) (A)
                 (A) (A) (A) (A) (A) (A) (A) (A) (A) (A) (A) (A)
                 (A) (A) (A) (A) (A) (A) (A) (A) (A) (A) (A) (A)
                 (A) (A) (A) (A) (A) (A) (A) (A) (A) (A) (A) (A)
                 (A) (A) (A) (A) (A) (A) (A) (A) (A) (A) (A) (A)
                 (A) (A) (A) (A) (A) (A) (A) (A) (A) (A) (A) (A)
                 (A) (A) (A) (A) (A) (A) (A) (A) (A) (A) (A) (A)
                 (A) (A) (A) (A) (A) (A) (A) (A) (A) (A) (A) (A)
                 (A) (A) (A) (A) (A) (A) (A) (A) (A) (A) (A) (A)
                 (A) (A) (A) (A) (A) (A) (A) (A) (A) (A) (A) (A)
                 (A) (A) (A) (A) (A) (A) (A) (A) (A) (A) (A) (A)
                 (A) (A) (A) (A) (A) (A) (A) (A) (A) (A) (A) (A)
                 (A) (A) (A) (A) (A) (A) (A) (A) (A) (A) (A) (A)
                 (A) (A) (A) (A) (A) (A) (A) (A) (A) (A) (A) (A)
                 (A) (A) (A) (A) (A) (A) (A) (A) (A) (A) (A) (A)
                 (A) (A) (A) (A) (A) (A) (A) (A) (A) (A) (A) (A)
                 (A) (A) (A) (A) (A) (A) (A) (A) (A) (A) (A) (A)
                 (A) (A) (A) (A) (A) (A) (A) (A) (A) (A) (A) (A)
                 (A) (A) (A) (A) (A) (A) (A) (A) (A) (A) (A) (A)
                 (A) (A) (A) (A) (A) (A) (A) (A) (A) (A) (A) (A)
                 (A) (A) (A) (A) (A) (A) (A) (A) (A) (A) (A) (A)
                 (A) (A) (A) (A) (A) (A) (A) (A) (A) (A) (A) (A)
                 (A) (A) (A) (A) (A) (A) (A) (A) (A) (A) (A) (A)
                 (A) (A) (A) (A) (A) (A) (A) (A) (A) (A) (A) (A)
                 (A) (A) (A) (A) (A) (A) (A) (A) (A) (A) (A) (A)
                 (A) (A) (A) (A) (A) (A) (A) (A) (A) (A) (A) (A)
                 (A) (A) (A) (A) (A) (A) (A) (A) (A) (A) (A) (A)
                 (A) (A) (A) (A) (A) (A) (A) (A) (A) (A) (A) (A)
                 (A) (A) (A) (A) (A) (A) (A) (A) (A) (A) (A) (A)
                 (A) (A) (A) (A) (A) (A) (A) (A) (A) (A) (A) (A)
                 (A) (A) (A) (A) (A) (A) (A) (A) (A) (A) (A) (A)
                 (A) (A) (A) (A) (A) (A) (A) (A) (A) (A) (A) (A)
                 (A) (A) (A) (A) (A) (A) (A) (A) (A) (A) (A) (A)
                 (A) (A) (A) (A) (A) (A) (A) (A) (A) (A) (A) (A)
                 (A) (A) (A) (A) (A) (A) (A) (A) (A) (A) (A) (A)
                 (A) (A) (A) (A) (A) (A) (A) (A) (A) (A) (A) (A)
                 (A) (A) (A) (A) (A) (A) (A) (A) (A) (A) (A) (A)
                 (A) (A) (A) (A) (A) (A) (A) (A) (A) (A) (A) (A)
                 (A) (A) (A) (A) (A) (A) (A) (A) (A) (A) (A) (A)
                 (A) (A) (A) (A) (A) (A) (A) (A) (A) (A) (A) (A)
                 (A) (A) (A) (A) (A) (A) (A) (A) (A) (A) (A) (A)
                 (A) (A) (A) (A) (A) (A) (A) (A) (A) (A) (A) (A)
                 (A) (A) (A) (A) (A) (A) (A) (A) (A) (A) (A) (A)
                 (A) (A) (A) (A) (A) (A) (A) (A) (A) (A) (A) (A)
 The electronic state is 1-A.
 Alpha  occ. eigenvalues --  -10.21299 -10.21082 -10.20881 -10.20802 -10.20697
 Alpha  occ. eigenvalues --  -10.20584 -10.20208 -10.20003 -10.19955 -10.19827
 Alpha  occ. eigenvalues --  -10.19732 -10.19707 -10.19491 -10.19472 -10.19116
 Alpha  occ. eigenvalues --  -10.19079 -10.19035 -10.19032 -10.18930 -10.18871
 Alpha  occ. eigenvalues --  -10.18817 -10.18785 -10.18750 -10.18719 -10.18616
 Alpha  occ. eigenvalues --  -10.18596 -10.18586 -10.18531 -10.18352 -10.18306
 Alpha  occ. eigenvalues --  -10.18220 -10.18142 -10.18088 -10.17975 -10.17922
 Alpha  occ. eigenvalues --  -10.17848 -10.17568 -10.17468 -10.16811 -10.16231
 Alpha  occ. eigenvalues --   -0.85365  -0.84734  -0.83296  -0.83163  -0.81888
 Alpha  occ. eigenvalues --   -0.80869  -0.79133  -0.78761  -0.78608  -0.77416
 Alpha  occ. eigenvalues --   -0.76706  -0.75343  -0.74318  -0.72382  -0.72212
 Alpha  occ. eigenvalues --   -0.69323  -0.68510  -0.68029  -0.67854  -0.67748
 Alpha  occ. eigenvalues --   -0.67432  -0.67206  -0.66490  -0.66223  -0.66066
 Alpha  occ. eigenvalues --   -0.62680  -0.62030  -0.59801  -0.58995  -0.57749
 Alpha  occ. eigenvalues --   -0.56281  -0.55969  -0.55316  -0.53831  -0.53514
 Alpha  occ. eigenvalues --   -0.52552  -0.51291  -0.50553  -0.50055  -0.49417
 Alpha  occ. eigenvalues --   -0.47822  -0.47397  -0.47170  -0.46745  -0.45951
 Alpha  occ. eigenvalues --   -0.45571  -0.45023  -0.44914  -0.44534  -0.44140
 Alpha  occ. eigenvalues --   -0.43853  -0.43212  -0.43040  -0.42250  -0.41783
 Alpha  occ. eigenvalues --   -0.41682  -0.41517  -0.41343  -0.41122  -0.40925
 Alpha  occ. eigenvalues --   -0.40900  -0.40671  -0.40543  -0.39975  -0.39703
 Alpha  occ. eigenvalues --   -0.39222  -0.39142  -0.38937  -0.38591  -0.38016
 Alpha  occ. eigenvalues --   -0.37677  -0.37477  -0.37350  -0.36507  -0.36465
 Alpha  occ. eigenvalues --   -0.35829  -0.35342  -0.35111  -0.35050  -0.34744
 Alpha  occ. eigenvalues --   -0.34637  -0.34204  -0.34114  -0.33939  -0.33683
 Alpha  occ. eigenvalues --   -0.33556  -0.33329  -0.33095  -0.32708  -0.32649
 Alpha  occ. eigenvalues --   -0.32410  -0.31880  -0.31841  -0.31510  -0.31201
 Alpha  occ. eigenvalues --   -0.30891  -0.30218  -0.29931  -0.29061  -0.28474
 Alpha  occ. eigenvalues --   -0.27894  -0.27732  -0.25921  -0.23876  -0.22590
 Alpha  occ. eigenvalues --   -0.21119  -0.18848  -0.16464
 Alpha virt. eigenvalues --   -0.08137  -0.05353  -0.01716   0.00775   0.02397
 Alpha virt. eigenvalues --    0.03871   0.04947   0.05711   0.06343   0.07051
 Alpha virt. eigenvalues --    0.07266   0.07475   0.08234   0.08513   0.08736
 Alpha virt. eigenvalues --    0.09056   0.09466   0.09849   0.09949   0.10206
 Alpha virt. eigenvalues --    0.10475   0.10890   0.10996   0.11622   0.11822
 Alpha virt. eigenvalues --    0.11984   0.12180   0.12525   0.12965   0.13053
 Alpha virt. eigenvalues --    0.13257   0.13373   0.13543   0.13787   0.13996
 Alpha virt. eigenvalues --    0.14436   0.14834   0.15241   0.15597   0.15847
 Alpha virt. eigenvalues --    0.16153   0.16190   0.16408   0.16650   0.16810
 Alpha virt. eigenvalues --    0.17865   0.18100   0.18269   0.18423   0.18790
 Alpha virt. eigenvalues --    0.18860   0.19001   0.19194   0.19341   0.19637
 Alpha virt. eigenvalues --    0.20021   0.20276   0.20456   0.20577   0.20810
 Alpha virt. eigenvalues --    0.21039   0.21316   0.21431   0.22096   0.22515
 Alpha virt. eigenvalues --    0.22757   0.22896   0.22977   0.23390   0.23594
 Alpha virt. eigenvalues --    0.23766   0.24117   0.24485   0.24858   0.25392
 Alpha virt. eigenvalues --    0.25595   0.26107   0.26515   0.26700   0.27304
 Alpha virt. eigenvalues --    0.28152   0.28280   0.28424   0.28757   0.28911
 Alpha virt. eigenvalues --    0.29655   0.29808   0.30252   0.31092   0.33164
 Alpha virt. eigenvalues --    0.34091   0.34906   0.35098   0.36869   0.36977
 Alpha virt. eigenvalues --    0.38787   0.39805   0.40570   0.41207   0.41704
 Alpha virt. eigenvalues --    0.41806   0.42506   0.42707   0.43895   0.44841
 Alpha virt. eigenvalues --    0.46144   0.47209   0.48601   0.48961   0.49747
 Alpha virt. eigenvalues --    0.50340   0.50503   0.50824   0.51162   0.51332
 Alpha virt. eigenvalues --    0.51490   0.51623   0.52420   0.52778   0.52917
 Alpha virt. eigenvalues --    0.53462   0.53639   0.54045   0.54318   0.54689
 Alpha virt. eigenvalues --    0.54828   0.55178   0.55834   0.55909   0.56263
 Alpha virt. eigenvalues --    0.56559   0.56681   0.57062   0.57359   0.57523
 Alpha virt. eigenvalues --    0.57720   0.58168   0.58325   0.58682   0.59406
 Alpha virt. eigenvalues --    0.59760   0.59956   0.60631   0.60704   0.61381
 Alpha virt. eigenvalues --    0.61836   0.61885   0.62052   0.62477   0.62712
 Alpha virt. eigenvalues --    0.63173   0.63373   0.63448   0.63767   0.64106
 Alpha virt. eigenvalues --    0.64521   0.64598   0.64911   0.65254   0.65472
 Alpha virt. eigenvalues --    0.66215   0.66598   0.66805   0.67301   0.67639
 Alpha virt. eigenvalues --    0.67859   0.68070   0.69013   0.69286   0.69465
 Alpha virt. eigenvalues --    0.70062   0.70519   0.70857   0.71101   0.71701
 Alpha virt. eigenvalues --    0.72452   0.72569   0.72904   0.73565   0.73928
 Alpha virt. eigenvalues --    0.74108   0.74472   0.74571   0.74792   0.75653
 Alpha virt. eigenvalues --    0.75989   0.76269   0.76446   0.77054   0.77789
 Alpha virt. eigenvalues --    0.78023   0.78325   0.78535   0.78914   0.79040
 Alpha virt. eigenvalues --    0.79551   0.79668   0.79720   0.79895   0.80016
 Alpha virt. eigenvalues --    0.80323   0.80591   0.81281   0.81420   0.81616
 Alpha virt. eigenvalues --    0.82015   0.82210   0.82333   0.82723   0.83328
 Alpha virt. eigenvalues --    0.83491   0.83646   0.84151   0.84499   0.85275
 Alpha virt. eigenvalues --    0.85519   0.85636   0.85870   0.86221   0.86807
 Alpha virt. eigenvalues --    0.87288   0.87507   0.87614   0.87820   0.88050
 Alpha virt. eigenvalues --    0.88458   0.88494   0.88665   0.89699   0.89722
 Alpha virt. eigenvalues --    0.90164   0.90312   0.90505   0.90753   0.91363
 Alpha virt. eigenvalues --    0.91508   0.91761   0.91955   0.92063   0.92355
 Alpha virt. eigenvalues --    0.92823   0.93695   0.93917   0.94051   0.94180
 Alpha virt. eigenvalues --    0.94362   0.94772   0.95409   0.96080   0.96430
 Alpha virt. eigenvalues --    0.96871   0.96992   0.97205   0.97402   0.97560
 Alpha virt. eigenvalues --    0.98123   0.98590   0.98913   0.99519   0.99783
 Alpha virt. eigenvalues --    1.00921   1.01590   1.01833   1.02183   1.02823
 Alpha virt. eigenvalues --    1.03065   1.03959   1.04139   1.04608   1.05022
 Alpha virt. eigenvalues --    1.05111   1.05948   1.06146   1.06875   1.07946
 Alpha virt. eigenvalues --    1.08524   1.09135   1.09884   1.10383   1.10941
 Alpha virt. eigenvalues --    1.11364   1.11893   1.12608   1.13662   1.13844
 Alpha virt. eigenvalues --    1.15508   1.16232   1.16559   1.17511   1.19548
 Alpha virt. eigenvalues --    1.20274   1.21295   1.22046   1.22752   1.23176
 Alpha virt. eigenvalues --    1.23895   1.25023   1.25251   1.26857   1.26993
 Alpha virt. eigenvalues --    1.28020   1.29150   1.29584   1.29992   1.30825
 Alpha virt. eigenvalues --    1.31957   1.32232   1.33765   1.34099   1.34821
 Alpha virt. eigenvalues --    1.35221   1.36125   1.37128   1.37396   1.38251
 Alpha virt. eigenvalues --    1.38771   1.39463   1.40252   1.40651   1.41278
 Alpha virt. eigenvalues --    1.41405   1.42114   1.42665   1.43605   1.44679
 Alpha virt. eigenvalues --    1.45642   1.46453   1.46761   1.47351   1.49093
 Alpha virt. eigenvalues --    1.49419   1.49943   1.50400   1.50946   1.52023
 Alpha virt. eigenvalues --    1.52467   1.53405   1.53551   1.55063   1.55516
 Alpha virt. eigenvalues --    1.56545   1.57453   1.58054   1.58807   1.60038
 Alpha virt. eigenvalues --    1.60276   1.63560   1.63566   1.64899   1.65705
 Alpha virt. eigenvalues --    1.66356   1.66561   1.67567   1.68108   1.68832
 Alpha virt. eigenvalues --    1.69225   1.69856   1.70271   1.71039   1.71496
 Alpha virt. eigenvalues --    1.71770   1.72211   1.72882   1.73315   1.74282
 Alpha virt. eigenvalues --    1.74495   1.75185   1.76948   1.77153   1.77661
 Alpha virt. eigenvalues --    1.78614   1.78765   1.78990   1.79487   1.79881
 Alpha virt. eigenvalues --    1.80766   1.80880   1.80948   1.81814   1.82440
 Alpha virt. eigenvalues --    1.82574   1.82614   1.83360   1.83658   1.83937
 Alpha virt. eigenvalues --    1.84045   1.84443   1.84900   1.85313   1.85994
 Alpha virt. eigenvalues --    1.86058   1.86098   1.86660   1.86991   1.87649
 Alpha virt. eigenvalues --    1.87903   1.88003   1.88537   1.89338   1.89534
 Alpha virt. eigenvalues --    1.89754   1.89976   1.90591   1.91138   1.91681
 Alpha virt. eigenvalues --    1.91877   1.92378   1.93004   1.93328   1.93446
 Alpha virt. eigenvalues --    1.94178   1.94328   1.94589   1.96381   1.96986
 Alpha virt. eigenvalues --    1.97135   1.97397   1.97479   1.97914   1.98246
 Alpha virt. eigenvalues --    1.98806   1.99658   1.99792   2.00089   2.00955
 Alpha virt. eigenvalues --    2.01235   2.01811   2.02312   2.02680   2.02898
 Alpha virt. eigenvalues --    2.02974   2.03242   2.04606   2.04957   2.05150
 Alpha virt. eigenvalues --    2.05691   2.05949   2.06073   2.06788   2.06940
 Alpha virt. eigenvalues --    2.07261   2.08228   2.08446   2.08454   2.08591
 Alpha virt. eigenvalues --    2.09075   2.09654   2.09901   2.10391   2.10952
 Alpha virt. eigenvalues --    2.11175   2.11465   2.11798   2.12549   2.13322
 Alpha virt. eigenvalues --    2.13627   2.13779   2.14561   2.15038   2.15348
 Alpha virt. eigenvalues --    2.15623   2.16825   2.17577   2.17821   2.18687
 Alpha virt. eigenvalues --    2.19003   2.19183   2.19246   2.19844   2.19971
 Alpha virt. eigenvalues --    2.20611   2.21316   2.21660   2.22098   2.22342
 Alpha virt. eigenvalues --    2.22461   2.23878   2.24126   2.24986   2.25435
 Alpha virt. eigenvalues --    2.26126   2.26501   2.27055   2.28277   2.28736
 Alpha virt. eigenvalues --    2.28993   2.29160   2.29435   2.30012   2.30088
 Alpha virt. eigenvalues --    2.30546   2.30800   2.32575   2.33033   2.33103
 Alpha virt. eigenvalues --    2.33907   2.34257   2.34629   2.35159   2.35361
 Alpha virt. eigenvalues --    2.35549   2.35906   2.36976   2.37296   2.37478
 Alpha virt. eigenvalues --    2.37829   2.38017   2.38475   2.38718   2.39261
 Alpha virt. eigenvalues --    2.39724   2.40424   2.40658   2.41288   2.41521
 Alpha virt. eigenvalues --    2.42634   2.43261   2.44295   2.44406   2.44953
 Alpha virt. eigenvalues --    2.45560   2.46481   2.46772   2.47360   2.47806
 Alpha virt. eigenvalues --    2.48326   2.48736   2.49386   2.49898   2.50345
 Alpha virt. eigenvalues --    2.51144   2.51358   2.51689   2.52302   2.53028
 Alpha virt. eigenvalues --    2.53406   2.53671   2.53937   2.54535   2.54746
 Alpha virt. eigenvalues --    2.55148   2.55503   2.56163   2.56645   2.56989
 Alpha virt. eigenvalues --    2.58237   2.58306   2.58831   2.59785   2.60238
 Alpha virt. eigenvalues --    2.60346   2.60499   2.61617   2.61738   2.62041
 Alpha virt. eigenvalues --    2.62492   2.63381   2.63557   2.63881   2.63973
 Alpha virt. eigenvalues --    2.64892   2.64969   2.65345   2.65534   2.66379
 Alpha virt. eigenvalues --    2.66606   2.67579   2.68233   2.68626   2.68810
 Alpha virt. eigenvalues --    2.69548   2.69898   2.70009   2.70260   2.70334
 Alpha virt. eigenvalues --    2.71213   2.71482   2.72061   2.72301   2.72924
 Alpha virt. eigenvalues --    2.73447   2.74501   2.74510   2.74656   2.75166
 Alpha virt. eigenvalues --    2.75777   2.76341   2.76806   2.77445   2.77620
 Alpha virt. eigenvalues --    2.78731   2.78836   2.79547   2.80749   2.81050
 Alpha virt. eigenvalues --    2.81078   2.82006   2.82313   2.83245   2.83756
 Alpha virt. eigenvalues --    2.84196   2.85158   2.85343   2.85973   2.86049
 Alpha virt. eigenvalues --    2.86350   2.87251   2.87728   2.87905   2.88376
 Alpha virt. eigenvalues --    2.89294   2.89605   2.90395   2.91387   2.92480
 Alpha virt. eigenvalues --    2.92594   2.92816   2.93883   2.95085   2.95754
 Alpha virt. eigenvalues --    2.96653   2.97380   2.98220   2.98965   2.99804
 Alpha virt. eigenvalues --    3.01156   3.01373   3.04729   3.05877   3.06808
 Alpha virt. eigenvalues --    3.07242   3.07720   3.08016   3.09165   3.09969
 Alpha virt. eigenvalues --    3.10081   3.11253   3.11809   3.14292   3.16052
 Alpha virt. eigenvalues --    3.16589   3.17413   3.18638   3.20329   3.22051
 Alpha virt. eigenvalues --    3.23525   3.23781   3.24144   3.24647   3.24875
 Alpha virt. eigenvalues --    3.26708   3.27095   3.28791   3.30151   3.30534
 Alpha virt. eigenvalues --    3.32297   3.32312   3.35150   3.35225   3.37619
 Alpha virt. eigenvalues --    3.37948   3.39158   3.39207   3.40673   3.40943
 Alpha virt. eigenvalues --    3.41418   3.41716   3.42756   3.46420   3.46619
 Alpha virt. eigenvalues --    3.46713   3.46960   3.47852   3.49386   3.49971
 Alpha virt. eigenvalues --    3.51293   3.51614   3.52975   3.52991   3.53337
 Alpha virt. eigenvalues --    3.54896   3.56078   3.56239   3.58655   3.60810
 Alpha virt. eigenvalues --    3.62564   3.62943   3.64975   3.66415   3.73391
 Alpha virt. eigenvalues --    3.74938   3.83854   4.08662   4.11456   4.12133
 Alpha virt. eigenvalues --    4.13834   4.15782   4.17910   4.18802   4.19556
 Alpha virt. eigenvalues --    4.20641   4.24012   4.28163   4.30569   4.32263
 Alpha virt. eigenvalues --    4.33726   4.35677   4.37197   4.39125   4.40295
 Alpha virt. eigenvalues --    4.41868   4.45500   4.45830   4.46881   4.47249
 Alpha virt. eigenvalues --    4.49708   4.50780   4.53434   4.54459   4.56661
 Alpha virt. eigenvalues --    4.59491   4.59891   4.63263   4.64795   4.66141
 Alpha virt. eigenvalues --    4.70263   4.71578   4.74453   4.75417   4.78056
 Alpha virt. eigenvalues --    4.79837   4.81441
          Condensed to atoms (all electrons):
 Mulliken charges:
               1
     1  C   -0.014989
     2  C   -0.016073
     3  C   -0.161927
     4  C   -0.168404
     5  C   -0.195083
     6  C   -0.192215
     7  C    0.097942
     8  C    0.089705
     9  C   -0.226031
    10  C   -0.240273
    11  C    0.047679
    12  C    0.119081
    13  C   -0.279458
    14  C   -0.288553
    15  C   -0.259609
    16  C   -0.287631
    17  C   -0.141493
    18  C   -0.170034
    19  C   -0.342492
    20  C   -0.372305
    21  C   -0.082898
    22  C   -0.092732
    23  C    0.123308
    24  C    0.133495
    25  C   -0.380238
    26  C   -0.369805
    27  C   -0.152480
    28  C   -0.101640
    29  C   -0.072308
    30  C   -0.091382
    31  C   -0.061038
    32  C   -0.120144
    33  C    0.037372
    34  C    0.126628
    35  C   -0.340995
    36  C   -0.384333
    37  C   -0.106837
    38  C   -0.125609
    39  C   -0.065835
    40  C   -0.073874
    41  H    0.103667
    42  H    0.064401
    43  H    0.097800
    44  H    0.073997
    45  H    0.082429
    46  H    0.092910
    47  H    0.081764
    48  H    0.101455
    49  H    0.105506
    50  H    0.101286
    51  H    0.105219
    52  H    0.088815
    53  H    0.100185
    54  H    0.106605
    55  H    0.083030
    56  H    0.088842
    57  H    0.065309
    58  H    0.105959
    59  H    0.057769
    60  H    0.107220
    61  H    0.096250
    62  H    0.112658
    63  H    0.094321
    64  H    0.068406
    65  H    0.066114
    66  H    0.079476
    67  H    0.125180
    68  H    0.108976
    69  H    0.103063
    70  H    0.133200
    71  H    0.098563
    72  H    0.082636
    73  H    0.054392
    74  H    0.079520
    75  H    0.111403
    76  H    0.105965
    77  H    0.130214
    78  H    0.137932
    79  H    0.127059
    80  H    0.067583
    81  H    0.076457
    82  H    0.066795
    83  H    0.057474
    84  H    0.078427
    85  H    0.073570
    86  H    0.071549
    87  H    0.124689
    88  H    0.122556
    89  H    0.115895
    90  H    0.131559
    91  H    0.122850
    92  H    0.073064
    93  H    0.069535
    94  H    0.070720
    95  H    0.085221
    96  H    0.066072
 Sum of Mulliken charges =  -0.00000
 Mulliken charges with hydrogens summed into heavy atoms:
               1
     1  C   -0.014989
     2  C   -0.016073
     3  C    0.006141
     4  C    0.003393
     5  C   -0.019744
     6  C   -0.008996
     7  C    0.097942
     8  C    0.089705
     9  C   -0.019239
    10  C   -0.046239
    11  C    0.047679
    12  C    0.119081
    13  C    0.010362
    14  C   -0.028444
    15  C    0.001629
    16  C   -0.012247
    17  C   -0.075380
    18  C   -0.090558
    19  C   -0.005273
    20  C   -0.057906
    21  C   -0.028507
    22  C   -0.013212
    23  C    0.123308
    24  C    0.133495
    25  C   -0.032657
    26  C   -0.037230
    27  C   -0.076023
    28  C   -0.034845
    29  C   -0.014834
    30  C   -0.012955
    31  C    0.012532
    32  C   -0.048596
    33  C    0.037372
    34  C    0.126628
    35  C    0.022145
    36  C   -0.056860
    37  C   -0.037302
    38  C   -0.054889
    39  C    0.019385
    40  C   -0.007802
 Electronic spatial extent (au):  <R**2>=          95331.6533
 Charge=             -0.0000 electrons
 Dipole moment (field-independent basis, Debye):
    X=              0.2256    Y=             -0.0279    Z=              0.1583  Tot=              0.2770
 Quadrupole moment (field-independent basis, Debye-Ang):
   XX=           -222.5225   YY=           -235.4803   ZZ=           -255.4856
   XY=              6.1214   XZ=              0.5697   YZ=              3.3066
 Traceless Quadrupole moment (field-independent basis, Debye-Ang):
   XX=             15.3070   YY=              2.3492   ZZ=            -17.6561
   XY=              6.1214   XZ=              0.5697   YZ=              3.3066
 Octapole moment (field-independent basis, Debye-Ang**2):
  XXX=            129.4668  YYY=             17.7859  ZZZ=              0.9082  XYY=            -19.0262
  XXY=            -20.4696  XXZ=             -2.4136  XZZ=              4.4518  YZZ=             -1.3167
  YYZ=              5.4823  XYZ=              0.4594
 Hexadecapole moment (field-independent basis, Debye-Ang**3):
 XXXX=        -123198.0522 YYYY=          -4458.3848 ZZZZ=          -1554.6107 XXXY=           1400.1302
 XXXZ=            359.2431 YYYX=             94.4862 YYYZ=             29.6550 ZZZX=             -0.1175
 ZZZY=              9.1381 XXYY=         -21470.7107 XXZZ=         -21715.6899 YYZZ=          -1010.6506
 XXYZ=            -66.5104 YYXZ=            -94.3613 ZZXY=             59.9624
 N-N= 3.669496003949D+03 E-N=-1.093840563170D+04  KE= 1.540724246939D+03
 1\1\GINC-RYZEN-SSD1\SP\RB3LYP TD-FC\6-31G(d,p)\C40H56\PADAWAN\24-Jul-2
 019\0\\# td=(NStates=1) B3LYP/6-31G(d,p)\\TD\\0,1\C,0,12.0661709597,0.
 5128118817,-0.8420003189\C,0,-12.0874010542,0.0183867971,0.8118403629\
 C,0,13.4270321159,-0.2934990099,-0.7312191209\C,0,-13.0572222221,1.137
 9181833,1.2324139558\C,0,13.2137836926,-1.7978754599,-0.5787196308\C,0
 ,-13.4764722433,1.9966581779,-0.0027699099\C,0,11.0299347874,-0.022177
 9533,0.1287104088\C,0,-11.0099086587,0.475347417,-0.2129289277\C,0,12.
 3516195994,-2.1519574897,0.6696209384\C,0,-12.1836482474,2.5636766759,
 -0.6052188578\C,0,11.1961393219,-1.2055926138,0.8308896574\C,0,-11.029
 127707,1.6171373355,-0.8884877225\C,0,11.5947100587,0.6246235875,-2.27
 83863172\C,0,12.5503584492,1.9231563707,-0.3539969187\C,0,-12.83130072
 09,-1.1102881475,0.1784716771\C,0,-11.506559524,-0.6020433779,2.158954
 0436\C,0,9.8395720198,0.8028163952,0.3458365842\C,0,-9.9997597829,-0.5
 470572478,-0.3081349013\C,0,10.1562197983,-1.7537551872,1.7521178467\C
 ,0,-9.9665896292,2.0845801971,-1.7526467296\C,0,8.5353597757,0.4868786
 441,0.3319313993\C,0,-8.6225352119,-0.3598958549,-0.2303893618\C,0,7.4
 199805663,1.3721160119,0.4641790305\C,0,-7.5546843623,-1.3947679519,-0
 .3900694038\C,0,7.7052835781,2.848747512,0.8075431913\C,0,-7.903877576
 ,-2.7470547166,-0.5930065783\C,0,6.1449884003,0.8192163106,0.433635522
 6\C,0,-6.2805766676,-0.8756183844,-0.3537174834\C,0,4.8391245632,1.418
 3941713,0.5585955186\C,0,-5.0707366855,-1.563772355,-0.3652879104\C,0,
 3.6976584774,0.7265602212,0.3252844777\C,0,-3.7859639816,-1.0424848812
 ,-0.2233047682\C,0,2.3820515066,1.3104317509,0.4317376617\C,0,-2.52290
 12895,-1.8183068894,-0.3242957097\C,0,2.1207564472,2.857425109,0.59977
 43507\C,0,-2.5691574611,-3.3712006466,-0.5879001401\C,0,1.2461061591,0
 .4868900306,0.1675716742\C,0,-1.309489122,-1.1827368457,-0.1192806332\
 C,0,1.232217594,-0.9120261498,-0.1482323429\C,0,0.1021907587,-1.673803
 6202,-0.2445582118\H,0,13.9974298488,0.0091033398,0.0839264355\H,0,14.
 1009671105,-0.1089692726,-1.6908726257\H,0,-12.5024966147,1.7942418144
 ,1.9278363484\H,0,-13.9239232499,0.6312926216,1.8151779559\H,0,14.2058
 112031,-2.2770085186,-0.6353369795\H,0,12.669932875,-2.2680207021,-1.4
 001261359\H,0,-14.3701003982,2.6849118512,0.2363646741\H,0,-13.9695317
 37,1.4962192961,-0.8700110232\H,0,13.0268446483,-2.014994006,1.5584777
 298\H,0,11.978605315,-3.1934230344,0.5227691325\H,0,-11.8451343055,3.4
 369514158,-0.0756210451\H,0,-12.4539416081,3.180951603,-1.4693908403\H
 ,0,11.2228756581,-0.339196997,-2.7887470074\H,0,12.3881056913,1.069931
 6545,-2.831999774\H,0,10.59568714,1.3069538071,-2.1327439939\H,0,12.97
 42883829,2.0286697689,0.7893162721\H,0,11.6128196889,2.6745973706,-0.3
 238265397\H,0,13.1669085472,2.3376140313,-1.1248747586\H,0,-13.6541946
 502,-0.5930133103,-0.6497510758\H,0,-13.3421663892,-1.5679425985,0.872
 7244931\H,0,-12.2212897322,-1.8930077057,-0.3135872412\H,0,-10.9693394
 248,0.0862029809,2.7388535445\H,0,-10.8390804334,-1.5035013508,1.87395
 14113\H,0,-12.5256666307,-0.766201088,2.8545239805\H,0,9.8629296996,1.
 8080056607,0.5174976577\H,0,-10.2289573404,-1.5803931493,-0.5007864566
 \H,0,9.5255066282,-1.0093985346,2.1306768253\H,0,10.5357643905,-2.3335
 495529,2.482189649\H,0,9.5760096682,-2.4712969797,1.0603456562\H,0,-9.
 4088279181,1.3253148441,-2.188601357\H,0,-9.4158963945,3.0588294049,-1
 .3001400602\H,0,-10.3723374987,2.6716021656,-2.6964596193\H,0,8.278543
 4451,-0.5845192321,-0.2973966901\H,0,-8.3162350187,0.5915333474,0.0364
 799955\H,0,8.7153147636,2.8016452004,1.3999593784\H,0,6.814443325,3.47
 73854427,1.3517577555\H,0,8.0704712848,3.4289915612,-0.0498982127\H,0,
 -8.2792588781,-2.8455116103,-1.6214188355\H,0,-8.6275837467,-2.9744506
 324,0.1930154408\H,0,-6.8412486775,-3.5248351348,-0.4371225975\H,0,6.0
 176026248,-0.3179570225,0.28706669\H,0,-6.2911010947,0.3111730558,-0.3
 18802157\H,0,4.5700803653,2.5909175359,0.6557984866\H,0,-5.168006901,-
 2.6319067071,-0.5149436355\H,0,3.9580760743,-0.2165362235,0.061975836\
 H,0,-3.5754451757,0.1084371736,0.1099091242\H,0,2.5677274721,3.2073811
 342,1.6251211674\H,0,1.0847456754,2.9269434261,0.4326929968\H,0,2.9839
 154503,2.9953100045,-0.2883728069\H,0,-2.8684287125,-3.8091492708,-1.5
 040254133\H,0,-3.0726388697,-3.9729792908,0.2039450459\H,0,-1.46601757
 31,-3.9642467591,-0.5620884352\H,0,0.4045428551,1.0872746427,0.1009607
 413\H,0,-1.3748685755,-0.2347754903,0.2773500089\H,0,2.0834368882,-1.4
 648355333,-0.1345630205\H,0,0.0561361244,-2.6049155339,-0.5795488158\\
 Version=ES64L-G16RevA.03\State=1-A\HF=-1557.5702227\RMSD=3.506e-09\PG=
 C01 [X(C40H56)]\\@


 IF THERE IS ONE WAY BETTER THAN ANOTHER IT IS THE WAY OF NATURE.

                          -- ARISTOTLE
 Job cpu time:       0 days  6 hours 55 minutes 15.8 seconds.
 Elapsed time:       0 days  1 hours 44 minutes 19.3 seconds.
 File lengths (MBytes):  RWF=   2884 Int=      0 D2E=      0 Chk=     79 Scr=      1
 Normal termination of Gaussian 16 at Wed Jul 24 01:54:28 2019.
