 Entering Gaussian System, Link 0=g16
 Input=Geometria-192-.com
 Output=Geometria-192-.log
 Initial command:
 /usr/local/g16/l1.exe "/home/padawan/israel-mol/b-caroten/spectra/abs/Gau-85675.inp" -scrdir="/home/padawan/israel-mol/b-caroten/spectra/abs/"
 Entering Link 1 = /usr/local/g16/l1.exe PID=     85677.
  
 Copyright (c) 1988,1990,1992,1993,1995,1998,2003,2009,2016,
            Gaussian, Inc.  All Rights Reserved.
  
 This is part of the Gaussian(R) 16 program.  It is based on
 the Gaussian(R) 09 system (copyright 2009, Gaussian, Inc.),
 the Gaussian(R) 03 system (copyright 2003, Gaussian, Inc.),
 the Gaussian(R) 98 system (copyright 1998, Gaussian, Inc.),
 the Gaussian(R) 94 system (copyright 1995, Gaussian, Inc.),
 the Gaussian 92(TM) system (copyright 1992, Gaussian, Inc.),
 the Gaussian 90(TM) system (copyright 1990, Gaussian, Inc.),
 the Gaussian 88(TM) system (copyright 1988, Gaussian, Inc.),
 the Gaussian 86(TM) system (copyright 1986, Carnegie Mellon
 University), and the Gaussian 82(TM) system (copyright 1983,
 Carnegie Mellon University). Gaussian is a federally registered
 trademark of Gaussian, Inc.
  
 This software contains proprietary and confidential information,
 including trade secrets, belonging to Gaussian, Inc.
  
 This software is provided under written license and may be
 used, copied, transmitted, or stored only in accord with that
 written license.
  
 The following legend is applicable only to US Government
 contracts under FAR:
  
                    RESTRICTED RIGHTS LEGEND
  
 Use, reproduction and disclosure by the US Government is
 subject to restrictions as set forth in subparagraphs (a)
 and (c) of the Commercial Computer Software - Restricted
 Rights clause in FAR 52.227-19.
  
 Gaussian, Inc.
 340 Quinnipiac St., Bldg. 40, Wallingford CT 06492
  
  
 ---------------------------------------------------------------
 Warning -- This program may not be used in any manner that
 competes with the business of Gaussian, Inc. or will provide
 assistance to any competitor of Gaussian, Inc.  The licensee
 of this program is prohibited from giving any competitor of
 Gaussian, Inc. access to this program.  By using this program,
 the user acknowledges that Gaussian, Inc. is engaged in the
 business of creating and licensing software in the field of
 computational chemistry and represents and warrants to the
 licensee that it is not a competitor of Gaussian, Inc. and that
 it will not use this program in any manner prohibited above.
 ---------------------------------------------------------------
  

 Cite this work as:
 Gaussian 16, Revision A.03,
 M. J. Frisch, G. W. Trucks, H. B. Schlegel, G. E. Scuseria, 
 M. A. Robb, J. R. Cheeseman, G. Scalmani, V. Barone, 
 G. A. Petersson, H. Nakatsuji, X. Li, M. Caricato, A. V. Marenich, 
 J. Bloino, B. G. Janesko, R. Gomperts, B. Mennucci, H. P. Hratchian, 
 J. V. Ortiz, A. F. Izmaylov, J. L. Sonnenberg, D. Williams-Young, 
 F. Ding, F. Lipparini, F. Egidi, J. Goings, B. Peng, A. Petrone, 
 T. Henderson, D. Ranasinghe, V. G. Zakrzewski, J. Gao, N. Rega, 
 G. Zheng, W. Liang, M. Hada, M. Ehara, K. Toyota, R. Fukuda, 
 J. Hasegawa, M. Ishida, T. Nakajima, Y. Honda, O. Kitao, H. Nakai, 
 T. Vreven, K. Throssell, J. A. Montgomery, Jr., J. E. Peralta, 
 F. Ogliaro, M. J. Bearpark, J. J. Heyd, E. N. Brothers, K. N. Kudin, 
 V. N. Staroverov, T. A. Keith, R. Kobayashi, J. Normand, 
 K. Raghavachari, A. P. Rendell, J. C. Burant, S. S. Iyengar, 
 J. Tomasi, M. Cossi, J. M. Millam, M. Klene, C. Adamo, R. Cammi, 
 J. W. Ochterski, R. L. Martin, K. Morokuma, O. Farkas, 
 J. B. Foresman, and D. J. Fox, Gaussian, Inc., Wallingford CT, 2016.
 
 ******************************************
 Gaussian 16:  ES64L-G16RevA.03 25-Dec-2016
                28-Jul-2019 
 ******************************************
 %nproc=4
 Will use up to    4 processors via shared memory.
 %Mem=2GB
 ---------------------------------
 # td=(NStates=1) B3LYP/6-31G(d,p)
 ---------------------------------
 1/38=1,172=1/1;
 2/12=2,17=6,18=5,40=1/2;
 3/5=1,6=6,7=101,11=9,25=1,30=1,74=-5/1,2,3,8;
 4//1;
 5/5=2,38=5/2;
 8/6=1,10=2,108=1/1;
 9/41=1,42=1,70=2/14;
 6/7=2,8=2,9=2,10=2/1;
 99/5=1,9=1/99;
 --
 TD
 --
 Symbolic Z-matrix:
 Charge =  0 Multiplicity = 1
 6                     12.16793   0.3361   -0.72419 
 6                    -12.21476  -0.20035   0.86568 
 6                     13.49066  -0.43563  -0.60223 
 6                    -13.1346   1.00195   1.21826 
 6                     13.28826  -1.88461  -0.55009 
 6                    -13.58208   1.74293  -0.05974 
 6                     11.08597  -0.04036   0.26017 
 6                    -11.07277   0.28215  -0.17071 
 6                     12.35693  -2.13156   0.68706 
 6                    -12.25126   2.4412   -0.52404 
 6                     11.18318  -1.19163   0.95358 
 6                    -11.00622   1.57162  -0.612 
 6                     11.69241   0.20428  -2.14403 
 6                     12.57659   1.82356  -0.4105 
 6                    -13.0816  -1.22504   0.06977 
 6                    -11.63324  -0.84968   2.07863 
 6                     9.85946   0.76399   0.33869 
 6                    -9.93395  -0.53043  -0.17157 
 6                     10.24985  -1.5677    2.0084 
 6                    -10.03035   2.10693  -1.63477 
 6                     8.62026   0.34319   0.42117 
 6                    -8.57274  -0.3315    0.00076 
 6                     7.37948   1.25925   0.35188 
 6                    -7.53607  -1.31321  -0.2886 
 6                     7.72832   2.71973   0.64825 
 6                    -7.8052   -2.61118  -0.64073 
 6                     6.19792   0.72382   0.25274 
 6                    -6.21892  -0.7861   -0.08768 
 6                     4.9329    1.48843   0.2681 
 6                    -5.08279  -1.50842  -0.3029 
 6                     3.7068    0.89685   0.30449 
 6                    -3.79546  -0.95554  -0.24193 
 6                     2.39867   1.4377    0.33077 
 6                    -2.51993  -1.62518  -0.4542 
 6                     2.34863   3.00983   0.53286 
 6                    -2.54413  -3.06819  -0.92573 
 6                     1.25904   0.74167  -0.00322 
 6                    -1.4073   -0.94654  -0.34202 
 6                     1.04563  -0.53643  -0.29595 
 6                     0.02554  -1.41896  -0.36317 
 1                     13.9836  -0.18045   0.17653 
 1                     14.13519  -0.38505  -1.55487 
 1                    -12.68102   1.72506   1.76056 
 1                    -13.9859   0.69704   1.92582 
 1                     14.2696  -2.47832  -0.20878 
 1                     13.14553  -2.37378  -1.38502 
 1                    -14.37956   2.38426   0.20114 
 1                    -14.00649   1.173    -0.95177 
 1                     12.97683  -2.19137   1.5574 
 1                     11.78697  -3.03649   0.57725 
 1                    -11.8562   3.17998   0.29782 
 1                    -12.55011   2.9965   -1.42137 
 1                     11.37259  -0.83108  -2.43231 
 1                     12.34106   0.82601  -2.72662 
 1                     10.76409   0.72063  -2.41448 
 1                     12.59892   1.96769   0.60755 
 1                     11.79889   2.62393  -0.82625 
 1                     13.6475   1.97161  -0.68183 
 1                    -13.37327  -0.73709  -0.85485 
 1                    -13.98141  -1.65062   0.53386 
 1                    -12.41258  -2.21182  -0.2258 
 1                    -11.18848  -0.18375   2.84475 
 1                    -11.01444  -1.80362   2.00893 
 1                    -12.55459  -1.02259   2.71536 
 1                     9.89778   1.84343   0.33189 
 1                    -10.23481  -1.59538  -0.66178 
 1                     9.50826  -0.92379   2.26981 
 1                     10.95595  -1.78299   2.92096 
 1                     9.72951  -2.45701   1.71076 
 1                    -9.48012   1.38985  -2.15289 
 1                    -9.3915    3.11526  -1.40449 
 1                    -10.63779   2.49458  -2.51903 
 1                     8.39156  -0.88948   0.33641 
 1                    -8.29047   0.6862    0.42815 
 1                     8.36009   2.97576   1.48649 
 1                     6.84204   3.30979   0.90939 
 1                     7.97931   3.2345   -0.26038 
 1                    -8.3273   -2.81902  -1.61421 
 1                    -8.48914  -3.23724   0.18657 
 1                    -6.89399  -3.1793   -0.68508 
 1                     6.22196  -0.45172   0.06567 
 1                    -5.98514   0.22015   0.08004 
 1                     5.13949   2.71478   0.59597 
 1                    -5.30796  -2.63444  -0.51757 
 1                     3.55177  -0.3257    0.0015 
 1                    -3.66358   0.19374  -0.04709 
 1                     2.73944   3.47444   1.5577 
 1                     1.34522   3.2628    0.4657 
 1                     3.07046   3.62199  -0.35095 
 1                    -3.33888  -3.06609  -1.66127 
 1                    -2.73786  -3.76233  -0.01546 
 1                    -1.47512  -3.35064  -1.33762 
 1                     0.40231   1.13902   0.07515 
 1                    -1.52508   0.15309  -0.12161 
 1                     1.9969   -1.16859  -0.32749 
 1                     0.20019  -2.40592  -0.59163 
 
 Stoichiometry    C40H56
 Framework group  C1[X(C40H56)]
 Deg. of freedom   282
 Full point group                 C1      NOp   1
 Largest Abelian subgroup         C1      NOp   1
 Largest concise Abelian subgroup C1      NOp   1
                         Standard orientation:                         
 ---------------------------------------------------------------------
 Center     Atomic      Atomic             Coordinates (Angstroms)
 Number     Number       Type             X           Y           Z
 ---------------------------------------------------------------------
      1          6           0       12.166329    0.342783   -0.721669
      2          6           0      -12.216037   -0.202616    0.870191
      3          6           0       13.489430   -0.428114   -0.598459
      4          6           0      -13.136432    0.999840    1.220781
      5          6           0       13.287728   -1.877101   -0.543855
      6          6           0      -13.584325    1.738438   -0.058451
      7          6           0       11.084592   -0.032529    0.263378
      8          6           0      -11.074324    0.278666   -0.167067
      9          6           0       12.356569   -2.122391    0.693753
     10          6           0      -12.253851    2.436557   -0.523998
     11          6           0       11.182380   -1.182577    0.958731
     12          6           0      -11.008400    1.567422   -0.610539
     13          6           0       11.690809    0.208328   -2.141267
     14          6           0       12.574292    1.830960   -0.410523
     15          6           0      -13.082414   -1.229072    0.076062
     16          6           0      -11.634152   -0.849615    2.084214
     17          6           0        9.857705    0.771370    0.340582
     18          6           0       -9.935114   -0.533364   -0.166597
     19          6           0       10.249277   -1.557300    2.014230
     20          6           0      -10.032831    2.101464   -1.634264
     21          6           0        8.618704    0.350120    0.423834
     22          6           0       -8.573989   -0.333500    0.005340
     23          6           0        7.377481    1.265469    0.353045
     24          6           0       -7.536865   -1.315201   -0.282406
     25          6           0        7.725636    2.726615    0.646924
     26          6           0       -7.805386   -2.613895   -0.632326
     27          6           0        6.196180    0.729299    0.254865
     28          6           0       -6.219956   -0.787121   -0.082440
     29          6           0        4.930796    1.493335    0.268985
     30          6           0       -5.083488   -1.509260   -0.296487
     31          6           0        3.704976    0.901228    0.306438
     32          6           0       -3.796427   -0.955662   -0.236506
     33          6           0        2.396593    1.441504    0.331855
     34          6           0       -2.520582   -1.625053   -0.447701
     35          6           0        2.345807    3.013946    0.531283
     36          6           0       -2.544118   -3.068874   -0.916789
     37          6           0        1.257275    0.744356   -0.000897
     38          6           0       -1.408270   -0.945698   -0.336725
     39          6           0        1.044464   -0.534334   -0.291453
     40          6           0        0.024797   -1.417464   -0.357135
     41          1           0       13.982283   -0.171372    0.179838
     42          1           0       14.133897   -0.378835   -1.551215
     43          1           0      -12.683178    1.724085    1.761832
     44          1           0      -13.987554    0.695717    1.928891
     45          1           0       14.269362   -2.469758   -0.201591
     46          1           0       13.145194   -2.367751   -1.377956
     47          1           0      -14.382098    2.379827    0.201374
     48          1           0      -14.008494    1.166788   -0.949499
     49          1           0       12.976535   -2.180436    1.564160
     50          1           0       11.787032   -3.027780    0.585504
     51          1           0      -11.859108    3.176908    0.296588
     52          1           0      -12.553012    2.990192   -1.422250
     53          1           0       11.371472   -0.827669   -2.427777
     54          1           0       12.339137    0.829375   -2.724935
     55          1           0       10.762235    0.723769   -2.412549
     56          1           0       12.596598    1.976833    0.607281
     57          1           0       11.796189    2.630259   -0.827588
     58          1           0       13.645115    1.979062   -0.682149
     59          1           0      -13.374359   -0.742827   -0.849373
     60          1           0      -13.982005   -1.654296    0.540912
     61          1           0      -12.412939   -2.216031   -0.217865
     62          1           0      -11.189676   -0.182181    2.849192
     63          1           0      -11.014895   -1.803379    2.016111
     64          1           0      -12.555389   -1.021885    2.721281
     65          1           0        9.895508    1.850811    0.331954
     66          1           0      -10.235482   -1.599296   -0.654990
     67          1           0        9.507397   -0.913306    2.274579
     68          1           0       10.955517   -1.770714    2.927122
     69          1           0        9.729344   -2.447361    1.718118
     70          1           0       -9.482280    1.383769   -2.151185
     71          1           0       -9.394461    3.110480   -1.405716
     72          1           0      -10.640503    2.487327   -2.519149
     73          1           0        8.390595   -0.882805    0.341170
     74          1           0       -8.292189    0.685063    0.430987
     75          1           0        8.357324    2.984365    1.484701
     76          1           0        6.839086    3.316688    0.907109
     77          1           0        7.976347    3.239962   -0.262585
     78          1           0       -8.327435   -2.823631   -1.605426
     79          1           0       -8.488993   -3.238875    0.196070
     80          1           0       -6.893913   -3.181654   -0.675750
     81          1           0        6.220773   -0.446541    0.069793
     82          1           0       -5.986650    0.219526    0.083563
     83          1           0        5.136808    2.720336    0.594773
     84          1           0       -5.308133   -2.635749   -0.509241
     85          1           0        3.550513   -0.321902    0.005524
     86          1           0       -3.665086    0.194001   -0.043620
     87          1           0        2.736445    3.480476    1.555324
     88          1           0        1.342275    3.266319    0.463738
     89          1           0        3.067310    3.624954   -0.353592
     90          1           0       -3.338892   -3.068404   -1.652293
     91          1           0       -2.737467   -3.761561   -0.005328
     92          1           0       -1.474985   -3.351506   -1.328240
     93          1           0        0.400364    1.141433    0.076831
     94          1           0       -1.526570    0.154254   -0.118170
     95          1           0        1.996034   -1.166090   -0.321970
     96          1           0        0.199906   -2.404723   -0.583930
 ---------------------------------------------------------------------
 Rotational constants (GHZ):           0.2919898           0.0108932           0.0106802
 Standard basis: 6-31G(d,p) (6D, 7F)
 There are   880 symmetry adapted cartesian basis functions of A   symmetry.
 There are   880 symmetry adapted basis functions of A   symmetry.
   880 basis functions,  1512 primitive gaussians,   880 cartesian basis functions
   148 alpha electrons      148 beta electrons
       nuclear repulsion energy      3679.1666704561 Hartrees.
 NAtoms=   96 NActive=   96 NUniq=   96 SFac= 1.00D+00 NAtFMM=   60 NAOKFM=T Big=T
 Integral buffers will be    131072 words long.
 Regular integral format.
 Two-electron integral symmetry is turned on.
 One-electron integrals computed using PRISM.
 NBasis=   880 RedAO= T EigKep=  7.99D-04  NBF=   880
 NBsUse=   880 1.00D-06 EigRej= -1.00D+00 NBFU=   880
 ExpMin= 1.61D-01 ExpMax= 3.05D+03 ExpMxC= 4.57D+02 IAcc=3 IRadAn=         5 AccDes= 0.00D+00
 Harris functional with IExCor=  402 and IRadAn=       5 diagonalized for initial guess.
 HarFok:  IExCor=  402 AccDes= 0.00D+00 IRadAn=         5 IDoV= 1 UseB2=F ITyADJ=14
 ICtDFT=  3500011 ScaDFX=  1.000000  1.000000  1.000000  1.000000
 FoFCou: FMM=F IPFlag=           0 FMFlag=      100000 FMFlg1=        2001
         NFxFlg=           0 DoJE=T BraDBF=F KetDBF=T FulRan=T
         wScrn=  0.000000 ICntrl=       500 IOpCl=  0 I1Cent=   200000004 NGrid=           0
         NMat0=    1 NMatS0=      1 NMatT0=    0 NMatD0=    1 NMtDS0=    0 NMtDT0=    0
 Petite list used in FoFCou.
 Requested convergence on RMS density matrix=1.00D-08 within 128 cycles.
 Requested convergence on MAX density matrix=1.00D-06.
 Requested convergence on             energy=1.00D-06.
 No special actions if energy rises.
 Integral accuracy reduced to 1.0D-05 until final iterations.
 Initial convergence to 1.0D-05 achieved.  Increase integral accuracy.
 SCF Done:  E(RB3LYP) =  -1557.53815594     A.U. after   15 cycles
            NFock= 15  Conv=0.90D-08     -V/T= 2.0101
 DoSCS=F DFT=T ScalE2(SS,OS)=  1.000000  1.000000
 ExpMin= 1.61D-01 ExpMax= 3.05D+03 ExpMxC= 4.57D+02 IAcc=3 IRadAn=         5 AccDes= 0.00D+00
 HarFok:  IExCor=  205 AccDes= 0.00D+00 IRadAn=         5 IDoV=-2 UseB2=F ITyADJ=14
 ICtDFT= 12500011 ScaDFX=  1.000000  1.000000  1.000000  1.000000
 GSVD:  LWork=       -1920 too small for GESVD, short by        8600 words or        8600 for optimal perf.
 Range of M.O.s used for correlation:    41   880
 NBasis=   880 NAE=   148 NBE=   148 NFC=    40 NFV=     0
 NROrb=    840 NOA=   108 NOB=   108 NVA=   732 NVB=   732

 **** Warning!!: The smallest alpha delta epsilon is  0.80954868D-01

 Orbital symmetries:
       Occupied  (A) (A) (A) (A) (A) (A) (A) (A) (A) (A) (A) (A)
                 (A) (A) (A) (A) (A) (A) (A) (A) (A) (A) (A) (A)
                 (A) (A) (A) (A) (A) (A) (A) (A) (A) (A) (A) (A)
                 (A) (A) (A) (A) (A) (A) (A) (A) (A) (A) (A) (A)
                 (A) (A) (A) (A) (A) (A) (A) (A) (A) (A) (A) (A)
                 (A) (A) (A) (A) (A) (A) (A) (A) (A) (A) (A) (A)
                 (A) (A) (A) (A) (A) (A) (A) (A) (A) (A) (A) (A)
                 (A) (A) (A) (A) (A) (A) (A) (A) (A) (A) (A) (A)
                 (A) (A) (A) (A) (A) (A) (A) (A) (A) (A) (A) (A)
                 (A) (A) (A) (A) (A) (A) (A) (A) (A) (A) (A) (A)
                 (A) (A) (A) (A) (A) (A) (A) (A) (A) (A) (A) (A)
                 (A) (A) (A) (A) (A) (A) (A) (A) (A) (A) (A) (A)
                 (A) (A) (A) (A)
       Virtual   (A) (A) (A) (A) (A) (A) (A) (A) (A) (A) (A) (A)
                 (A) (A) (A) (A) (A) (A) (A) (A) (A) (A) (A) (A)
                 (A) (A) (A) (A) (A) (A) (A) (A) (A) (A) (A) (A)
                 (A) (A) (A) (A) (A) (A) (A) (A) (A) (A) (A) (A)
                 (A) (A) (A) (A) (A) (A) (A) (A) (A) (A) (A) (A)
                 (A) (A) (A) (A) (A) (A) (A) (A) (A) (A) (A) (A)
                 (A) (A) (A) (A) (A) (A) (A) (A) (A) (A) (A) (A)
                 (A) (A) (A) (A) (A) (A) (A) (A) (A) (A) (A) (A)
                 (A) (A) (A) (A) (A) (A) (A) (A) (A) (A) (A) (A)
                 (A) (A) (A) (A) (A) (A) (A) (A) (A) (A) (A) (A)
                 (A) (A) (A) (A) (A) (A) (A) (A) (A) (A) (A) (A)
                 (A) (A) (A) (A) (A) (A) (A) (A) (A) (A) (A) (A)
                 (A) (A) (A) (A) (A) (A) (A) (A) (A) (A) (A) (A)
                 (A) (A) (A) (A) (A) (A) (A) (A) (A) (A) (A) (A)
                 (A) (A) (A) (A) (A) (A) (A) (A) (A) (A) (A) (A)
                 (A) (A) (A) (A) (A) (A) (A) (A) (A) (A) (A) (A)
                 (A) (A) (A) (A) (A) (A) (A) (A) (A) (A) (A) (A)
                 (A) (A) (A) (A) (A) (A) (A) (A) (A) (A) (A) (A)
                 (A) (A) (A) (A) (A) (A) (A) (A) (A) (A) (A) (A)
                 (A) (A) (A) (A) (A) (A) (A) (A) (A) (A) (A) (A)
                 (A) (A) (A) (A) (A) (A) (A) (A) (A) (A) (A) (A)
                 (A) (A) (A) (A) (A) (A) (A) (A) (A) (A) (A) (A)
                 (A) (A) (A) (A) (A) (A) (A) (A) (A) (A) (A) (A)
                 (A) (A) (A) (A) (A) (A) (A) (A) (A) (A) (A) (A)
                 (A) (A) (A) (A) (A) (A) (A) (A) (A) (A) (A) (A)
                 (A) (A) (A) (A) (A) (A) (A) (A) (A) (A) (A) (A)
                 (A) (A) (A) (A) (A) (A) (A) (A) (A) (A) (A) (A)
                 (A) (A) (A) (A) (A) (A) (A) (A) (A) (A) (A) (A)
                 (A) (A) (A) (A) (A) (A) (A) (A) (A) (A) (A) (A)
                 (A) (A) (A) (A) (A) (A) (A) (A) (A) (A) (A) (A)
                 (A) (A) (A) (A) (A) (A) (A) (A) (A) (A) (A) (A)
                 (A) (A) (A) (A) (A) (A) (A) (A) (A) (A) (A) (A)
                 (A) (A) (A) (A) (A) (A) (A) (A) (A) (A) (A) (A)
                 (A) (A) (A) (A) (A) (A) (A) (A) (A) (A) (A) (A)
                 (A) (A) (A) (A) (A) (A) (A) (A) (A) (A) (A) (A)
                 (A) (A) (A) (A) (A) (A) (A) (A) (A) (A) (A) (A)
                 (A) (A) (A) (A) (A) (A) (A) (A) (A) (A) (A) (A)
                 (A) (A) (A) (A) (A) (A) (A) (A) (A) (A) (A) (A)
                 (A) (A) (A) (A) (A) (A) (A) (A) (A) (A) (A) (A)
                 (A) (A) (A) (A) (A) (A) (A) (A) (A) (A) (A) (A)
                 (A) (A) (A) (A) (A) (A) (A) (A) (A) (A) (A) (A)
                 (A) (A) (A) (A) (A) (A) (A) (A) (A) (A) (A) (A)
                 (A) (A) (A) (A) (A) (A) (A) (A) (A) (A) (A) (A)
                 (A) (A) (A) (A) (A) (A) (A) (A) (A) (A) (A) (A)
                 (A) (A) (A) (A) (A) (A) (A) (A) (A) (A) (A) (A)
                 (A) (A) (A) (A) (A) (A) (A) (A) (A) (A) (A) (A)
                 (A) (A) (A) (A) (A) (A) (A) (A) (A) (A) (A) (A)
                 (A) (A) (A) (A) (A) (A) (A) (A) (A) (A) (A) (A)
                 (A) (A) (A) (A) (A) (A) (A) (A) (A) (A) (A) (A)
                 (A) (A) (A) (A) (A) (A) (A) (A) (A) (A) (A) (A)
                 (A) (A) (A) (A) (A) (A) (A) (A) (A) (A) (A) (A)
                 (A) (A) (A) (A) (A) (A) (A) (A) (A) (A) (A) (A)
                 (A) (A) (A) (A) (A) (A) (A) (A) (A) (A) (A) (A)
                 (A) (A) (A) (A) (A) (A) (A) (A) (A) (A) (A) (A)
                 (A) (A) (A) (A) (A) (A) (A) (A) (A) (A) (A) (A)
                 (A) (A) (A) (A) (A) (A) (A) (A) (A) (A) (A) (A)
                 (A) (A) (A) (A) (A) (A) (A) (A) (A) (A) (A) (A)
                 (A) (A) (A) (A) (A) (A) (A) (A) (A) (A) (A) (A)
                 (A) (A) (A) (A) (A) (A) (A) (A) (A) (A) (A) (A)
                 (A) (A) (A) (A) (A) (A) (A) (A) (A) (A) (A) (A)
                 (A) (A) (A) (A) (A) (A) (A) (A) (A) (A) (A) (A)
     4 initial guesses have been made.
 Convergence on wavefunction:    0.001000000000000
 Iteration     1 Dimension     4 NMult     0 NNew      4
 CISAX will form     4 AO SS matrices at one time.
 Iteration     2 Dimension     6 NMult     4 NNew      2
 Iteration     3 Dimension     8 NMult     6 NNew      2
 Iteration     4 Dimension    10 NMult     8 NNew      2
 Iteration     5 Dimension    12 NMult    10 NNew      2
 Iteration     6 Dimension    14 NMult    12 NNew      2
 ***********************************************************************
 Excited states from <AA,BB:AA,BB> singles matrix:
 ***********************************************************************
 
 Ground to excited state transition densities written to RWF  633
 Ground to excited state transition electric dipole moments (Au):
       state          X           Y           Z        Dip. S.      Osc.
         1        -7.1722     -0.6311     -0.2751     51.9147      2.7633
 Ground to excited state transition velocity dipole moments (Au):
       state          X           Y           Z        Dip. S.      Osc.
         1         0.5557      0.0500      0.0216      0.3118      2.6036
 Ground to excited state transition magnetic dipole moments (Au):
       state          X           Y           Z
         1         0.0593     -0.1660      0.8567
 Ground to excited state transition velocity quadrupole moments (Au):
       state          XX          YY          ZZ          XY          XZ          YZ
         1        -2.2544     -0.0310     -0.0196      0.2266      0.0474      0.0267
 <0|del|b> * <b|rxdel|0> + <0|del|b> * <b|delr+rdel|0>
 Rotatory Strengths (R) in cgs (10**-40 erg-esu-cm/Gauss)
       state          XX          YY          ZZ    R(velocity)    E-M Angle
         1        56.4018    271.9245     54.0154    127.4472       84.93
 1/2[<0|r|b>*<b|rxdel|0> + (<0|rxdel|b>*<b|r|0>)*]
 Rotatory Strengths (R) in cgs (10**-40 erg-esu-cm/Gauss)
       state          XX          YY          ZZ     R(length)
         1       300.7814    -74.0695    166.6789    131.1303
  1/2[<0|del|b>*<b|r|0> + (<0|r|b>*<b|del|0>)*] (Au)
       state          X           Y           Z        Dip. S.   Osc.(frdel)
         1        -3.9859     -0.0316     -0.0059      4.0234      2.6823

 Excitation energies and oscillator strengths:
 
 Excited State   1:      Singlet-A      2.1726 eV  570.68 nm  f=2.7633  <S**2>=0.000
     148 ->149         0.70301
     148 <-149        -0.10166
 This state for optimization and/or second-order correction.
 Total Energy, E(TD-HF/TD-DFT) =  -1557.45831526    
 Copying the excited state density for this state as the 1-particle RhoCI density.
 SavETr:  write IOETrn=   770 NScale= 10 NData=  16 NLR=1 NState=    1 LETran=      28.

 **********************************************************************

            Population analysis using the SCF density.

 **********************************************************************

 Orbital symmetries:
       Occupied  (A) (A) (A) (A) (A) (A) (A) (A) (A) (A) (A) (A)
                 (A) (A) (A) (A) (A) (A) (A) (A) (A) (A) (A) (A)
                 (A) (A) (A) (A) (A) (A) (A) (A) (A) (A) (A) (A)
                 (A) (A) (A) (A) (A) (A) (A) (A) (A) (A) (A) (A)
                 (A) (A) (A) (A) (A) (A) (A) (A) (A) (A) (A) (A)
                 (A) (A) (A) (A) (A) (A) (A) (A) (A) (A) (A) (A)
                 (A) (A) (A) (A) (A) (A) (A) (A) (A) (A) (A) (A)
                 (A) (A) (A) (A) (A) (A) (A) (A) (A) (A) (A) (A)
                 (A) (A) (A) (A) (A) (A) (A) (A) (A) (A) (A) (A)
                 (A) (A) (A) (A) (A) (A) (A) (A) (A) (A) (A) (A)
                 (A) (A) (A) (A) (A) (A) (A) (A) (A) (A) (A) (A)
                 (A) (A) (A) (A) (A) (A) (A) (A) (A) (A) (A) (A)
                 (A) (A) (A) (A)
       Virtual   (A) (A) (A) (A) (A) (A) (A) (A) (A) (A) (A) (A)
                 (A) (A) (A) (A) (A) (A) (A) (A) (A) (A) (A) (A)
                 (A) (A) (A) (A) (A) (A) (A) (A) (A) (A) (A) (A)
                 (A) (A) (A) (A) (A) (A) (A) (A) (A) (A) (A) (A)
                 (A) (A) (A) (A) (A) (A) (A) (A) (A) (A) (A) (A)
                 (A) (A) (A) (A) (A) (A) (A) (A) (A) (A) (A) (A)
                 (A) (A) (A) (A) (A) (A) (A) (A) (A) (A) (A) (A)
                 (A) (A) (A) (A) (A) (A) (A) (A) (A) (A) (A) (A)
                 (A) (A) (A) (A) (A) (A) (A) (A) (A) (A) (A) (A)
                 (A) (A) (A) (A) (A) (A) (A) (A) (A) (A) (A) (A)
                 (A) (A) (A) (A) (A) (A) (A) (A) (A) (A) (A) (A)
                 (A) (A) (A) (A) (A) (A) (A) (A) (A) (A) (A) (A)
                 (A) (A) (A) (A) (A) (A) (A) (A) (A) (A) (A) (A)
                 (A) (A) (A) (A) (A) (A) (A) (A) (A) (A) (A) (A)
                 (A) (A) (A) (A) (A) (A) (A) (A) (A) (A) (A) (A)
                 (A) (A) (A) (A) (A) (A) (A) (A) (A) (A) (A) (A)
                 (A) (A) (A) (A) (A) (A) (A) (A) (A) (A) (A) (A)
                 (A) (A) (A) (A) (A) (A) (A) (A) (A) (A) (A) (A)
                 (A) (A) (A) (A) (A) (A) (A) (A) (A) (A) (A) (A)
                 (A) (A) (A) (A) (A) (A) (A) (A) (A) (A) (A) (A)
                 (A) (A) (A) (A) (A) (A) (A) (A) (A) (A) (A) (A)
                 (A) (A) (A) (A) (A) (A) (A) (A) (A) (A) (A) (A)
                 (A) (A) (A) (A) (A) (A) (A) (A) (A) (A) (A) (A)
                 (A) (A) (A) (A) (A) (A) (A) (A) (A) (A) (A) (A)
                 (A) (A) (A) (A) (A) (A) (A) (A) (A) (A) (A) (A)
                 (A) (A) (A) (A) (A) (A) (A) (A) (A) (A) (A) (A)
                 (A) (A) (A) (A) (A) (A) (A) (A) (A) (A) (A) (A)
                 (A) (A) (A) (A) (A) (A) (A) (A) (A) (A) (A) (A)
                 (A) (A) (A) (A) (A) (A) (A) (A) (A) (A) (A) (A)
                 (A) (A) (A) (A) (A) (A) (A) (A) (A) (A) (A) (A)
                 (A) (A) (A) (A) (A) (A) (A) (A) (A) (A) (A) (A)
                 (A) (A) (A) (A) (A) (A) (A) (A) (A) (A) (A) (A)
                 (A) (A) (A) (A) (A) (A) (A) (A) (A) (A) (A) (A)
                 (A) (A) (A) (A) (A) (A) (A) (A) (A) (A) (A) (A)
                 (A) (A) (A) (A) (A) (A) (A) (A) (A) (A) (A) (A)
                 (A) (A) (A) (A) (A) (A) (A) (A) (A) (A) (A) (A)
                 (A) (A) (A) (A) (A) (A) (A) (A) (A) (A) (A) (A)
                 (A) (A) (A) (A) (A) (A) (A) (A) (A) (A) (A) (A)
                 (A) (A) (A) (A) (A) (A) (A) (A) (A) (A) (A) (A)
                 (A) (A) (A) (A) (A) (A) (A) (A) (A) (A) (A) (A)
                 (A) (A) (A) (A) (A) (A) (A) (A) (A) (A) (A) (A)
                 (A) (A) (A) (A) (A) (A) (A) (A) (A) (A) (A) (A)
                 (A) (A) (A) (A) (A) (A) (A) (A) (A) (A) (A) (A)
                 (A) (A) (A) (A) (A) (A) (A) (A) (A) (A) (A) (A)
                 (A) (A) (A) (A) (A) (A) (A) (A) (A) (A) (A) (A)
                 (A) (A) (A) (A) (A) (A) (A) (A) (A) (A) (A) (A)
                 (A) (A) (A) (A) (A) (A) (A) (A) (A) (A) (A) (A)
                 (A) (A) (A) (A) (A) (A) (A) (A) (A) (A) (A) (A)
                 (A) (A) (A) (A) (A) (A) (A) (A) (A) (A) (A) (A)
                 (A) (A) (A) (A) (A) (A) (A) (A) (A) (A) (A) (A)
                 (A) (A) (A) (A) (A) (A) (A) (A) (A) (A) (A) (A)
                 (A) (A) (A) (A) (A) (A) (A) (A) (A) (A) (A) (A)
                 (A) (A) (A) (A) (A) (A) (A) (A) (A) (A) (A) (A)
                 (A) (A) (A) (A) (A) (A) (A) (A) (A) (A) (A) (A)
                 (A) (A) (A) (A) (A) (A) (A) (A) (A) (A) (A) (A)
                 (A) (A) (A) (A) (A) (A) (A) (A) (A) (A) (A) (A)
                 (A) (A) (A) (A) (A) (A) (A) (A) (A) (A) (A) (A)
                 (A) (A) (A) (A) (A) (A) (A) (A) (A) (A) (A) (A)
                 (A) (A) (A) (A) (A) (A) (A) (A) (A) (A) (A) (A)
                 (A) (A) (A) (A) (A) (A) (A) (A) (A) (A) (A) (A)
                 (A) (A) (A) (A) (A) (A) (A) (A) (A) (A) (A) (A)
 The electronic state is 1-A.
 Alpha  occ. eigenvalues --  -10.21268 -10.20752 -10.20638 -10.20344 -10.20021
 Alpha  occ. eigenvalues --  -10.19981 -10.19963 -10.19904 -10.19572 -10.19440
 Alpha  occ. eigenvalues --  -10.19380 -10.19222 -10.19166 -10.19159 -10.19089
 Alpha  occ. eigenvalues --  -10.19070 -10.19042 -10.18987 -10.18911 -10.18756
 Alpha  occ. eigenvalues --  -10.18623 -10.18399 -10.18395 -10.18351 -10.18285
 Alpha  occ. eigenvalues --  -10.18175 -10.18080 -10.17938 -10.17903 -10.17698
 Alpha  occ. eigenvalues --  -10.17587 -10.17561 -10.17497 -10.17402 -10.17314
 Alpha  occ. eigenvalues --  -10.17228 -10.17034 -10.16657 -10.16377 -10.16294
 Alpha  occ. eigenvalues --   -0.85534  -0.84805  -0.84079  -0.83548  -0.82409
 Alpha  occ. eigenvalues --   -0.81761  -0.79375  -0.78569  -0.78245  -0.77688
 Alpha  occ. eigenvalues --   -0.77268  -0.75766  -0.74438  -0.72480  -0.72127
 Alpha  occ. eigenvalues --   -0.70044  -0.68778  -0.68468  -0.68424  -0.68229
 Alpha  occ. eigenvalues --   -0.67673  -0.67317  -0.66744  -0.66478  -0.65837
 Alpha  occ. eigenvalues --   -0.62943  -0.62185  -0.60733  -0.59212  -0.56886
 Alpha  occ. eigenvalues --   -0.56135  -0.55930  -0.55434  -0.53660  -0.52926
 Alpha  occ. eigenvalues --   -0.52402  -0.50751  -0.50265  -0.49628  -0.49374
 Alpha  occ. eigenvalues --   -0.48170  -0.48001  -0.46955  -0.46498  -0.45886
 Alpha  occ. eigenvalues --   -0.45607  -0.45324  -0.45235  -0.44766  -0.43964
 Alpha  occ. eigenvalues --   -0.43394  -0.43205  -0.42932  -0.42620  -0.42419
 Alpha  occ. eigenvalues --   -0.42082  -0.41635  -0.41405  -0.41257  -0.40888
 Alpha  occ. eigenvalues --   -0.40647  -0.40327  -0.39675  -0.39460  -0.39147
 Alpha  occ. eigenvalues --   -0.38992  -0.38845  -0.38748  -0.38385  -0.37972
 Alpha  occ. eigenvalues --   -0.37690  -0.37589  -0.37470  -0.36970  -0.36588
 Alpha  occ. eigenvalues --   -0.36334  -0.36127  -0.36006  -0.35393  -0.35106
 Alpha  occ. eigenvalues --   -0.34804  -0.34622  -0.33959  -0.33845  -0.33675
 Alpha  occ. eigenvalues --   -0.33209  -0.32808  -0.32696  -0.32341  -0.32098
 Alpha  occ. eigenvalues --   -0.31937  -0.31908  -0.31553  -0.31375  -0.31181
 Alpha  occ. eigenvalues --   -0.29897  -0.29670  -0.29144  -0.29011  -0.28573
 Alpha  occ. eigenvalues --   -0.28490  -0.27753  -0.26401  -0.24487  -0.22716
 Alpha  occ. eigenvalues --   -0.21154  -0.19074  -0.16417
 Alpha virt. eigenvalues --   -0.08321  -0.05056  -0.01200   0.00643   0.02747
 Alpha virt. eigenvalues --    0.04650   0.05351   0.06155   0.07067   0.07630
 Alpha virt. eigenvalues --    0.07901   0.08266   0.08533   0.08670   0.09042
 Alpha virt. eigenvalues --    0.09472   0.09900   0.09984   0.10215   0.10501
 Alpha virt. eigenvalues --    0.10723   0.11127   0.11418   0.11594   0.11842
 Alpha virt. eigenvalues --    0.12045   0.12311   0.12734   0.12893   0.13162
 Alpha virt. eigenvalues --    0.13593   0.13707   0.14244   0.14746   0.14946
 Alpha virt. eigenvalues --    0.15106   0.15410   0.15586   0.15680   0.15998
 Alpha virt. eigenvalues --    0.16052   0.16362   0.16709   0.16743   0.16976
 Alpha virt. eigenvalues --    0.17202   0.17533   0.17579   0.18099   0.18360
 Alpha virt. eigenvalues --    0.18526   0.18911   0.19210   0.19519   0.19793
 Alpha virt. eigenvalues --    0.19929   0.20242   0.20437   0.20891   0.20917
 Alpha virt. eigenvalues --    0.21442   0.21661   0.21904   0.22206   0.22572
 Alpha virt. eigenvalues --    0.23149   0.23171   0.23587   0.23987   0.24046
 Alpha virt. eigenvalues --    0.24542   0.24684   0.25024   0.25601   0.25911
 Alpha virt. eigenvalues --    0.26467   0.26997   0.27035   0.27406   0.27704
 Alpha virt. eigenvalues --    0.27985   0.28156   0.28401   0.28868   0.29038
 Alpha virt. eigenvalues --    0.29344   0.30419   0.31403   0.32942   0.33857
 Alpha virt. eigenvalues --    0.34510   0.35820   0.36009   0.37006   0.37740
 Alpha virt. eigenvalues --    0.38504   0.40152   0.40757   0.41424   0.42242
 Alpha virt. eigenvalues --    0.43446   0.43998   0.45367   0.46025   0.46756
 Alpha virt. eigenvalues --    0.47547   0.48579   0.49094   0.49587   0.49817
 Alpha virt. eigenvalues --    0.49997   0.50392   0.50594   0.50900   0.51589
 Alpha virt. eigenvalues --    0.51709   0.51928   0.52432   0.52834   0.53003
 Alpha virt. eigenvalues --    0.53566   0.54061   0.54251   0.54793   0.54896
 Alpha virt. eigenvalues --    0.55302   0.55597   0.55931   0.56167   0.56374
 Alpha virt. eigenvalues --    0.56892   0.56937   0.57733   0.58001   0.58174
 Alpha virt. eigenvalues --    0.58458   0.58817   0.59234   0.59636   0.59818
 Alpha virt. eigenvalues --    0.60164   0.60761   0.61089   0.61519   0.61712
 Alpha virt. eigenvalues --    0.62114   0.62504   0.62935   0.63216   0.63535
 Alpha virt. eigenvalues --    0.64023   0.64082   0.64172   0.64982   0.65072
 Alpha virt. eigenvalues --    0.65470   0.65964   0.66182   0.66477   0.66760
 Alpha virt. eigenvalues --    0.67341   0.67412   0.67529   0.68153   0.68693
 Alpha virt. eigenvalues --    0.68753   0.69069   0.69438   0.69999   0.70449
 Alpha virt. eigenvalues --    0.70556   0.70819   0.71331   0.71590   0.72347
 Alpha virt. eigenvalues --    0.72808   0.73086   0.73397   0.73553   0.74048
 Alpha virt. eigenvalues --    0.74511   0.74927   0.75439   0.75819   0.76293
 Alpha virt. eigenvalues --    0.76553   0.76768   0.77180   0.77378   0.77583
 Alpha virt. eigenvalues --    0.77656   0.77847   0.78846   0.79057   0.79406
 Alpha virt. eigenvalues --    0.79551   0.79720   0.79855   0.80385   0.80463
 Alpha virt. eigenvalues --    0.80942   0.81052   0.81570   0.81756   0.82471
 Alpha virt. eigenvalues --    0.82924   0.82978   0.83460   0.83602   0.83910
 Alpha virt. eigenvalues --    0.83976   0.84304   0.84580   0.84717   0.84791
 Alpha virt. eigenvalues --    0.85213   0.85275   0.85624   0.86047   0.86446
 Alpha virt. eigenvalues --    0.86715   0.87353   0.87688   0.88089   0.88287
 Alpha virt. eigenvalues --    0.88490   0.88581   0.88726   0.89554   0.89857
 Alpha virt. eigenvalues --    0.90607   0.90692   0.91088   0.91414   0.91630
 Alpha virt. eigenvalues --    0.91979   0.92308   0.93049   0.93123   0.93336
 Alpha virt. eigenvalues --    0.93417   0.93914   0.94364   0.94783   0.95000
 Alpha virt. eigenvalues --    0.95212   0.95521   0.95996   0.96162   0.96375
 Alpha virt. eigenvalues --    0.96949   0.97094   0.97600   0.97969   0.98465
 Alpha virt. eigenvalues --    0.99004   0.99390   0.99626   1.00170   1.00252
 Alpha virt. eigenvalues --    1.00714   1.00947   1.01598   1.02098   1.02298
 Alpha virt. eigenvalues --    1.03638   1.03952   1.04386   1.04477   1.05158
 Alpha virt. eigenvalues --    1.05592   1.05945   1.06889   1.07292   1.07874
 Alpha virt. eigenvalues --    1.08473   1.10382   1.10881   1.11363   1.11675
 Alpha virt. eigenvalues --    1.11976   1.12233   1.12812   1.13483   1.14931
 Alpha virt. eigenvalues --    1.15664   1.18237   1.18633   1.19040   1.20313
 Alpha virt. eigenvalues --    1.20814   1.21538   1.21834   1.23271   1.23948
 Alpha virt. eigenvalues --    1.24402   1.24771   1.26951   1.27274   1.27891
 Alpha virt. eigenvalues --    1.28448   1.29675   1.29806   1.30924   1.31445
 Alpha virt. eigenvalues --    1.32793   1.33807   1.33978   1.34847   1.35475
 Alpha virt. eigenvalues --    1.35719   1.36597   1.37168   1.37233   1.38081
 Alpha virt. eigenvalues --    1.39956   1.40280   1.40581   1.41135   1.42026
 Alpha virt. eigenvalues --    1.43072   1.43365   1.44019   1.44680   1.45364
 Alpha virt. eigenvalues --    1.45969   1.46405   1.46774   1.48111   1.48771
 Alpha virt. eigenvalues --    1.49930   1.50888   1.51306   1.51636   1.53058
 Alpha virt. eigenvalues --    1.53307   1.53766   1.54237   1.55450   1.56166
 Alpha virt. eigenvalues --    1.56524   1.57751   1.58345   1.59647   1.59979
 Alpha virt. eigenvalues --    1.61291   1.61404   1.62684   1.62783   1.63602
 Alpha virt. eigenvalues --    1.65761   1.67150   1.69189   1.69604   1.69816
 Alpha virt. eigenvalues --    1.70944   1.71158   1.71894   1.72097   1.72385
 Alpha virt. eigenvalues --    1.72666   1.72713   1.73225   1.73922   1.74331
 Alpha virt. eigenvalues --    1.74872   1.75389   1.75592   1.76474   1.76582
 Alpha virt. eigenvalues --    1.77224   1.77592   1.78655   1.78933   1.79454
 Alpha virt. eigenvalues --    1.79933   1.80145   1.80572   1.80757   1.81129
 Alpha virt. eigenvalues --    1.81224   1.82055   1.82149   1.82681   1.82908
 Alpha virt. eigenvalues --    1.83595   1.83820   1.84161   1.85353   1.85621
 Alpha virt. eigenvalues --    1.86000   1.86390   1.86702   1.87053   1.87604
 Alpha virt. eigenvalues --    1.87905   1.88348   1.89547   1.90266   1.90637
 Alpha virt. eigenvalues --    1.91209   1.91401   1.91637   1.92048   1.92238
 Alpha virt. eigenvalues --    1.93501   1.93817   1.94216   1.94682   1.95279
 Alpha virt. eigenvalues --    1.96442   1.96541   1.96725   1.96900   1.97514
 Alpha virt. eigenvalues --    1.97614   1.98244   1.98581   1.99208   1.99311
 Alpha virt. eigenvalues --    1.99934   2.00825   2.01040   2.01319   2.01932
 Alpha virt. eigenvalues --    2.02689   2.02892   2.02952   2.03628   2.03929
 Alpha virt. eigenvalues --    2.04214   2.04481   2.05249   2.05516   2.05607
 Alpha virt. eigenvalues --    2.06345   2.06534   2.06890   2.07112   2.07880
 Alpha virt. eigenvalues --    2.08048   2.08121   2.08902   2.09300   2.09683
 Alpha virt. eigenvalues --    2.10173   2.10716   2.11509   2.12056   2.12535
 Alpha virt. eigenvalues --    2.12622   2.13072   2.13345   2.13920   2.14804
 Alpha virt. eigenvalues --    2.15626   2.16047   2.16142   2.17126   2.17960
 Alpha virt. eigenvalues --    2.18299   2.18998   2.19407   2.19957   2.20135
 Alpha virt. eigenvalues --    2.20620   2.20976   2.21144   2.22046   2.22485
 Alpha virt. eigenvalues --    2.23388   2.23454   2.23804   2.24031   2.24634
 Alpha virt. eigenvalues --    2.25457   2.25778   2.26426   2.26616   2.26856
 Alpha virt. eigenvalues --    2.27256   2.27419   2.27625   2.28340   2.28756
 Alpha virt. eigenvalues --    2.29229   2.29460   2.30615   2.31485   2.32103
 Alpha virt. eigenvalues --    2.32552   2.32649   2.33482   2.33836   2.34326
 Alpha virt. eigenvalues --    2.34526   2.34874   2.35328   2.35723   2.36189
 Alpha virt. eigenvalues --    2.36277   2.36655   2.37218   2.37514   2.37808
 Alpha virt. eigenvalues --    2.38526   2.39525   2.39728   2.40056   2.40175
 Alpha virt. eigenvalues --    2.41035   2.41496   2.41744   2.41832   2.42012
 Alpha virt. eigenvalues --    2.43136   2.43997   2.44284   2.44515   2.44858
 Alpha virt. eigenvalues --    2.45477   2.46078   2.46324   2.47035   2.47454
 Alpha virt. eigenvalues --    2.48361   2.49304   2.49548   2.49975   2.50492
 Alpha virt. eigenvalues --    2.50795   2.51074   2.52586   2.52665   2.53589
 Alpha virt. eigenvalues --    2.54579   2.54807   2.55457   2.55806   2.56230
 Alpha virt. eigenvalues --    2.56334   2.56790   2.56932   2.57311   2.57815
 Alpha virt. eigenvalues --    2.57903   2.58850   2.59427   2.59685   2.60331
 Alpha virt. eigenvalues --    2.60587   2.61403   2.62158   2.62833   2.62973
 Alpha virt. eigenvalues --    2.63509   2.63705   2.64594   2.64988   2.65054
 Alpha virt. eigenvalues --    2.65416   2.66334   2.66588   2.67135   2.67308
 Alpha virt. eigenvalues --    2.67752   2.68755   2.69556   2.69915   2.70109
 Alpha virt. eigenvalues --    2.70140   2.70758   2.70863   2.71655   2.72184
 Alpha virt. eigenvalues --    2.72602   2.72821   2.74108   2.74226   2.74975
 Alpha virt. eigenvalues --    2.75409   2.75468   2.75637   2.76652   2.77326
 Alpha virt. eigenvalues --    2.77837   2.78782   2.78952   2.79203   2.79684
 Alpha virt. eigenvalues --    2.80116   2.81171   2.81429   2.82017   2.82640
 Alpha virt. eigenvalues --    2.82974   2.83135   2.83958   2.84773   2.84904
 Alpha virt. eigenvalues --    2.86004   2.86615   2.87260   2.87540   2.88505
 Alpha virt. eigenvalues --    2.89003   2.89263   2.89335   2.91447   2.91789
 Alpha virt. eigenvalues --    2.91829   2.92703   2.93090   2.93949   2.94832
 Alpha virt. eigenvalues --    2.95485   2.95998   2.96789   2.96976   2.97389
 Alpha virt. eigenvalues --    2.98806   2.99276   2.99402   3.00551   3.01308
 Alpha virt. eigenvalues --    3.01642   3.03094   3.03903   3.04761   3.04928
 Alpha virt. eigenvalues --    3.05553   3.07044   3.08892   3.09795   3.10432
 Alpha virt. eigenvalues --    3.10613   3.14135   3.14641   3.15832   3.16922
 Alpha virt. eigenvalues --    3.17553   3.17781   3.19268   3.22073   3.23067
 Alpha virt. eigenvalues --    3.23418   3.23513   3.24738   3.25500   3.27368
 Alpha virt. eigenvalues --    3.28972   3.29545   3.32324   3.32593   3.33319
 Alpha virt. eigenvalues --    3.35268   3.36256   3.36667   3.37425   3.38045
 Alpha virt. eigenvalues --    3.38354   3.38682   3.38872   3.40318   3.40811
 Alpha virt. eigenvalues --    3.41908   3.43080   3.43719   3.44372   3.44412
 Alpha virt. eigenvalues --    3.45501   3.46541   3.48633   3.49661   3.51288
 Alpha virt. eigenvalues --    3.51972   3.53181   3.53706   3.54434   3.55581
 Alpha virt. eigenvalues --    3.56335   3.56641   3.57167   3.59335   3.59994
 Alpha virt. eigenvalues --    3.63925   3.65228   3.67321   3.67917   3.75147
 Alpha virt. eigenvalues --    3.84059   3.89987   4.11192   4.12981   4.13679
 Alpha virt. eigenvalues --    4.14519   4.15888   4.17804   4.20469   4.21424
 Alpha virt. eigenvalues --    4.22651   4.26044   4.28344   4.30906   4.32633
 Alpha virt. eigenvalues --    4.34591   4.37809   4.38292   4.40889   4.41291
 Alpha virt. eigenvalues --    4.42332   4.46084   4.46263   4.47267   4.49528
 Alpha virt. eigenvalues --    4.50971   4.51404   4.55446   4.56268   4.57434
 Alpha virt. eigenvalues --    4.62990   4.63018   4.64372   4.66558   4.68579
 Alpha virt. eigenvalues --    4.70811   4.72958   4.74310   4.77113   4.79637
 Alpha virt. eigenvalues --    4.81421   4.82654
          Condensed to atoms (all electrons):
 Mulliken charges:
               1
     1  C    0.000354
     2  C    0.025626
     3  C   -0.143664
     4  C   -0.175868
     5  C   -0.192350
     6  C   -0.188386
     7  C    0.086394
     8  C    0.051757
     9  C   -0.225070
    10  C   -0.225062
    11  C    0.040349
    12  C    0.067460
    13  C   -0.301429
    14  C   -0.325273
    15  C   -0.283427
    16  C   -0.302961
    17  C   -0.109609
    18  C   -0.129986
    19  C   -0.350888
    20  C   -0.355649
    21  C   -0.106072
    22  C   -0.094511
    23  C    0.128413
    24  C    0.141724
    25  C   -0.391484
    26  C   -0.389536
    27  C   -0.112892
    28  C   -0.086355
    29  C   -0.105807
    30  C   -0.083317
    31  C   -0.093722
    32  C   -0.148218
    33  C    0.114513
    34  C    0.157229
    35  C   -0.344956
    36  C   -0.361185
    37  C   -0.069630
    38  C   -0.148023
    39  C   -0.064800
    40  C   -0.095176
    41  H    0.096748
    42  H    0.079362
    43  H    0.108893
    44  H    0.070492
    45  H    0.058833
    46  H    0.109935
    47  H    0.097798
    48  H    0.092948
    49  H    0.106667
    50  H    0.099684
    51  H    0.091713
    52  H    0.095663
    53  H    0.099716
    54  H    0.101903
    55  H    0.096402
    56  H    0.116540
    57  H    0.082530
    58  H    0.097151
    59  H    0.106991
    60  H    0.098745
    61  H    0.066672
    62  H    0.098106
    63  H    0.106861
    64  H    0.085844
    65  H    0.080682
    66  H    0.057424
    67  H    0.131819
    68  H    0.083307
    69  H    0.109942
    70  H    0.130335
    71  H    0.090220
    72  H    0.097087
    73  H    0.053161
    74  H    0.079324
    75  H    0.131425
    76  H    0.097735
    77  H    0.132572
    78  H    0.126661
    79  H    0.094539
    80  H    0.109970
    81  H    0.077623
    82  H    0.077660
    83  H    0.072818
    84  H    0.073358
    85  H    0.056248
    86  H    0.071310
    87  H    0.101987
    88  H    0.115959
    89  H    0.083538
    90  H    0.126443
    91  H    0.113012
    92  H    0.096133
    93  H    0.051793
    94  H    0.067519
    95  H    0.049841
    96  H    0.083842
 Sum of Mulliken charges =  -0.00000
 Mulliken charges with hydrogens summed into heavy atoms:
               1
     1  C    0.000354
     2  C    0.025626
     3  C    0.032447
     4  C    0.003517
     5  C   -0.023581
     6  C    0.002360
     7  C    0.086394
     8  C    0.051757
     9  C   -0.018719
    10  C   -0.037686
    11  C    0.040349
    12  C    0.067460
    13  C   -0.003407
    14  C   -0.029051
    15  C   -0.011019
    16  C   -0.012150
    17  C   -0.028927
    18  C   -0.072562
    19  C   -0.025821
    20  C   -0.038008
    21  C   -0.052911
    22  C   -0.015187
    23  C    0.128413
    24  C    0.141724
    25  C   -0.029751
    26  C   -0.058367
    27  C   -0.035269
    28  C   -0.008695
    29  C   -0.032989
    30  C   -0.009959
    31  C   -0.037474
    32  C   -0.076908
    33  C    0.114513
    34  C    0.157229
    35  C   -0.043472
    36  C   -0.025597
    37  C   -0.017836
    38  C   -0.080504
    39  C   -0.014959
    40  C   -0.011334
 Electronic spatial extent (au):  <R**2>=          96068.1257
 Charge=             -0.0000 electrons
 Dipole moment (field-independent basis, Debye):
    X=             -0.3740    Y=              0.4983    Z=             -0.0946  Tot=              0.6302
 Quadrupole moment (field-independent basis, Debye-Ang):
   XX=           -212.4853   YY=           -235.4517   ZZ=           -253.5308
   XY=             -3.2019   XZ=              4.5173   YZ=              4.1887
 Traceless Quadrupole moment (field-independent basis, Debye-Ang):
   XX=             21.3373   YY=             -1.6291   ZZ=            -19.7082
   XY=             -3.2019   XZ=              4.5173   YZ=              4.1887
 Octapole moment (field-independent basis, Debye-Ang**2):
  XXX=            -60.5359  YYY=              2.1728  ZZZ=              0.2452  XYY=             11.8267
  XXY=             66.5304  XXZ=             12.1713  XZZ=            -15.0237  YZZ=              4.9621
  YYZ=             -1.5859  XYZ=              5.5092
 Hexadecapole moment (field-independent basis, Debye-Ang**3):
 XXXX=        -121198.4448 YYYY=          -4184.1973 ZZZZ=          -1517.1017 XXXY=          -1469.7123
 XXXZ=            381.9506 YYYX=             99.5487 YYYZ=             34.1126 ZZZX=             -0.6968
 ZZZY=              8.3630 XXYY=         -21648.3776 XXZZ=         -21732.7591 YYZZ=           -948.0613
 XXYZ=            179.6379 YYXZ=             45.6805 ZZXY=            -55.0088
 N-N= 3.679166670456D+03 E-N=-1.095899011078D+04  KE= 1.541993200323D+03
 1\1\GINC-RYZEN-SSD1\SP\RB3LYP TD-FC\6-31G(d,p)\C40H56\PADAWAN\28-Jul-2
 019\0\\# td=(NStates=1) B3LYP/6-31G(d,p)\\TD\\0,1\C,0,12.1679311357,0.
 3361042109,-0.7241885378\C,0,-12.2147637905,-0.2003450761,0.8656757465
 \C,0,13.4906584785,-0.4356332233,-0.6022262216\C,0,-13.1345999599,1.00
 1954587,1.2182625407\C,0,13.2882611403,-1.8846141338,-0.5500867675\C,0
 ,-13.5820828044,1.7429328054,-0.0597356065\C,0,11.0859703909,-0.040359
 7715,0.2601735552\C,0,-11.0727749453,0.2821480971,-0.1707147063\C,0,12
 .3569301304,-2.1315554495,0.6870626826\C,0,-12.2512550081,2.4412044286
 ,-0.52404074\C,0,11.1831780258,-1.1916312176,0.9535819266\C,0,-11.0062
 154157,1.5716227841,-0.6120000737\C,0,11.6924098287,0.2042815533,-2.14
 40328819\C,0,12.5765910725,1.8235564107,-0.4105025693\C,0,-13.08159575
 04,-1.2250396227,0.069770807\C,0,-11.6332421922,-0.8496781414,2.078626
 0108\C,0,9.859464009,0.7639925129,0.3386858691\C,0,-9.9339532022,-0.53
 04255847,-0.1715712449\C,0,10.2498491612,-1.5676965814,2.0084034752\C,
 0,-10.0303460048,2.1069324323,-1.6347749424\C,0,8.6202582655,0.3431942
 756,0.4211703232\C,0,-8.5727402324,-0.3315030156,0.0007637535\C,0,7.37
 94765159,1.2592547258,0.3518778004\C,0,-7.5360725012,-1.3132097961,-0.
 2885992568\C,0,7.7283158813,2.7197346107,0.6482472617\C,0,-7.805197708
 ,-2.6111811292,-0.6407313507\C,0,6.1979236939,0.7238167707,0.252737432
 7\C,0,-6.218920502,-0.7860994325,-0.0876808798\C,0,4.9329039411,1.4884
 31175,0.2680964686\C,0,-5.0827878906,-1.5084168195,-0.3029016718\C,0,3
 .7067993915,0.8968472499,0.3044923985\C,0,-3.7954649317,-0.9555361863,
 -0.2419266304\C,0,2.3986731687,1.4377044781,0.3307675647\C,0,-2.519930
 9925,-1.6251775765,-0.4541987\C,0,2.3486292345,3.0098303495,0.53285765
 91\C,0,-2.5441349589,-3.0681903455,-0.9257339235\C,0,1.2590374522,0.74
 16655082,-0.0032154045\C,0,-1.407298903,-0.9465432263,-0.3420229074\C,
 0,1.0456289351,-0.5364285901,-0.2959471144\C,0,0.0255430939,-1.4189581
 356,-0.363170073\H,0,13.9835984656,-0.1804456151,0.1765256955\H,0,14.1
 351905329,-0.3850468804,-1.5548690253\H,0,-12.6810244674,1.7250648967,
 1.7605596208\H,0,-13.9858994475,0.6970391962,1.92581902\H,0,14.2695975
 818,-2.4783186496,-0.2087843242\H,0,13.1455304347,-2.3737812781,-1.385
 0246258\H,0,-14.3795613443,2.3842617862,0.2011411517\H,0,-14.006485432
 3,1.1729969739,-0.951769199\H,0,12.9768296468,-2.1913716438,1.55739762
 18\H,0,11.7869661511,-3.0364873408,0.5772545811\H,0,-11.8561954116,3.1
 799757183,0.2978162986\H,0,-12.550111225,2.9965031581,-1.4213660378\H,
 0,11.3725906296,-0.8310761849,-2.4323113638\H,0,12.3410609868,0.826007
 262,-2.7266192359\H,0,10.7640939807,0.7206251742,-2.4144821677\H,0,12.
 5989208462,1.9676936713,0.6075480953\H,0,11.7988882957,2.6239323041,-0
 .8262467817\H,0,13.647496606,1.9716074306,-0.6818304541\H,0,-13.373266
 5574,-0.7370877178,-0.8548515859\H,0,-13.9814103136,-1.6506208663,0.53
 38606068\H,0,-12.4125788611,-2.2118195869,-0.2257984623\H,0,-11.188481
 339,-0.1837540148,2.8447541345\H,0,-11.0144379692,-1.8036213628,2.0089
 349097\H,0,-12.554589523,-1.0225867266,2.7153600641\H,0,9.8977831849,1
 .843429203,0.3318890968\H,0,-10.2348079255,-1.5953846485,-0.6617825563
 \H,0,9.508264904,-0.9237899737,2.2698107387\H,0,10.9559464087,-1.78299
 44973,2.9209635264\H,0,9.7295050177,-2.4570055506,1.7107606977\H,0,-9.
 4801150468,1.3898512977,-2.1528877857\H,0,-9.3915039553,3.1152550475,-
 1.4044904952\H,0,-10.6377940444,2.4945844638,-2.5190318765\H,0,8.39156
 47473,-0.8894797282,0.3364066903\H,0,-8.2904724424,0.6862028144,0.4281
 491624\H,0,8.360089241,2.9757626122,1.4864880313\H,0,6.8420360843,3.30
 97886831,0.9093935191\H,0,7.9793121689,3.2345021122,-0.2603792608\H,0,
 -8.3273036826,-2.819018961,-1.6142081144\H,0,-8.4891399023,-3.23723691
 1,0.1865747968\H,0,-6.893993952,-3.1793005814,-0.6850773929\H,0,6.2219
 630608,-0.4517203988,0.0656745508\H,0,-5.9851404986,0.2201539539,0.080
 037727\H,0,5.139487306,2.7147799221,0.5959725041\H,0,-5.3079608964,-2.
 6344369601,-0.5175738985\H,0,3.5517654432,-0.3256971396,0.0014997884\H
 ,0,-3.6635839896,0.1937357035,-0.0470865754\H,0,2.7394446439,3.4744378
 399,1.5577044257\H,0,1.345221723,3.2627970115,0.4656962971\H,0,3.07046
 41052,3.6219926728,-0.3509490645\H,0,-3.3388757572,-3.0660949654,-1.66
 12711379\H,0,-2.7378553913,-3.7623282257,-0.0154568943\H,0,-1.47511848
 31,-3.3506353979,-1.337615988\H,0,0.4023126321,1.1390198172,0.07514816
 \H,0,-1.525083597,0.1530932965,-0.1216098871\H,0,1.9968982343,-1.16858
 59083,-0.3274923134\H,0,0.2001905299,-2.4059156339,-0.5916300239\\Vers
 ion=ES64L-G16RevA.03\State=1-A\HF=-1557.5381559\RMSD=8.989e-09\PG=C01 
 [X(C40H56)]\\@


 MOST BUREAUCRACIES FUNCTION LIKE A SEPTIC TANK.
 THE LARGE CHUNKS RISE TO THE TOP.
 Job cpu time:       0 days 10 hours 32 minutes 11.3 seconds.
 Elapsed time:       0 days  2 hours 38 minutes 57.4 seconds.
 File lengths (MBytes):  RWF=   2884 Int=      0 D2E=      0 Chk=     79 Scr=      1
 Normal termination of Gaussian 16 at Sun Jul 28 18:46:19 2019.
