 Entering Gaussian System, Link 0=g16
 Input=Geometria-307-.com
 Output=Geometria-307-.log
 Initial command:
 /usr/local/g16/l1.exe "/home/padawan/israel-mol/b-caroten/spectra/abs/Gau-96301.inp" -scrdir="/home/padawan/israel-mol/b-caroten/spectra/abs/"
 Entering Link 1 = /usr/local/g16/l1.exe PID=     96303.
  
 Copyright (c) 1988,1990,1992,1993,1995,1998,2003,2009,2016,
            Gaussian, Inc.  All Rights Reserved.
  
 This is part of the Gaussian(R) 16 program.  It is based on
 the Gaussian(R) 09 system (copyright 2009, Gaussian, Inc.),
 the Gaussian(R) 03 system (copyright 2003, Gaussian, Inc.),
 the Gaussian(R) 98 system (copyright 1998, Gaussian, Inc.),
 the Gaussian(R) 94 system (copyright 1995, Gaussian, Inc.),
 the Gaussian 92(TM) system (copyright 1992, Gaussian, Inc.),
 the Gaussian 90(TM) system (copyright 1990, Gaussian, Inc.),
 the Gaussian 88(TM) system (copyright 1988, Gaussian, Inc.),
 the Gaussian 86(TM) system (copyright 1986, Carnegie Mellon
 University), and the Gaussian 82(TM) system (copyright 1983,
 Carnegie Mellon University). Gaussian is a federally registered
 trademark of Gaussian, Inc.
  
 This software contains proprietary and confidential information,
 including trade secrets, belonging to Gaussian, Inc.
  
 This software is provided under written license and may be
 used, copied, transmitted, or stored only in accord with that
 written license.
  
 The following legend is applicable only to US Government
 contracts under FAR:
  
                    RESTRICTED RIGHTS LEGEND
  
 Use, reproduction and disclosure by the US Government is
 subject to restrictions as set forth in subparagraphs (a)
 and (c) of the Commercial Computer Software - Restricted
 Rights clause in FAR 52.227-19.
  
 Gaussian, Inc.
 340 Quinnipiac St., Bldg. 40, Wallingford CT 06492
  
  
 ---------------------------------------------------------------
 Warning -- This program may not be used in any manner that
 competes with the business of Gaussian, Inc. or will provide
 assistance to any competitor of Gaussian, Inc.  The licensee
 of this program is prohibited from giving any competitor of
 Gaussian, Inc. access to this program.  By using this program,
 the user acknowledges that Gaussian, Inc. is engaged in the
 business of creating and licensing software in the field of
 computational chemistry and represents and warrants to the
 licensee that it is not a competitor of Gaussian, Inc. and that
 it will not use this program in any manner prohibited above.
 ---------------------------------------------------------------
  

 Cite this work as:
 Gaussian 16, Revision A.03,
 M. J. Frisch, G. W. Trucks, H. B. Schlegel, G. E. Scuseria, 
 M. A. Robb, J. R. Cheeseman, G. Scalmani, V. Barone, 
 G. A. Petersson, H. Nakatsuji, X. Li, M. Caricato, A. V. Marenich, 
 J. Bloino, B. G. Janesko, R. Gomperts, B. Mennucci, H. P. Hratchian, 
 J. V. Ortiz, A. F. Izmaylov, J. L. Sonnenberg, D. Williams-Young, 
 F. Ding, F. Lipparini, F. Egidi, J. Goings, B. Peng, A. Petrone, 
 T. Henderson, D. Ranasinghe, V. G. Zakrzewski, J. Gao, N. Rega, 
 G. Zheng, W. Liang, M. Hada, M. Ehara, K. Toyota, R. Fukuda, 
 J. Hasegawa, M. Ishida, T. Nakajima, Y. Honda, O. Kitao, H. Nakai, 
 T. Vreven, K. Throssell, J. A. Montgomery, Jr., J. E. Peralta, 
 F. Ogliaro, M. J. Bearpark, J. J. Heyd, E. N. Brothers, K. N. Kudin, 
 V. N. Staroverov, T. A. Keith, R. Kobayashi, J. Normand, 
 K. Raghavachari, A. P. Rendell, J. C. Burant, S. S. Iyengar, 
 J. Tomasi, M. Cossi, J. M. Millam, M. Klene, C. Adamo, R. Cammi, 
 J. W. Ochterski, R. L. Martin, K. Morokuma, O. Farkas, 
 J. B. Foresman, and D. J. Fox, Gaussian, Inc., Wallingford CT, 2016.
 
 ******************************************
 Gaussian 16:  ES64L-G16RevA.03 25-Dec-2016
                30-Jul-2019 
 ******************************************
 %nproc=4
 Will use up to    4 processors via shared memory.
 %Mem=2GB
 ---------------------------------
 # td=(NStates=1) B3LYP/6-31G(d,p)
 ---------------------------------
 1/38=1,172=1/1;
 2/12=2,17=6,18=5,40=1/2;
 3/5=1,6=6,7=101,11=9,25=1,30=1,74=-5/1,2,3,8;
 4//1;
 5/5=2,38=5/2;
 8/6=1,10=2,108=1/1;
 9/41=1,42=1,70=2/14;
 6/7=2,8=2,9=2,10=2/1;
 99/5=1,9=1/99;
 --
 TD
 --
 Symbolic Z-matrix:
 Charge =  0 Multiplicity = 1
 6                     12.10029   0.48237  -0.76152 
 6                    -12.1394  -0.09869   0.71418 
 6                     13.44212  -0.37972  -0.71051 
 6                    -13.13687   0.98349   1.29405 
 6                     13.20006  -1.80309  -0.51595 
 6                    -13.36936   1.91576   0.07623 
 6                     11.06954  -0.07497   0.25493 
 6                    -10.98373   0.47848  -0.06005 
 6                     12.41312  -2.12073   0.7856 
 6                    -12.11532   2.6499   -0.36007 
 6                     11.23063  -1.16698   0.99656 
 6                    -10.98213   1.69193  -0.54617 
 6                     11.48711   0.38712  -2.20343 
 6                     12.53058   1.98675  -0.46996 
 6                    -13.05788  -1.24111  -0.09471 
 6                    -11.61324  -0.88737   1.97777 
 6                     9.81403   0.73996   0.42506 
 6                    -9.86542  -0.51031  -0.2172 
 6                     10.34093  -1.65256   2.16526 
 6                    -9.94062   2.2841   -1.47649 
 6                     8.52809   0.33823   0.35799 
 6                    -8.54542  -0.29666  -0.15214 
 6                     7.34504   1.28629   0.45331 
 6                    -7.54945  -1.32478  -0.41494 
 6                     7.68609   2.76671   0.6522 
 6                    -8.02748  -2.78724  -0.66501 
 6                     6.14389   0.79039   0.35426 
 6                    -6.27176  -1.00962  -0.27467 
 6                     4.85627   1.52134   0.38509 
 6                    -5.02836  -1.70636  -0.32869 
 6                     3.77341   0.89566   0.16052 
 6                    -3.7841   -1.02367  -0.35862 
 6                     2.34464   1.37949   0.16866 
 6                    -2.51208  -1.78876  -0.40268 
 6                     2.27072   2.99472   0.2513 
 6                    -2.50384  -3.2187   -0.68528 
 6                     1.19828   0.66286  -0.05947 
 6                    -1.36243  -1.05287  -0.22911 
 6                     1.13521  -0.79667  -0.22949 
 6                    -0.03183  -1.53635  -0.19612 
 1                     13.76885  -0.24487   0.28712 
 1                     13.97885  -0.11523  -1.83498 
 1                    -12.83507   1.7018    1.90355 
 1                    -13.97829   0.57425   1.54221 
 1                     14.23707  -2.3008   -0.48881 
 1                     12.9131  -2.24077  -1.47157 
 1                    -14.10801   2.53206   0.49211 
 1                    -13.99113   1.34519  -0.52033 
 1                     12.9712  -2.14916   1.61963 
 1                     11.82381  -3.08333   0.57314 
 1                    -11.8316   3.59715   0.43739 
 1                    -12.19707   3.08352  -1.18024 
 1                     11.46601  -0.67336  -2.61742 
 1                     12.22298   0.7818   -2.77086 
 1                     10.48823   0.68225  -2.32852 
 1                     12.71807   2.12517   0.688 
 1                     11.5921   2.64683  -0.84871 
 1                     13.35569   2.33652  -1.10331 
 1                    -13.29052  -0.88406  -0.94628 
 1                    -14.05127  -1.40475   0.49459 
 1                    -12.40449  -2.15678  -0.06593 
 1                    -10.67937   0.03357   2.3359 
 1                    -11.3038  -1.85054   1.79455 
 1                    -12.4032  -0.99171   2.78659 
 1                     10.25153   1.74032   0.52002 
 1                    -10.26337  -1.6275   -0.46386 
 1                     9.66936  -0.91222   2.59158 
 1                     10.8547  -2.05734   3.10041 
 1                     9.90961  -2.77523   1.99706 
 1                    -9.17421   1.46717  -1.76168 
 1                    -9.36223   3.0862   -0.94143 
 1                    -10.49237   3.01638  -2.33487 
 1                     8.39577  -0.71493   0.31503 
 1                    -8.43597   0.78966  -0.2023 
 1                     8.36732   2.86751   1.50211 
 1                     6.8455    3.45934   0.77376 
 1                     8.29031   3.18601  -0.1928 
 1                    -8.86657  -2.55219  -1.47116 
 1                    -8.48083  -3.14478   0.25798 
 1                    -7.20903  -3.48784  -1.14211 
 1                     6.12072  -0.37808   0.25618 
 1                    -5.87706   0.19656   0.10548 
 1                     4.75185   2.45831   0.57095 
 1                    -5.17296  -2.70652  -0.37251 
 1                     3.99607  -0.1604    0.06063 
 1                    -3.6832    0.11475  -0.43945 
 1                     2.71141   3.61939   1.21776 
 1                     1.33201   3.32963   0.09339 
 1                     2.77024   3.48482  -0.6118 
 1                    -3.04244  -3.61141  -1.78353 
 1                    -2.90219  -3.74746   0.18477 
 1                    -1.36976  -3.6419   -0.83516 
 1                     0.37628   1.41068   0.09499 
 1                    -1.46921  -0.09407   0.09193 
 1                     2.21963  -1.14654  -0.39226 
 1                     0.04434  -2.69799  -0.23005 
 
 Stoichiometry    C40H56
 Framework group  C1[X(C40H56)]
 Deg. of freedom   282
 Full point group                 C1      NOp   1
 Largest Abelian subgroup         C1      NOp   1
 Largest concise Abelian subgroup C1      NOp   1
                         Standard orientation:                         
 ---------------------------------------------------------------------
 Center     Atomic      Atomic             Coordinates (Angstroms)
 Number     Number       Type             X           Y           Z
 ---------------------------------------------------------------------
      1          6           0       12.099762    0.497198   -0.752416
      2          6           0      -12.139674   -0.117277    0.713903
      3          6           0       13.441844   -0.365275   -0.716935
      4          6           0      -13.137428    0.954050    1.313134
      5          6           0       13.200206   -1.791973   -0.547919
      6          6           0      -13.370260    1.907934    0.112234
      7          6           0       11.069226   -0.078578    0.253938
      8          6           0      -10.984216    0.474019   -0.049919
      9          6           0       12.413427   -2.133134    0.747774
     10          6           0      -12.116458    2.650138   -0.310902
     11          6           0       11.230680   -1.183657    0.975855
     12          6           0      -10.983003    1.695997   -0.514206
     13          6           0       11.486521    0.427637   -2.195766
     14          6           0       12.529625    1.996237   -0.433950
     15          6           0      -13.057877   -1.245275   -0.115287
     16          6           0      -11.613217   -0.928329    1.963118
     17          6           0        9.813491    0.732809    0.438718
     18          6           0       -9.865629   -0.511470   -0.224822
     19          6           0       10.341183   -1.690367    2.135711
     20          6           0       -9.941712    2.305049   -1.433810
     21          6           0        8.527663    0.331976    0.364524
     22          6           0       -8.545688   -0.298633   -0.156017
     23          6           0        7.344348    1.277824    0.476881
     24          6           0       -7.549442   -1.321588   -0.437260
     25          6           0        7.684979    2.754542    0.702263
     26          6           0       -8.027059   -2.779466   -0.713487
     27          6           0        6.143331    0.783437    0.369019
     28          6           0       -6.271827   -1.008623   -0.291427
     29          6           0        4.855499    1.513343    0.413017
     30          6           0       -5.028235   -1.703916   -0.358000
     31          6           0        3.772807    0.891468    0.177322
     32          6           0       -3.784176   -1.020444   -0.375745
     33          6           0        2.343899    1.374660    0.194214
     34          6           0       -2.511933   -1.784252   -0.433587
     35          6           0        2.269520    2.988128    0.305801
     36          6           0       -2.503296   -3.208885   -0.741774
     37          6           0        1.197738    0.661901   -0.046670
     38          6           0       -1.362491   -1.051258   -0.246910
     39          6           0        1.135077   -0.794367   -0.242826
     40          6           0       -0.031747   -1.534861   -0.222664
     41          1           0       13.768586   -0.248242    0.282929
     42          1           0       13.978434   -0.080514   -1.836511
     43          1           0      -12.835801    1.661405    1.935402
     44          1           0      -13.978714    0.540177    1.553961
     45          1           0       14.237364   -2.289793   -0.529760
     46          1           0       12.913313   -2.212535   -1.511217
     47          1           0      -14.109067    2.516460    0.539137
     48          1           0      -13.991901    1.347974   -0.494421
     49          1           0       12.971566   -2.176343    1.581132
     50          1           0       11.824387   -3.091939    0.518123
     51          1           0      -11.832968    3.583023    0.503402
     52          1           0      -12.198375    3.098375   -1.123160
     53          1           0       11.465705   -0.625257   -2.628703
     54          1           0       12.222244    0.832643   -2.756073
     55          1           0       10.487546    0.724673   -2.315497
     56          1           0       12.717148    2.113926    0.726290
     57          1           0       11.590933    2.662731   -0.800757
     58          1           0       13.354598    2.357547   -1.060975
     59          1           0      -13.290664   -0.873084   -0.960311
     60          1           0      -14.051179   -1.419737    0.471029
     61          1           0      -12.404215   -2.161126   -0.102969
     62          1           0      -10.679593   -0.013686    2.337660
     63          1           0      -11.303505   -1.887963    1.762651
     64          1           0      -12.403104   -1.047384    2.769980
     65          1           0       10.250706    1.731432    0.551568
     66          1           0      -10.263274   -1.624168   -0.491458
     67          1           0        9.669426   -0.957989    2.575275
     68          1           0       10.855122   -2.111706    3.063429
     69          1           0        9.910184   -2.809969    1.947433
     70          1           0       -9.175089    1.493585   -1.733640
     71          1           0       -9.363527    3.097598   -0.884491
     72          1           0      -10.493726    3.052437   -2.278899
     73          1           0        8.395642   -0.720289    0.302696
     74          1           0       -8.436555    0.788446   -0.186701
     75          1           0        8.366227    2.840288    1.553810
     76          1           0        6.844190    3.444641    0.836268
     77          1           0        8.289030    3.189097   -0.135116
     78          1           0       -8.866261   -2.530249   -1.515249
     79          1           0       -8.480251   -3.153628    0.202974
     80          1           0       -7.208429   -3.471165   -1.203113
     81          1           0        6.120499   -0.383100    0.250013
     82          1           0       -5.877459    0.190666    0.110266
     83          1           0        4.750821    2.446800    0.615653
     84          1           0       -5.172543   -2.703179   -0.419732
     85          1           0        3.995771   -0.162565    0.058501
     86          1           0       -3.683603    0.119272   -0.436155
     87          1           0        2.710085    3.595502    1.283283
     88          1           0        1.330703    3.325547    0.153970
     89          1           0        2.768851    3.493768   -0.548394
     90          1           0       -3.041841   -3.582002   -1.846864
     91          1           0       -2.901444   -3.753275    0.118680
     92          1           0       -1.369099   -3.629009   -0.899273
     93          1           0        0.375528    1.406592    0.121217
     94          1           0       -1.469524   -0.098396    0.091277
     95          1           0        2.219592   -1.140946   -0.411898
     96          1           0        0.044765   -2.695688   -0.277420
 ---------------------------------------------------------------------
 Rotational constants (GHZ):           0.2744138           0.0109805           0.0107358
 Standard basis: 6-31G(d,p) (6D, 7F)
 There are   880 symmetry adapted cartesian basis functions of A   symmetry.
 There are   880 symmetry adapted basis functions of A   symmetry.
   880 basis functions,  1512 primitive gaussians,   880 cartesian basis functions
   148 alpha electrons      148 beta electrons
       nuclear repulsion energy      3664.9866310533 Hartrees.
 NAtoms=   96 NActive=   96 NUniq=   96 SFac= 1.00D+00 NAtFMM=   60 NAOKFM=T Big=T
 Integral buffers will be    131072 words long.
 Regular integral format.
 Two-electron integral symmetry is turned on.
 One-electron integrals computed using PRISM.
 NBasis=   880 RedAO= T EigKep=  8.76D-04  NBF=   880
 NBsUse=   880 1.00D-06 EigRej= -1.00D+00 NBFU=   880
 ExpMin= 1.61D-01 ExpMax= 3.05D+03 ExpMxC= 4.57D+02 IAcc=3 IRadAn=         5 AccDes= 0.00D+00
 Harris functional with IExCor=  402 and IRadAn=       5 diagonalized for initial guess.
 HarFok:  IExCor=  402 AccDes= 0.00D+00 IRadAn=         5 IDoV= 1 UseB2=F ITyADJ=14
 ICtDFT=  3500011 ScaDFX=  1.000000  1.000000  1.000000  1.000000
 FoFCou: FMM=F IPFlag=           0 FMFlag=      100000 FMFlg1=        2001
         NFxFlg=           0 DoJE=T BraDBF=F KetDBF=T FulRan=T
         wScrn=  0.000000 ICntrl=       500 IOpCl=  0 I1Cent=   200000004 NGrid=           0
         NMat0=    1 NMatS0=      1 NMatT0=    0 NMatD0=    1 NMtDS0=    0 NMtDT0=    0
 Petite list used in FoFCou.
 Requested convergence on RMS density matrix=1.00D-08 within 128 cycles.
 Requested convergence on MAX density matrix=1.00D-06.
 Requested convergence on             energy=1.00D-06.
 No special actions if energy rises.
 Integral accuracy reduced to 1.0D-05 until final iterations.
 Initial convergence to 1.0D-05 achieved.  Increase integral accuracy.
 SCF Done:  E(RB3LYP) =  -1557.44534108     A.U. after   14 cycles
            NFock= 14  Conv=0.88D-08     -V/T= 2.0105
 DoSCS=F DFT=T ScalE2(SS,OS)=  1.000000  1.000000
 ExpMin= 1.61D-01 ExpMax= 3.05D+03 ExpMxC= 4.57D+02 IAcc=3 IRadAn=         5 AccDes= 0.00D+00
 HarFok:  IExCor=  205 AccDes= 0.00D+00 IRadAn=         5 IDoV=-2 UseB2=F ITyADJ=14
 ICtDFT= 12500011 ScaDFX=  1.000000  1.000000  1.000000  1.000000
 GSVD:  LWork=       -1920 too small for GESVD, short by        8600 words or        8600 for optimal perf.
 Range of M.O.s used for correlation:    41   880
 NBasis=   880 NAE=   148 NBE=   148 NFC=    40 NFV=     0
 NROrb=    840 NOA=   108 NOB=   108 NVA=   732 NVB=   732

 **** Warning!!: The smallest alpha delta epsilon is  0.97125463D-01

 Orbital symmetries:
       Occupied  (A) (A) (A) (A) (A) (A) (A) (A) (A) (A) (A) (A)
                 (A) (A) (A) (A) (A) (A) (A) (A) (A) (A) (A) (A)
                 (A) (A) (A) (A) (A) (A) (A) (A) (A) (A) (A) (A)
                 (A) (A) (A) (A) (A) (A) (A) (A) (A) (A) (A) (A)
                 (A) (A) (A) (A) (A) (A) (A) (A) (A) (A) (A) (A)
                 (A) (A) (A) (A) (A) (A) (A) (A) (A) (A) (A) (A)
                 (A) (A) (A) (A) (A) (A) (A) (A) (A) (A) (A) (A)
                 (A) (A) (A) (A) (A) (A) (A) (A) (A) (A) (A) (A)
                 (A) (A) (A) (A) (A) (A) (A) (A) (A) (A) (A) (A)
                 (A) (A) (A) (A) (A) (A) (A) (A) (A) (A) (A) (A)
                 (A) (A) (A) (A) (A) (A) (A) (A) (A) (A) (A) (A)
                 (A) (A) (A) (A) (A) (A) (A) (A) (A) (A) (A) (A)
                 (A) (A) (A) (A)
       Virtual   (A) (A) (A) (A) (A) (A) (A) (A) (A) (A) (A) (A)
                 (A) (A) (A) (A) (A) (A) (A) (A) (A) (A) (A) (A)
                 (A) (A) (A) (A) (A) (A) (A) (A) (A) (A) (A) (A)
                 (A) (A) (A) (A) (A) (A) (A) (A) (A) (A) (A) (A)
                 (A) (A) (A) (A) (A) (A) (A) (A) (A) (A) (A) (A)
                 (A) (A) (A) (A) (A) (A) (A) (A) (A) (A) (A) (A)
                 (A) (A) (A) (A) (A) (A) (A) (A) (A) (A) (A) (A)
                 (A) (A) (A) (A) (A) (A) (A) (A) (A) (A) (A) (A)
                 (A) (A) (A) (A) (A) (A) (A) (A) (A) (A) (A) (A)
                 (A) (A) (A) (A) (A) (A) (A) (A) (A) (A) (A) (A)
                 (A) (A) (A) (A) (A) (A) (A) (A) (A) (A) (A) (A)
                 (A) (A) (A) (A) (A) (A) (A) (A) (A) (A) (A) (A)
                 (A) (A) (A) (A) (A) (A) (A) (A) (A) (A) (A) (A)
                 (A) (A) (A) (A) (A) (A) (A) (A) (A) (A) (A) (A)
                 (A) (A) (A) (A) (A) (A) (A) (A) (A) (A) (A) (A)
                 (A) (A) (A) (A) (A) (A) (A) (A) (A) (A) (A) (A)
                 (A) (A) (A) (A) (A) (A) (A) (A) (A) (A) (A) (A)
                 (A) (A) (A) (A) (A) (A) (A) (A) (A) (A) (A) (A)
                 (A) (A) (A) (A) (A) (A) (A) (A) (A) (A) (A) (A)
                 (A) (A) (A) (A) (A) (A) (A) (A) (A) (A) (A) (A)
                 (A) (A) (A) (A) (A) (A) (A) (A) (A) (A) (A) (A)
                 (A) (A) (A) (A) (A) (A) (A) (A) (A) (A) (A) (A)
                 (A) (A) (A) (A) (A) (A) (A) (A) (A) (A) (A) (A)
                 (A) (A) (A) (A) (A) (A) (A) (A) (A) (A) (A) (A)
                 (A) (A) (A) (A) (A) (A) (A) (A) (A) (A) (A) (A)
                 (A) (A) (A) (A) (A) (A) (A) (A) (A) (A) (A) (A)
                 (A) (A) (A) (A) (A) (A) (A) (A) (A) (A) (A) (A)
                 (A) (A) (A) (A) (A) (A) (A) (A) (A) (A) (A) (A)
                 (A) (A) (A) (A) (A) (A) (A) (A) (A) (A) (A) (A)
                 (A) (A) (A) (A) (A) (A) (A) (A) (A) (A) (A) (A)
                 (A) (A) (A) (A) (A) (A) (A) (A) (A) (A) (A) (A)
                 (A) (A) (A) (A) (A) (A) (A) (A) (A) (A) (A) (A)
                 (A) (A) (A) (A) (A) (A) (A) (A) (A) (A) (A) (A)
                 (A) (A) (A) (A) (A) (A) (A) (A) (A) (A) (A) (A)
                 (A) (A) (A) (A) (A) (A) (A) (A) (A) (A) (A) (A)
                 (A) (A) (A) (A) (A) (A) (A) (A) (A) (A) (A) (A)
                 (A) (A) (A) (A) (A) (A) (A) (A) (A) (A) (A) (A)
                 (A) (A) (A) (A) (A) (A) (A) (A) (A) (A) (A) (A)
                 (A) (A) (A) (A) (A) (A) (A) (A) (A) (A) (A) (A)
                 (A) (A) (A) (A) (A) (A) (A) (A) (A) (A) (A) (A)
                 (A) (A) (A) (A) (A) (A) (A) (A) (A) (A) (A) (A)
                 (A) (A) (A) (A) (A) (A) (A) (A) (A) (A) (A) (A)
                 (A) (A) (A) (A) (A) (A) (A) (A) (A) (A) (A) (A)
                 (A) (A) (A) (A) (A) (A) (A) (A) (A) (A) (A) (A)
                 (A) (A) (A) (A) (A) (A) (A) (A) (A) (A) (A) (A)
                 (A) (A) (A) (A) (A) (A) (A) (A) (A) (A) (A) (A)
                 (A) (A) (A) (A) (A) (A) (A) (A) (A) (A) (A) (A)
                 (A) (A) (A) (A) (A) (A) (A) (A) (A) (A) (A) (A)
                 (A) (A) (A) (A) (A) (A) (A) (A) (A) (A) (A) (A)
                 (A) (A) (A) (A) (A) (A) (A) (A) (A) (A) (A) (A)
                 (A) (A) (A) (A) (A) (A) (A) (A) (A) (A) (A) (A)
                 (A) (A) (A) (A) (A) (A) (A) (A) (A) (A) (A) (A)
                 (A) (A) (A) (A) (A) (A) (A) (A) (A) (A) (A) (A)
                 (A) (A) (A) (A) (A) (A) (A) (A) (A) (A) (A) (A)
                 (A) (A) (A) (A) (A) (A) (A) (A) (A) (A) (A) (A)
                 (A) (A) (A) (A) (A) (A) (A) (A) (A) (A) (A) (A)
                 (A) (A) (A) (A) (A) (A) (A) (A) (A) (A) (A) (A)
                 (A) (A) (A) (A) (A) (A) (A) (A) (A) (A) (A) (A)
                 (A) (A) (A) (A) (A) (A) (A) (A) (A) (A) (A) (A)
                 (A) (A) (A) (A) (A) (A) (A) (A) (A) (A) (A) (A)
                 (A) (A) (A) (A) (A) (A) (A) (A) (A) (A) (A) (A)
     4 initial guesses have been made.
 Convergence on wavefunction:    0.001000000000000
 Iteration     1 Dimension     4 NMult     0 NNew      4
 CISAX will form     4 AO SS matrices at one time.
 Iteration     2 Dimension     6 NMult     4 NNew      2
 Iteration     3 Dimension     8 NMult     6 NNew      2
 Iteration     4 Dimension    10 NMult     8 NNew      2
 Iteration     5 Dimension    12 NMult    10 NNew      2
 Iteration     6 Dimension    14 NMult    12 NNew      2
 ***********************************************************************
 Excited states from <AA,BB:AA,BB> singles matrix:
 ***********************************************************************
 
 Ground to excited state transition densities written to RWF  633
 Ground to excited state transition electric dipole moments (Au):
       state          X           Y           Z        Dip. S.      Osc.
         1        -6.6243     -0.6574     -0.2979     44.4019      2.7599
 Ground to excited state transition velocity dipole moments (Au):
       state          X           Y           Z        Dip. S.      Osc.
         1         0.5991      0.0600      0.0260      0.3632      2.5973
 Ground to excited state transition magnetic dipole moments (Au):
       state          X           Y           Z
         1         0.0343     -0.2558      1.1329
 Ground to excited state transition velocity quadrupole moments (Au):
       state          XX          YY          ZZ          XY          XZ          YZ
         1        -2.3347     -0.0912     -0.0018      0.1828      0.0313     -0.0028
 <0|del|b> * <b|rxdel|0> + <0|del|b> * <b|delr+rdel|0>
 Rotatory Strengths (R) in cgs (10**-40 erg-esu-cm/Gauss)
       state          XX          YY          ZZ    R(velocity)    E-M Angle
         1        64.6465    165.4087     33.3448     87.8000       87.16
 1/2[<0|r|b>*<b|rxdel|0> + (<0|rxdel|b>*<b|r|0>)*]
 Rotatory Strengths (R) in cgs (10**-40 erg-esu-cm/Gauss)
       state          XX          YY          ZZ     R(length)
         1       160.8094   -118.9187    238.6383     93.5097
  1/2[<0|del|b>*<b|r|0> + (<0|r|b>*<b|del|0>)*] (Au)
       state          X           Y           Z        Dip. S.   Osc.(frdel)
         1        -3.9689     -0.0394     -0.0078      4.0160      2.6774

 Excitation energies and oscillator strengths:
 
 Excited State   1:      Singlet-A      2.5371 eV  488.69 nm  f=2.7599  <S**2>=0.000
     148 ->149         0.69800
 This state for optimization and/or second-order correction.
 Total Energy, E(TD-HF/TD-DFT) =  -1557.35210450    
 Copying the excited state density for this state as the 1-particle RhoCI density.
 SavETr:  write IOETrn=   770 NScale= 10 NData=  16 NLR=1 NState=    1 LETran=      28.

 **********************************************************************

            Population analysis using the SCF density.

 **********************************************************************

 Orbital symmetries:
       Occupied  (A) (A) (A) (A) (A) (A) (A) (A) (A) (A) (A) (A)
                 (A) (A) (A) (A) (A) (A) (A) (A) (A) (A) (A) (A)
                 (A) (A) (A) (A) (A) (A) (A) (A) (A) (A) (A) (A)
                 (A) (A) (A) (A) (A) (A) (A) (A) (A) (A) (A) (A)
                 (A) (A) (A) (A) (A) (A) (A) (A) (A) (A) (A) (A)
                 (A) (A) (A) (A) (A) (A) (A) (A) (A) (A) (A) (A)
                 (A) (A) (A) (A) (A) (A) (A) (A) (A) (A) (A) (A)
                 (A) (A) (A) (A) (A) (A) (A) (A) (A) (A) (A) (A)
                 (A) (A) (A) (A) (A) (A) (A) (A) (A) (A) (A) (A)
                 (A) (A) (A) (A) (A) (A) (A) (A) (A) (A) (A) (A)
                 (A) (A) (A) (A) (A) (A) (A) (A) (A) (A) (A) (A)
                 (A) (A) (A) (A) (A) (A) (A) (A) (A) (A) (A) (A)
                 (A) (A) (A) (A)
       Virtual   (A) (A) (A) (A) (A) (A) (A) (A) (A) (A) (A) (A)
                 (A) (A) (A) (A) (A) (A) (A) (A) (A) (A) (A) (A)
                 (A) (A) (A) (A) (A) (A) (A) (A) (A) (A) (A) (A)
                 (A) (A) (A) (A) (A) (A) (A) (A) (A) (A) (A) (A)
                 (A) (A) (A) (A) (A) (A) (A) (A) (A) (A) (A) (A)
                 (A) (A) (A) (A) (A) (A) (A) (A) (A) (A) (A) (A)
                 (A) (A) (A) (A) (A) (A) (A) (A) (A) (A) (A) (A)
                 (A) (A) (A) (A) (A) (A) (A) (A) (A) (A) (A) (A)
                 (A) (A) (A) (A) (A) (A) (A) (A) (A) (A) (A) (A)
                 (A) (A) (A) (A) (A) (A) (A) (A) (A) (A) (A) (A)
                 (A) (A) (A) (A) (A) (A) (A) (A) (A) (A) (A) (A)
                 (A) (A) (A) (A) (A) (A) (A) (A) (A) (A) (A) (A)
                 (A) (A) (A) (A) (A) (A) (A) (A) (A) (A) (A) (A)
                 (A) (A) (A) (A) (A) (A) (A) (A) (A) (A) (A) (A)
                 (A) (A) (A) (A) (A) (A) (A) (A) (A) (A) (A) (A)
                 (A) (A) (A) (A) (A) (A) (A) (A) (A) (A) (A) (A)
                 (A) (A) (A) (A) (A) (A) (A) (A) (A) (A) (A) (A)
                 (A) (A) (A) (A) (A) (A) (A) (A) (A) (A) (A) (A)
                 (A) (A) (A) (A) (A) (A) (A) (A) (A) (A) (A) (A)
                 (A) (A) (A) (A) (A) (A) (A) (A) (A) (A) (A) (A)
                 (A) (A) (A) (A) (A) (A) (A) (A) (A) (A) (A) (A)
                 (A) (A) (A) (A) (A) (A) (A) (A) (A) (A) (A) (A)
                 (A) (A) (A) (A) (A) (A) (A) (A) (A) (A) (A) (A)
                 (A) (A) (A) (A) (A) (A) (A) (A) (A) (A) (A) (A)
                 (A) (A) (A) (A) (A) (A) (A) (A) (A) (A) (A) (A)
                 (A) (A) (A) (A) (A) (A) (A) (A) (A) (A) (A) (A)
                 (A) (A) (A) (A) (A) (A) (A) (A) (A) (A) (A) (A)
                 (A) (A) (A) (A) (A) (A) (A) (A) (A) (A) (A) (A)
                 (A) (A) (A) (A) (A) (A) (A) (A) (A) (A) (A) (A)
                 (A) (A) (A) (A) (A) (A) (A) (A) (A) (A) (A) (A)
                 (A) (A) (A) (A) (A) (A) (A) (A) (A) (A) (A) (A)
                 (A) (A) (A) (A) (A) (A) (A) (A) (A) (A) (A) (A)
                 (A) (A) (A) (A) (A) (A) (A) (A) (A) (A) (A) (A)
                 (A) (A) (A) (A) (A) (A) (A) (A) (A) (A) (A) (A)
                 (A) (A) (A) (A) (A) (A) (A) (A) (A) (A) (A) (A)
                 (A) (A) (A) (A) (A) (A) (A) (A) (A) (A) (A) (A)
                 (A) (A) (A) (A) (A) (A) (A) (A) (A) (A) (A) (A)
                 (A) (A) (A) (A) (A) (A) (A) (A) (A) (A) (A) (A)
                 (A) (A) (A) (A) (A) (A) (A) (A) (A) (A) (A) (A)
                 (A) (A) (A) (A) (A) (A) (A) (A) (A) (A) (A) (A)
                 (A) (A) (A) (A) (A) (A) (A) (A) (A) (A) (A) (A)
                 (A) (A) (A) (A) (A) (A) (A) (A) (A) (A) (A) (A)
                 (A) (A) (A) (A) (A) (A) (A) (A) (A) (A) (A) (A)
                 (A) (A) (A) (A) (A) (A) (A) (A) (A) (A) (A) (A)
                 (A) (A) (A) (A) (A) (A) (A) (A) (A) (A) (A) (A)
                 (A) (A) (A) (A) (A) (A) (A) (A) (A) (A) (A) (A)
                 (A) (A) (A) (A) (A) (A) (A) (A) (A) (A) (A) (A)
                 (A) (A) (A) (A) (A) (A) (A) (A) (A) (A) (A) (A)
                 (A) (A) (A) (A) (A) (A) (A) (A) (A) (A) (A) (A)
                 (A) (A) (A) (A) (A) (A) (A) (A) (A) (A) (A) (A)
                 (A) (A) (A) (A) (A) (A) (A) (A) (A) (A) (A) (A)
                 (A) (A) (A) (A) (A) (A) (A) (A) (A) (A) (A) (A)
                 (A) (A) (A) (A) (A) (A) (A) (A) (A) (A) (A) (A)
                 (A) (A) (A) (A) (A) (A) (A) (A) (A) (A) (A) (A)
                 (A) (A) (A) (A) (A) (A) (A) (A) (A) (A) (A) (A)
                 (A) (A) (A) (A) (A) (A) (A) (A) (A) (A) (A) (A)
                 (A) (A) (A) (A) (A) (A) (A) (A) (A) (A) (A) (A)
                 (A) (A) (A) (A) (A) (A) (A) (A) (A) (A) (A) (A)
                 (A) (A) (A) (A) (A) (A) (A) (A) (A) (A) (A) (A)
                 (A) (A) (A) (A) (A) (A) (A) (A) (A) (A) (A) (A)
                 (A) (A) (A) (A) (A) (A) (A) (A) (A) (A) (A) (A)
 The electronic state is 1-A.
 Alpha  occ. eigenvalues --  -10.21282 -10.20859 -10.20643 -10.20615 -10.20542
 Alpha  occ. eigenvalues --  -10.20522 -10.20312 -10.20014 -10.20004 -10.19966
 Alpha  occ. eigenvalues --  -10.19913 -10.19805 -10.19595 -10.19575 -10.19518
 Alpha  occ. eigenvalues --  -10.19287 -10.19216 -10.19188 -10.18963 -10.18810
 Alpha  occ. eigenvalues --  -10.18796 -10.18679 -10.18617 -10.18509 -10.18385
 Alpha  occ. eigenvalues --  -10.18307 -10.18283 -10.18256 -10.18213 -10.18198
 Alpha  occ. eigenvalues --  -10.18170 -10.18144 -10.18097 -10.17720 -10.17629
 Alpha  occ. eigenvalues --  -10.17540 -10.16834 -10.16141 -10.15908 -10.14862
 Alpha  occ. eigenvalues --   -0.85295  -0.84587  -0.83484  -0.83110  -0.82165
 Alpha  occ. eigenvalues --   -0.80870  -0.78935  -0.78168  -0.77793  -0.77548
 Alpha  occ. eigenvalues --   -0.76985  -0.75743  -0.74185  -0.72199  -0.71672
 Alpha  occ. eigenvalues --   -0.69595  -0.68568  -0.68320  -0.68023  -0.67788
 Alpha  occ. eigenvalues --   -0.67554  -0.67215  -0.66736  -0.66705  -0.66223
 Alpha  occ. eigenvalues --   -0.62625  -0.61077  -0.59972  -0.58875  -0.57394
 Alpha  occ. eigenvalues --   -0.57199  -0.56328  -0.54983  -0.54503  -0.53851
 Alpha  occ. eigenvalues --   -0.52471  -0.51601  -0.50627  -0.49915  -0.49559
 Alpha  occ. eigenvalues --   -0.49137  -0.47511  -0.47003  -0.46214  -0.45747
 Alpha  occ. eigenvalues --   -0.45143  -0.44695  -0.44342  -0.44176  -0.44022
 Alpha  occ. eigenvalues --   -0.43122  -0.42730  -0.42459  -0.42242  -0.41799
 Alpha  occ. eigenvalues --   -0.41557  -0.41482  -0.41390  -0.41015  -0.40673
 Alpha  occ. eigenvalues --   -0.40623  -0.40359  -0.40126  -0.39723  -0.39145
 Alpha  occ. eigenvalues --   -0.38850  -0.38731  -0.38610  -0.38292  -0.37870
 Alpha  occ. eigenvalues --   -0.37620  -0.37456  -0.37306  -0.37105  -0.36796
 Alpha  occ. eigenvalues --   -0.36630  -0.36030  -0.35773  -0.35602  -0.35540
 Alpha  occ. eigenvalues --   -0.35431  -0.34931  -0.34487  -0.33877  -0.33630
 Alpha  occ. eigenvalues --   -0.33255  -0.33176  -0.32906  -0.32512  -0.32371
 Alpha  occ. eigenvalues --   -0.32128  -0.31835  -0.30990  -0.30741  -0.30474
 Alpha  occ. eigenvalues --   -0.30222  -0.29856  -0.29472  -0.29116  -0.28105
 Alpha  occ. eigenvalues --   -0.26793  -0.26488  -0.26467  -0.24362  -0.23225
 Alpha  occ. eigenvalues --   -0.21510  -0.19784  -0.17324
 Alpha virt. eigenvalues --   -0.07611  -0.03972  -0.01478   0.00898   0.02627
 Alpha virt. eigenvalues --    0.04329   0.05399   0.05786   0.06646   0.07010
 Alpha virt. eigenvalues --    0.07305   0.07757   0.07966   0.08525   0.08693
 Alpha virt. eigenvalues --    0.09149   0.09483   0.09642   0.09779   0.10097
 Alpha virt. eigenvalues --    0.10382   0.10753   0.11374   0.11438   0.11855
 Alpha virt. eigenvalues --    0.12067   0.12460   0.12538   0.12599   0.12672
 Alpha virt. eigenvalues --    0.12834   0.13032   0.13644   0.14027   0.14308
 Alpha virt. eigenvalues --    0.14372   0.14878   0.15007   0.15057   0.15792
 Alpha virt. eigenvalues --    0.16131   0.16446   0.17035   0.17160   0.17235
 Alpha virt. eigenvalues --    0.17332   0.17350   0.17511   0.18072   0.18467
 Alpha virt. eigenvalues --    0.18736   0.18857   0.19147   0.19214   0.19440
 Alpha virt. eigenvalues --    0.19774   0.19911   0.20231   0.20481   0.20719
 Alpha virt. eigenvalues --    0.20948   0.21324   0.21426   0.21797   0.22081
 Alpha virt. eigenvalues --    0.22555   0.22728   0.23026   0.23120   0.23326
 Alpha virt. eigenvalues --    0.23660   0.23985   0.24115   0.24552   0.25056
 Alpha virt. eigenvalues --    0.25619   0.25670   0.26034   0.26458   0.26649
 Alpha virt. eigenvalues --    0.26777   0.27171   0.27679   0.28499   0.28831
 Alpha virt. eigenvalues --    0.29591   0.29914   0.30353   0.31844   0.32925
 Alpha virt. eigenvalues --    0.33882   0.35624   0.36260   0.36751   0.37287
 Alpha virt. eigenvalues --    0.38181   0.38607   0.40017   0.40442   0.41598
 Alpha virt. eigenvalues --    0.42171   0.42616   0.44136   0.45739   0.46734
 Alpha virt. eigenvalues --    0.47259   0.48575   0.48900   0.49281   0.49751
 Alpha virt. eigenvalues --    0.49946   0.50006   0.50255   0.50678   0.51093
 Alpha virt. eigenvalues --    0.51845   0.52046   0.52450   0.52751   0.53103
 Alpha virt. eigenvalues --    0.53147   0.53488   0.53619   0.53948   0.54452
 Alpha virt. eigenvalues --    0.54734   0.55347   0.55802   0.56127   0.56454
 Alpha virt. eigenvalues --    0.56633   0.56853   0.57051   0.57538   0.57688
 Alpha virt. eigenvalues --    0.58122   0.58473   0.58680   0.59128   0.59457
 Alpha virt. eigenvalues --    0.59555   0.59661   0.60185   0.60298   0.60530
 Alpha virt. eigenvalues --    0.61295   0.61452   0.61557   0.61880   0.62382
 Alpha virt. eigenvalues --    0.62831   0.63370   0.63721   0.63822   0.64281
 Alpha virt. eigenvalues --    0.64741   0.65048   0.65591   0.65787   0.66059
 Alpha virt. eigenvalues --    0.66438   0.66851   0.67710   0.68465   0.68518
 Alpha virt. eigenvalues --    0.68849   0.69327   0.69771   0.70066   0.70083
 Alpha virt. eigenvalues --    0.70444   0.70850   0.71357   0.71687   0.72007
 Alpha virt. eigenvalues --    0.72124   0.72670   0.73072   0.73424   0.73534
 Alpha virt. eigenvalues --    0.73814   0.74380   0.75169   0.75325   0.75409
 Alpha virt. eigenvalues --    0.75762   0.75852   0.76192   0.76771   0.76809
 Alpha virt. eigenvalues --    0.77215   0.77685   0.77877   0.78558   0.78710
 Alpha virt. eigenvalues --    0.78822   0.79717   0.79856   0.79986   0.80175
 Alpha virt. eigenvalues --    0.80343   0.80687   0.81006   0.81097   0.81692
 Alpha virt. eigenvalues --    0.82049   0.82088   0.82507   0.82576   0.83700
 Alpha virt. eigenvalues --    0.84137   0.84411   0.84471   0.84833   0.85505
 Alpha virt. eigenvalues --    0.85713   0.85746   0.86183   0.86757   0.86760
 Alpha virt. eigenvalues --    0.87211   0.87729   0.87921   0.88026   0.88402
 Alpha virt. eigenvalues --    0.88806   0.88934   0.89064   0.89216   0.89706
 Alpha virt. eigenvalues --    0.90124   0.90418   0.90569   0.91042   0.91098
 Alpha virt. eigenvalues --    0.91506   0.91642   0.92150   0.92502   0.92697
 Alpha virt. eigenvalues --    0.93138   0.93815   0.94163   0.94816   0.94994
 Alpha virt. eigenvalues --    0.95511   0.95531   0.96124   0.96389   0.96534
 Alpha virt. eigenvalues --    0.97087   0.97788   0.97962   0.98150   0.98813
 Alpha virt. eigenvalues --    0.99171   0.99280   0.99551   1.00235   1.00557
 Alpha virt. eigenvalues --    1.01215   1.01296   1.01812   1.02703   1.03869
 Alpha virt. eigenvalues --    1.04299   1.04445   1.05036   1.05280   1.05708
 Alpha virt. eigenvalues --    1.06186   1.07008   1.07216   1.07731   1.08555
 Alpha virt. eigenvalues --    1.09032   1.09341   1.09511   1.10452   1.11349
 Alpha virt. eigenvalues --    1.11987   1.12410   1.13627   1.14819   1.15469
 Alpha virt. eigenvalues --    1.16081   1.16466   1.18381   1.19231   1.20548
 Alpha virt. eigenvalues --    1.21313   1.22071   1.22714   1.23745   1.23924
 Alpha virt. eigenvalues --    1.24517   1.25652   1.26132   1.26922   1.27411
 Alpha virt. eigenvalues --    1.28678   1.28994   1.29667   1.30768   1.31283
 Alpha virt. eigenvalues --    1.31581   1.32042   1.33645   1.33870   1.34300
 Alpha virt. eigenvalues --    1.36117   1.36472   1.36691   1.37168   1.37961
 Alpha virt. eigenvalues --    1.38284   1.39487   1.39766   1.40382   1.42040
 Alpha virt. eigenvalues --    1.42622   1.42934   1.43737   1.43950   1.45419
 Alpha virt. eigenvalues --    1.46620   1.47213   1.47684   1.48365   1.48587
 Alpha virt. eigenvalues --    1.48974   1.50160   1.50616   1.51032   1.51506
 Alpha virt. eigenvalues --    1.52472   1.52747   1.54151   1.54476   1.56329
 Alpha virt. eigenvalues --    1.56648   1.57469   1.57870   1.58520   1.59662
 Alpha virt. eigenvalues --    1.60599   1.60772   1.62288   1.62826   1.64328
 Alpha virt. eigenvalues --    1.65834   1.67733   1.68387   1.68602   1.68860
 Alpha virt. eigenvalues --    1.69595   1.69709   1.70365   1.70880   1.71878
 Alpha virt. eigenvalues --    1.72107   1.73229   1.73376   1.73626   1.74257
 Alpha virt. eigenvalues --    1.75134   1.75434   1.75595   1.75812   1.75912
 Alpha virt. eigenvalues --    1.76415   1.76851   1.77006   1.77490   1.78058
 Alpha virt. eigenvalues --    1.78486   1.78763   1.78950   1.79089   1.79733
 Alpha virt. eigenvalues --    1.80252   1.80350   1.80558   1.81913   1.82047
 Alpha virt. eigenvalues --    1.82473   1.83590   1.84369   1.84412   1.84678
 Alpha virt. eigenvalues --    1.85273   1.85321   1.85784   1.86782   1.87059
 Alpha virt. eigenvalues --    1.87229   1.87572   1.88428   1.88592   1.89181
 Alpha virt. eigenvalues --    1.89288   1.90270   1.90874   1.91310   1.91565
 Alpha virt. eigenvalues --    1.92066   1.92404   1.92982   1.93361   1.94056
 Alpha virt. eigenvalues --    1.94229   1.94991   1.95626   1.96203   1.96331
 Alpha virt. eigenvalues --    1.97464   1.98304   1.98668   1.98901   1.99410
 Alpha virt. eigenvalues --    1.99732   2.00268   2.00628   2.00821   2.00875
 Alpha virt. eigenvalues --    2.01056   2.01354   2.02709   2.02856   2.03547
 Alpha virt. eigenvalues --    2.03674   2.03763   2.04153   2.04348   2.04831
 Alpha virt. eigenvalues --    2.05121   2.05903   2.06289   2.06781   2.06890
 Alpha virt. eigenvalues --    2.07720   2.07805   2.08270   2.09012   2.09764
 Alpha virt. eigenvalues --    2.10181   2.10595   2.10849   2.11756   2.11884
 Alpha virt. eigenvalues --    2.12159   2.12334   2.12950   2.13556   2.13941
 Alpha virt. eigenvalues --    2.14483   2.15010   2.15092   2.15853   2.16640
 Alpha virt. eigenvalues --    2.17094   2.17147   2.17382   2.18216   2.19138
 Alpha virt. eigenvalues --    2.19460   2.19962   2.20536   2.21071   2.21724
 Alpha virt. eigenvalues --    2.22236   2.23393   2.23526   2.23818   2.24319
 Alpha virt. eigenvalues --    2.24477   2.25257   2.25523   2.25862   2.26270
 Alpha virt. eigenvalues --    2.26855   2.27210   2.27566   2.27890   2.28482
 Alpha virt. eigenvalues --    2.29127   2.29731   2.30303   2.30590   2.31002
 Alpha virt. eigenvalues --    2.31976   2.32405   2.33429   2.33855   2.34012
 Alpha virt. eigenvalues --    2.34340   2.34681   2.35081   2.35505   2.36010
 Alpha virt. eigenvalues --    2.36556   2.37028   2.37935   2.37988   2.38513
 Alpha virt. eigenvalues --    2.38949   2.39183   2.39418   2.40120   2.40687
 Alpha virt. eigenvalues --    2.41279   2.42156   2.42252   2.42455   2.42935
 Alpha virt. eigenvalues --    2.43537   2.43658   2.44317   2.45537   2.45697
 Alpha virt. eigenvalues --    2.45905   2.45940   2.46478   2.46728   2.47354
 Alpha virt. eigenvalues --    2.47947   2.48480   2.48831   2.49230   2.49392
 Alpha virt. eigenvalues --    2.49610   2.50610   2.51930   2.52530   2.52976
 Alpha virt. eigenvalues --    2.53279   2.53548   2.53940   2.54662   2.54849
 Alpha virt. eigenvalues --    2.55022   2.55198   2.55664   2.55974   2.56310
 Alpha virt. eigenvalues --    2.57554   2.57977   2.58070   2.58869   2.59071
 Alpha virt. eigenvalues --    2.59670   2.59741   2.60277   2.60493   2.61295
 Alpha virt. eigenvalues --    2.61709   2.61952   2.62365   2.63319   2.63622
 Alpha virt. eigenvalues --    2.64050   2.64170   2.64539   2.65312   2.65936
 Alpha virt. eigenvalues --    2.66505   2.66706   2.67106   2.68107   2.68202
 Alpha virt. eigenvalues --    2.68635   2.69523   2.70092   2.70138   2.70540
 Alpha virt. eigenvalues --    2.70923   2.72168   2.72461   2.73008   2.74496
 Alpha virt. eigenvalues --    2.74733   2.75680   2.76104   2.76596   2.76812
 Alpha virt. eigenvalues --    2.77130   2.77464   2.77660   2.78443   2.78859
 Alpha virt. eigenvalues --    2.79524   2.79914   2.80180   2.80732   2.81232
 Alpha virt. eigenvalues --    2.81442   2.81791   2.83287   2.83600   2.83841
 Alpha virt. eigenvalues --    2.84207   2.85164   2.85446   2.86050   2.86436
 Alpha virt. eigenvalues --    2.86949   2.87897   2.87920   2.88755   2.89250
 Alpha virt. eigenvalues --    2.90275   2.91286   2.91815   2.92112   2.94340
 Alpha virt. eigenvalues --    2.95021   2.95593   2.96676   2.96922   2.97298
 Alpha virt. eigenvalues --    2.97725   2.98291   3.00388   3.00830   3.02583
 Alpha virt. eigenvalues --    3.02843   3.03218   3.03415   3.04998   3.05304
 Alpha virt. eigenvalues --    3.06566   3.06946   3.07642   3.08592   3.09655
 Alpha virt. eigenvalues --    3.10455   3.12113   3.13690   3.16078   3.17001
 Alpha virt. eigenvalues --    3.17494   3.18633   3.18970   3.20881   3.21493
 Alpha virt. eigenvalues --    3.22337   3.23942   3.24430   3.26470   3.26937
 Alpha virt. eigenvalues --    3.27393   3.28678   3.29324   3.30418   3.30701
 Alpha virt. eigenvalues --    3.31541   3.32210   3.32599   3.37271   3.38420
 Alpha virt. eigenvalues --    3.38718   3.39199   3.39930   3.40791   3.40888
 Alpha virt. eigenvalues --    3.41608   3.42712   3.43594   3.44986   3.45254
 Alpha virt. eigenvalues --    3.45707   3.48401   3.49745   3.50405   3.52551
 Alpha virt. eigenvalues --    3.55258   3.55736   3.56082   3.57053   3.60411
 Alpha virt. eigenvalues --    3.62194   3.62831   3.63949   3.65262   3.65280
 Alpha virt. eigenvalues --    3.67857   3.71848   3.72297   3.77485   3.81279
 Alpha virt. eigenvalues --    3.85193   3.93732   4.09543   4.11682   4.13580
 Alpha virt. eigenvalues --    4.14025   4.15869   4.17813   4.18725   4.19541
 Alpha virt. eigenvalues --    4.20474   4.24591   4.27748   4.28693   4.30600
 Alpha virt. eigenvalues --    4.33199   4.36064   4.37502   4.39454   4.40652
 Alpha virt. eigenvalues --    4.41673   4.45630   4.46049   4.46249   4.46910
 Alpha virt. eigenvalues --    4.48391   4.50279   4.53054   4.53699   4.56782
 Alpha virt. eigenvalues --    4.59727   4.60951   4.63048   4.64523   4.67827
 Alpha virt. eigenvalues --    4.70992   4.72270   4.73788   4.75382   4.78787
 Alpha virt. eigenvalues --    4.81268   4.82714
          Condensed to atoms (all electrons):
 Mulliken charges:
               1
     1  C   -0.002132
     2  C   -0.032884
     3  C   -0.152384
     4  C   -0.149100
     5  C   -0.188223
     6  C   -0.227534
     7  C    0.031615
     8  C    0.092913
     9  C   -0.228898
    10  C   -0.168026
    11  C    0.073336
    12  C    0.072729
    13  C   -0.304745
    14  C   -0.299662
    15  C   -0.307256
    16  C   -0.261213
    17  C   -0.127124
    18  C   -0.134687
    19  C   -0.364287
    20  C   -0.374155
    21  C   -0.104661
    22  C   -0.069030
    23  C    0.141795
    24  C    0.065979
    25  C   -0.379164
    26  C   -0.363200
    27  C   -0.158692
    28  C   -0.083469
    29  C   -0.022333
    30  C   -0.071531
    31  C   -0.091147
    32  C   -0.127328
    33  C    0.066247
    34  C    0.142859
    35  C   -0.372383
    36  C   -0.364325
    37  C   -0.098795
    38  C   -0.092818
    39  C   -0.102940
    40  C   -0.102546
    41  H    0.099342
    42  H    0.061061
    43  H    0.102153
    44  H    0.085267
    45  H    0.075577
    46  H    0.092740
    47  H    0.081471
    48  H    0.100106
    49  H    0.118805
    50  H    0.104801
    51  H    0.063586
    52  H    0.104839
    53  H    0.087017
    54  H    0.103393
    55  H    0.118827
    56  H    0.097087
    57  H    0.081893
    58  H    0.110320
    59  H    0.122261
    60  H    0.086714
    61  H    0.097792
    62  H    0.049833
    63  H    0.099080
    64  H    0.086200
    65  H    0.082668
    66  H    0.058982
    67  H    0.124659
    68  H    0.097588
    69  H    0.083702
    70  H    0.115044
    71  H    0.116112
    72  H    0.080733
    73  H    0.090158
    74  H    0.086821
    75  H    0.122723
    76  H    0.108793
    77  H    0.116408
    78  H    0.112735
    79  H    0.140079
    80  H    0.105165
    81  H    0.072179
    82  H    0.028681
    83  H    0.057906
    84  H    0.076967
    85  H    0.062935
    86  H    0.095005
    87  H    0.089334
    88  H    0.113391
    89  H    0.120626
    90  H    0.089218
    91  H    0.133123
    92  H    0.090462
    93  H    0.079942
    94  H    0.080681
    95  H    0.101747
    96  H    0.074472
 Sum of Mulliken charges =  -0.00000
 Mulliken charges with hydrogens summed into heavy atoms:
               1
     1  C   -0.002132
     2  C   -0.032884
     3  C    0.008018
     4  C    0.038319
     5  C   -0.019906
     6  C   -0.045958
     7  C    0.031615
     8  C    0.092913
     9  C   -0.005291
    10  C    0.000399
    11  C    0.073336
    12  C    0.072729
    13  C    0.004492
    14  C   -0.010363
    15  C   -0.000489
    16  C   -0.026101
    17  C   -0.044456
    18  C   -0.075705
    19  C   -0.058338
    20  C   -0.062267
    21  C   -0.014503
    22  C    0.017791
    23  C    0.141795
    24  C    0.065979
    25  C   -0.031239
    26  C   -0.005222
    27  C   -0.086514
    28  C   -0.054788
    29  C    0.035572
    30  C    0.005436
    31  C   -0.028212
    32  C   -0.032323
    33  C    0.066247
    34  C    0.142859
    35  C   -0.049032
    36  C   -0.051522
    37  C   -0.018853
    38  C   -0.012138
    39  C   -0.001193
    40  C   -0.028074
 Electronic spatial extent (au):  <R**2>=          95576.4985
 Charge=             -0.0000 electrons
 Dipole moment (field-independent basis, Debye):
    X=              0.2094    Y=              0.0146    Z=             -0.2113  Tot=              0.2979
 Quadrupole moment (field-independent basis, Debye-Ang):
   XX=           -214.3972   YY=           -233.0803   ZZ=           -255.9539
   XY=              0.3626   XZ=              4.4853   YZ=              0.2361
 Traceless Quadrupole moment (field-independent basis, Debye-Ang):
   XX=             20.0799   YY=              1.3968   ZZ=            -21.4768
   XY=              0.3626   XZ=              4.4853   YZ=              0.2361
 Octapole moment (field-independent basis, Debye-Ang**2):
  XXX=           -108.6160  YYY=              6.0567  ZZZ=             -0.3968  XYY=            -21.8028
  XXY=             -2.0899  XXZ=             -7.1771  XZZ=             46.2231  YZZ=             -0.7064
  YYZ=              1.9411  XYZ=             -7.4487
 Hexadecapole moment (field-independent basis, Debye-Ang**3):
 XXXX=        -120384.5604 YYYY=          -4450.6962 ZZZZ=          -1522.0553 XXXY=           -357.1549
 XXXZ=            -89.9893 YYYX=             25.1615 YYYZ=             -5.9361 ZZZX=             23.4166
 ZZZY=             -3.8069 XXYY=         -21470.2223 XXZZ=         -21699.7832 YYZZ=           -993.0817
 XXYZ=           -199.0915 YYXZ=             58.0371 ZZXY=            -67.4939
 N-N= 3.664986631053D+03 E-N=-1.092988197131D+04  KE= 1.541332611397D+03
 1\1\GINC-RYZEN-SSD1\SP\RB3LYP TD-FC\6-31G(d,p)\C40H56\PADAWAN\30-Jul-2
 019\0\\# td=(NStates=1) B3LYP/6-31G(d,p)\\TD\\0,1\C,0,12.100294372,0.4
 823688374,-0.7615222711\C,0,-12.1393962537,-0.0986949111,0.714180597\C
 ,0,13.4421236251,-0.3797176318,-0.7105070497\C,0,-13.1368701869,0.9834
 927408,1.2940501194\C,0,13.2000623204,-1.803085981,-0.5159533541\C,0,-
 13.3693615323,1.9157600881,0.0762279899\C,0,11.0695387478,-0.074973232
 8,0.2549330311\C,0,-10.9837260404,0.4784777301,-0.0600536402\C,0,12.41
 3115749,-2.1207343674,0.7856025366\C,0,-12.1153214147,2.6498952977,-0.
 3600743433\C,0,11.2306327713,-1.1669787524,0.996556224\C,0,-10.9821330
 075,1.6919348153,-0.546173491\C,0,11.4871092986,0.3871198371,-2.203428
 8215\C,0,12.530576471,1.9867527304,-0.4699585149\C,0,-13.0578833791,-1
 .2411112298,-0.0947056407\C,0,-11.613240192,-0.8873719108,1.9777659248
 \C,0,9.8140294655,0.7399601096,0.425064507\C,0,-9.8654163485,-0.510313
 5735,-0.2171958074\C,0,10.3409282691,-1.6525550672,2.1652591608\C,0,-9
 .9406170319,2.2841001491,-1.4764891138\C,0,8.5280890486,0.3382337796,0
 .3579940056\C,0,-8.5454175002,-0.2966595313,-0.1521415371\C,0,7.345043
 0725,1.286287429,0.4533079434\C,0,-7.5494538393,-1.3247809532,-0.41494
 18911\C,0,7.6860916589,2.7667093081,0.6521976568\C,0,-8.0274799362,-2.
 787238735,-0.665013779\C,0,6.1438882903,0.7903934283,0.3542575848\C,0,
 -6.2717557855,-1.0096217848,-0.2746695787\C,0,4.8562662773,1.521344466
 3,0.3850881678\C,0,-5.028362448,-1.7063566135,-0.328694251\C,0,3.77340
 60522,0.8956571309,0.1605180011\C,0,-3.7841037956,-1.023673,-0.3586182
 995\C,0,2.3446377652,1.3794886566,0.168661354\C,0,-2.5120802074,-1.788
 7639351,-0.4026835485\C,0,2.2707214437,2.9947188384,0.2512995033\C,0,-
 2.5038409295,-3.218695396,-0.6852798781\C,0,1.1982813766,0.6628576274,
 -0.0594710301\C,0,-1.3624344165,-1.0528738594,-0.2291116163\C,0,1.1352
 07893,-0.7966746147,-0.2294904687\C,0,-0.0318326437,-1.5363498748,-0.1
 961233683\H,0,13.7688469905,-0.2448720577,0.2871167546\H,0,13.97885489
 93,-0.1152298987,-1.8349770361\H,0,-12.835069872,1.7018025705,1.903553
 9202\H,0,-13.9782886865,0.574246917,1.5422106592\H,0,14.2370743294,-2.
 3008008978,-0.488812327\H,0,12.9130971914,-2.2407679768,-1.4715732806\
 H,0,-14.1080141896,2.5320565657,0.4921102486\H,0,-13.9911338972,1.3451
 941936,-0.5203260547\H,0,12.9711990837,-2.1491574223,1.6196338454\H,0,
 11.8238098355,-3.0833320253,0.57314417\H,0,-11.8316029524,3.5971474354
 ,0.437390256\H,0,-12.1970659205,3.08352186,-1.1802419254\H,0,11.466009
 9715,-0.6733604133,-2.6174198747\H,0,12.2229791786,0.7818028416,-2.770
 8636604\H,0,10.4882263939,0.6822513368,-2.3285235719\H,0,12.7180727614
 ,2.1251694188,0.6879961401\H,0,11.5920976167,2.6468345944,-0.848709027
 9\H,0,13.355687425,2.3365239223,-1.1033126024\H,0,-13.2905182825,-0.88
 40624152,-0.9462807288\H,0,-14.0512672993,-1.4047462788,0.4945866794\H
 ,0,-12.404488052,-2.1567840833,-0.0659324757\H,0,-10.6793704279,0.0335
 677174,2.3359032494\H,0,-11.3037969051,-1.8505360543,1.7945534715\H,0,
 -12.4032043844,-0.9917136393,2.7865871868\H,0,10.2515285595,1.74031889
 2,0.5200179097\H,0,-10.2633707818,-1.6274978598,-0.4638627643\H,0,9.66
 93610136,-0.9122188166,2.5915829159\H,0,10.8546962837,-2.0573419321,3.
 1004114711\H,0,9.9096130285,-2.7752273727,1.9970593275\H,0,-9.17421445
 67,1.4671690295,-1.7616786648\H,0,-9.362231028,3.0862021422,-0.9414341
 896\H,0,-10.492369502,3.0163766431,-2.3348734606\H,0,8.3957651673,-0.7
 149322734,0.3150345531\H,0,-8.4359669919,0.7896631604,-0.2023038829\H,
 0,8.3673199641,2.8675117871,1.5021095935\H,0,6.8454964303,3.4593436386
 ,0.7737599557\H,0,8.290313269,3.1860072627,-0.1928025032\H,0,-8.866567
 609,-2.5521922783,-1.47116381\H,0,-8.4808290712,-3.1447776651,0.257981
 9375\H,0,-7.2090254551,-3.4878414354,-1.1421130965\H,0,6.1207229368,-0
 .3780830351,0.2561836017\H,0,-5.8770596906,0.1965615947,0.1054802712\H
 ,0,4.7518485422,2.4583142755,0.5709500018\H,0,-5.172957396,-2.70652416
 88,-0.372509392\H,0,3.9960698737,-0.16040061,0.060625701\H,0,-3.683195
 9508,0.1147478047,-0.4394458113\H,0,2.7114118406,3.6193923353,1.217760
 4313\H,0,1.3320104018,3.3296336952,0.0933890664\H,0,2.7702440832,3.484
 8189554,-0.6117951491\H,0,-3.0424361132,-3.6114094968,-1.7835333641\H,
 0,-2.902191825,-3.7474567386,0.1847731287\H,0,-1.3697579471,-3.6419045
 249,-0.835155742\H,0,0.3762800288,1.4106769829,0.0949901442\H,0,-1.469
 2080094,-0.0940714199,0.091931467\H,0,2.2196305076,-1.1465437041,-0.39
 22587901\H,0,0.0443449453,-2.6979948418,-0.2300538663\\Version=ES64L-G
 16RevA.03\State=1-A\HF=-1557.4453411\RMSD=8.778e-09\PG=C01 [X(C40H56)]
 \\@


 IT IS DOUBTED WHETHER A MAN EVER BRINGS HIS FACULTIES TO BEAR WITH THEIR FULL FORCE
 ON A SUBJECT UNTIL HE WRITES UPON IT.

                          -- CICERO
 Job cpu time:       0 days  9 hours 42 minutes 30.0 seconds.
 Elapsed time:       0 days  2 hours 26 minutes 30.3 seconds.
 File lengths (MBytes):  RWF=   2884 Int=      0 D2E=      0 Chk=     79 Scr=      1
 Normal termination of Gaussian 16 at Tue Jul 30 09:37:34 2019.
