 Entering Gaussian System, Link 0=g16
 Input=Geometria-489-.com
 Output=Geometria-489-.log
 Initial command:
 /usr/local/g16/l1.exe "/home/padawan/israel-mol/b-caroten/spectra/abs/Gau-112385.inp" -scrdir="/home/padawan/israel-mol/b-caroten/spectra/abs/"
 Entering Link 1 = /usr/local/g16/l1.exe PID=    112387.
  
 Copyright (c) 1988,1990,1992,1993,1995,1998,2003,2009,2016,
            Gaussian, Inc.  All Rights Reserved.
  
 This is part of the Gaussian(R) 16 program.  It is based on
 the Gaussian(R) 09 system (copyright 2009, Gaussian, Inc.),
 the Gaussian(R) 03 system (copyright 2003, Gaussian, Inc.),
 the Gaussian(R) 98 system (copyright 1998, Gaussian, Inc.),
 the Gaussian(R) 94 system (copyright 1995, Gaussian, Inc.),
 the Gaussian 92(TM) system (copyright 1992, Gaussian, Inc.),
 the Gaussian 90(TM) system (copyright 1990, Gaussian, Inc.),
 the Gaussian 88(TM) system (copyright 1988, Gaussian, Inc.),
 the Gaussian 86(TM) system (copyright 1986, Carnegie Mellon
 University), and the Gaussian 82(TM) system (copyright 1983,
 Carnegie Mellon University). Gaussian is a federally registered
 trademark of Gaussian, Inc.
  
 This software contains proprietary and confidential information,
 including trade secrets, belonging to Gaussian, Inc.
  
 This software is provided under written license and may be
 used, copied, transmitted, or stored only in accord with that
 written license.
  
 The following legend is applicable only to US Government
 contracts under FAR:
  
                    RESTRICTED RIGHTS LEGEND
  
 Use, reproduction and disclosure by the US Government is
 subject to restrictions as set forth in subparagraphs (a)
 and (c) of the Commercial Computer Software - Restricted
 Rights clause in FAR 52.227-19.
  
 Gaussian, Inc.
 340 Quinnipiac St., Bldg. 40, Wallingford CT 06492
  
  
 ---------------------------------------------------------------
 Warning -- This program may not be used in any manner that
 competes with the business of Gaussian, Inc. or will provide
 assistance to any competitor of Gaussian, Inc.  The licensee
 of this program is prohibited from giving any competitor of
 Gaussian, Inc. access to this program.  By using this program,
 the user acknowledges that Gaussian, Inc. is engaged in the
 business of creating and licensing software in the field of
 computational chemistry and represents and warrants to the
 licensee that it is not a competitor of Gaussian, Inc. and that
 it will not use this program in any manner prohibited above.
 ---------------------------------------------------------------
  

 Cite this work as:
 Gaussian 16, Revision A.03,
 M. J. Frisch, G. W. Trucks, H. B. Schlegel, G. E. Scuseria, 
 M. A. Robb, J. R. Cheeseman, G. Scalmani, V. Barone, 
 G. A. Petersson, H. Nakatsuji, X. Li, M. Caricato, A. V. Marenich, 
 J. Bloino, B. G. Janesko, R. Gomperts, B. Mennucci, H. P. Hratchian, 
 J. V. Ortiz, A. F. Izmaylov, J. L. Sonnenberg, D. Williams-Young, 
 F. Ding, F. Lipparini, F. Egidi, J. Goings, B. Peng, A. Petrone, 
 T. Henderson, D. Ranasinghe, V. G. Zakrzewski, J. Gao, N. Rega, 
 G. Zheng, W. Liang, M. Hada, M. Ehara, K. Toyota, R. Fukuda, 
 J. Hasegawa, M. Ishida, T. Nakajima, Y. Honda, O. Kitao, H. Nakai, 
 T. Vreven, K. Throssell, J. A. Montgomery, Jr., J. E. Peralta, 
 F. Ogliaro, M. J. Bearpark, J. J. Heyd, E. N. Brothers, K. N. Kudin, 
 V. N. Staroverov, T. A. Keith, R. Kobayashi, J. Normand, 
 K. Raghavachari, A. P. Rendell, J. C. Burant, S. S. Iyengar, 
 J. Tomasi, M. Cossi, J. M. Millam, M. Klene, C. Adamo, R. Cammi, 
 J. W. Ochterski, R. L. Martin, K. Morokuma, O. Farkas, 
 J. B. Foresman, and D. J. Fox, Gaussian, Inc., Wallingford CT, 2016.
 
 ******************************************
 Gaussian 16:  ES64L-G16RevA.03 25-Dec-2016
                 1-Aug-2019 
 ******************************************
 %nproc=4
 Will use up to    4 processors via shared memory.
 %Mem=2GB
 ---------------------------------
 # td=(NStates=1) B3LYP/6-31G(d,p)
 ---------------------------------
 1/38=1,172=1/1;
 2/12=2,17=6,18=5,40=1/2;
 3/5=1,6=6,7=101,11=9,25=1,30=1,74=-5/1,2,3,8;
 4//1;
 5/5=2,38=5/2;
 8/6=1,10=2,108=1/1;
 9/41=1,42=1,70=2/14;
 6/7=2,8=2,9=2,10=2/1;
 99/5=1,9=1/99;
 --
 TD
 --
 Symbolic Z-matrix:
 Charge =  0 Multiplicity = 1
 6                     12.06728   0.62194  -0.71642 
 6                    -12.05608   0.11985   0.9051 
 6                     13.49328  -0.20954  -0.56207 
 6                    -13.00182   1.35599   1.22284 
 6                     13.06118  -1.69302  -0.70204 
 6                    -13.37977   2.0328   -0.09683 
 6                     11.00303   0.07716   0.15704 
 6                    -10.98635   0.46299  -0.18503 
 6                     12.15414  -2.19979   0.50835 
 6                    -12.1124   2.53828  -0.84042 
 6                     11.01174  -1.19101   0.79061 
 6                    -11.00747   1.59157  -0.91114 
 6                     11.68686   0.70432  -2.18222 
 6                     12.54691   2.05302  -0.23428 
 6                    -12.94366  -1.15048   0.38353 
 6                    -11.34177  -0.39073   2.18631 
 6                     9.84953   0.98567   0.33169 
 6                    -9.89524  -0.50808  -0.26653 
 6                     10.01346  -1.74641   1.84223 
 6                    -9.82214   1.93229  -1.8719 
 6                     8.51214   0.4442    0.14739 
 6                    -8.53599  -0.30928  -0.15744 
 6                     7.34967   1.24406   0.50521 
 6                    -7.58378  -1.33894  -0.29793 
 6                     7.58145   2.82993   0.69614 
 6                    -7.85833  -2.80042  -0.49669 
 6                     6.08196   0.62777   0.33011 
 6                    -6.29976  -0.90818  -0.19808 
 6                     4.87478   1.33306   0.57233 
 6                    -5.0245   -1.68237  -0.4712 
 6                     3.68046   0.6973    0.34226 
 6                    -3.76081  -1.13881  -0.24044 
 6                     2.3756    1.22202   0.50081 
 6                    -2.48     -1.89108  -0.41837 
 6                     2.24424   2.6944    0.79374 
 6                    -2.52206  -3.37329  -0.80143 
 6                     1.19779   0.48286   0.28971 
 6                    -1.32095  -1.19673  -0.24505 
 6                     1.09074  -0.86325  -0.10875 
 6                    -0.04986  -1.73299  -0.35358 
 1                     13.82413  -0.05075   0.42749 
 1                     14.16844   0.04162  -1.39481 
 1                    -12.34226   1.93666   1.96516 
 1                    -13.99049   1.01996   1.66239 
 1                     13.90535  -2.28958  -0.92913 
 1                     12.47788  -1.92841  -1.70438 
 1                    -13.92407   2.84478   0.26364 
 1                    -13.83936   1.25999  -0.76525 
 1                     12.71    -2.51853   1.30405 
 1                     11.61072  -3.15259  -0.19042 
 1                    -11.75789   3.54578  -0.4518 
 1                    -12.23471   2.95236  -1.72038 
 1                     11.50795  -0.23634  -2.60939 
 1                     12.52657   1.28638  -2.84137 
 1                     10.79912   1.20124  -2.67047 
 1                     12.90412   1.97212   0.69804 
 1                     11.87319   2.844    -0.50777 
 1                     13.33155   2.24582  -1.09144 
 1                    -13.71995  -1.0481   -0.41774 
 1                    -13.49142  -1.53536   1.19559 
 1                    -12.16995  -2.07508   0.02556 
 1                    -10.47605   0.26267   2.35878 
 1                    -11.05809  -1.48381   2.01278 
 1                    -12.24435  -0.14417   3.12198 
 1                     10.11785   2.05275   0.73067 
 1                    -10.25952  -1.65845  -0.46875 
 1                     9.53209  -0.92692   2.24757 
 1                     10.67581  -2.1395    2.3659 
 1                     9.11158  -2.41779   1.39236 
 1                    -9.12808   1.11217  -1.96923 
 1                    -9.15006   2.69043  -1.3583 
 1                    -10.24889   2.489    -2.95673 
 1                     8.28285  -0.46885  -0.0813 
 1                    -8.02746   0.49098   0.22216 
 1                     8.00935   2.81081   1.66543 
 1                     6.61995   3.2954    0.70807 
 1                     8.08715   3.32374  -0.10138 
 1                    -8.40718  -3.01762  -1.46906 
 1                    -8.57931  -3.1513    0.2871 
 1                    -6.79411  -3.4136   -0.67556 
 1                     6.27967  -0.49569   0.04896 
 1                    -6.09678   0.05277   0.11804 
 1                     4.76159   2.3915    0.9059 
 1                    -5.10378  -2.5839   -0.72191 
 1                     3.68639  -0.34582   0.01606 
 1                    -3.92598  -0.19664   0.28804 
 1                     2.65189   2.67481   1.86871 
 1                     1.28707   3.19505   1.04737 
 1                     2.80441   3.2057   -0.06991 
 1                    -2.74651  -3.41915  -1.75787 
 1                    -3.04271  -3.88633  -0.07583 
 1                    -1.42162  -3.95336  -0.97358 
 1                     0.17223   1.00158   0.40084 
 1                    -1.40887  -0.26204   0.17392 
 1                     2.16936  -1.36351  -0.32461 
 1                     0.10317  -2.60717  -0.56773 
 
 Stoichiometry    C40H56
 Framework group  C1[X(C40H56)]
 Deg. of freedom   282
 Full point group                 C1      NOp   1
 Largest Abelian subgroup         C1      NOp   1
 Largest concise Abelian subgroup C1      NOp   1
                         Standard orientation:                         
 ---------------------------------------------------------------------
 Center     Atomic      Atomic             Coordinates (Angstroms)
 Number     Number       Type             X           Y           Z
 ---------------------------------------------------------------------
      1          6           0       12.069282   -0.598638    0.715113
      2          6           0      -12.056116   -0.148415   -0.891234
      3          6           0       13.494491    0.230460    0.541818
      4          6           0      -13.001251   -1.391659   -1.181919
      5          6           0       13.061418    1.716242    0.651016
      6          6           0      -13.377329   -2.040847    0.152091
      7          6           0       11.003718   -0.073125   -0.168490
      8          6           0      -10.984997   -0.467771    0.204741
      9          6           0       12.152744    2.196780   -0.568814
     10          6           0      -12.108807   -2.529652    0.904815
     11          6           0       11.010814    1.181451   -0.828589
     12          6           0      -11.004513   -1.580856    0.954448
     13          6           0       11.690441   -0.650453    2.182720
     14          6           0       12.549488   -2.039185    0.262676
     15          6           0      -12.944117    1.131950   -0.395561
     16          6           0      -11.343524    0.335631   -2.183645
     17          6           0        9.850724   -0.985954   -0.322776
     18          6           0       -9.894539    0.505596    0.264660
     19          6           0       10.011021    1.713886   -1.890606
     20          6           0       -9.817931   -1.900430    1.920912
     21          6           0        8.513112   -0.441707   -0.148505
     22          6           0       -8.535250    0.305539    0.158347
     23          6           0        7.350882   -1.249765   -0.488204
     24          6           0       -7.583673    1.338624    0.276151
     25          6           0        7.583658   -2.839121   -0.645986
     26          6           0       -7.859124    2.803756    0.444420
     27          6           0        6.082888   -0.630851   -0.324761
     28          6           0       -6.299434    0.906799    0.184032
     29          6           0        4.875986   -1.341961   -0.550828
     30          6           0       -5.024479    1.687497    0.439468
     31          6           0        3.681425   -0.702380   -0.332921
     32          6           0       -3.760619    1.140130    0.218858
     33          6           0        2.376801   -1.231279   -0.479039
     34          6           0       -2.480188    1.896913    0.379581
     35          6           0        2.246246   -2.709585   -0.740803
     36          6           0       -2.522975    3.386816    0.731439
     37          6           0        1.198654   -0.488702   -0.282289
     38          6           0       -1.320798    1.199915    0.219690
     39          6           0        1.091004    0.865411    0.087891
     40          6           0       -0.050006    1.739270    0.315578
     41          1           0       13.824440    0.051140   -0.444535
     42          1           0       14.170708   -0.002635    1.378946
     43          1           0      -12.342026   -1.987324   -1.912554
     44          1           0      -13.990632   -1.065672   -1.627397
     45          1           0       13.905375    2.318059    0.864618
     46          1           0       12.478984    1.972223    1.648793
     47          1           0      -13.921383   -2.860622   -0.190649
     48          1           0      -13.836805   -1.254482    0.804596
     49          1           0       12.707542    2.499126   -1.371623
     50          1           0       11.609328    3.163663    0.110344
     51          1           0      -11.753934   -3.544840    0.537091
     52          1           0      -12.229891   -2.925220    1.793410
     53          1           0       11.511269    0.298849    2.590205
     54          1           0       12.531273   -1.217910    2.853084
     55          1           0       10.803581   -1.137648    2.682246
     56          1           0       12.905674   -1.977652   -0.671516
     57          1           0       11.876646   -2.824737    0.553447
     58          1           0       13.335158   -2.213349    1.122871
     59          1           0      -13.719498    1.045871    0.408501
     60          1           0      -13.493007    1.499265   -1.214953
     61          1           0      -12.170737    2.064434   -0.057921
     62          1           0      -10.477488   -0.320620   -2.343246
     63          1           0      -11.060488    1.432323   -2.033435
     64          1           0      -12.246882    0.068786   -3.112977
     65          1           0       10.119428   -2.060987   -0.699515
     66          1           0      -10.259478    1.659695    0.443031
     67          1           0        9.529851    0.885697   -2.278119
     68          1           0       10.672535    2.096357   -2.423123
     69          1           0        9.109109    2.393914   -1.454007
     70          1           0       -9.124394   -1.077935    2.000246
     71          1           0       -9.145817   -2.668708    1.422658
     72          1           0      -10.243137   -2.434515    3.017654
     73          1           0        8.283377    0.475784    0.061174
     74          1           0       -8.026510   -0.502158   -0.204876
     75          1           0        8.010542   -2.840075   -1.615907
     76          1           0        6.622500   -3.305445   -0.647116
     77          1           0        8.090557   -3.315686    0.161214
     78          1           0       -8.407129    3.040953    1.412591
     79          1           0       -8.581176    3.137547   -0.345818
     80          1           0       -6.795183    3.421345    0.609237
     81          1           0        6.280039    0.498419   -0.067513
     82          1           0       -6.096060   -0.060436   -0.112028
     83          1           0        4.763250   -2.407266   -0.861955
     84          1           0       -5.104178    2.594039    0.671254
     85          1           0        3.686908    0.347370   -0.028740
     86          1           0       -3.925624    0.186934   -0.289513
     87          1           0        2.652764   -2.712305   -1.816368
     88          1           0        1.289189   -3.216160   -0.982844
     89          1           0        2.807695   -3.202202    0.132822
     90          1           0       -2.746462    3.452614    1.686938
     91          1           0       -3.044756    3.884103   -0.004239
     92          1           0       -1.422795    3.971178    0.890194
     93          1           0        0.173369   -1.010392   -0.381405
     94          1           0       -1.408449    0.256557   -0.179443
     95          1           0        2.169461    1.370884    0.292053
     96          1           0        0.102592    2.617868    0.511136
 ---------------------------------------------------------------------
 Rotational constants (GHZ):           0.2727172           0.0111087           0.0108719
 Standard basis: 6-31G(d,p) (6D, 7F)
 There are   880 symmetry adapted cartesian basis functions of A   symmetry.
 There are   880 symmetry adapted basis functions of A   symmetry.
   880 basis functions,  1512 primitive gaussians,   880 cartesian basis functions
   148 alpha electrons      148 beta electrons
       nuclear repulsion energy      3672.2260156047 Hartrees.
 NAtoms=   96 NActive=   96 NUniq=   96 SFac= 1.00D+00 NAtFMM=   60 NAOKFM=T Big=T
 Integral buffers will be    131072 words long.
 Regular integral format.
 Two-electron integral symmetry is turned on.
 One-electron integrals computed using PRISM.
 NBasis=   880 RedAO= T EigKep=  8.94D-04  NBF=   880
 NBsUse=   880 1.00D-06 EigRej= -1.00D+00 NBFU=   880
 ExpMin= 1.61D-01 ExpMax= 3.05D+03 ExpMxC= 4.57D+02 IAcc=3 IRadAn=         5 AccDes= 0.00D+00
 Harris functional with IExCor=  402 and IRadAn=       5 diagonalized for initial guess.
 HarFok:  IExCor=  402 AccDes= 0.00D+00 IRadAn=         5 IDoV= 1 UseB2=F ITyADJ=14
 ICtDFT=  3500011 ScaDFX=  1.000000  1.000000  1.000000  1.000000
 FoFCou: FMM=F IPFlag=           0 FMFlag=      100000 FMFlg1=        2001
         NFxFlg=           0 DoJE=T BraDBF=F KetDBF=T FulRan=T
         wScrn=  0.000000 ICntrl=       500 IOpCl=  0 I1Cent=   200000004 NGrid=           0
         NMat0=    1 NMatS0=      1 NMatT0=    0 NMatD0=    1 NMtDS0=    0 NMtDT0=    0
 Petite list used in FoFCou.
 Requested convergence on RMS density matrix=1.00D-08 within 128 cycles.
 Requested convergence on MAX density matrix=1.00D-06.
 Requested convergence on             energy=1.00D-06.
 No special actions if energy rises.
 Integral accuracy reduced to 1.0D-05 until final iterations.
 Initial convergence to 1.0D-05 achieved.  Increase integral accuracy.
 SCF Done:  E(RB3LYP) =  -1557.45630223     A.U. after   16 cycles
            NFock= 16  Conv=0.97D-08     -V/T= 2.0106
 DoSCS=F DFT=T ScalE2(SS,OS)=  1.000000  1.000000
 ExpMin= 1.61D-01 ExpMax= 3.05D+03 ExpMxC= 4.57D+02 IAcc=3 IRadAn=         5 AccDes= 0.00D+00
 HarFok:  IExCor=  205 AccDes= 0.00D+00 IRadAn=         5 IDoV=-2 UseB2=F ITyADJ=14
 ICtDFT= 12500011 ScaDFX=  1.000000  1.000000  1.000000  1.000000
 GSVD:  LWork=       -1920 too small for GESVD, short by        8600 words or        8600 for optimal perf.
 Range of M.O.s used for correlation:    41   880
 NBasis=   880 NAE=   148 NBE=   148 NFC=    40 NFV=     0
 NROrb=    840 NOA=   108 NOB=   108 NVA=   732 NVB=   732

 **** Warning!!: The smallest alpha delta epsilon is  0.71090813D-01

 Orbital symmetries:
       Occupied  (A) (A) (A) (A) (A) (A) (A) (A) (A) (A) (A) (A)
                 (A) (A) (A) (A) (A) (A) (A) (A) (A) (A) (A) (A)
                 (A) (A) (A) (A) (A) (A) (A) (A) (A) (A) (A) (A)
                 (A) (A) (A) (A) (A) (A) (A) (A) (A) (A) (A) (A)
                 (A) (A) (A) (A) (A) (A) (A) (A) (A) (A) (A) (A)
                 (A) (A) (A) (A) (A) (A) (A) (A) (A) (A) (A) (A)
                 (A) (A) (A) (A) (A) (A) (A) (A) (A) (A) (A) (A)
                 (A) (A) (A) (A) (A) (A) (A) (A) (A) (A) (A) (A)
                 (A) (A) (A) (A) (A) (A) (A) (A) (A) (A) (A) (A)
                 (A) (A) (A) (A) (A) (A) (A) (A) (A) (A) (A) (A)
                 (A) (A) (A) (A) (A) (A) (A) (A) (A) (A) (A) (A)
                 (A) (A) (A) (A) (A) (A) (A) (A) (A) (A) (A) (A)
                 (A) (A) (A) (A)
       Virtual   (A) (A) (A) (A) (A) (A) (A) (A) (A) (A) (A) (A)
                 (A) (A) (A) (A) (A) (A) (A) (A) (A) (A) (A) (A)
                 (A) (A) (A) (A) (A) (A) (A) (A) (A) (A) (A) (A)
                 (A) (A) (A) (A) (A) (A) (A) (A) (A) (A) (A) (A)
                 (A) (A) (A) (A) (A) (A) (A) (A) (A) (A) (A) (A)
                 (A) (A) (A) (A) (A) (A) (A) (A) (A) (A) (A) (A)
                 (A) (A) (A) (A) (A) (A) (A) (A) (A) (A) (A) (A)
                 (A) (A) (A) (A) (A) (A) (A) (A) (A) (A) (A) (A)
                 (A) (A) (A) (A) (A) (A) (A) (A) (A) (A) (A) (A)
                 (A) (A) (A) (A) (A) (A) (A) (A) (A) (A) (A) (A)
                 (A) (A) (A) (A) (A) (A) (A) (A) (A) (A) (A) (A)
                 (A) (A) (A) (A) (A) (A) (A) (A) (A) (A) (A) (A)
                 (A) (A) (A) (A) (A) (A) (A) (A) (A) (A) (A) (A)
                 (A) (A) (A) (A) (A) (A) (A) (A) (A) (A) (A) (A)
                 (A) (A) (A) (A) (A) (A) (A) (A) (A) (A) (A) (A)
                 (A) (A) (A) (A) (A) (A) (A) (A) (A) (A) (A) (A)
                 (A) (A) (A) (A) (A) (A) (A) (A) (A) (A) (A) (A)
                 (A) (A) (A) (A) (A) (A) (A) (A) (A) (A) (A) (A)
                 (A) (A) (A) (A) (A) (A) (A) (A) (A) (A) (A) (A)
                 (A) (A) (A) (A) (A) (A) (A) (A) (A) (A) (A) (A)
                 (A) (A) (A) (A) (A) (A) (A) (A) (A) (A) (A) (A)
                 (A) (A) (A) (A) (A) (A) (A) (A) (A) (A) (A) (A)
                 (A) (A) (A) (A) (A) (A) (A) (A) (A) (A) (A) (A)
                 (A) (A) (A) (A) (A) (A) (A) (A) (A) (A) (A) (A)
                 (A) (A) (A) (A) (A) (A) (A) (A) (A) (A) (A) (A)
                 (A) (A) (A) (A) (A) (A) (A) (A) (A) (A) (A) (A)
                 (A) (A) (A) (A) (A) (A) (A) (A) (A) (A) (A) (A)
                 (A) (A) (A) (A) (A) (A) (A) (A) (A) (A) (A) (A)
                 (A) (A) (A) (A) (A) (A) (A) (A) (A) (A) (A) (A)
                 (A) (A) (A) (A) (A) (A) (A) (A) (A) (A) (A) (A)
                 (A) (A) (A) (A) (A) (A) (A) (A) (A) (A) (A) (A)
                 (A) (A) (A) (A) (A) (A) (A) (A) (A) (A) (A) (A)
                 (A) (A) (A) (A) (A) (A) (A) (A) (A) (A) (A) (A)
                 (A) (A) (A) (A) (A) (A) (A) (A) (A) (A) (A) (A)
                 (A) (A) (A) (A) (A) (A) (A) (A) (A) (A) (A) (A)
                 (A) (A) (A) (A) (A) (A) (A) (A) (A) (A) (A) (A)
                 (A) (A) (A) (A) (A) (A) (A) (A) (A) (A) (A) (A)
                 (A) (A) (A) (A) (A) (A) (A) (A) (A) (A) (A) (A)
                 (A) (A) (A) (A) (A) (A) (A) (A) (A) (A) (A) (A)
                 (A) (A) (A) (A) (A) (A) (A) (A) (A) (A) (A) (A)
                 (A) (A) (A) (A) (A) (A) (A) (A) (A) (A) (A) (A)
                 (A) (A) (A) (A) (A) (A) (A) (A) (A) (A) (A) (A)
                 (A) (A) (A) (A) (A) (A) (A) (A) (A) (A) (A) (A)
                 (A) (A) (A) (A) (A) (A) (A) (A) (A) (A) (A) (A)
                 (A) (A) (A) (A) (A) (A) (A) (A) (A) (A) (A) (A)
                 (A) (A) (A) (A) (A) (A) (A) (A) (A) (A) (A) (A)
                 (A) (A) (A) (A) (A) (A) (A) (A) (A) (A) (A) (A)
                 (A) (A) (A) (A) (A) (A) (A) (A) (A) (A) (A) (A)
                 (A) (A) (A) (A) (A) (A) (A) (A) (A) (A) (A) (A)
                 (A) (A) (A) (A) (A) (A) (A) (A) (A) (A) (A) (A)
                 (A) (A) (A) (A) (A) (A) (A) (A) (A) (A) (A) (A)
                 (A) (A) (A) (A) (A) (A) (A) (A) (A) (A) (A) (A)
                 (A) (A) (A) (A) (A) (A) (A) (A) (A) (A) (A) (A)
                 (A) (A) (A) (A) (A) (A) (A) (A) (A) (A) (A) (A)
                 (A) (A) (A) (A) (A) (A) (A) (A) (A) (A) (A) (A)
                 (A) (A) (A) (A) (A) (A) (A) (A) (A) (A) (A) (A)
                 (A) (A) (A) (A) (A) (A) (A) (A) (A) (A) (A) (A)
                 (A) (A) (A) (A) (A) (A) (A) (A) (A) (A) (A) (A)
                 (A) (A) (A) (A) (A) (A) (A) (A) (A) (A) (A) (A)
                 (A) (A) (A) (A) (A) (A) (A) (A) (A) (A) (A) (A)
                 (A) (A) (A) (A) (A) (A) (A) (A) (A) (A) (A) (A)
     4 initial guesses have been made.
 Convergence on wavefunction:    0.001000000000000
 Iteration     1 Dimension     4 NMult     0 NNew      4
 CISAX will form     4 AO SS matrices at one time.
 Iteration     2 Dimension     6 NMult     4 NNew      2
 Iteration     3 Dimension     8 NMult     6 NNew      2
 Iteration     4 Dimension    10 NMult     8 NNew      2
 Iteration     5 Dimension    12 NMult    10 NNew      2
 Iteration     6 Dimension    14 NMult    12 NNew      2
 ***********************************************************************
 Excited states from <AA,BB:AA,BB> singles matrix:
 ***********************************************************************
 
 Ground to excited state transition densities written to RWF  633
 Ground to excited state transition electric dipole moments (Au):
       state          X           Y           Z        Dip. S.      Osc.
         1        -7.8631      0.7643      0.3876     62.5633      3.0690
 Ground to excited state transition velocity dipole moments (Au):
       state          X           Y           Z        Dip. S.      Osc.
         1         0.5596     -0.0547     -0.0282      0.3169      2.8711
 Ground to excited state transition magnetic dipole moments (Au):
       state          X           Y           Z
         1        -0.0272     -0.0494     -0.5241
 Ground to excited state transition velocity quadrupole moments (Au):
       state          XX          YY          ZZ          XY          XZ          YZ
         1         1.1198     -0.0535     -0.0070     -0.0496     -0.0271     -0.0051
 <0|del|b> * <b|rxdel|0> + <0|del|b> * <b|delr+rdel|0>
 Rotatory Strengths (R) in cgs (10**-40 erg-esu-cm/Gauss)
       state          XX          YY          ZZ    R(velocity)    E-M Angle
         1        83.4922    -22.5139    -39.2918      7.2289       89.56
 1/2[<0|r|b>*<b|rxdel|0> + (<0|rxdel|b>*<b|r|0>)*]
 Rotatory Strengths (R) in cgs (10**-40 erg-esu-cm/Gauss)
       state          XX          YY          ZZ     R(length)
         1      -151.0430     26.6998    143.6464      6.4344
  1/2[<0|del|b>*<b|r|0> + (<0|r|b>*<b|del|0>)*] (Au)
       state          X           Y           Z        Dip. S.   Osc.(frdel)
         1        -4.3999     -0.0418     -0.0109      4.4526      2.9684

 Excitation energies and oscillator strengths:
 
 Excited State   1:      Singlet-A      2.0022 eV  619.23 nm  f=3.0690  <S**2>=0.000
     148 ->149         0.70825
     148 <-149        -0.13280
 This state for optimization and/or second-order correction.
 Total Energy, E(TD-HF/TD-DFT) =  -1557.38272167    
 Copying the excited state density for this state as the 1-particle RhoCI density.
 SavETr:  write IOETrn=   770 NScale= 10 NData=  16 NLR=1 NState=    1 LETran=      28.

 **********************************************************************

            Population analysis using the SCF density.

 **********************************************************************

 Orbital symmetries:
       Occupied  (A) (A) (A) (A) (A) (A) (A) (A) (A) (A) (A) (A)
                 (A) (A) (A) (A) (A) (A) (A) (A) (A) (A) (A) (A)
                 (A) (A) (A) (A) (A) (A) (A) (A) (A) (A) (A) (A)
                 (A) (A) (A) (A) (A) (A) (A) (A) (A) (A) (A) (A)
                 (A) (A) (A) (A) (A) (A) (A) (A) (A) (A) (A) (A)
                 (A) (A) (A) (A) (A) (A) (A) (A) (A) (A) (A) (A)
                 (A) (A) (A) (A) (A) (A) (A) (A) (A) (A) (A) (A)
                 (A) (A) (A) (A) (A) (A) (A) (A) (A) (A) (A) (A)
                 (A) (A) (A) (A) (A) (A) (A) (A) (A) (A) (A) (A)
                 (A) (A) (A) (A) (A) (A) (A) (A) (A) (A) (A) (A)
                 (A) (A) (A) (A) (A) (A) (A) (A) (A) (A) (A) (A)
                 (A) (A) (A) (A) (A) (A) (A) (A) (A) (A) (A) (A)
                 (A) (A) (A) (A)
       Virtual   (A) (A) (A) (A) (A) (A) (A) (A) (A) (A) (A) (A)
                 (A) (A) (A) (A) (A) (A) (A) (A) (A) (A) (A) (A)
                 (A) (A) (A) (A) (A) (A) (A) (A) (A) (A) (A) (A)
                 (A) (A) (A) (A) (A) (A) (A) (A) (A) (A) (A) (A)
                 (A) (A) (A) (A) (A) (A) (A) (A) (A) (A) (A) (A)
                 (A) (A) (A) (A) (A) (A) (A) (A) (A) (A) (A) (A)
                 (A) (A) (A) (A) (A) (A) (A) (A) (A) (A) (A) (A)
                 (A) (A) (A) (A) (A) (A) (A) (A) (A) (A) (A) (A)
                 (A) (A) (A) (A) (A) (A) (A) (A) (A) (A) (A) (A)
                 (A) (A) (A) (A) (A) (A) (A) (A) (A) (A) (A) (A)
                 (A) (A) (A) (A) (A) (A) (A) (A) (A) (A) (A) (A)
                 (A) (A) (A) (A) (A) (A) (A) (A) (A) (A) (A) (A)
                 (A) (A) (A) (A) (A) (A) (A) (A) (A) (A) (A) (A)
                 (A) (A) (A) (A) (A) (A) (A) (A) (A) (A) (A) (A)
                 (A) (A) (A) (A) (A) (A) (A) (A) (A) (A) (A) (A)
                 (A) (A) (A) (A) (A) (A) (A) (A) (A) (A) (A) (A)
                 (A) (A) (A) (A) (A) (A) (A) (A) (A) (A) (A) (A)
                 (A) (A) (A) (A) (A) (A) (A) (A) (A) (A) (A) (A)
                 (A) (A) (A) (A) (A) (A) (A) (A) (A) (A) (A) (A)
                 (A) (A) (A) (A) (A) (A) (A) (A) (A) (A) (A) (A)
                 (A) (A) (A) (A) (A) (A) (A) (A) (A) (A) (A) (A)
                 (A) (A) (A) (A) (A) (A) (A) (A) (A) (A) (A) (A)
                 (A) (A) (A) (A) (A) (A) (A) (A) (A) (A) (A) (A)
                 (A) (A) (A) (A) (A) (A) (A) (A) (A) (A) (A) (A)
                 (A) (A) (A) (A) (A) (A) (A) (A) (A) (A) (A) (A)
                 (A) (A) (A) (A) (A) (A) (A) (A) (A) (A) (A) (A)
                 (A) (A) (A) (A) (A) (A) (A) (A) (A) (A) (A) (A)
                 (A) (A) (A) (A) (A) (A) (A) (A) (A) (A) (A) (A)
                 (A) (A) (A) (A) (A) (A) (A) (A) (A) (A) (A) (A)
                 (A) (A) (A) (A) (A) (A) (A) (A) (A) (A) (A) (A)
                 (A) (A) (A) (A) (A) (A) (A) (A) (A) (A) (A) (A)
                 (A) (A) (A) (A) (A) (A) (A) (A) (A) (A) (A) (A)
                 (A) (A) (A) (A) (A) (A) (A) (A) (A) (A) (A) (A)
                 (A) (A) (A) (A) (A) (A) (A) (A) (A) (A) (A) (A)
                 (A) (A) (A) (A) (A) (A) (A) (A) (A) (A) (A) (A)
                 (A) (A) (A) (A) (A) (A) (A) (A) (A) (A) (A) (A)
                 (A) (A) (A) (A) (A) (A) (A) (A) (A) (A) (A) (A)
                 (A) (A) (A) (A) (A) (A) (A) (A) (A) (A) (A) (A)
                 (A) (A) (A) (A) (A) (A) (A) (A) (A) (A) (A) (A)
                 (A) (A) (A) (A) (A) (A) (A) (A) (A) (A) (A) (A)
                 (A) (A) (A) (A) (A) (A) (A) (A) (A) (A) (A) (A)
                 (A) (A) (A) (A) (A) (A) (A) (A) (A) (A) (A) (A)
                 (A) (A) (A) (A) (A) (A) (A) (A) (A) (A) (A) (A)
                 (A) (A) (A) (A) (A) (A) (A) (A) (A) (A) (A) (A)
                 (A) (A) (A) (A) (A) (A) (A) (A) (A) (A) (A) (A)
                 (A) (A) (A) (A) (A) (A) (A) (A) (A) (A) (A) (A)
                 (A) (A) (A) (A) (A) (A) (A) (A) (A) (A) (A) (A)
                 (A) (A) (A) (A) (A) (A) (A) (A) (A) (A) (A) (A)
                 (A) (A) (A) (A) (A) (A) (A) (A) (A) (A) (A) (A)
                 (A) (A) (A) (A) (A) (A) (A) (A) (A) (A) (A) (A)
                 (A) (A) (A) (A) (A) (A) (A) (A) (A) (A) (A) (A)
                 (A) (A) (A) (A) (A) (A) (A) (A) (A) (A) (A) (A)
                 (A) (A) (A) (A) (A) (A) (A) (A) (A) (A) (A) (A)
                 (A) (A) (A) (A) (A) (A) (A) (A) (A) (A) (A) (A)
                 (A) (A) (A) (A) (A) (A) (A) (A) (A) (A) (A) (A)
                 (A) (A) (A) (A) (A) (A) (A) (A) (A) (A) (A) (A)
                 (A) (A) (A) (A) (A) (A) (A) (A) (A) (A) (A) (A)
                 (A) (A) (A) (A) (A) (A) (A) (A) (A) (A) (A) (A)
                 (A) (A) (A) (A) (A) (A) (A) (A) (A) (A) (A) (A)
                 (A) (A) (A) (A) (A) (A) (A) (A) (A) (A) (A) (A)
                 (A) (A) (A) (A) (A) (A) (A) (A) (A) (A) (A) (A)
 The electronic state is 1-A.
 Alpha  occ. eigenvalues --  -10.20428 -10.20243 -10.20220 -10.20208 -10.20146
 Alpha  occ. eigenvalues --  -10.20122 -10.20122 -10.20071 -10.20052 -10.20021
 Alpha  occ. eigenvalues --  -10.19911 -10.19640 -10.19604 -10.19445 -10.19442
 Alpha  occ. eigenvalues --  -10.19312 -10.19231 -10.19182 -10.18953 -10.18853
 Alpha  occ. eigenvalues --  -10.18814 -10.18593 -10.18529 -10.18468 -10.18412
 Alpha  occ. eigenvalues --  -10.18302 -10.18153 -10.18065 -10.17993 -10.17944
 Alpha  occ. eigenvalues --  -10.17892 -10.17877 -10.17802 -10.17796 -10.17522
 Alpha  occ. eigenvalues --  -10.17346 -10.17127 -10.16899 -10.16879 -10.16805
 Alpha  occ. eigenvalues --   -0.84423  -0.83924  -0.83387  -0.82975  -0.82219
 Alpha  occ. eigenvalues --   -0.80729  -0.78220  -0.77843  -0.77389  -0.76886
 Alpha  occ. eigenvalues --   -0.76174  -0.74756  -0.73814  -0.71559  -0.71119
 Alpha  occ. eigenvalues --   -0.70605  -0.69180  -0.68436  -0.68174  -0.67647
 Alpha  occ. eigenvalues --   -0.67412  -0.66976  -0.66298  -0.66031  -0.65722
 Alpha  occ. eigenvalues --   -0.62535  -0.61381  -0.59558  -0.58762  -0.57051
 Alpha  occ. eigenvalues --   -0.56617  -0.56351  -0.55177  -0.54663  -0.54244
 Alpha  occ. eigenvalues --   -0.52600  -0.52000  -0.50647  -0.49762  -0.48967
 Alpha  occ. eigenvalues --   -0.47623  -0.47213  -0.46611  -0.46500  -0.46214
 Alpha  occ. eigenvalues --   -0.45820  -0.45563  -0.45055  -0.44581  -0.44265
 Alpha  occ. eigenvalues --   -0.43813  -0.43756  -0.43531  -0.43315  -0.42598
 Alpha  occ. eigenvalues --   -0.42430  -0.42283  -0.41899  -0.41398  -0.41027
 Alpha  occ. eigenvalues --   -0.40688  -0.40437  -0.39652  -0.39497  -0.38790
 Alpha  occ. eigenvalues --   -0.38380  -0.38167  -0.37949  -0.37839  -0.37293
 Alpha  occ. eigenvalues --   -0.37174  -0.37020  -0.36758  -0.36654  -0.36404
 Alpha  occ. eigenvalues --   -0.36208  -0.35796  -0.35654  -0.35052  -0.34946
 Alpha  occ. eigenvalues --   -0.34343  -0.34275  -0.34046  -0.33706  -0.33613
 Alpha  occ. eigenvalues --   -0.33417  -0.33331  -0.33208  -0.32945  -0.32272
 Alpha  occ. eigenvalues --   -0.32212  -0.31954  -0.31722  -0.31164  -0.30937
 Alpha  occ. eigenvalues --   -0.30857  -0.29752  -0.29551  -0.28913  -0.28426
 Alpha  occ. eigenvalues --   -0.27468  -0.26779  -0.25763  -0.23244  -0.22429
 Alpha  occ. eigenvalues --   -0.20655  -0.18663  -0.15644
 Alpha virt. eigenvalues --   -0.08535  -0.04869  -0.02130   0.00791   0.02425
 Alpha virt. eigenvalues --    0.03766   0.05285   0.06416   0.06764   0.07001
 Alpha virt. eigenvalues --    0.07422   0.07615   0.08279   0.08404   0.08476
 Alpha virt. eigenvalues --    0.08847   0.09086   0.09381   0.09756   0.10565
 Alpha virt. eigenvalues --    0.11065   0.11323   0.11795   0.11914   0.12146
 Alpha virt. eigenvalues --    0.12489   0.12551   0.12579   0.13335   0.13456
 Alpha virt. eigenvalues --    0.13586   0.13799   0.14227   0.14322   0.14573
 Alpha virt. eigenvalues --    0.15035   0.15216   0.15321   0.15534   0.15550
 Alpha virt. eigenvalues --    0.16196   0.16254   0.16556   0.16791   0.16923
 Alpha virt. eigenvalues --    0.17035   0.17662   0.17952   0.18266   0.18400
 Alpha virt. eigenvalues --    0.18860   0.19027   0.19181   0.19225   0.19459
 Alpha virt. eigenvalues --    0.19775   0.19960   0.20566   0.20577   0.20655
 Alpha virt. eigenvalues --    0.20842   0.21266   0.21782   0.21988   0.22175
 Alpha virt. eigenvalues --    0.22500   0.22724   0.22906   0.22953   0.23033
 Alpha virt. eigenvalues --    0.23677   0.23789   0.24125   0.24726   0.25273
 Alpha virt. eigenvalues --    0.25667   0.26026   0.26601   0.27046   0.27829
 Alpha virt. eigenvalues --    0.28243   0.28500   0.28713   0.28773   0.28858
 Alpha virt. eigenvalues --    0.29265   0.29410   0.30688   0.31966   0.32601
 Alpha virt. eigenvalues --    0.33083   0.34862   0.35589   0.36691   0.37181
 Alpha virt. eigenvalues --    0.37736   0.38899   0.39911   0.40999   0.41809
 Alpha virt. eigenvalues --    0.42268   0.42570   0.43878   0.44327   0.45030
 Alpha virt. eigenvalues --    0.46702   0.48216   0.48355   0.48889   0.49798
 Alpha virt. eigenvalues --    0.50131   0.50431   0.50910   0.51392   0.51594
 Alpha virt. eigenvalues --    0.51706   0.51877   0.52366   0.52645   0.52989
 Alpha virt. eigenvalues --    0.53098   0.53609   0.53889   0.54249   0.54396
 Alpha virt. eigenvalues --    0.54455   0.54826   0.55056   0.55702   0.55862
 Alpha virt. eigenvalues --    0.56323   0.56743   0.56913   0.57179   0.57224
 Alpha virt. eigenvalues --    0.57780   0.57989   0.58427   0.58717   0.59355
 Alpha virt. eigenvalues --    0.59599   0.60138   0.60240   0.60610   0.60968
 Alpha virt. eigenvalues --    0.61010   0.61315   0.61840   0.62119   0.62379
 Alpha virt. eigenvalues --    0.62657   0.62978   0.63140   0.63848   0.64176
 Alpha virt. eigenvalues --    0.64651   0.65133   0.65260   0.65594   0.65867
 Alpha virt. eigenvalues --    0.66118   0.66642   0.66810   0.66940   0.67139
 Alpha virt. eigenvalues --    0.67378   0.68362   0.69077   0.69238   0.69718
 Alpha virt. eigenvalues --    0.70043   0.70277   0.71208   0.71304   0.71804
 Alpha virt. eigenvalues --    0.71988   0.72041   0.72208   0.72973   0.73289
 Alpha virt. eigenvalues --    0.73475   0.73733   0.74378   0.74616   0.75330
 Alpha virt. eigenvalues --    0.75920   0.76347   0.77196   0.77334   0.77497
 Alpha virt. eigenvalues --    0.77774   0.78097   0.78440   0.78647   0.78914
 Alpha virt. eigenvalues --    0.79051   0.79709   0.80222   0.80431   0.80893
 Alpha virt. eigenvalues --    0.80995   0.81482   0.81550   0.81911   0.82350
 Alpha virt. eigenvalues --    0.82462   0.82710   0.82951   0.83227   0.83702
 Alpha virt. eigenvalues --    0.83891   0.84696   0.84907   0.85399   0.85661
 Alpha virt. eigenvalues --    0.85745   0.85921   0.86201   0.86560   0.86650
 Alpha virt. eigenvalues --    0.87209   0.87776   0.87847   0.88674   0.88982
 Alpha virt. eigenvalues --    0.89149   0.89292   0.89726   0.90137   0.90477
 Alpha virt. eigenvalues --    0.90804   0.91363   0.91455   0.92065   0.92432
 Alpha virt. eigenvalues --    0.92908   0.92948   0.93317   0.93664   0.93859
 Alpha virt. eigenvalues --    0.94270   0.94425   0.94653   0.94824   0.94845
 Alpha virt. eigenvalues --    0.95612   0.95776   0.95990   0.96501   0.96801
 Alpha virt. eigenvalues --    0.96921   0.97408   0.97687   0.98059   0.98362
 Alpha virt. eigenvalues --    0.98684   0.99150   0.99293   1.00239   1.00785
 Alpha virt. eigenvalues --    1.01386   1.01791   1.02367   1.02805   1.03044
 Alpha virt. eigenvalues --    1.03608   1.04419   1.05083   1.05556   1.06136
 Alpha virt. eigenvalues --    1.06289   1.06606   1.07133   1.07802   1.08490
 Alpha virt. eigenvalues --    1.08940   1.09758   1.10222   1.10686   1.11215
 Alpha virt. eigenvalues --    1.12502   1.13411   1.14355   1.14602   1.15604
 Alpha virt. eigenvalues --    1.16534   1.17846   1.18228   1.18981   1.19553
 Alpha virt. eigenvalues --    1.20620   1.20898   1.21688   1.23507   1.24155
 Alpha virt. eigenvalues --    1.24548   1.24799   1.25810   1.25985   1.26967
 Alpha virt. eigenvalues --    1.28454   1.28541   1.29217   1.29979   1.30163
 Alpha virt. eigenvalues --    1.30605   1.31864   1.33284   1.34035   1.34262
 Alpha virt. eigenvalues --    1.35085   1.35514   1.35818   1.36545   1.37014
 Alpha virt. eigenvalues --    1.37990   1.38154   1.38902   1.39896   1.40509
 Alpha virt. eigenvalues --    1.40696   1.40952   1.41992   1.42558   1.43330
 Alpha virt. eigenvalues --    1.45015   1.45151   1.45753   1.46266   1.47335
 Alpha virt. eigenvalues --    1.47733   1.50739   1.51298   1.51511   1.51620
 Alpha virt. eigenvalues --    1.53645   1.53945   1.54677   1.54772   1.56666
 Alpha virt. eigenvalues --    1.57252   1.57476   1.58029   1.58945   1.59322
 Alpha virt. eigenvalues --    1.60193   1.61356   1.62036   1.62581   1.64046
 Alpha virt. eigenvalues --    1.66776   1.68272   1.69098   1.69868   1.70171
 Alpha virt. eigenvalues --    1.70549   1.71463   1.71922   1.72475   1.72859
 Alpha virt. eigenvalues --    1.73074   1.73263   1.73365   1.73698   1.74164
 Alpha virt. eigenvalues --    1.74599   1.75244   1.75572   1.77028   1.77510
 Alpha virt. eigenvalues --    1.77728   1.78006   1.78357   1.78863   1.78922
 Alpha virt. eigenvalues --    1.79153   1.79534   1.80254   1.80965   1.81273
 Alpha virt. eigenvalues --    1.82370   1.82786   1.82947   1.83108   1.83464
 Alpha virt. eigenvalues --    1.83760   1.83858   1.84719   1.85441   1.85845
 Alpha virt. eigenvalues --    1.86230   1.86456   1.86764   1.87448   1.87748
 Alpha virt. eigenvalues --    1.88020   1.88423   1.89123   1.89500   1.89826
 Alpha virt. eigenvalues --    1.90150   1.90535   1.91223   1.91483   1.91778
 Alpha virt. eigenvalues --    1.92244   1.92794   1.93006   1.93412   1.93520
 Alpha virt. eigenvalues --    1.93773   1.94047   1.94731   1.95385   1.96035
 Alpha virt. eigenvalues --    1.96652   1.96911   1.97494   1.97888   1.98802
 Alpha virt. eigenvalues --    1.99244   1.99357   1.99635   2.00355   2.00570
 Alpha virt. eigenvalues --    2.00925   2.01305   2.01928   2.02226   2.02304
 Alpha virt. eigenvalues --    2.02687   2.03165   2.04465   2.04641   2.05279
 Alpha virt. eigenvalues --    2.05527   2.05898   2.06278   2.06375   2.07181
 Alpha virt. eigenvalues --    2.07561   2.07907   2.08158   2.08806   2.09252
 Alpha virt. eigenvalues --    2.09385   2.09770   2.10317   2.10531   2.11148
 Alpha virt. eigenvalues --    2.11391   2.11681   2.12006   2.12126   2.12352
 Alpha virt. eigenvalues --    2.12597   2.14185   2.15228   2.15381   2.15484
 Alpha virt. eigenvalues --    2.16944   2.17060   2.17409   2.17803   2.18229
 Alpha virt. eigenvalues --    2.18373   2.19132   2.19921   2.20298   2.20627
 Alpha virt. eigenvalues --    2.21335   2.22471   2.22769   2.23192   2.23873
 Alpha virt. eigenvalues --    2.24432   2.24661   2.25118   2.25558   2.26336
 Alpha virt. eigenvalues --    2.27361   2.27818   2.28123   2.28706   2.28920
 Alpha virt. eigenvalues --    2.29320   2.30118   2.30322   2.30762   2.31889
 Alpha virt. eigenvalues --    2.32586   2.33443   2.33515   2.34389   2.34697
 Alpha virt. eigenvalues --    2.34721   2.35138   2.35575   2.35754   2.35944
 Alpha virt. eigenvalues --    2.36695   2.37156   2.37505   2.37841   2.38164
 Alpha virt. eigenvalues --    2.38425   2.39127   2.39972   2.40398   2.40649
 Alpha virt. eigenvalues --    2.41075   2.41265   2.42202   2.42518   2.43242
 Alpha virt. eigenvalues --    2.43901   2.44478   2.45031   2.45340   2.46037
 Alpha virt. eigenvalues --    2.46697   2.46898   2.47697   2.47915   2.49059
 Alpha virt. eigenvalues --    2.49195   2.49820   2.49973   2.50275   2.50513
 Alpha virt. eigenvalues --    2.50788   2.51041   2.52878   2.53246   2.53742
 Alpha virt. eigenvalues --    2.54358   2.54555   2.55111   2.55183   2.55761
 Alpha virt. eigenvalues --    2.56107   2.56445   2.56933   2.57119   2.57817
 Alpha virt. eigenvalues --    2.58128   2.58559   2.59000   2.59623   2.59900
 Alpha virt. eigenvalues --    2.60522   2.61019   2.61405   2.61856   2.62007
 Alpha virt. eigenvalues --    2.62176   2.63195   2.63612   2.63888   2.64939
 Alpha virt. eigenvalues --    2.65265   2.65648   2.65760   2.65903   2.66591
 Alpha virt. eigenvalues --    2.66843   2.67521   2.68171   2.68259   2.69272
 Alpha virt. eigenvalues --    2.69764   2.69972   2.70524   2.70728   2.71279
 Alpha virt. eigenvalues --    2.71524   2.71811   2.71861   2.72579   2.72838
 Alpha virt. eigenvalues --    2.73193   2.73590   2.74468   2.74970   2.75154
 Alpha virt. eigenvalues --    2.75722   2.76445   2.76970   2.77751   2.77835
 Alpha virt. eigenvalues --    2.79239   2.79785   2.79829   2.80983   2.81139
 Alpha virt. eigenvalues --    2.81489   2.82508   2.82656   2.82971   2.83439
 Alpha virt. eigenvalues --    2.83953   2.84349   2.84762   2.85882   2.86840
 Alpha virt. eigenvalues --    2.87355   2.88017   2.88282   2.89101   2.89624
 Alpha virt. eigenvalues --    2.90044   2.90280   2.91018   2.92583   2.93299
 Alpha virt. eigenvalues --    2.94206   2.95611   2.96247   2.97818   2.98232
 Alpha virt. eigenvalues --    2.98730   2.98939   2.99622   3.02071   3.02334
 Alpha virt. eigenvalues --    3.03206   3.03505   3.04644   3.05040   3.05573
 Alpha virt. eigenvalues --    3.05868   3.07242   3.08188   3.10748   3.12216
 Alpha virt. eigenvalues --    3.12464   3.13898   3.14375   3.16549   3.17378
 Alpha virt. eigenvalues --    3.18004   3.18943   3.19022   3.21691   3.23161
 Alpha virt. eigenvalues --    3.23621   3.24745   3.25386   3.26317   3.27565
 Alpha virt. eigenvalues --    3.28014   3.29589   3.31196   3.31782   3.32299
 Alpha virt. eigenvalues --    3.33726   3.35157   3.36210   3.37046   3.37605
 Alpha virt. eigenvalues --    3.39141   3.39984   3.41840   3.42581   3.43329
 Alpha virt. eigenvalues --    3.43354   3.45109   3.45603   3.46142   3.48424
 Alpha virt. eigenvalues --    3.49144   3.51465   3.53188   3.54340   3.54973
 Alpha virt. eigenvalues --    3.55294   3.56053   3.56984   3.57323   3.58202
 Alpha virt. eigenvalues --    3.59346   3.61955   3.63364   3.64638   3.67993
 Alpha virt. eigenvalues --    3.69825   3.70710   3.74367   3.79373   3.89677
 Alpha virt. eigenvalues --    3.90828   4.04162   4.10196   4.11542   4.13042
 Alpha virt. eigenvalues --    4.14625   4.15274   4.16032   4.18728   4.19194
 Alpha virt. eigenvalues --    4.21112   4.24888   4.28038   4.28902   4.31769
 Alpha virt. eigenvalues --    4.33886   4.35873   4.37485   4.38647   4.40462
 Alpha virt. eigenvalues --    4.43947   4.45320   4.46366   4.49022   4.49516
 Alpha virt. eigenvalues --    4.49678   4.51348   4.53218   4.54926   4.55996
 Alpha virt. eigenvalues --    4.57831   4.61576   4.62020   4.63400   4.66612
 Alpha virt. eigenvalues --    4.69547   4.70631   4.72678   4.76257   4.76862
 Alpha virt. eigenvalues --    4.78750   4.81786
          Condensed to atoms (all electrons):
 Mulliken charges:
               1
     1  C   -0.017925
     2  C    0.012299
     3  C   -0.167683
     4  C   -0.179794
     5  C   -0.197093
     6  C   -0.184746
     7  C    0.070839
     8  C    0.073590
     9  C   -0.208759
    10  C   -0.217209
    11  C    0.018905
    12  C    0.090957
    13  C   -0.296287
    14  C   -0.293435
    15  C   -0.306909
    16  C   -0.278269
    17  C   -0.155379
    18  C   -0.182358
    19  C   -0.312087
    20  C   -0.352804
    21  C   -0.068643
    22  C   -0.073047
    23  C    0.069642
    24  C    0.172027
    25  C   -0.359583
    26  C   -0.376936
    27  C   -0.122481
    28  C   -0.158789
    29  C   -0.099608
    30  C   -0.047089
    31  C   -0.085926
    32  C   -0.123558
    33  C    0.085583
    34  C    0.065574
    35  C   -0.368809
    36  C   -0.357567
    37  C   -0.117581
    38  C   -0.072390
    39  C   -0.104825
    40  C   -0.030122
    41  H    0.099948
    42  H    0.094847
    43  H    0.089632
    44  H    0.087015
    45  H    0.086537
    46  H    0.079084
    47  H    0.100486
    48  H    0.108010
    49  H    0.114127
    50  H    0.067592
    51  H    0.084159
    52  H    0.103561
    53  H    0.110673
    54  H    0.065668
    55  H    0.101594
    56  H    0.107996
    57  H    0.101396
    58  H    0.081012
    59  H    0.096367
    60  H    0.110510
    61  H    0.059640
    62  H    0.111956
    63  H    0.104206
    64  H    0.051199
    65  H    0.102109
    66  H    0.068876
    67  H    0.125367
    68  H    0.114298
    69  H    0.090140
    70  H    0.131770
    71  H    0.105473
    72  H    0.062031
    73  H    0.070071
    74  H    0.082778
    75  H    0.131912
    76  H    0.104438
    77  H    0.130058
    78  H    0.113764
    79  H    0.122678
    80  H    0.091746
    81  H    0.081936
    82  H    0.064501
    83  H    0.101076
    84  H    0.041942
    85  H    0.074882
    86  H    0.080780
    87  H    0.116142
    88  H    0.111545
    89  H    0.121625
    90  H    0.147753
    91  H    0.136131
    92  H    0.072359
    93  H    0.075043
    94  H    0.074005
    95  H    0.055066
    96  H    0.038764
 Sum of Mulliken charges =  -0.00000
 Mulliken charges with hydrogens summed into heavy atoms:
               1
     1  C   -0.017925
     2  C    0.012299
     3  C    0.027111
     4  C   -0.003147
     5  C   -0.031472
     6  C    0.023750
     7  C    0.070839
     8  C    0.073590
     9  C   -0.027040
    10  C   -0.029489
    11  C    0.018905
    12  C    0.090957
    13  C   -0.018352
    14  C   -0.003031
    15  C   -0.040391
    16  C   -0.010908
    17  C   -0.053269
    18  C   -0.113482
    19  C    0.017718
    20  C   -0.053530
    21  C    0.001428
    22  C    0.009731
    23  C    0.069642
    24  C    0.172027
    25  C    0.006826
    26  C   -0.048747
    27  C   -0.040544
    28  C   -0.094288
    29  C    0.001468
    30  C   -0.005148
    31  C   -0.011045
    32  C   -0.042778
    33  C    0.085583
    34  C    0.065574
    35  C   -0.019497
    36  C   -0.001324
    37  C   -0.042538
    38  C    0.001615
    39  C   -0.049759
    40  C    0.008642
 Electronic spatial extent (au):  <R**2>=          94393.0988
 Charge=              0.0000 electrons
 Dipole moment (field-independent basis, Debye):
    X=              1.1620    Y=             -0.5801    Z=             -0.4169  Tot=              1.3640
 Quadrupole moment (field-independent basis, Debye-Ang):
   XX=           -224.5506   YY=           -235.9164   ZZ=           -254.5291
   XY=              3.6311   XZ=             -0.6636   YZ=              4.6742
 Traceless Quadrupole moment (field-independent basis, Debye-Ang):
   XX=             13.7814   YY=              2.4156   ZZ=            -16.1970
   XY=              3.6311   XZ=             -0.6636   YZ=              4.6742
 Octapole moment (field-independent basis, Debye-Ang**2):
  XXX=             79.8574  YYY=             -0.6499  ZZZ=              5.3703  XYY=            -17.7165
  XXY=            -47.3775  XXZ=            -49.3931  XZZ=             45.4466  YZZ=             -5.5394
  YYZ=              9.5678  XYZ=             -7.3834
 Hexadecapole moment (field-independent basis, Debye-Ang**3):
 XXXX=        -120937.6161 YYYY=          -4403.5588 ZZZZ=          -1631.8306 XXXY=           1270.8024
 XXXZ=           -303.2415 YYYX=            -31.8070 YYYZ=             23.6512 ZZZX=            -46.2391
 ZZZY=             12.4742 XXYY=         -21394.0525 XXZZ=         -21558.7563 YYZZ=           -994.6413
 XXYZ=             34.6504 YYXZ=            -53.3914 ZZXY=             41.6625
 N-N= 3.672226015605D+03 E-N=-1.094439412291D+04  KE= 1.541080839365D+03
 1\1\GINC-RYZEN-SSD1\SP\RB3LYP TD-FC\6-31G(d,p)\C40H56\PADAWAN\01-Aug-2
 019\0\\# td=(NStates=1) B3LYP/6-31G(d,p)\\TD\\0,1\C,0,12.0672810707,0.
 6219427948,-0.7164177607\C,0,-12.0560779219,0.1198469431,0.9050996889\
 C,0,13.4932787406,-0.2095406141,-0.5620722062\C,0,-13.0018166816,1.355
 9899905,1.2228429987\C,0,13.061178432,-1.6930249749,-0.702041963\C,0,-
 13.3797725734,2.0328017923,-0.0968293158\C,0,11.0030320971,0.077161980
 7,0.1570432421\C,0,-10.9863463024,0.4629861809,-0.1850261374\C,0,12.15
 41398514,-2.1997922732,0.5083548118\C,0,-12.1124011227,2.5382841366,-0
 .8404223781\C,0,11.0117408821,-1.1910111556,0.790605629\C,0,-11.007465
 5408,1.5915747793,-0.9111399877\C,0,11.6868592736,0.7043215573,-2.1822
 167003\C,0,12.5469081042,2.053019357,-0.2342849475\C,0,-12.943661957,-
 1.1504821669,0.3835321831\C,0,-11.3417730453,-0.3907322468,2.186306778
 9\C,0,9.8495330159,0.9856746811,0.331685169\C,0,-9.8952393308,-0.50808
 33504,-0.2665307409\C,0,10.0134555219,-1.7464144531,1.8422268576\C,0,-
 9.8221351837,1.9322949686,-1.8718986548\C,0,8.5121374534,0.4442043766,
 0.1473929455\C,0,-8.5359865571,-0.3092807934,-0.1574420671\C,0,7.34967
 35356,1.2440632066,0.5052131339\C,0,-7.5837772716,-1.3389423693,-0.297
 9301899\C,0,7.5814511948,2.8299256298,0.6961420512\C,0,-7.8583330215,-
 2.8004200531,-0.4966869463\C,0,6.0819620977,0.6277671657,0.3301051695\
 C,0,-6.2997585858,-0.9081816408,-0.1980819199\C,0,4.8747781285,1.33305
 56375,0.5723268917\C,0,-5.024502062,-1.6823742152,-0.4711985015\C,0,3.
 6804567573,0.6972972949,0.3422561749\C,0,-3.7608114663,-1.1388145142,-
 0.2404364813\C,0,2.3756008615,1.22202291,0.5008145694\C,0,-2.479996999
 1,-1.8910841671,-0.4183651166\C,0,2.2442387955,2.6943988064,0.79374374
 77\C,0,-2.5220627517,-3.3732908556,-0.8014314932\C,0,1.1977913276,0.48
 28596276,0.2897138884\C,0,-1.3209502681,-1.1967282448,-0.2450532104\C,
 0,1.0907434465,-0.8632512723,-0.1087483945\C,0,-0.0498644468,-1.732989
 5388,-0.3535791139\H,0,13.8241325191,-0.0507526458,0.427490792\H,0,14.
 1684438582,0.0416157859,-1.3948130197\H,0,-12.3422605911,1.9366560558,
 1.9651600808\H,0,-13.9904899066,1.0199614884,1.6623926774\H,0,13.90535
 11571,-2.2895797757,-0.9291263584\H,0,12.4778836701,-1.9284067407,-1.7
 04376561\H,0,-13.9240657948,2.8447778378,0.2636374013\H,0,-13.83935871
 97,1.2599856728,-0.7652505472\H,0,12.7100029641,-2.51853436,1.30405228
 72\H,0,11.6107185264,-3.152588951,-0.1904221866\H,0,-11.7578855807,3.5
 457822989,-0.4517986629\H,0,-12.2347096849,2.9523587437,-1.7203759388\
 H,0,11.5079541659,-0.236336711,-2.6093890716\H,0,12.5265695377,1.28638
 32996,-2.8413707111\H,0,10.799117483,1.201243236,-2.6704677663\H,0,12.
 9041213662,1.9721241143,0.6980371442\H,0,11.8731857255,2.8440043113,-0
 .5077749345\H,0,13.3315450108,2.2458248524,-1.0914414152\H,0,-13.71995
 12258,-1.0480988189,-0.4177378745\H,0,-13.4914213147,-1.5353593401,1.1
 955867794\H,0,-12.1699545987,-2.0750759125,0.0255566732\H,0,-10.476050
 0959,0.2626706277,2.3587755367\H,0,-11.0580923346,-1.4838093816,2.0127
 752937\H,0,-12.2443484988,-0.1441688848,3.1219807262\H,0,10.1178451911
 ,2.0527501351,0.7306689748\H,0,-10.2595203967,-1.6584509551,-0.4687532
 533\H,0,9.5320872862,-0.9269202867,2.2475685145\H,0,10.6758083949,-2.1
 395001479,2.3658980198\H,0,9.1115832255,-2.4177916292,1.3923588575\H,0
 ,-9.1280798433,1.11217353,-1.9692294198\H,0,-9.1500598109,2.6904325653
 ,-1.3582958758\H,0,-10.2488851535,2.4890039058,-2.9567256459\H,0,8.282
 8538762,-0.468847665,-0.0812950799\H,0,-8.0274561408,0.4909832924,0.22
 21585634\H,0,8.0093541675,2.8108061165,1.6654259251\H,0,6.6199538761,3
 .2953972439,0.708073387\H,0,8.087152953,3.3237410361,-0.1013833612\H,0
 ,-8.4071816704,-3.017618821,-1.4690636\H,0,-8.5793089192,-3.1512983171
 ,0.2871048498\H,0,-6.794113964,-3.4136040117,-0.6755564408\H,0,6.27966
 88314,-0.4956947963,0.0489628796\H,0,-6.0967816628,0.0527672152,0.1180
 415274\H,0,4.7615895163,2.3914975939,0.9059034971\H,0,-5.1037804783,-2
 .5839019066,-0.7219143325\H,0,3.6863889056,-0.3458191518,0.0160612445\
 H,0,-3.9259802292,-0.1966433344,0.288036937\H,0,2.651885888,2.67480787
 69,1.8687055259\H,0,1.2870659074,3.1950502368,1.0473744649\H,0,2.80440
 74995,3.2057010436,-0.0699109607\H,0,-2.7465065203,-3.4191502709,-1.75
 78707979\H,0,-3.0427058764,-3.886330626,-0.0758329319\H,0,-1.421623133
 6,-3.95335567,-0.9735795844\H,0,0.1722296238,1.0015760728,0.4008407293
 \H,0,-1.4088719758,-0.2620382166,0.1739196659\H,0,2.16935548,-1.363505
 4002,-0.3246120254\H,0,0.1031708279,-2.6071657589,-0.5677276337\\Versi
 on=ES64L-G16RevA.03\State=1-A\HF=-1557.4563022\RMSD=9.732e-09\PG=C01 [
 X(C40H56)]\\@


 IT IS BY EATING THE LIGHT OF A STAR THAT WE EXIST, 
 IN THE FINAL ANALYSIS, 
 JUST AS IT IS BY PERCEIVING THE LIGHT OF STARS
 THAT WE DEFINE THE WORLD AROUND US.

                                    -- GILBERT GROSVENOR
 Job cpu time:       0 days 10 hours 26 minutes 22.3 seconds.
 Elapsed time:       0 days  2 hours 37 minutes 32.3 seconds.
 File lengths (MBytes):  RWF=   2884 Int=      0 D2E=      0 Chk=     79 Scr=      1
 Normal termination of Gaussian 16 at Thu Aug  1 23:28:26 2019.
