 Entering Gaussian System, Link 0=g16
 Input=Geometria-331-.com
 Output=Geometria-331-.log
 Initial command:
 /usr/local/g16/l1.exe "/home/padawan/israel-mol/b-caroten/spectra/abs/Gau-98582.inp" -scrdir="/home/padawan/israel-mol/b-caroten/spectra/abs/"
 Entering Link 1 = /usr/local/g16/l1.exe PID=     98584.
  
 Copyright (c) 1988,1990,1992,1993,1995,1998,2003,2009,2016,
            Gaussian, Inc.  All Rights Reserved.
  
 This is part of the Gaussian(R) 16 program.  It is based on
 the Gaussian(R) 09 system (copyright 2009, Gaussian, Inc.),
 the Gaussian(R) 03 system (copyright 2003, Gaussian, Inc.),
 the Gaussian(R) 98 system (copyright 1998, Gaussian, Inc.),
 the Gaussian(R) 94 system (copyright 1995, Gaussian, Inc.),
 the Gaussian 92(TM) system (copyright 1992, Gaussian, Inc.),
 the Gaussian 90(TM) system (copyright 1990, Gaussian, Inc.),
 the Gaussian 88(TM) system (copyright 1988, Gaussian, Inc.),
 the Gaussian 86(TM) system (copyright 1986, Carnegie Mellon
 University), and the Gaussian 82(TM) system (copyright 1983,
 Carnegie Mellon University). Gaussian is a federally registered
 trademark of Gaussian, Inc.
  
 This software contains proprietary and confidential information,
 including trade secrets, belonging to Gaussian, Inc.
  
 This software is provided under written license and may be
 used, copied, transmitted, or stored only in accord with that
 written license.
  
 The following legend is applicable only to US Government
 contracts under FAR:
  
                    RESTRICTED RIGHTS LEGEND
  
 Use, reproduction and disclosure by the US Government is
 subject to restrictions as set forth in subparagraphs (a)
 and (c) of the Commercial Computer Software - Restricted
 Rights clause in FAR 52.227-19.
  
 Gaussian, Inc.
 340 Quinnipiac St., Bldg. 40, Wallingford CT 06492
  
  
 ---------------------------------------------------------------
 Warning -- This program may not be used in any manner that
 competes with the business of Gaussian, Inc. or will provide
 assistance to any competitor of Gaussian, Inc.  The licensee
 of this program is prohibited from giving any competitor of
 Gaussian, Inc. access to this program.  By using this program,
 the user acknowledges that Gaussian, Inc. is engaged in the
 business of creating and licensing software in the field of
 computational chemistry and represents and warrants to the
 licensee that it is not a competitor of Gaussian, Inc. and that
 it will not use this program in any manner prohibited above.
 ---------------------------------------------------------------
  

 Cite this work as:
 Gaussian 16, Revision A.03,
 M. J. Frisch, G. W. Trucks, H. B. Schlegel, G. E. Scuseria, 
 M. A. Robb, J. R. Cheeseman, G. Scalmani, V. Barone, 
 G. A. Petersson, H. Nakatsuji, X. Li, M. Caricato, A. V. Marenich, 
 J. Bloino, B. G. Janesko, R. Gomperts, B. Mennucci, H. P. Hratchian, 
 J. V. Ortiz, A. F. Izmaylov, J. L. Sonnenberg, D. Williams-Young, 
 F. Ding, F. Lipparini, F. Egidi, J. Goings, B. Peng, A. Petrone, 
 T. Henderson, D. Ranasinghe, V. G. Zakrzewski, J. Gao, N. Rega, 
 G. Zheng, W. Liang, M. Hada, M. Ehara, K. Toyota, R. Fukuda, 
 J. Hasegawa, M. Ishida, T. Nakajima, Y. Honda, O. Kitao, H. Nakai, 
 T. Vreven, K. Throssell, J. A. Montgomery, Jr., J. E. Peralta, 
 F. Ogliaro, M. J. Bearpark, J. J. Heyd, E. N. Brothers, K. N. Kudin, 
 V. N. Staroverov, T. A. Keith, R. Kobayashi, J. Normand, 
 K. Raghavachari, A. P. Rendell, J. C. Burant, S. S. Iyengar, 
 J. Tomasi, M. Cossi, J. M. Millam, M. Klene, C. Adamo, R. Cammi, 
 J. W. Ochterski, R. L. Martin, K. Morokuma, O. Farkas, 
 J. B. Foresman, and D. J. Fox, Gaussian, Inc., Wallingford CT, 2016.
 
 ******************************************
 Gaussian 16:  ES64L-G16RevA.03 25-Dec-2016
                30-Jul-2019 
 ******************************************
 %nproc=4
 Will use up to    4 processors via shared memory.
 %Mem=2GB
 ---------------------------------
 # td=(NStates=1) B3LYP/6-31G(d,p)
 ---------------------------------
 1/38=1,172=1/1;
 2/12=2,17=6,18=5,40=1/2;
 3/5=1,6=6,7=101,11=9,25=1,30=1,74=-5/1,2,3,8;
 4//1;
 5/5=2,38=5/2;
 8/6=1,10=2,108=1/1;
 9/41=1,42=1,70=2/14;
 6/7=2,8=2,9=2,10=2/1;
 99/5=1,9=1/99;
 --
 TD
 --
 Symbolic Z-matrix:
 Charge =  0 Multiplicity = 1
 6                     12.10486   0.51849  -0.76838 
 6                    -12.12104  -0.08139   0.77368 
 6                     13.39287  -0.38138  -0.56703 
 6                    -12.92243   1.14377   1.32127 
 6                     13.1449  -1.80552  -0.60239 
 6                    -13.35629   1.95773   0.09718 
 6                     11.00151   0.11869   0.23624 
 6                    -10.9218   0.42767  -0.15729 
 6                     12.2349  -2.1575    0.59709 
 6                    -12.14128   2.67939  -0.57524 
 6                     11.13703  -1.12325   0.89439 
 6                    -11.10516   1.68417  -0.7342 
 6                     11.64626   0.3871   -2.22574 
 6                     12.55283   1.97464  -0.53357 
 6                    -12.94128  -1.11046   0.18243 
 6                    -11.50716  -0.6954    2.0472 
 6                     9.85175   0.94625   0.38235 
 6                    -9.89399  -0.54845  -0.35519 
 6                     10.22025  -1.58859   1.94314 
 6                    -9.98795   2.18997  -1.64106 
 6                     8.57586   0.51478   0.34282 
 6                    -8.53301  -0.33954  -0.33741 
 6                     7.43863   1.27243   0.49235 
 6                    -7.51884  -1.35167  -0.50513 
 6                     7.57412   2.80874   0.66151 
 6                    -7.9263   -2.7998   -0.62885 
 6                     6.241     0.80417   0.34739 
 6                    -6.31485  -0.92911  -0.41396 
 6                     4.93826   1.47237   0.34612 
 6                    -5.11821  -1.70501  -0.48901 
 6                     3.70245   0.68439   0.30368 
 6                    -3.81265  -1.21488  -0.35077 
 6                     2.46155   1.3027    0.40812 
 6                    -2.5682   -1.89796  -0.24875 
 6                     2.3451    2.82204   0.54624 
 6                    -2.66691  -3.2614   -0.77289 
 6                     1.24482   0.46505   0.26269 
 6                    -1.47694  -1.14888  -0.13884 
 6                     1.07777  -0.85398  -0.00213 
 6                    -0.11141  -1.59809  -0.17261 
 1                     14.05803   0.04249   0.21477 
 1                     14.03753  -0.0668   -1.49885 
 1                    -12.25733   1.72562   1.92912 
 1                    -13.80834   0.82145   2.07005 
 1                     14.10425  -2.22517  -0.38431 
 1                     12.84437  -2.18185  -1.42773 
 1                    -13.99291   2.67997   0.61485 
 1                    -14.03792   1.36579  -0.56471 
 1                     12.91453  -2.31728   1.39842 
 1                     11.55652  -3.10408   0.51768 
 1                    -11.84515   3.48425   0.1523 
 1                    -12.30381   3.27026  -1.44112 
 1                     11.47159  -0.70352  -2.43367 
 1                     12.29609   0.8454   -3.16318 
 1                     10.82448   1.10607  -2.24845 
 1                     12.87953   2.21525   0.583 
 1                     11.72668   2.81439  -0.58936 
 1                     13.28881   2.25729  -1.20752 
 1                    -13.82772  -0.50844  -0.55115 
 1                    -13.5513  -1.71178   0.90978 
 1                    -12.34441  -1.6415   -0.57323 
 1                    -10.70722   0.02707   2.40356 
 1                    -10.94651  -1.60975   1.71047 
 1                    -12.19878  -0.82529   2.72232 
 1                     10.27789   2.12235   0.45398 
 1                    -10.17236  -1.48369  -0.348 
 1                     9.81796  -0.6591    2.51223 
 1                     11.04919  -2.00667   2.6275 
 1                     9.54225  -2.4622    1.6197 
 1                    -9.13094   1.55254  -1.8421 
 1                    -9.26677   2.93321  -1.33806 
 1                    -10.45247   2.48986  -2.46632 
 1                     8.41736  -0.68242   0.15586 
 1                    -8.2006    0.75957  -0.1324 
 1                     8.0045    3.27758   1.58769 
 1                     6.59161   3.38143   0.62651 
 1                     8.23023   3.26268  -0.05684 
 1                    -8.55744  -3.18137  -1.5834 
 1                    -8.36802  -2.97384   0.31756 
 1                    -7.0004   -3.5659   -0.67889 
 1                     6.23238  -0.17345  -0.05036 
 1                    -6.03371   0.06777  -0.11256 
 1                     4.81385   2.39158   0.67057 
 1                    -5.21822  -2.70035  -0.61885 
 1                     3.52146  -0.37386   0.27894 
 1                    -3.78141  -0.07217  -0.08791 
 1                     3.00404   3.07604   1.55776 
 1                     1.4611    3.24005   0.57817 
 1                     2.91207   3.13546  -0.33129 
 1                    -3.10387  -3.41962  -1.82872 
 1                    -3.26358  -3.94574  -0.06804 
 1                    -1.77045  -3.757    -0.94926 
 1                     0.18428   0.98833   0.64379 
 1                    -1.50483  -0.02864  -0.03685 
 1                     1.88489  -1.61646   0.09328 
 1                     0.13332  -2.68231  -0.45831 
 
 Stoichiometry    C40H56
 Framework group  C1[X(C40H56)]
 Deg. of freedom   282
 Full point group                 C1      NOp   1
 Largest Abelian subgroup         C1      NOp   1
 Largest concise Abelian subgroup C1      NOp   1
                         Standard orientation:                         
 ---------------------------------------------------------------------
 Center     Atomic      Atomic             Coordinates (Angstroms)
 Number     Number       Type             X           Y           Z
 ---------------------------------------------------------------------
      1          6           0       12.104967    0.493241   -0.777606
      2          6           0      -12.121180   -0.057054    0.779129
      3          6           0       13.391979   -0.405281   -0.564250
      4          6           0      -12.920979    1.176458    1.310044
      5          6           0       13.142338   -1.829480   -0.579956
      6          6           0      -13.354243    1.974021    0.074992
      7          6           0       11.001438    0.108577    0.232720
      8          6           0      -10.921611    0.437759   -0.159078
      9          6           0       12.232274   -2.163871    0.624503
     10          6           0      -12.138590    2.684940   -0.607613
     11          6           0       11.135701   -1.124354    0.907843
     12          6           0      -11.103668    1.686423   -0.753161
     13          6           0       11.645786    0.342357   -2.232895
     14          6           0       12.554696    1.951956   -0.562965
     15          6           0      -12.942787   -1.093192    0.202314
     16          6           0      -11.507646   -0.654212    2.060812
     17          6           0        9.852687    0.939416    0.367747
     18          6           0       -9.894996   -0.542191   -0.343812
     19          6           0       10.218673   -1.574151    1.963143
     20          6           0       -9.986136    2.178395   -1.667186
     21          6           0        8.576284    0.508936    0.334503
     22          6           0       -8.533765   -0.334654   -0.329276
     23          6           0        7.439979    1.269895    0.473908
     24          6           0       -7.520828   -1.350180   -0.483339
     25          6           0        7.577307    2.808233    0.621887
     26          6           0       -7.930010   -2.799393   -0.587023
     27          6           0        6.241758    0.801095    0.335721
     28          6           0       -6.316320   -0.927814   -0.398317
     29          6           0        4.939804    1.470732    0.325623
     30          6           0       -5.120608   -1.706065   -0.463012
     31          6           0        3.703059    0.683685    0.294356
     32          6           0       -3.814433   -1.215613   -0.331876
     33          6           0        2.462911    1.304829    0.390614
     34          6           0       -2.570750   -1.898683   -0.220811
     35          6           0        2.348271    2.826060    0.507864
     36          6           0       -2.671201   -3.269080   -0.726127
     37          6           0        1.245160    0.466678    0.257052
     38          6           0       -1.478586   -1.149438   -0.121513
     39          6           0        1.076503   -0.855670    0.010441
     40          6           0       -0.113595   -1.600659   -0.149471
     41          1           0       14.057855    0.028515    0.211469
     42          1           0       14.036740   -0.104295   -1.500484
     43          1           0      -12.255030    1.765839    1.909649
     44          1           0      -13.807052    0.865503    2.063427
     45          1           0       14.101265   -2.247221   -0.356386
     46          1           0       12.841135   -2.216778   -1.399959
     47          1           0      -13.989875    2.704052    0.582857
     48          1           0      -14.036751    1.373825   -0.578511
     49          1           0       12.911953   -2.313418    1.427768
     50          1           0       11.552773   -3.110666    0.558296
     51          1           0      -11.841313    3.499379    0.108708
     52          1           0      -12.300672    3.264039   -1.481494
     53          1           0       11.469791   -0.750817   -2.425762
     54          1           0       12.295882    0.786963   -3.176727
     55          1           0       10.824843    1.061912   -2.265261
     56          1           0       12.881997    2.207511    0.550103
     57          1           0       11.729511    2.791825   -0.630071
     58          1           0       13.290813    2.224446   -1.240936
     59          1           0      -13.828735   -0.500287   -0.539238
     60          1           0      -13.553294   -1.683739    0.938025
     61          1           0      -12.346753   -1.635275   -0.546140
     62          1           0      -10.706765    0.072154    2.406984
     63          1           0      -10.948160   -1.573760    1.736527
     64          1           0      -12.199227   -0.773992    2.737839
     65          1           0       10.280216    2.115887    0.423084
     66          1           0      -10.174456   -1.476923   -0.323688
     67          1           0        9.817630   -0.636459    2.519515
     68          1           0       11.047322   -1.983749    2.652969
     69          1           0        9.539563   -2.451330    1.651935
     70          1           0       -9.129926    1.537256   -1.859676
     71          1           0       -9.264003    2.924883   -1.374639
     72          1           0      -10.450537    2.467455   -2.496367
     73          1           0        8.416328   -0.690536    0.164062
     74          1           0       -8.200023    0.766785   -0.139486
     75          1           0        8.008502    3.289260    1.541415
     76          1           0        6.595455    3.381529    0.579278
     77          1           0        8.233736    3.251487   -0.102813
     78          1           0       -8.561866   -3.193309   -1.536059
     79          1           0       -8.371659   -2.959887    0.361809
     80          1           0       -7.005023   -3.567190   -0.626771
     81          1           0        6.231891   -0.181898   -0.048540
     82          1           0       -6.033927    0.072789   -0.110728
     83          1           0        4.816559    2.394460    0.637432
     84          1           0       -5.221816   -2.702985   -0.579130
     85          1           0        3.520832   -0.374590    0.284215
     86          1           0       -3.781785   -0.069432   -0.084766
     87          1           0        3.007800    3.093171    1.515622
     88          1           0        1.464773    3.245506    0.534281
     89          1           0        2.915353    3.126723   -0.374043
     90          1           0       -3.108654   -3.441292   -1.779562
     91          1           0       -3.268466   -3.942962   -0.011775
     92          1           0       -1.775371   -3.768102   -0.895907
     93          1           0        0.185345    0.996396    0.631202
     94          1           0       -1.505147   -0.027871   -0.034928
     95          1           0        1.882756   -1.617710    0.116105
     96          1           0        0.129793   -2.688997   -0.420298
 ---------------------------------------------------------------------
 Rotational constants (GHZ):           0.2734905           0.0110247           0.0107821
 Standard basis: 6-31G(d,p) (6D, 7F)
 There are   880 symmetry adapted cartesian basis functions of A   symmetry.
 There are   880 symmetry adapted basis functions of A   symmetry.
   880 basis functions,  1512 primitive gaussians,   880 cartesian basis functions
   148 alpha electrons      148 beta electrons
       nuclear repulsion energy      3685.8410953436 Hartrees.
 NAtoms=   96 NActive=   96 NUniq=   96 SFac= 1.00D+00 NAtFMM=   60 NAOKFM=T Big=T
 Integral buffers will be    131072 words long.
 Regular integral format.
 Two-electron integral symmetry is turned on.
 One-electron integrals computed using PRISM.
 NBasis=   880 RedAO= T EigKep=  8.31D-04  NBF=   880
 NBsUse=   880 1.00D-06 EigRej= -1.00D+00 NBFU=   880
 ExpMin= 1.61D-01 ExpMax= 3.05D+03 ExpMxC= 4.57D+02 IAcc=3 IRadAn=         5 AccDes= 0.00D+00
 Harris functional with IExCor=  402 and IRadAn=       5 diagonalized for initial guess.
 HarFok:  IExCor=  402 AccDes= 0.00D+00 IRadAn=         5 IDoV= 1 UseB2=F ITyADJ=14
 ICtDFT=  3500011 ScaDFX=  1.000000  1.000000  1.000000  1.000000
 FoFCou: FMM=F IPFlag=           0 FMFlag=      100000 FMFlg1=        2001
         NFxFlg=           0 DoJE=T BraDBF=F KetDBF=T FulRan=T
         wScrn=  0.000000 ICntrl=       500 IOpCl=  0 I1Cent=   200000004 NGrid=           0
         NMat0=    1 NMatS0=      1 NMatT0=    0 NMatD0=    1 NMtDS0=    0 NMtDT0=    0
 Petite list used in FoFCou.
 Requested convergence on RMS density matrix=1.00D-08 within 128 cycles.
 Requested convergence on MAX density matrix=1.00D-06.
 Requested convergence on             energy=1.00D-06.
 No special actions if energy rises.
 Integral accuracy reduced to 1.0D-05 until final iterations.
 Initial convergence to 1.0D-05 achieved.  Increase integral accuracy.
 SCF Done:  E(RB3LYP) =  -1557.53801057     A.U. after   17 cycles
            NFock= 17  Conv=0.53D-08     -V/T= 2.0099
 DoSCS=F DFT=T ScalE2(SS,OS)=  1.000000  1.000000
 ExpMin= 1.61D-01 ExpMax= 3.05D+03 ExpMxC= 4.57D+02 IAcc=3 IRadAn=         5 AccDes= 0.00D+00
 HarFok:  IExCor=  205 AccDes= 0.00D+00 IRadAn=         5 IDoV=-2 UseB2=F ITyADJ=14
 ICtDFT= 12500011 ScaDFX=  1.000000  1.000000  1.000000  1.000000
 GSVD:  LWork=       -1920 too small for GESVD, short by        8600 words or        8600 for optimal perf.
 Range of M.O.s used for correlation:    41   880
 NBasis=   880 NAE=   148 NBE=   148 NFC=    40 NFV=     0
 NROrb=    840 NOA=   108 NOB=   108 NVA=   732 NVB=   732

 **** Warning!!: The smallest alpha delta epsilon is  0.65369556D-01

 Orbital symmetries:
       Occupied  (A) (A) (A) (A) (A) (A) (A) (A) (A) (A) (A) (A)
                 (A) (A) (A) (A) (A) (A) (A) (A) (A) (A) (A) (A)
                 (A) (A) (A) (A) (A) (A) (A) (A) (A) (A) (A) (A)
                 (A) (A) (A) (A) (A) (A) (A) (A) (A) (A) (A) (A)
                 (A) (A) (A) (A) (A) (A) (A) (A) (A) (A) (A) (A)
                 (A) (A) (A) (A) (A) (A) (A) (A) (A) (A) (A) (A)
                 (A) (A) (A) (A) (A) (A) (A) (A) (A) (A) (A) (A)
                 (A) (A) (A) (A) (A) (A) (A) (A) (A) (A) (A) (A)
                 (A) (A) (A) (A) (A) (A) (A) (A) (A) (A) (A) (A)
                 (A) (A) (A) (A) (A) (A) (A) (A) (A) (A) (A) (A)
                 (A) (A) (A) (A) (A) (A) (A) (A) (A) (A) (A) (A)
                 (A) (A) (A) (A) (A) (A) (A) (A) (A) (A) (A) (A)
                 (A) (A) (A) (A)
       Virtual   (A) (A) (A) (A) (A) (A) (A) (A) (A) (A) (A) (A)
                 (A) (A) (A) (A) (A) (A) (A) (A) (A) (A) (A) (A)
                 (A) (A) (A) (A) (A) (A) (A) (A) (A) (A) (A) (A)
                 (A) (A) (A) (A) (A) (A) (A) (A) (A) (A) (A) (A)
                 (A) (A) (A) (A) (A) (A) (A) (A) (A) (A) (A) (A)
                 (A) (A) (A) (A) (A) (A) (A) (A) (A) (A) (A) (A)
                 (A) (A) (A) (A) (A) (A) (A) (A) (A) (A) (A) (A)
                 (A) (A) (A) (A) (A) (A) (A) (A) (A) (A) (A) (A)
                 (A) (A) (A) (A) (A) (A) (A) (A) (A) (A) (A) (A)
                 (A) (A) (A) (A) (A) (A) (A) (A) (A) (A) (A) (A)
                 (A) (A) (A) (A) (A) (A) (A) (A) (A) (A) (A) (A)
                 (A) (A) (A) (A) (A) (A) (A) (A) (A) (A) (A) (A)
                 (A) (A) (A) (A) (A) (A) (A) (A) (A) (A) (A) (A)
                 (A) (A) (A) (A) (A) (A) (A) (A) (A) (A) (A) (A)
                 (A) (A) (A) (A) (A) (A) (A) (A) (A) (A) (A) (A)
                 (A) (A) (A) (A) (A) (A) (A) (A) (A) (A) (A) (A)
                 (A) (A) (A) (A) (A) (A) (A) (A) (A) (A) (A) (A)
                 (A) (A) (A) (A) (A) (A) (A) (A) (A) (A) (A) (A)
                 (A) (A) (A) (A) (A) (A) (A) (A) (A) (A) (A) (A)
                 (A) (A) (A) (A) (A) (A) (A) (A) (A) (A) (A) (A)
                 (A) (A) (A) (A) (A) (A) (A) (A) (A) (A) (A) (A)
                 (A) (A) (A) (A) (A) (A) (A) (A) (A) (A) (A) (A)
                 (A) (A) (A) (A) (A) (A) (A) (A) (A) (A) (A) (A)
                 (A) (A) (A) (A) (A) (A) (A) (A) (A) (A) (A) (A)
                 (A) (A) (A) (A) (A) (A) (A) (A) (A) (A) (A) (A)
                 (A) (A) (A) (A) (A) (A) (A) (A) (A) (A) (A) (A)
                 (A) (A) (A) (A) (A) (A) (A) (A) (A) (A) (A) (A)
                 (A) (A) (A) (A) (A) (A) (A) (A) (A) (A) (A) (A)
                 (A) (A) (A) (A) (A) (A) (A) (A) (A) (A) (A) (A)
                 (A) (A) (A) (A) (A) (A) (A) (A) (A) (A) (A) (A)
                 (A) (A) (A) (A) (A) (A) (A) (A) (A) (A) (A) (A)
                 (A) (A) (A) (A) (A) (A) (A) (A) (A) (A) (A) (A)
                 (A) (A) (A) (A) (A) (A) (A) (A) (A) (A) (A) (A)
                 (A) (A) (A) (A) (A) (A) (A) (A) (A) (A) (A) (A)
                 (A) (A) (A) (A) (A) (A) (A) (A) (A) (A) (A) (A)
                 (A) (A) (A) (A) (A) (A) (A) (A) (A) (A) (A) (A)
                 (A) (A) (A) (A) (A) (A) (A) (A) (A) (A) (A) (A)
                 (A) (A) (A) (A) (A) (A) (A) (A) (A) (A) (A) (A)
                 (A) (A) (A) (A) (A) (A) (A) (A) (A) (A) (A) (A)
                 (A) (A) (A) (A) (A) (A) (A) (A) (A) (A) (A) (A)
                 (A) (A) (A) (A) (A) (A) (A) (A) (A) (A) (A) (A)
                 (A) (A) (A) (A) (A) (A) (A) (A) (A) (A) (A) (A)
                 (A) (A) (A) (A) (A) (A) (A) (A) (A) (A) (A) (A)
                 (A) (A) (A) (A) (A) (A) (A) (A) (A) (A) (A) (A)
                 (A) (A) (A) (A) (A) (A) (A) (A) (A) (A) (A) (A)
                 (A) (A) (A) (A) (A) (A) (A) (A) (A) (A) (A) (A)
                 (A) (A) (A) (A) (A) (A) (A) (A) (A) (A) (A) (A)
                 (A) (A) (A) (A) (A) (A) (A) (A) (A) (A) (A) (A)
                 (A) (A) (A) (A) (A) (A) (A) (A) (A) (A) (A) (A)
                 (A) (A) (A) (A) (A) (A) (A) (A) (A) (A) (A) (A)
                 (A) (A) (A) (A) (A) (A) (A) (A) (A) (A) (A) (A)
                 (A) (A) (A) (A) (A) (A) (A) (A) (A) (A) (A) (A)
                 (A) (A) (A) (A) (A) (A) (A) (A) (A) (A) (A) (A)
                 (A) (A) (A) (A) (A) (A) (A) (A) (A) (A) (A) (A)
                 (A) (A) (A) (A) (A) (A) (A) (A) (A) (A) (A) (A)
                 (A) (A) (A) (A) (A) (A) (A) (A) (A) (A) (A) (A)
                 (A) (A) (A) (A) (A) (A) (A) (A) (A) (A) (A) (A)
                 (A) (A) (A) (A) (A) (A) (A) (A) (A) (A) (A) (A)
                 (A) (A) (A) (A) (A) (A) (A) (A) (A) (A) (A) (A)
                 (A) (A) (A) (A) (A) (A) (A) (A) (A) (A) (A) (A)
                 (A) (A) (A) (A) (A) (A) (A) (A) (A) (A) (A) (A)
     4 initial guesses have been made.
 Convergence on wavefunction:    0.001000000000000
 Iteration     1 Dimension     4 NMult     0 NNew      4
 CISAX will form     4 AO SS matrices at one time.
 Iteration     2 Dimension     6 NMult     4 NNew      2
 Iteration     3 Dimension     8 NMult     6 NNew      2
 Iteration     4 Dimension    10 NMult     8 NNew      2
 Iteration     5 Dimension    12 NMult    10 NNew      2
 Iteration     6 Dimension    14 NMult    12 NNew      2
 ***********************************************************************
 Excited states from <AA,BB:AA,BB> singles matrix:
 ***********************************************************************
 
 Ground to excited state transition densities written to RWF  633
 Ground to excited state transition electric dipole moments (Au):
       state          X           Y           Z        Dip. S.      Osc.
         1        -8.2173     -0.6989     -0.3989     68.1721      3.1794
 Ground to excited state transition velocity dipole moments (Au):
       state          X           Y           Z        Dip. S.      Osc.
         1         0.5577      0.0469      0.0264      0.3139      2.9915
 Ground to excited state transition magnetic dipole moments (Au):
       state          X           Y           Z
         1        -0.0564     -0.0157      0.5909
 Ground to excited state transition velocity quadrupole moments (Au):
       state          XX          YY          ZZ          XY          XZ          YZ
         1         0.8293     -0.0689      0.0227      0.1427      0.0597     -0.0181
 <0|del|b> * <b|rxdel|0> + <0|del|b> * <b|delr+rdel|0>
 Rotatory Strengths (R) in cgs (10**-40 erg-esu-cm/Gauss)
       state          XX          YY          ZZ    R(velocity)    E-M Angle
         1        79.8818   -150.1862    -97.4632    -55.9225       92.86
 1/2[<0|r|b>*<b|rxdel|0> + (<0|rxdel|b>*<b|r|0>)*]
 Rotatory Strengths (R) in cgs (10**-40 erg-esu-cm/Gauss)
       state          XX          YY          ZZ     R(length)
         1      -327.5964     -7.7696    166.6969    -56.2230
  1/2[<0|del|b>*<b|r|0> + (<0|r|b>*<b|del|0>)*] (Au)
       state          X           Y           Z        Dip. S.   Osc.(frdel)
         1        -4.5828     -0.0328     -0.0105      4.6261      3.0840

 Excitation energies and oscillator strengths:
 
 Excited State   1:      Singlet-A      1.9036 eV  651.30 nm  f=3.1794  <S**2>=0.000
     148 ->149         0.70930
     148 <-149        -0.15094
 This state for optimization and/or second-order correction.
 Total Energy, E(TD-HF/TD-DFT) =  -1557.46805282    
 Copying the excited state density for this state as the 1-particle RhoCI density.
 SavETr:  write IOETrn=   770 NScale= 10 NData=  16 NLR=1 NState=    1 LETran=      28.

 **********************************************************************

            Population analysis using the SCF density.

 **********************************************************************

 Orbital symmetries:
       Occupied  (A) (A) (A) (A) (A) (A) (A) (A) (A) (A) (A) (A)
                 (A) (A) (A) (A) (A) (A) (A) (A) (A) (A) (A) (A)
                 (A) (A) (A) (A) (A) (A) (A) (A) (A) (A) (A) (A)
                 (A) (A) (A) (A) (A) (A) (A) (A) (A) (A) (A) (A)
                 (A) (A) (A) (A) (A) (A) (A) (A) (A) (A) (A) (A)
                 (A) (A) (A) (A) (A) (A) (A) (A) (A) (A) (A) (A)
                 (A) (A) (A) (A) (A) (A) (A) (A) (A) (A) (A) (A)
                 (A) (A) (A) (A) (A) (A) (A) (A) (A) (A) (A) (A)
                 (A) (A) (A) (A) (A) (A) (A) (A) (A) (A) (A) (A)
                 (A) (A) (A) (A) (A) (A) (A) (A) (A) (A) (A) (A)
                 (A) (A) (A) (A) (A) (A) (A) (A) (A) (A) (A) (A)
                 (A) (A) (A) (A) (A) (A) (A) (A) (A) (A) (A) (A)
                 (A) (A) (A) (A)
       Virtual   (A) (A) (A) (A) (A) (A) (A) (A) (A) (A) (A) (A)
                 (A) (A) (A) (A) (A) (A) (A) (A) (A) (A) (A) (A)
                 (A) (A) (A) (A) (A) (A) (A) (A) (A) (A) (A) (A)
                 (A) (A) (A) (A) (A) (A) (A) (A) (A) (A) (A) (A)
                 (A) (A) (A) (A) (A) (A) (A) (A) (A) (A) (A) (A)
                 (A) (A) (A) (A) (A) (A) (A) (A) (A) (A) (A) (A)
                 (A) (A) (A) (A) (A) (A) (A) (A) (A) (A) (A) (A)
                 (A) (A) (A) (A) (A) (A) (A) (A) (A) (A) (A) (A)
                 (A) (A) (A) (A) (A) (A) (A) (A) (A) (A) (A) (A)
                 (A) (A) (A) (A) (A) (A) (A) (A) (A) (A) (A) (A)
                 (A) (A) (A) (A) (A) (A) (A) (A) (A) (A) (A) (A)
                 (A) (A) (A) (A) (A) (A) (A) (A) (A) (A) (A) (A)
                 (A) (A) (A) (A) (A) (A) (A) (A) (A) (A) (A) (A)
                 (A) (A) (A) (A) (A) (A) (A) (A) (A) (A) (A) (A)
                 (A) (A) (A) (A) (A) (A) (A) (A) (A) (A) (A) (A)
                 (A) (A) (A) (A) (A) (A) (A) (A) (A) (A) (A) (A)
                 (A) (A) (A) (A) (A) (A) (A) (A) (A) (A) (A) (A)
                 (A) (A) (A) (A) (A) (A) (A) (A) (A) (A) (A) (A)
                 (A) (A) (A) (A) (A) (A) (A) (A) (A) (A) (A) (A)
                 (A) (A) (A) (A) (A) (A) (A) (A) (A) (A) (A) (A)
                 (A) (A) (A) (A) (A) (A) (A) (A) (A) (A) (A) (A)
                 (A) (A) (A) (A) (A) (A) (A) (A) (A) (A) (A) (A)
                 (A) (A) (A) (A) (A) (A) (A) (A) (A) (A) (A) (A)
                 (A) (A) (A) (A) (A) (A) (A) (A) (A) (A) (A) (A)
                 (A) (A) (A) (A) (A) (A) (A) (A) (A) (A) (A) (A)
                 (A) (A) (A) (A) (A) (A) (A) (A) (A) (A) (A) (A)
                 (A) (A) (A) (A) (A) (A) (A) (A) (A) (A) (A) (A)
                 (A) (A) (A) (A) (A) (A) (A) (A) (A) (A) (A) (A)
                 (A) (A) (A) (A) (A) (A) (A) (A) (A) (A) (A) (A)
                 (A) (A) (A) (A) (A) (A) (A) (A) (A) (A) (A) (A)
                 (A) (A) (A) (A) (A) (A) (A) (A) (A) (A) (A) (A)
                 (A) (A) (A) (A) (A) (A) (A) (A) (A) (A) (A) (A)
                 (A) (A) (A) (A) (A) (A) (A) (A) (A) (A) (A) (A)
                 (A) (A) (A) (A) (A) (A) (A) (A) (A) (A) (A) (A)
                 (A) (A) (A) (A) (A) (A) (A) (A) (A) (A) (A) (A)
                 (A) (A) (A) (A) (A) (A) (A) (A) (A) (A) (A) (A)
                 (A) (A) (A) (A) (A) (A) (A) (A) (A) (A) (A) (A)
                 (A) (A) (A) (A) (A) (A) (A) (A) (A) (A) (A) (A)
                 (A) (A) (A) (A) (A) (A) (A) (A) (A) (A) (A) (A)
                 (A) (A) (A) (A) (A) (A) (A) (A) (A) (A) (A) (A)
                 (A) (A) (A) (A) (A) (A) (A) (A) (A) (A) (A) (A)
                 (A) (A) (A) (A) (A) (A) (A) (A) (A) (A) (A) (A)
                 (A) (A) (A) (A) (A) (A) (A) (A) (A) (A) (A) (A)
                 (A) (A) (A) (A) (A) (A) (A) (A) (A) (A) (A) (A)
                 (A) (A) (A) (A) (A) (A) (A) (A) (A) (A) (A) (A)
                 (A) (A) (A) (A) (A) (A) (A) (A) (A) (A) (A) (A)
                 (A) (A) (A) (A) (A) (A) (A) (A) (A) (A) (A) (A)
                 (A) (A) (A) (A) (A) (A) (A) (A) (A) (A) (A) (A)
                 (A) (A) (A) (A) (A) (A) (A) (A) (A) (A) (A) (A)
                 (A) (A) (A) (A) (A) (A) (A) (A) (A) (A) (A) (A)
                 (A) (A) (A) (A) (A) (A) (A) (A) (A) (A) (A) (A)
                 (A) (A) (A) (A) (A) (A) (A) (A) (A) (A) (A) (A)
                 (A) (A) (A) (A) (A) (A) (A) (A) (A) (A) (A) (A)
                 (A) (A) (A) (A) (A) (A) (A) (A) (A) (A) (A) (A)
                 (A) (A) (A) (A) (A) (A) (A) (A) (A) (A) (A) (A)
                 (A) (A) (A) (A) (A) (A) (A) (A) (A) (A) (A) (A)
                 (A) (A) (A) (A) (A) (A) (A) (A) (A) (A) (A) (A)
                 (A) (A) (A) (A) (A) (A) (A) (A) (A) (A) (A) (A)
                 (A) (A) (A) (A) (A) (A) (A) (A) (A) (A) (A) (A)
                 (A) (A) (A) (A) (A) (A) (A) (A) (A) (A) (A) (A)
                 (A) (A) (A) (A) (A) (A) (A) (A) (A) (A) (A) (A)
 The electronic state is 1-A.
 Alpha  occ. eigenvalues --  -10.20875 -10.20626 -10.20352 -10.19905 -10.19865
 Alpha  occ. eigenvalues --  -10.19528 -10.19526 -10.19354 -10.19338 -10.19302
 Alpha  occ. eigenvalues --  -10.19230 -10.19179 -10.19173 -10.19166 -10.19127
 Alpha  occ. eigenvalues --  -10.19120 -10.19104 -10.18961 -10.18869 -10.18747
 Alpha  occ. eigenvalues --  -10.18732 -10.18702 -10.18591 -10.18515 -10.18348
 Alpha  occ. eigenvalues --  -10.18312 -10.18307 -10.18268 -10.18174 -10.18153
 Alpha  occ. eigenvalues --  -10.18131 -10.17961 -10.17738 -10.17694 -10.17557
 Alpha  occ. eigenvalues --  -10.17440 -10.17324 -10.16247 -10.15663 -10.15246
 Alpha  occ. eigenvalues --   -0.85087  -0.85074  -0.84245  -0.83657  -0.83208
 Alpha  occ. eigenvalues --   -0.82057  -0.79247  -0.78920  -0.78432  -0.78267
 Alpha  occ. eigenvalues --   -0.77563  -0.74923  -0.74378  -0.72403  -0.71742
 Alpha  occ. eigenvalues --   -0.70777  -0.68780  -0.68507  -0.68043  -0.67769
 Alpha  occ. eigenvalues --   -0.67358  -0.67256  -0.67057  -0.66463  -0.66237
 Alpha  occ. eigenvalues --   -0.63853  -0.62042  -0.60671  -0.59300  -0.57437
 Alpha  occ. eigenvalues --   -0.56709  -0.54932  -0.54815  -0.53816  -0.53590
 Alpha  occ. eigenvalues --   -0.52755  -0.52291  -0.50835  -0.49548  -0.49518
 Alpha  occ. eigenvalues --   -0.48589  -0.48139  -0.47792  -0.47015  -0.46409
 Alpha  occ. eigenvalues --   -0.45892  -0.45498  -0.44812  -0.44559  -0.44248
 Alpha  occ. eigenvalues --   -0.43886  -0.43492  -0.43092  -0.42720  -0.41982
 Alpha  occ. eigenvalues --   -0.41956  -0.41623  -0.41530  -0.41243  -0.41145
 Alpha  occ. eigenvalues --   -0.40841  -0.40117  -0.40055  -0.39881  -0.39759
 Alpha  occ. eigenvalues --   -0.39319  -0.39223  -0.39079  -0.38977  -0.38501
 Alpha  occ. eigenvalues --   -0.37606  -0.37503  -0.36731  -0.36575  -0.36358
 Alpha  occ. eigenvalues --   -0.36005  -0.35595  -0.35528  -0.35437  -0.35296
 Alpha  occ. eigenvalues --   -0.34663  -0.34524  -0.34408  -0.34345  -0.33779
 Alpha  occ. eigenvalues --   -0.33720  -0.33409  -0.33109  -0.32774  -0.32630
 Alpha  occ. eigenvalues --   -0.32548  -0.32081  -0.31982  -0.31024  -0.30645
 Alpha  occ. eigenvalues --   -0.30347  -0.29949  -0.29413  -0.28823  -0.27976
 Alpha  occ. eigenvalues --   -0.27723  -0.26904  -0.26338  -0.24548  -0.22775
 Alpha  occ. eigenvalues --   -0.20799  -0.18826  -0.15908
 Alpha virt. eigenvalues --   -0.09371  -0.05007  -0.02205   0.00049   0.02753
 Alpha virt. eigenvalues --    0.04232   0.05979   0.06634   0.06993   0.07299
 Alpha virt. eigenvalues --    0.07327   0.07771   0.08394   0.08995   0.09668
 Alpha virt. eigenvalues --    0.09896   0.09947   0.09993   0.10095   0.10243
 Alpha virt. eigenvalues --    0.10740   0.11090   0.11628   0.12070   0.12186
 Alpha virt. eigenvalues --    0.12307   0.12561   0.12794   0.12947   0.13417
 Alpha virt. eigenvalues --    0.13527   0.13866   0.13938   0.14206   0.14368
 Alpha virt. eigenvalues --    0.14577   0.15157   0.15465   0.15660   0.16054
 Alpha virt. eigenvalues --    0.16199   0.16703   0.16965   0.17360   0.17530
 Alpha virt. eigenvalues --    0.17653   0.17955   0.18235   0.18496   0.18778
 Alpha virt. eigenvalues --    0.18870   0.19376   0.19586   0.19874   0.20289
 Alpha virt. eigenvalues --    0.20365   0.20641   0.21211   0.21494   0.21689
 Alpha virt. eigenvalues --    0.21789   0.21963   0.22064   0.22491   0.22989
 Alpha virt. eigenvalues --    0.23069   0.23270   0.23973   0.24118   0.24368
 Alpha virt. eigenvalues --    0.24824   0.24960   0.25108   0.25261   0.25860
 Alpha virt. eigenvalues --    0.26597   0.26798   0.26909   0.27231   0.27347
 Alpha virt. eigenvalues --    0.28117   0.28306   0.29160   0.29420   0.29893
 Alpha virt. eigenvalues --    0.30116   0.31535   0.31847   0.31965   0.33616
 Alpha virt. eigenvalues --    0.34083   0.35161   0.36109   0.36660   0.38547
 Alpha virt. eigenvalues --    0.39164   0.39900   0.40093   0.41339   0.41565
 Alpha virt. eigenvalues --    0.42307   0.43476   0.43786   0.46055   0.46185
 Alpha virt. eigenvalues --    0.46385   0.49101   0.49707   0.49949   0.50139
 Alpha virt. eigenvalues --    0.50488   0.50787   0.50923   0.51209   0.51561
 Alpha virt. eigenvalues --    0.52075   0.52123   0.52280   0.52500   0.52899
 Alpha virt. eigenvalues --    0.53699   0.53873   0.54099   0.54360   0.55053
 Alpha virt. eigenvalues --    0.55438   0.55571   0.56037   0.56606   0.56777
 Alpha virt. eigenvalues --    0.56934   0.57182   0.57280   0.57613   0.57892
 Alpha virt. eigenvalues --    0.58124   0.58527   0.58891   0.58911   0.59383
 Alpha virt. eigenvalues --    0.60160   0.60569   0.60837   0.61148   0.61668
 Alpha virt. eigenvalues --    0.61981   0.62181   0.62228   0.62644   0.63342
 Alpha virt. eigenvalues --    0.63503   0.63604   0.63875   0.64108   0.64434
 Alpha virt. eigenvalues --    0.64854   0.65513   0.66188   0.66286   0.66549
 Alpha virt. eigenvalues --    0.66947   0.67308   0.67428   0.67659   0.68726
 Alpha virt. eigenvalues --    0.69267   0.69333   0.69764   0.70162   0.70441
 Alpha virt. eigenvalues --    0.70748   0.71695   0.71838   0.72458   0.72944
 Alpha virt. eigenvalues --    0.73466   0.73871   0.74140   0.74321   0.74632
 Alpha virt. eigenvalues --    0.74877   0.75363   0.75466   0.75820   0.76124
 Alpha virt. eigenvalues --    0.76454   0.76513   0.77258   0.77453   0.77837
 Alpha virt. eigenvalues --    0.77984   0.78863   0.79005   0.79136   0.79347
 Alpha virt. eigenvalues --    0.79660   0.79882   0.80082   0.80282   0.80572
 Alpha virt. eigenvalues --    0.81232   0.81618   0.81640   0.81923   0.82255
 Alpha virt. eigenvalues --    0.82606   0.83049   0.83163   0.83568   0.83797
 Alpha virt. eigenvalues --    0.84137   0.84213   0.84435   0.84511   0.84859
 Alpha virt. eigenvalues --    0.84987   0.85287   0.86200   0.86254   0.86311
 Alpha virt. eigenvalues --    0.86938   0.86989   0.87668   0.87794   0.88058
 Alpha virt. eigenvalues --    0.88336   0.88578   0.89244   0.89386   0.89501
 Alpha virt. eigenvalues --    0.89700   0.90026   0.90329   0.90857   0.91318
 Alpha virt. eigenvalues --    0.91710   0.91812   0.92409   0.93051   0.93168
 Alpha virt. eigenvalues --    0.93258   0.93828   0.93978   0.94301   0.94680
 Alpha virt. eigenvalues --    0.95561   0.95677   0.96000   0.96360   0.96529
 Alpha virt. eigenvalues --    0.96638   0.97201   0.97349   0.97777   0.98035
 Alpha virt. eigenvalues --    0.98295   0.98472   0.99110   0.99673   0.99861
 Alpha virt. eigenvalues --    1.01183   1.01803   1.02052   1.02316   1.02722
 Alpha virt. eigenvalues --    1.03058   1.03896   1.04974   1.05409   1.05929
 Alpha virt. eigenvalues --    1.06511   1.07014   1.07981   1.08292   1.09029
 Alpha virt. eigenvalues --    1.09752   1.09807   1.10619   1.10940   1.11223
 Alpha virt. eigenvalues --    1.11864   1.12630   1.13292   1.14387   1.14805
 Alpha virt. eigenvalues --    1.15570   1.15822   1.16731   1.17567   1.18608
 Alpha virt. eigenvalues --    1.19409   1.20547   1.21223   1.21705   1.22182
 Alpha virt. eigenvalues --    1.24442   1.25026   1.25766   1.26619   1.26750
 Alpha virt. eigenvalues --    1.27130   1.27938   1.29763   1.30721   1.31439
 Alpha virt. eigenvalues --    1.32313   1.33041   1.33405   1.33814   1.34498
 Alpha virt. eigenvalues --    1.35183   1.35643   1.36143   1.36690   1.37393
 Alpha virt. eigenvalues --    1.38117   1.39062   1.40604   1.41169   1.42141
 Alpha virt. eigenvalues --    1.43537   1.43617   1.43913   1.44763   1.46053
 Alpha virt. eigenvalues --    1.46332   1.47737   1.48728   1.48805   1.49947
 Alpha virt. eigenvalues --    1.50798   1.51103   1.51540   1.51855   1.53525
 Alpha virt. eigenvalues --    1.54002   1.54355   1.55299   1.55703   1.56295
 Alpha virt. eigenvalues --    1.56818   1.58887   1.59549   1.61046   1.61300
 Alpha virt. eigenvalues --    1.62667   1.62795   1.63407   1.64053   1.64538
 Alpha virt. eigenvalues --    1.65746   1.67573   1.68783   1.68964   1.69005
 Alpha virt. eigenvalues --    1.70600   1.71244   1.71575   1.72321   1.72667
 Alpha virt. eigenvalues --    1.73119   1.74486   1.74939   1.75125   1.76088
 Alpha virt. eigenvalues --    1.76269   1.76906   1.77231   1.77296   1.77820
 Alpha virt. eigenvalues --    1.78144   1.78814   1.78885   1.79143   1.79572
 Alpha virt. eigenvalues --    1.79825   1.80323   1.81280   1.82298   1.82430
 Alpha virt. eigenvalues --    1.82945   1.83039   1.83184   1.83958   1.84126
 Alpha virt. eigenvalues --    1.84534   1.85113   1.85823   1.86220   1.86445
 Alpha virt. eigenvalues --    1.86704   1.87129   1.87311   1.87511   1.87638
 Alpha virt. eigenvalues --    1.88227   1.88914   1.89235   1.89795   1.90477
 Alpha virt. eigenvalues --    1.90707   1.90897   1.92440   1.92936   1.93190
 Alpha virt. eigenvalues --    1.93764   1.94103   1.94441   1.94753   1.95391
 Alpha virt. eigenvalues --    1.95717   1.95829   1.96741   1.96959   1.97028
 Alpha virt. eigenvalues --    1.98389   1.98908   1.99025   1.99290   2.00104
 Alpha virt. eigenvalues --    2.00417   2.01047   2.01326   2.01939   2.02355
 Alpha virt. eigenvalues --    2.02487   2.03144   2.03365   2.03930   2.04353
 Alpha virt. eigenvalues --    2.04792   2.05018   2.05280   2.05907   2.06385
 Alpha virt. eigenvalues --    2.07040   2.07249   2.07756   2.07945   2.08288
 Alpha virt. eigenvalues --    2.08688   2.09209   2.09413   2.09509   2.10631
 Alpha virt. eigenvalues --    2.10798   2.11311   2.11628   2.12220   2.13087
 Alpha virt. eigenvalues --    2.13229   2.13721   2.13795   2.14373   2.14621
 Alpha virt. eigenvalues --    2.15268   2.15492   2.16403   2.16501   2.17176
 Alpha virt. eigenvalues --    2.18175   2.18245   2.18938   2.19212   2.19622
 Alpha virt. eigenvalues --    2.19851   2.20630   2.21004   2.21534   2.21586
 Alpha virt. eigenvalues --    2.21760   2.22250   2.22854   2.23817   2.24040
 Alpha virt. eigenvalues --    2.24496   2.24603   2.25683   2.26610   2.26839
 Alpha virt. eigenvalues --    2.27518   2.27916   2.28225   2.28936   2.29024
 Alpha virt. eigenvalues --    2.29316   2.29710   2.29885   2.30868   2.31504
 Alpha virt. eigenvalues --    2.32054   2.32808   2.33257   2.33459   2.33756
 Alpha virt. eigenvalues --    2.34732   2.35428   2.35868   2.36057   2.36251
 Alpha virt. eigenvalues --    2.36354   2.36998   2.37680   2.37877   2.38131
 Alpha virt. eigenvalues --    2.38710   2.39636   2.39997   2.40538   2.41003
 Alpha virt. eigenvalues --    2.41512   2.42082   2.42660   2.43321   2.43855
 Alpha virt. eigenvalues --    2.44117   2.44390   2.44862   2.45296   2.45766
 Alpha virt. eigenvalues --    2.45973   2.46472   2.47575   2.47651   2.48648
 Alpha virt. eigenvalues --    2.49038   2.49128   2.49425   2.50416   2.50845
 Alpha virt. eigenvalues --    2.51597   2.52270   2.53054   2.53176   2.54198
 Alpha virt. eigenvalues --    2.54619   2.55022   2.55601   2.55647   2.55957
 Alpha virt. eigenvalues --    2.56069   2.56777   2.57252   2.57961   2.58366
 Alpha virt. eigenvalues --    2.59002   2.59305   2.59402   2.60224   2.60592
 Alpha virt. eigenvalues --    2.61818   2.62083   2.62592   2.62706   2.63152
 Alpha virt. eigenvalues --    2.63375   2.63918   2.64605   2.64965   2.65395
 Alpha virt. eigenvalues --    2.65890   2.66113   2.66742   2.67048   2.67526
 Alpha virt. eigenvalues --    2.68251   2.68749   2.70250   2.70503   2.71534
 Alpha virt. eigenvalues --    2.71790   2.72258   2.72365   2.72660   2.73184
 Alpha virt. eigenvalues --    2.73609   2.73810   2.74319   2.74764   2.75709
 Alpha virt. eigenvalues --    2.75782   2.76838   2.76906   2.77174   2.77745
 Alpha virt. eigenvalues --    2.77821   2.78031   2.79334   2.79822   2.79915
 Alpha virt. eigenvalues --    2.80674   2.81160   2.81907   2.82206   2.82763
 Alpha virt. eigenvalues --    2.83758   2.84152   2.84609   2.85122   2.86372
 Alpha virt. eigenvalues --    2.86497   2.87042   2.87341   2.88051   2.88501
 Alpha virt. eigenvalues --    2.88733   2.89849   2.90004   2.90305   2.91781
 Alpha virt. eigenvalues --    2.92101   2.92968   2.93151   2.94089   2.94647
 Alpha virt. eigenvalues --    2.94833   2.95386   2.96444   2.96955   2.97431
 Alpha virt. eigenvalues --    2.99088   3.00097   3.00581   3.01984   3.02706
 Alpha virt. eigenvalues --    3.03409   3.05175   3.07371   3.07570   3.08003
 Alpha virt. eigenvalues --    3.08386   3.08701   3.09197   3.11688   3.11755
 Alpha virt. eigenvalues --    3.12675   3.12691   3.14384   3.14438   3.14519
 Alpha virt. eigenvalues --    3.16057   3.16948   3.18347   3.19609   3.22501
 Alpha virt. eigenvalues --    3.24538   3.24591   3.26179   3.26734   3.28623
 Alpha virt. eigenvalues --    3.30173   3.30757   3.31984   3.32404   3.33844
 Alpha virt. eigenvalues --    3.35068   3.35299   3.36038   3.36235   3.39459
 Alpha virt. eigenvalues --    3.40134   3.40442   3.41466   3.42364   3.42396
 Alpha virt. eigenvalues --    3.42774   3.44265   3.45265   3.45960   3.47185
 Alpha virt. eigenvalues --    3.48246   3.48294   3.48355   3.49603   3.51147
 Alpha virt. eigenvalues --    3.51466   3.53734   3.54507   3.55278   3.56217
 Alpha virt. eigenvalues --    3.56766   3.58569   3.60561   3.62737   3.67702
 Alpha virt. eigenvalues --    3.69709   3.72016   3.72392   3.73676   3.77415
 Alpha virt. eigenvalues --    3.77440   3.82069   4.09876   4.12324   4.14002
 Alpha virt. eigenvalues --    4.15195   4.16720   4.18310   4.19123   4.19944
 Alpha virt. eigenvalues --    4.21670   4.26065   4.27955   4.30755   4.32588
 Alpha virt. eigenvalues --    4.34968   4.35758   4.37517   4.40039   4.40680
 Alpha virt. eigenvalues --    4.42618   4.46734   4.46998   4.48234   4.48644
 Alpha virt. eigenvalues --    4.50423   4.51142   4.53489   4.57012   4.58941
 Alpha virt. eigenvalues --    4.60345   4.60877   4.64772   4.65403   4.68450
 Alpha virt. eigenvalues --    4.72744   4.74116   4.76211   4.78062   4.79881
 Alpha virt. eigenvalues --    4.80598   4.82421
          Condensed to atoms (all electrons):
 Mulliken charges:
               1
     1  C   -0.006904
     2  C   -0.002928
     3  C   -0.172821
     4  C   -0.172757
     5  C   -0.176579
     6  C   -0.195427
     7  C    0.091824
     8  C    0.053756
     9  C   -0.222686
    10  C   -0.220062
    11  C    0.049192
    12  C    0.075048
    13  C   -0.280017
    14  C   -0.311729
    15  C   -0.272025
    16  C   -0.282373
    17  C   -0.135594
    18  C   -0.112759
    19  C   -0.356531
    20  C   -0.371596
    21  C   -0.119102
    22  C   -0.108444
    23  C    0.197429
    24  C    0.148246
    25  C   -0.387547
    26  C   -0.376656
    27  C   -0.137929
    28  C   -0.107412
    29  C   -0.106169
    30  C   -0.072962
    31  C   -0.083287
    32  C   -0.128505
    33  C    0.081371
    34  C    0.146492
    35  C   -0.346626
    36  C   -0.376806
    37  C   -0.138793
    38  C   -0.102100
    39  C   -0.063456
    40  C   -0.124873
    41  H    0.091491
    42  H    0.066631
    43  H    0.099624
    44  H    0.064903
    45  H    0.096428
    46  H    0.108387
    47  H    0.081345
    48  H    0.100360
    49  H    0.113447
    50  H    0.087103
    51  H    0.111159
    52  H    0.108070
    53  H    0.098984
    54  H    0.070285
    55  H    0.111132
    56  H    0.083412
    57  H    0.076563
    58  H    0.111096
    59  H    0.039664
    60  H    0.099927
    61  H    0.109275
    62  H    0.088891
    63  H    0.079488
    64  H    0.102600
    65  H    0.071794
    66  H    0.075198
    67  H    0.119795
    68  H    0.095007
    69  H    0.111745
    70  H    0.105344
    71  H    0.103201
    72  H    0.109630
    73  H    0.076953
    74  H    0.077880
    75  H    0.104984
    76  H    0.097165
    77  H    0.122575
    78  H    0.108568
    79  H    0.142308
    80  H    0.094418
    81  H    0.072119
    82  H    0.072749
    83  H    0.083737
    84  H    0.059908
    85  H    0.081472
    86  H    0.053004
    87  H    0.092737
    88  H    0.114677
    89  H    0.134251
    90  H    0.119508
    91  H    0.107648
    92  H    0.112036
    93  H    0.064017
    94  H    0.084948
    95  H    0.085210
    96  H    0.075245
 Sum of Mulliken charges =  -0.00000
 Mulliken charges with hydrogens summed into heavy atoms:
               1
     1  C   -0.006904
     2  C   -0.002928
     3  C   -0.014699
     4  C   -0.008229
     5  C    0.028236
     6  C   -0.013722
     7  C    0.091824
     8  C    0.053756
     9  C   -0.022136
    10  C   -0.000832
    11  C    0.049192
    12  C    0.075048
    13  C    0.000384
    14  C   -0.040659
    15  C   -0.023159
    16  C   -0.011394
    17  C   -0.063800
    18  C   -0.037561
    19  C   -0.029984
    20  C   -0.053422
    21  C   -0.042149
    22  C   -0.030564
    23  C    0.197429
    24  C    0.148246
    25  C   -0.062823
    26  C   -0.031362
    27  C   -0.065810
    28  C   -0.034664
    29  C   -0.022432
    30  C   -0.013055
    31  C   -0.001815
    32  C   -0.075501
    33  C    0.081371
    34  C    0.146492
    35  C   -0.004961
    36  C   -0.037614
    37  C   -0.074776
    38  C   -0.017152
    39  C    0.021755
    40  C   -0.049628
 Electronic spatial extent (au):  <R**2>=          95164.1263
 Charge=             -0.0000 electrons
 Dipole moment (field-independent basis, Debye):
    X=              1.1522    Y=             -0.3304    Z=              0.1979  Tot=              1.2149
 Quadrupole moment (field-independent basis, Debye-Ang):
   XX=           -228.2699   YY=           -231.5507   ZZ=           -255.9818
   XY=             -6.0236   XZ=             -2.5950   YZ=              2.8081
 Traceless Quadrupole moment (field-independent basis, Debye-Ang):
   XX=             10.3309   YY=              7.0501   ZZ=            -17.3810
   XY=             -6.0236   XZ=             -2.5950   YZ=              2.8081
 Octapole moment (field-independent basis, Debye-Ang**2):
  XXX=            319.8892  YYY=             -6.2767  ZZZ=             -3.8007  XYY=             -8.1247
  XXY=            -24.4265  XXZ=             53.9741  XZZ=             -9.1567  YZZ=              3.6532
  YYZ=             -9.2332  XYZ=              1.8362
 Hexadecapole moment (field-independent basis, Debye-Ang**3):
 XXXX=        -123690.4855 YYYY=          -4394.9861 ZZZZ=          -1549.2664 XXXY=          -1413.0462
 XXXZ=           -679.6924 YYYX=             17.1909 YYYZ=             39.0661 ZZZX=            -51.6190
 ZZZY=              9.0444 XXYY=         -21144.7947 XXZZ=         -21713.2882 YYZZ=           -992.8894
 XXYZ=            -62.3750 YYXZ=             75.1314 ZZXY=            -36.4658
 N-N= 3.685841095344D+03 E-N=-1.097240333875D+04  KE= 1.542299399143D+03
 1\1\GINC-RYZEN-SSD1\SP\RB3LYP TD-FC\6-31G(d,p)\C40H56\PADAWAN\30-Jul-2
 019\0\\# td=(NStates=1) B3LYP/6-31G(d,p)\\TD\\0,1\C,0,12.1048648291,0.
 5184924497,-0.7683829572\C,0,-12.1210444185,-0.0813931809,0.7736765466
 \C,0,13.3928686996,-0.3813777978,-0.5670327023\C,0,-12.9224287428,1.14
 37687684,1.3212728417\C,0,13.1448968039,-1.805516224,-0.602391998\C,0,
 -13.3562902251,1.9577342855,0.0971800851\C,0,11.0015119451,0.118686133
 1,0.2362411619\C,0,-10.9217998478,0.4276726496,-0.1572933641\C,0,12.23
 48979272,-2.1574980438,0.5970936857\C,0,-12.141284011,2.679388247,-0.5
 752358595\C,0,11.1370334113,-1.1232543799,0.894386007\C,0,-11.10515530
 97,1.6841740392,-0.7342022939\C,0,11.6462552132,0.3870998351,-2.225741
 0527\C,0,12.5528286963,1.9746415193,-0.5335748765\C,0,-12.941281719,-1
 .1104581645,0.1824320731\C,0,-11.507159584,-0.6954027139,2.0472028685\
 C,0,9.8517532379,0.9462507387,0.3823502355\C,0,-9.8939892058,-0.548447
 3868,-0.3551896068\C,0,10.2202462009,-1.5885886706,1.9431369486\C,0,-9
 .9879517654,2.1899707362,-1.6410555705\C,0,8.5758638261,0.5147814343,0
 .3428224884\C,0,-8.533006259,-0.3395438197,-0.3374100639\C,0,7.4386324
 314,1.2724260429,0.4923518478\C,0,-7.518840778,-1.3516736425,-0.505130
 91\C,0,7.5741204617,2.8087435116,0.6615085879\C,0,-7.9262998182,-2.799
 7999911,-0.6288501626\C,0,6.2409980013,0.8041748065,0.3473868977\C,0,-
 6.3148500949,-0.929113734,-0.4139635081\C,0,4.9382644771,1.4723695689,
 0.3461242714\C,0,-5.1182114329,-1.7050064784,-0.4890102826\C,0,3.70244
 89565,0.6843860038,0.3036823175\C,0,-3.8126466499,-1.2148821209,-0.350
 7675145\C,0,2.4615494563,1.3027009778,0.4081152994\C,0,-2.568195819,-1
 .8979648552,-0.2487481549\C,0,2.3450988815,2.8220415707,0.5462389972\C
 ,0,-2.6669072361,-3.2613996665,-0.772888639\C,0,1.2448160301,0.4650478
 464,0.2626911861\C,0,-1.4769358667,-1.1488834603,-0.1388425894\C,0,1.0
 777721494,-0.8539803452,-0.0021277325\C,0,-0.1114106015,-1.5980860484,
 -0.1726110171\H,0,14.0580259084,0.0424866782,0.2147695199\H,0,14.03753
 07669,-0.0667950552,-1.4988534237\H,0,-12.2573320982,1.7256249527,1.92
 91164764\H,0,-13.8083416918,0.8214516375,2.0700534434\H,0,14.104251047
 1,-2.225173335,-0.384311877\H,0,12.8443703187,-2.1818520852,-1.4277288
 962\H,0,-13.9929126795,2.6799713571,0.6148525229\H,0,-14.0379185757,1.
 3657862528,-0.5647104931\H,0,12.9145334171,-2.317284235,1.3984217242\H
 ,0,11.5565231068,-3.1040841005,0.5176786235\H,0,-11.8451543075,3.48424
 61453,0.1523017472\H,0,-12.3038065946,3.2702605339,-1.441118013\H,0,11
 .4715905296,-0.7035234296,-2.4336714998\H,0,12.2960864893,0.8453992012
 ,-3.1631828923\H,0,10.8244800193,1.1060737191,-2.2484455641\H,0,12.879
 528907,2.2152484267,0.5829956401\H,0,11.726681075,2.81439135,-0.589363
 0933\H,0,13.2888107374,2.2572859985,-1.2075230234\H,0,-13.8277220029,-
 0.5084448535,-0.5511512158\H,0,-13.5512973023,-1.7117769819,0.90977819
 85\H,0,-12.3444120444,-1.6415025552,-0.5732332058\H,0,-10.7072232132,0
 .0270670673,2.4035600151\H,0,-10.9465111765,-1.6097519759,1.7104650627
 \H,0,-12.1987839424,-0.8252869966,2.7223207602\H,0,10.2778911957,2.122
 3470948,0.453981306\H,0,-10.1723616809,-1.4836934793,-0.3480011781\H,0
 ,9.8179558731,-0.6591035051,2.5122349811\H,0,11.0491857327,-2.00666686
 46,2.6275041804\H,0,9.5422462918,-2.4621960696,1.6197015918\H,0,-9.130
 9401293,1.5525375664,-1.8420967066\H,0,-9.266771482,2.9332068427,-1.33
 80638526\H,0,-10.4524655116,2.4898639918,-2.466316605\H,0,8.4173573265
 ,-0.6824190221,0.1558586355\H,0,-8.2006034555,0.7595701511,-0.13239689
 22\H,0,8.0045036825,3.2775827942,1.5876881513\H,0,6.5916110418,3.38142
 58468,0.6265052302\H,0,8.2302272604,3.2626849305,-0.0568389068\H,0,-8.
 5574366959,-3.1813651956,-1.5833950331\H,0,-8.3680177901,-2.9738405714
 ,0.3175578951\H,0,-7.0004045931,-3.5658992412,-0.6788867739\H,0,6.2323
 841029,-0.1734525721,-0.0503570524\H,0,-6.0337053551,0.0677687154,-0.1
 12561533\H,0,4.8138547428,2.3915776019,0.6705699638\H,0,-5.2182219225,
 -2.7003535518,-0.6188540265\H,0,3.5214624129,-0.3738619561,0.278937532
 2\H,0,-3.7814057718,-0.0721708872,-0.0879106578\H,0,3.0040411035,3.076
 0379999,1.5577644317\H,0,1.4611033111,3.2400547373,0.5781675443\H,0,2.
 9120682656,3.1354640199,-0.3312870983\H,0,-3.1038722568,-3.4196203179,
 -1.8287178826\H,0,-3.2635779636,-3.9457365666,-0.0680421528\H,0,-1.770
 4480161,-3.756996034,-0.9492571521\H,0,0.1842808289,0.9883347487,0.643
 7850237\H,0,-1.5048315718,-0.0286448773,-0.0368514112\H,0,1.8848870332
 ,-1.6164606958,0.0932797638\H,0,0.1333238432,-2.6823132736,-0.45830669
 16\\Version=ES64L-G16RevA.03\State=1-A\HF=-1557.5380106\RMSD=5.295e-09
 \PG=C01 [X(C40H56)]\\@


 IN SO FAR AS QUANTUM MECHANICS IS CORRECT, CHEMICAL 
 QUESTIONS ARE PROBLEMS IN APPLIED MATHEMATICS.

                    -- EYRING, WALTER, & KIMBALL, 1944
 Job cpu time:       0 days 11 hours  2 minutes 20.8 seconds.
 Elapsed time:       0 days  2 hours 46 minutes 31.3 seconds.
 File lengths (MBytes):  RWF=   2884 Int=      0 D2E=      0 Chk=     79 Scr=      1
 Normal termination of Gaussian 16 at Tue Jul 30 19:17:03 2019.
