 Entering Gaussian System, Link 0=g16
 Input=Geometria-80-.com
 Output=Geometria-80-.log
 Initial command:
 /usr/local/g16/l1.exe "/home/padawan/israel-mol/b-caroten/spectra/abs/Gau-74061.inp" -scrdir="/home/padawan/israel-mol/b-caroten/spectra/abs/"
 Entering Link 1 = /usr/local/g16/l1.exe PID=     74063.
  
 Copyright (c) 1988,1990,1992,1993,1995,1998,2003,2009,2016,
            Gaussian, Inc.  All Rights Reserved.
  
 This is part of the Gaussian(R) 16 program.  It is based on
 the Gaussian(R) 09 system (copyright 2009, Gaussian, Inc.),
 the Gaussian(R) 03 system (copyright 2003, Gaussian, Inc.),
 the Gaussian(R) 98 system (copyright 1998, Gaussian, Inc.),
 the Gaussian(R) 94 system (copyright 1995, Gaussian, Inc.),
 the Gaussian 92(TM) system (copyright 1992, Gaussian, Inc.),
 the Gaussian 90(TM) system (copyright 1990, Gaussian, Inc.),
 the Gaussian 88(TM) system (copyright 1988, Gaussian, Inc.),
 the Gaussian 86(TM) system (copyright 1986, Carnegie Mellon
 University), and the Gaussian 82(TM) system (copyright 1983,
 Carnegie Mellon University). Gaussian is a federally registered
 trademark of Gaussian, Inc.
  
 This software contains proprietary and confidential information,
 including trade secrets, belonging to Gaussian, Inc.
  
 This software is provided under written license and may be
 used, copied, transmitted, or stored only in accord with that
 written license.
  
 The following legend is applicable only to US Government
 contracts under FAR:
  
                    RESTRICTED RIGHTS LEGEND
  
 Use, reproduction and disclosure by the US Government is
 subject to restrictions as set forth in subparagraphs (a)
 and (c) of the Commercial Computer Software - Restricted
 Rights clause in FAR 52.227-19.
  
 Gaussian, Inc.
 340 Quinnipiac St., Bldg. 40, Wallingford CT 06492
  
  
 ---------------------------------------------------------------
 Warning -- This program may not be used in any manner that
 competes with the business of Gaussian, Inc. or will provide
 assistance to any competitor of Gaussian, Inc.  The licensee
 of this program is prohibited from giving any competitor of
 Gaussian, Inc. access to this program.  By using this program,
 the user acknowledges that Gaussian, Inc. is engaged in the
 business of creating and licensing software in the field of
 computational chemistry and represents and warrants to the
 licensee that it is not a competitor of Gaussian, Inc. and that
 it will not use this program in any manner prohibited above.
 ---------------------------------------------------------------
  

 Cite this work as:
 Gaussian 16, Revision A.03,
 M. J. Frisch, G. W. Trucks, H. B. Schlegel, G. E. Scuseria, 
 M. A. Robb, J. R. Cheeseman, G. Scalmani, V. Barone, 
 G. A. Petersson, H. Nakatsuji, X. Li, M. Caricato, A. V. Marenich, 
 J. Bloino, B. G. Janesko, R. Gomperts, B. Mennucci, H. P. Hratchian, 
 J. V. Ortiz, A. F. Izmaylov, J. L. Sonnenberg, D. Williams-Young, 
 F. Ding, F. Lipparini, F. Egidi, J. Goings, B. Peng, A. Petrone, 
 T. Henderson, D. Ranasinghe, V. G. Zakrzewski, J. Gao, N. Rega, 
 G. Zheng, W. Liang, M. Hada, M. Ehara, K. Toyota, R. Fukuda, 
 J. Hasegawa, M. Ishida, T. Nakajima, Y. Honda, O. Kitao, H. Nakai, 
 T. Vreven, K. Throssell, J. A. Montgomery, Jr., J. E. Peralta, 
 F. Ogliaro, M. J. Bearpark, J. J. Heyd, E. N. Brothers, K. N. Kudin, 
 V. N. Staroverov, T. A. Keith, R. Kobayashi, J. Normand, 
 K. Raghavachari, A. P. Rendell, J. C. Burant, S. S. Iyengar, 
 J. Tomasi, M. Cossi, J. M. Millam, M. Klene, C. Adamo, R. Cammi, 
 J. W. Ochterski, R. L. Martin, K. Morokuma, O. Farkas, 
 J. B. Foresman, and D. J. Fox, Gaussian, Inc., Wallingford CT, 2016.
 
 ******************************************
 Gaussian 16:  ES64L-G16RevA.03 25-Dec-2016
                26-Jul-2019 
 ******************************************
 %nproc=4
 Will use up to    4 processors via shared memory.
 %Mem=2GB
 ---------------------------------
 # td=(NStates=1) B3LYP/6-31G(d,p)
 ---------------------------------
 1/38=1,172=1/1;
 2/12=2,17=6,18=5,40=1/2;
 3/5=1,6=6,7=101,11=9,25=1,30=1,74=-5/1,2,3,8;
 4//1;
 5/5=2,38=5/2;
 8/6=1,10=2,108=1/1;
 9/41=1,42=1,70=2/14;
 6/7=2,8=2,9=2,10=2/1;
 99/5=1,9=1/99;
 --
 TD
 --
 Symbolic Z-matrix:
 Charge =  0 Multiplicity = 1
 6                     12.16157   0.64942  -0.64132 
 6                    -12.20778   0.023     0.88592 
 6                     13.5299  -0.15247  -0.54594 
 6                    -12.97912   1.23612   1.27329 
 6                     13.21563  -1.76793  -0.53114 
 6                    -13.39049   2.10862   0.09377 
 6                     11.1289   0.02261   0.35344 
 6                    -11.0161   0.38291  -0.09551 
 6                     12.44912  -2.09919   0.64259 
 6                    -12.08783   2.57965  -0.53239 
 6                     11.28714  -1.18665   0.8812 
 6                    -11.01083   1.59116  -0.68912 
 6                     11.68259   0.69955  -2.03103 
 6                     12.5091   2.11003  -0.23974 
 6                    -13.14365  -0.98656   0.12444 
 6                    -11.74102  -0.60886   2.1951 
 6                     9.89443   0.82268   0.40114 
 6                    -9.99065  -0.62107  -0.1696 
 6                     10.23601  -1.72046   1.94143 
 6                    -9.91825   2.03694  -1.65019 
 6                     8.61327   0.46354   0.31943 
 6                    -8.63101  -0.35674  -0.18846 
 6                     7.30483   1.21581   0.28773 
 6                    -7.51263  -1.37183  -0.27041 
 6                     7.44718   2.74201   0.62051 
 6                    -7.83589  -2.78356  -0.68814 
 6                     6.17524   0.6108    0.19643 
 6                    -6.2975   -0.84768  -0.21346 
 6                     4.88554   1.25269   0.32424 
 6                    -4.99405  -1.51331  -0.50948 
 6                     3.71459   0.55856   0.06881 
 6                    -3.72661  -1.03043  -0.28428 
 6                     2.44387   1.21536   0.18896 
 6                    -2.52597  -1.8754   -0.47516 
 6                     2.25417   2.72934   0.53387 
 6                    -2.62606  -3.32139  -0.54913 
 6                     1.1943    0.52522   0.02998 
 6                    -1.33818  -1.20535  -0.2117 
 6                     1.08527  -0.88274  -0.39337 
 6                    -0.01227  -1.62209  -0.40718 
 1                     13.99382   0.237     0.39541 
 1                     14.19418   0.01673  -1.38969 
 1                    -12.39106   1.87782   2.02328 
 1                    -13.95569   0.87371   1.78231 
 1                     14.27479  -2.33553  -0.53743 
 1                     12.63673  -1.98383  -1.41712 
 1                    -14.05973   2.97461   0.46718 
 1                    -13.94793   1.61688  -0.67541 
 1                     12.81793  -2.06015   1.78349 
 1                     11.889   -3.05904   0.57216 
 1                    -11.65412   3.30529   0.24731 
 1                    -12.2828   3.09234  -1.56724 
 1                     11.25905  -0.36977  -2.33987 
 1                     12.39879   0.91884  -2.87417 
 1                     10.86007   1.29302  -2.31584 
 1                     12.90793   2.12214   0.82521 
 1                     11.6284   2.69198  -0.31817 
 1                     13.44476   2.40796  -0.84329 
 1                    -13.65823  -0.2226   -0.7127 
 1                    -14.03135  -1.39617   0.69355 
 1                    -12.61313  -1.74203  -0.12104 
 1                    -10.89763   0.15018   2.66924 
 1                    -11.0217  -1.43885   2.15503 
 1                    -12.52559  -0.84627   2.95702 
 1                     9.9979    1.8604    0.55734 
 1                    -10.14959  -1.77245  -0.43446 
 1                     9.6443   -0.83169   2.49872 
 1                     10.8341  -2.14912   2.86223 
 1                     9.65772  -2.38885   1.30518 
 1                    -9.06866   1.23657  -1.87351 
 1                    -9.43023   2.90647  -1.14177 
 1                    -10.46841   2.47516  -2.54458 
 1                     8.46587  -0.78637   0.0481 
 1                    -8.35047   0.68688  -0.24823 
 1                     7.9789    2.89022   1.57811 
 1                     6.54754   3.28663   0.56212 
 1                     8.14241   3.12116  -0.29884 
 1                    -8.30828  -2.87987  -1.85004 
 1                    -8.41034  -3.23756   0.1333 
 1                    -6.67467  -3.33632  -0.87402 
 1                     6.01731  -0.50975   0.11643 
 1                    -6.36838   0.31753  -0.05862 
 1                     4.87005   2.48207   0.41727 
 1                    -5.18828  -2.45769  -0.73698 
 1                     3.73051  -0.44696  -0.26102 
 1                    -3.52247  -0.07665  -0.07424 
 1                     2.75061   2.99923   1.40138 
 1                     1.38048   2.98421   0.73505 
 1                     2.61304   3.287    -0.49655 
 1                    -3.23826  -3.73587  -1.36208 
 1                    -3.09226  -3.96163   0.33288 
 1                    -1.59448  -3.71895  -0.65643 
 1                     0.30003   1.14199   0.07773 
 1                    -1.7639   -0.25438  -0.08039 
 1                     2.04316  -1.26052  -0.67906 
 1                     0.20416  -2.70547  -0.60358 
 
 Stoichiometry    C40H56
 Framework group  C1[X(C40H56)]
 Deg. of freedom   282
 Full point group                 C1      NOp   1
 Largest Abelian subgroup         C1      NOp   1
 Largest concise Abelian subgroup C1      NOp   1
                         Standard orientation:                         
 ---------------------------------------------------------------------
 Center     Atomic      Atomic             Coordinates (Angstroms)
 Number     Number       Type             X           Y           Z
 ---------------------------------------------------------------------
      1          6           0      -12.161048   -0.654233   -0.631752
      2          6           0       12.208784   -0.009603    0.880205
      3          6           0      -13.529603    0.147827   -0.541115
      4          6           0       12.980702   -1.219853    1.275328
      5          6           0      -13.215864    1.763451   -0.537263
      6          6           0       13.391828   -2.100086    0.101483
      7          6           0      -11.128141   -0.020447    0.358329
      8          6           0       11.016776   -0.376460   -0.098251
      9          6           0      -12.448929    2.102803    0.633881
     10          6           0       12.089037   -2.575719   -0.520924
     11          6           0      -11.286538    1.192260    0.878066
     12          6           0       11.011636   -1.588660   -0.683767
     13          6           0      -11.682677   -0.713501   -2.021314
     14          6           0      -12.507916   -2.112239   -0.220253
     15          6           0       13.143973    0.995144    0.111566
     16          6           0       11.742405    0.630844    2.185343
     17          6           0       -9.893377   -0.819776    0.410816
     18          6           0        9.990959    0.626668   -0.178590
     19          6           0      -10.235106    1.733493    1.934218
     20          6           0        9.918779   -2.041206   -1.641338
     21          6           0       -8.612373   -0.460767    0.326124
     22          6           0        8.631396    0.361762   -0.195059
     23          6           0       -7.303700   -1.212806    0.298862
     24          6           0        7.512646    1.375913   -0.283289
     25          6           0       -7.445392   -2.736790    0.641906
     26          6           0        7.835250    2.784928   -0.710594
     27          6           0       -6.174354   -0.608044    0.203006
     28          6           0        6.297714    0.851756   -0.222291
     29          6           0       -4.884381   -1.248643    0.334520
     30          6           0        4.993911    1.514965   -0.522162
     31          6           0       -3.713778   -0.555857    0.073921
     32          6           0        3.726732    1.033191   -0.293162
     33          6           0       -2.442784   -1.211420    0.197887
     34          6           0        2.525729    1.876470   -0.489142
     35          6           0       -2.252428   -2.722997    0.552820
     36          6           0        2.625307    3.321959   -0.572819
     37          6           0       -1.193518   -0.521949    0.033724
     38          6           0        1.338281    1.207802   -0.220668
     39          6           0       -1.085149    0.883192   -0.399074
     40          6           0        0.012143    1.622789   -0.418333
     41          1           0      -13.992965   -0.235493    0.403026
     42          1           0      -14.194201   -0.027237   -1.383415
     43          1           0       12.393185   -1.856720    2.029856
     44          1           0       13.957374   -0.853725    1.781477
     45          1           0      -14.275209    2.330650   -0.546860
     46          1           0      -12.637431    1.973613   -1.424923
     47          1           0       14.061520   -2.963341    0.480369
     48          1           0       13.948754   -1.613318   -0.671222
     49          1           0      -12.817215    2.071267    1.775186
     50          1           0      -11.889157    3.062342    0.556786
     51          1           0       11.655917   -3.296272    0.263810
     52          1           0       12.283716   -3.095257   -1.552410
     53          1           0      -11.259632    0.353870   -2.337490
     54          1           0      -12.399183   -0.938655   -2.862647
     55          1           0      -10.860094   -1.308593   -2.302524
     56          1           0      -12.906258   -2.117363    0.844930
     57          1           0      -11.627055   -2.694415   -0.295191
     58          1           0      -13.443741   -2.414511   -0.821374
     59          1           0       13.658422    0.225773   -0.720674
     60          1           0       14.031788    1.408841    0.677522
     61          1           0       12.613089    1.748788   -0.138713
     62          1           0       10.899480   -0.125290    2.664929
     63          1           0       11.022787    1.460312    2.140053
     64          1           0       12.527234    0.873596    2.945309
     65          1           0       -9.996438   -1.856465    0.573998
     66          1           0       10.149398    1.776301   -0.451213
     67          1           0       -9.642850    0.848663    2.497176
     68          1           0      -10.832929    2.168103    2.852404
     69          1           0       -9.657325    2.397801    1.293254
     70          1           0        9.068822   -1.242627   -1.869622
     71          1           0        9.431270   -2.907486   -1.126902
     72          1           0       10.468673   -2.485222   -2.533036
     73          1           0       -8.465515    0.787345    0.046374
     74          1           0        8.351178   -0.682325   -0.247726
     75          1           0       -7.976633   -2.878776    1.600709
     76          1           0       -6.545596   -3.281492    0.586745
     77          1           0       -8.140911   -3.122311   -0.274580
     78          1           0        8.307084    2.873619   -1.873332
     79          1           0        8.409921    3.244597    0.107527
     80          1           0        6.673764    3.336048   -0.899639
     81          1           0       -6.016833    0.511990    0.115442
     82          1           0        6.369052   -0.312368   -0.059688
     83          1           0       -4.868443   -2.477367    0.435763
     84          1           0        5.187724    2.457869   -0.756053
     85          1           0       -3.730184    0.447433   -0.262613
     86          1           0        3.523005    0.080767   -0.076655
     87          1           0       -2.748382   -2.987242    1.422341
     88          1           0       -1.378558   -2.976226    0.755309
     89          1           0       -2.611576   -3.287649   -0.473687
     90          1           0        3.236995    3.731202   -1.388805
     91          1           0        3.091691    3.968238    0.304673
     92          1           0        1.593544    3.718460   -0.682308
     93          1           0       -0.299023   -1.138088    0.085191
     94          1           0        1.764371    0.257870   -0.083192
     95          1           0       -2.043293    1.258730   -0.686850
     96          1           0       -0.204737    2.704758   -0.621871
 ---------------------------------------------------------------------
 Rotational constants (GHZ):           0.2827725           0.0109493           0.0107164
 Standard basis: 6-31G(d,p) (6D, 7F)
 There are   880 symmetry adapted cartesian basis functions of A   symmetry.
 There are   880 symmetry adapted basis functions of A   symmetry.
   880 basis functions,  1512 primitive gaussians,   880 cartesian basis functions
   148 alpha electrons      148 beta electrons
       nuclear repulsion energy      3672.2610848831 Hartrees.
 NAtoms=   96 NActive=   96 NUniq=   96 SFac= 1.00D+00 NAtFMM=   60 NAOKFM=T Big=T
 Integral buffers will be    131072 words long.
 Regular integral format.
 Two-electron integral symmetry is turned on.
 One-electron integrals computed using PRISM.
 NBasis=   880 RedAO= T EigKep=  8.52D-04  NBF=   880
 NBsUse=   880 1.00D-06 EigRej= -1.00D+00 NBFU=   880
 ExpMin= 1.61D-01 ExpMax= 3.05D+03 ExpMxC= 4.57D+02 IAcc=3 IRadAn=         5 AccDes= 0.00D+00
 Harris functional with IExCor=  402 and IRadAn=       5 diagonalized for initial guess.
 HarFok:  IExCor=  402 AccDes= 0.00D+00 IRadAn=         5 IDoV= 1 UseB2=F ITyADJ=14
 ICtDFT=  3500011 ScaDFX=  1.000000  1.000000  1.000000  1.000000
 FoFCou: FMM=F IPFlag=           0 FMFlag=      100000 FMFlg1=        2001
         NFxFlg=           0 DoJE=T BraDBF=F KetDBF=T FulRan=T
         wScrn=  0.000000 ICntrl=       500 IOpCl=  0 I1Cent=   200000004 NGrid=           0
         NMat0=    1 NMatS0=      1 NMatT0=    0 NMatD0=    1 NMtDS0=    0 NMtDT0=    0
 Petite list used in FoFCou.
 Requested convergence on RMS density matrix=1.00D-08 within 128 cycles.
 Requested convergence on MAX density matrix=1.00D-06.
 Requested convergence on             energy=1.00D-06.
 No special actions if energy rises.
 Integral accuracy reduced to 1.0D-05 until final iterations.
 Initial convergence to 1.0D-05 achieved.  Increase integral accuracy.
 SCF Done:  E(RB3LYP) =  -1557.56461090     A.U. after   15 cycles
            NFock= 15  Conv=0.46D-08     -V/T= 2.0109
 DoSCS=F DFT=T ScalE2(SS,OS)=  1.000000  1.000000
 ExpMin= 1.61D-01 ExpMax= 3.05D+03 ExpMxC= 4.57D+02 IAcc=3 IRadAn=         5 AccDes= 0.00D+00
 HarFok:  IExCor=  205 AccDes= 0.00D+00 IRadAn=         5 IDoV=-2 UseB2=F ITyADJ=14
 ICtDFT= 12500011 ScaDFX=  1.000000  1.000000  1.000000  1.000000
 GSVD:  LWork=       -1920 too small for GESVD, short by        8600 words or        8600 for optimal perf.
 Range of M.O.s used for correlation:    41   880
 NBasis=   880 NAE=   148 NBE=   148 NFC=    40 NFV=     0
 NROrb=    840 NOA=   108 NOB=   108 NVA=   732 NVB=   732

 **** Warning!!: The smallest alpha delta epsilon is  0.91936086D-01

 Orbital symmetries:
       Occupied  (A) (A) (A) (A) (A) (A) (A) (A) (A) (A) (A) (A)
                 (A) (A) (A) (A) (A) (A) (A) (A) (A) (A) (A) (A)
                 (A) (A) (A) (A) (A) (A) (A) (A) (A) (A) (A) (A)
                 (A) (A) (A) (A) (A) (A) (A) (A) (A) (A) (A) (A)
                 (A) (A) (A) (A) (A) (A) (A) (A) (A) (A) (A) (A)
                 (A) (A) (A) (A) (A) (A) (A) (A) (A) (A) (A) (A)
                 (A) (A) (A) (A) (A) (A) (A) (A) (A) (A) (A) (A)
                 (A) (A) (A) (A) (A) (A) (A) (A) (A) (A) (A) (A)
                 (A) (A) (A) (A) (A) (A) (A) (A) (A) (A) (A) (A)
                 (A) (A) (A) (A) (A) (A) (A) (A) (A) (A) (A) (A)
                 (A) (A) (A) (A) (A) (A) (A) (A) (A) (A) (A) (A)
                 (A) (A) (A) (A) (A) (A) (A) (A) (A) (A) (A) (A)
                 (A) (A) (A) (A)
       Virtual   (A) (A) (A) (A) (A) (A) (A) (A) (A) (A) (A) (A)
                 (A) (A) (A) (A) (A) (A) (A) (A) (A) (A) (A) (A)
                 (A) (A) (A) (A) (A) (A) (A) (A) (A) (A) (A) (A)
                 (A) (A) (A) (A) (A) (A) (A) (A) (A) (A) (A) (A)
                 (A) (A) (A) (A) (A) (A) (A) (A) (A) (A) (A) (A)
                 (A) (A) (A) (A) (A) (A) (A) (A) (A) (A) (A) (A)
                 (A) (A) (A) (A) (A) (A) (A) (A) (A) (A) (A) (A)
                 (A) (A) (A) (A) (A) (A) (A) (A) (A) (A) (A) (A)
                 (A) (A) (A) (A) (A) (A) (A) (A) (A) (A) (A) (A)
                 (A) (A) (A) (A) (A) (A) (A) (A) (A) (A) (A) (A)
                 (A) (A) (A) (A) (A) (A) (A) (A) (A) (A) (A) (A)
                 (A) (A) (A) (A) (A) (A) (A) (A) (A) (A) (A) (A)
                 (A) (A) (A) (A) (A) (A) (A) (A) (A) (A) (A) (A)
                 (A) (A) (A) (A) (A) (A) (A) (A) (A) (A) (A) (A)
                 (A) (A) (A) (A) (A) (A) (A) (A) (A) (A) (A) (A)
                 (A) (A) (A) (A) (A) (A) (A) (A) (A) (A) (A) (A)
                 (A) (A) (A) (A) (A) (A) (A) (A) (A) (A) (A) (A)
                 (A) (A) (A) (A) (A) (A) (A) (A) (A) (A) (A) (A)
                 (A) (A) (A) (A) (A) (A) (A) (A) (A) (A) (A) (A)
                 (A) (A) (A) (A) (A) (A) (A) (A) (A) (A) (A) (A)
                 (A) (A) (A) (A) (A) (A) (A) (A) (A) (A) (A) (A)
                 (A) (A) (A) (A) (A) (A) (A) (A) (A) (A) (A) (A)
                 (A) (A) (A) (A) (A) (A) (A) (A) (A) (A) (A) (A)
                 (A) (A) (A) (A) (A) (A) (A) (A) (A) (A) (A) (A)
                 (A) (A) (A) (A) (A) (A) (A) (A) (A) (A) (A) (A)
                 (A) (A) (A) (A) (A) (A) (A) (A) (A) (A) (A) (A)
                 (A) (A) (A) (A) (A) (A) (A) (A) (A) (A) (A) (A)
                 (A) (A) (A) (A) (A) (A) (A) (A) (A) (A) (A) (A)
                 (A) (A) (A) (A) (A) (A) (A) (A) (A) (A) (A) (A)
                 (A) (A) (A) (A) (A) (A) (A) (A) (A) (A) (A) (A)
                 (A) (A) (A) (A) (A) (A) (A) (A) (A) (A) (A) (A)
                 (A) (A) (A) (A) (A) (A) (A) (A) (A) (A) (A) (A)
                 (A) (A) (A) (A) (A) (A) (A) (A) (A) (A) (A) (A)
                 (A) (A) (A) (A) (A) (A) (A) (A) (A) (A) (A) (A)
                 (A) (A) (A) (A) (A) (A) (A) (A) (A) (A) (A) (A)
                 (A) (A) (A) (A) (A) (A) (A) (A) (A) (A) (A) (A)
                 (A) (A) (A) (A) (A) (A) (A) (A) (A) (A) (A) (A)
                 (A) (A) (A) (A) (A) (A) (A) (A) (A) (A) (A) (A)
                 (A) (A) (A) (A) (A) (A) (A) (A) (A) (A) (A) (A)
                 (A) (A) (A) (A) (A) (A) (A) (A) (A) (A) (A) (A)
                 (A) (A) (A) (A) (A) (A) (A) (A) (A) (A) (A) (A)
                 (A) (A) (A) (A) (A) (A) (A) (A) (A) (A) (A) (A)
                 (A) (A) (A) (A) (A) (A) (A) (A) (A) (A) (A) (A)
                 (A) (A) (A) (A) (A) (A) (A) (A) (A) (A) (A) (A)
                 (A) (A) (A) (A) (A) (A) (A) (A) (A) (A) (A) (A)
                 (A) (A) (A) (A) (A) (A) (A) (A) (A) (A) (A) (A)
                 (A) (A) (A) (A) (A) (A) (A) (A) (A) (A) (A) (A)
                 (A) (A) (A) (A) (A) (A) (A) (A) (A) (A) (A) (A)
                 (A) (A) (A) (A) (A) (A) (A) (A) (A) (A) (A) (A)
                 (A) (A) (A) (A) (A) (A) (A) (A) (A) (A) (A) (A)
                 (A) (A) (A) (A) (A) (A) (A) (A) (A) (A) (A) (A)
                 (A) (A) (A) (A) (A) (A) (A) (A) (A) (A) (A) (A)
                 (A) (A) (A) (A) (A) (A) (A) (A) (A) (A) (A) (A)
                 (A) (A) (A) (A) (A) (A) (A) (A) (A) (A) (A) (A)
                 (A) (A) (A) (A) (A) (A) (A) (A) (A) (A) (A) (A)
                 (A) (A) (A) (A) (A) (A) (A) (A) (A) (A) (A) (A)
                 (A) (A) (A) (A) (A) (A) (A) (A) (A) (A) (A) (A)
                 (A) (A) (A) (A) (A) (A) (A) (A) (A) (A) (A) (A)
                 (A) (A) (A) (A) (A) (A) (A) (A) (A) (A) (A) (A)
                 (A) (A) (A) (A) (A) (A) (A) (A) (A) (A) (A) (A)
                 (A) (A) (A) (A) (A) (A) (A) (A) (A) (A) (A) (A)
     4 initial guesses have been made.
 Convergence on wavefunction:    0.001000000000000
 Iteration     1 Dimension     4 NMult     0 NNew      4
 CISAX will form     4 AO SS matrices at one time.
 Iteration     2 Dimension     6 NMult     4 NNew      2
 Iteration     3 Dimension     8 NMult     6 NNew      2
 Iteration     4 Dimension    10 NMult     8 NNew      2
 Iteration     5 Dimension    12 NMult    10 NNew      2
 Iteration     6 Dimension    14 NMult    12 NNew      2
 ***********************************************************************
 Excited states from <AA,BB:AA,BB> singles matrix:
 ***********************************************************************
 
 Ground to excited state transition densities written to RWF  633
 Ground to excited state transition electric dipole moments (Au):
       state          X           Y           Z        Dip. S.      Osc.
         1        -6.9605     -0.7317      0.3414     49.1004      2.8724
 Ground to excited state transition velocity dipole moments (Au):
       state          X           Y           Z        Dip. S.      Osc.
         1         0.5932      0.0629     -0.0284      0.3567      2.7098
 Ground to excited state transition magnetic dipole moments (Au):
       state          X           Y           Z
         1         0.0431     -0.2562     -0.8763
 Ground to excited state transition velocity quadrupole moments (Au):
       state          XX          YY          ZZ          XY          XZ          YZ
         1         0.1803      0.1013      0.0099     -0.1399      0.0417     -0.0267
 <0|del|b> * <b|rxdel|0> + <0|del|b> * <b|delr+rdel|0>
 Rotatory Strengths (R) in cgs (10**-40 erg-esu-cm/Gauss)
       state          XX          YY          ZZ    R(velocity)    E-M Angle
         1        40.7262    123.2592    112.4516     92.1456       86.40
 1/2[<0|r|b>*<b|rxdel|0> + (<0|rxdel|b>*<b|r|0>)*]
 Rotatory Strengths (R) in cgs (10**-40 erg-esu-cm/Gauss)
       state          XX          YY          ZZ     R(length)
         1       211.9352   -132.5611    211.5683     96.9808
  1/2[<0|del|b>*<b|r|0> + (<0|r|b>*<b|del|0>)*] (Au)
       state          X           Y           Z        Dip. S.   Osc.(frdel)
         1        -4.1291     -0.0460     -0.0097      4.1848      2.7899

 Excitation energies and oscillator strengths:
 
 Excited State   1:      Singlet-A      2.3878 eV  519.24 nm  f=2.8724  <S**2>=0.000
     148 ->149         0.70444
 This state for optimization and/or second-order correction.
 Total Energy, E(TD-HF/TD-DFT) =  -1557.47686075    
 Copying the excited state density for this state as the 1-particle RhoCI density.
 SavETr:  write IOETrn=   770 NScale= 10 NData=  16 NLR=1 NState=    1 LETran=      28.

 **********************************************************************

            Population analysis using the SCF density.

 **********************************************************************

 Orbital symmetries:
       Occupied  (A) (A) (A) (A) (A) (A) (A) (A) (A) (A) (A) (A)
                 (A) (A) (A) (A) (A) (A) (A) (A) (A) (A) (A) (A)
                 (A) (A) (A) (A) (A) (A) (A) (A) (A) (A) (A) (A)
                 (A) (A) (A) (A) (A) (A) (A) (A) (A) (A) (A) (A)
                 (A) (A) (A) (A) (A) (A) (A) (A) (A) (A) (A) (A)
                 (A) (A) (A) (A) (A) (A) (A) (A) (A) (A) (A) (A)
                 (A) (A) (A) (A) (A) (A) (A) (A) (A) (A) (A) (A)
                 (A) (A) (A) (A) (A) (A) (A) (A) (A) (A) (A) (A)
                 (A) (A) (A) (A) (A) (A) (A) (A) (A) (A) (A) (A)
                 (A) (A) (A) (A) (A) (A) (A) (A) (A) (A) (A) (A)
                 (A) (A) (A) (A) (A) (A) (A) (A) (A) (A) (A) (A)
                 (A) (A) (A) (A) (A) (A) (A) (A) (A) (A) (A) (A)
                 (A) (A) (A) (A)
       Virtual   (A) (A) (A) (A) (A) (A) (A) (A) (A) (A) (A) (A)
                 (A) (A) (A) (A) (A) (A) (A) (A) (A) (A) (A) (A)
                 (A) (A) (A) (A) (A) (A) (A) (A) (A) (A) (A) (A)
                 (A) (A) (A) (A) (A) (A) (A) (A) (A) (A) (A) (A)
                 (A) (A) (A) (A) (A) (A) (A) (A) (A) (A) (A) (A)
                 (A) (A) (A) (A) (A) (A) (A) (A) (A) (A) (A) (A)
                 (A) (A) (A) (A) (A) (A) (A) (A) (A) (A) (A) (A)
                 (A) (A) (A) (A) (A) (A) (A) (A) (A) (A) (A) (A)
                 (A) (A) (A) (A) (A) (A) (A) (A) (A) (A) (A) (A)
                 (A) (A) (A) (A) (A) (A) (A) (A) (A) (A) (A) (A)
                 (A) (A) (A) (A) (A) (A) (A) (A) (A) (A) (A) (A)
                 (A) (A) (A) (A) (A) (A) (A) (A) (A) (A) (A) (A)
                 (A) (A) (A) (A) (A) (A) (A) (A) (A) (A) (A) (A)
                 (A) (A) (A) (A) (A) (A) (A) (A) (A) (A) (A) (A)
                 (A) (A) (A) (A) (A) (A) (A) (A) (A) (A) (A) (A)
                 (A) (A) (A) (A) (A) (A) (A) (A) (A) (A) (A) (A)
                 (A) (A) (A) (A) (A) (A) (A) (A) (A) (A) (A) (A)
                 (A) (A) (A) (A) (A) (A) (A) (A) (A) (A) (A) (A)
                 (A) (A) (A) (A) (A) (A) (A) (A) (A) (A) (A) (A)
                 (A) (A) (A) (A) (A) (A) (A) (A) (A) (A) (A) (A)
                 (A) (A) (A) (A) (A) (A) (A) (A) (A) (A) (A) (A)
                 (A) (A) (A) (A) (A) (A) (A) (A) (A) (A) (A) (A)
                 (A) (A) (A) (A) (A) (A) (A) (A) (A) (A) (A) (A)
                 (A) (A) (A) (A) (A) (A) (A) (A) (A) (A) (A) (A)
                 (A) (A) (A) (A) (A) (A) (A) (A) (A) (A) (A) (A)
                 (A) (A) (A) (A) (A) (A) (A) (A) (A) (A) (A) (A)
                 (A) (A) (A) (A) (A) (A) (A) (A) (A) (A) (A) (A)
                 (A) (A) (A) (A) (A) (A) (A) (A) (A) (A) (A) (A)
                 (A) (A) (A) (A) (A) (A) (A) (A) (A) (A) (A) (A)
                 (A) (A) (A) (A) (A) (A) (A) (A) (A) (A) (A) (A)
                 (A) (A) (A) (A) (A) (A) (A) (A) (A) (A) (A) (A)
                 (A) (A) (A) (A) (A) (A) (A) (A) (A) (A) (A) (A)
                 (A) (A) (A) (A) (A) (A) (A) (A) (A) (A) (A) (A)
                 (A) (A) (A) (A) (A) (A) (A) (A) (A) (A) (A) (A)
                 (A) (A) (A) (A) (A) (A) (A) (A) (A) (A) (A) (A)
                 (A) (A) (A) (A) (A) (A) (A) (A) (A) (A) (A) (A)
                 (A) (A) (A) (A) (A) (A) (A) (A) (A) (A) (A) (A)
                 (A) (A) (A) (A) (A) (A) (A) (A) (A) (A) (A) (A)
                 (A) (A) (A) (A) (A) (A) (A) (A) (A) (A) (A) (A)
                 (A) (A) (A) (A) (A) (A) (A) (A) (A) (A) (A) (A)
                 (A) (A) (A) (A) (A) (A) (A) (A) (A) (A) (A) (A)
                 (A) (A) (A) (A) (A) (A) (A) (A) (A) (A) (A) (A)
                 (A) (A) (A) (A) (A) (A) (A) (A) (A) (A) (A) (A)
                 (A) (A) (A) (A) (A) (A) (A) (A) (A) (A) (A) (A)
                 (A) (A) (A) (A) (A) (A) (A) (A) (A) (A) (A) (A)
                 (A) (A) (A) (A) (A) (A) (A) (A) (A) (A) (A) (A)
                 (A) (A) (A) (A) (A) (A) (A) (A) (A) (A) (A) (A)
                 (A) (A) (A) (A) (A) (A) (A) (A) (A) (A) (A) (A)
                 (A) (A) (A) (A) (A) (A) (A) (A) (A) (A) (A) (A)
                 (A) (A) (A) (A) (A) (A) (A) (A) (A) (A) (A) (A)
                 (A) (A) (A) (A) (A) (A) (A) (A) (A) (A) (A) (A)
                 (A) (A) (A) (A) (A) (A) (A) (A) (A) (A) (A) (A)
                 (A) (A) (A) (A) (A) (A) (A) (A) (A) (A) (A) (A)
                 (A) (A) (A) (A) (A) (A) (A) (A) (A) (A) (A) (A)
                 (A) (A) (A) (A) (A) (A) (A) (A) (A) (A) (A) (A)
                 (A) (A) (A) (A) (A) (A) (A) (A) (A) (A) (A) (A)
                 (A) (A) (A) (A) (A) (A) (A) (A) (A) (A) (A) (A)
                 (A) (A) (A) (A) (A) (A) (A) (A) (A) (A) (A) (A)
                 (A) (A) (A) (A) (A) (A) (A) (A) (A) (A) (A) (A)
                 (A) (A) (A) (A) (A) (A) (A) (A) (A) (A) (A) (A)
                 (A) (A) (A) (A) (A) (A) (A) (A) (A) (A) (A) (A)
 The electronic state is 1-A.
 Alpha  occ. eigenvalues --  -10.21842 -10.20737 -10.20541 -10.20240 -10.20093
 Alpha  occ. eigenvalues --  -10.19762 -10.19706 -10.19667 -10.19629 -10.19567
 Alpha  occ. eigenvalues --  -10.19457 -10.19413 -10.19249 -10.19235 -10.19201
 Alpha  occ. eigenvalues --  -10.19190 -10.19073 -10.19066 -10.19003 -10.18953
 Alpha  occ. eigenvalues --  -10.18910 -10.18844 -10.18628 -10.18626 -10.18616
 Alpha  occ. eigenvalues --  -10.18577 -10.18495 -10.18482 -10.18321 -10.18281
 Alpha  occ. eigenvalues --  -10.18232 -10.18147 -10.18106 -10.18001 -10.17907
 Alpha  occ. eigenvalues --  -10.17886 -10.17717 -10.17670 -10.17186 -10.17068
 Alpha  occ. eigenvalues --   -0.85304  -0.84912  -0.83800  -0.83144  -0.82028
 Alpha  occ. eigenvalues --   -0.81157  -0.79062  -0.78773  -0.78479  -0.77509
 Alpha  occ. eigenvalues --   -0.77120  -0.74611  -0.73988  -0.71941  -0.71710
 Alpha  occ. eigenvalues --   -0.70313  -0.68955  -0.68167  -0.67724  -0.67553
 Alpha  occ. eigenvalues --   -0.67455  -0.67163  -0.66542  -0.66238  -0.65864
 Alpha  occ. eigenvalues --   -0.62937  -0.61804  -0.59907  -0.59427  -0.56927
 Alpha  occ. eigenvalues --   -0.56175  -0.55557  -0.54785  -0.53953  -0.53345
 Alpha  occ. eigenvalues --   -0.52304  -0.51106  -0.50251  -0.49737  -0.48772
 Alpha  occ. eigenvalues --   -0.48383  -0.47778  -0.47323  -0.46853  -0.46157
 Alpha  occ. eigenvalues --   -0.45305  -0.44696  -0.44529  -0.44386  -0.43988
 Alpha  occ. eigenvalues --   -0.43446  -0.42895  -0.42785  -0.42553  -0.42177
 Alpha  occ. eigenvalues --   -0.41962  -0.41538  -0.41317  -0.41219  -0.40938
 Alpha  occ. eigenvalues --   -0.40533  -0.40278  -0.40013  -0.39728  -0.39569
 Alpha  occ. eigenvalues --   -0.39271  -0.38989  -0.38858  -0.38645  -0.38215
 Alpha  occ. eigenvalues --   -0.38070  -0.37500  -0.37243  -0.37145  -0.36501
 Alpha  occ. eigenvalues --   -0.36208  -0.35687  -0.35442  -0.35182  -0.34988
 Alpha  occ. eigenvalues --   -0.34848  -0.34635  -0.34186  -0.34080  -0.33437
 Alpha  occ. eigenvalues --   -0.33385  -0.33125  -0.33003  -0.32582  -0.32427
 Alpha  occ. eigenvalues --   -0.32137  -0.31643  -0.31149  -0.30914  -0.30851
 Alpha  occ. eigenvalues --   -0.30208  -0.29648  -0.29416  -0.28785  -0.28653
 Alpha  occ. eigenvalues --   -0.27881  -0.27527  -0.26212  -0.24731  -0.22832
 Alpha  occ. eigenvalues --   -0.21253  -0.19408  -0.16894
 Alpha virt. eigenvalues --   -0.07700  -0.04626  -0.01489   0.00702   0.02590
 Alpha virt. eigenvalues --    0.04673   0.05287   0.06462   0.06588   0.06928
 Alpha virt. eigenvalues --    0.07169   0.07254   0.07468   0.08424   0.08935
 Alpha virt. eigenvalues --    0.09322   0.09529   0.09572   0.09956   0.10641
 Alpha virt. eigenvalues --    0.10708   0.11061   0.11171   0.11322   0.11470
 Alpha virt. eigenvalues --    0.11794   0.11984   0.12230   0.12779   0.12833
 Alpha virt. eigenvalues --    0.13334   0.13493   0.13733   0.14350   0.14531
 Alpha virt. eigenvalues --    0.14763   0.15106   0.15275   0.15396   0.15499
 Alpha virt. eigenvalues --    0.15840   0.15959   0.16595   0.16640   0.16978
 Alpha virt. eigenvalues --    0.17293   0.17480   0.17556   0.17655   0.17934
 Alpha virt. eigenvalues --    0.18042   0.18219   0.18585   0.18605   0.18975
 Alpha virt. eigenvalues --    0.19706   0.19787   0.19836   0.20503   0.20636
 Alpha virt. eigenvalues --    0.21099   0.21157   0.21671   0.22298   0.22760
 Alpha virt. eigenvalues --    0.22995   0.23274   0.23606   0.23834   0.24156
 Alpha virt. eigenvalues --    0.24469   0.24482   0.24965   0.25240   0.25344
 Alpha virt. eigenvalues --    0.25658   0.26041   0.26351   0.27018   0.27320
 Alpha virt. eigenvalues --    0.27680   0.28232   0.28752   0.29002   0.29530
 Alpha virt. eigenvalues --    0.29784   0.30333   0.31396   0.32536   0.33452
 Alpha virt. eigenvalues --    0.34928   0.35194   0.35734   0.37059   0.37592
 Alpha virt. eigenvalues --    0.37785   0.39500   0.40196   0.41406   0.41755
 Alpha virt. eigenvalues --    0.42522   0.43567   0.43756   0.45040   0.47070
 Alpha virt. eigenvalues --    0.47905   0.48085   0.48691   0.49190   0.49578
 Alpha virt. eigenvalues --    0.50297   0.50610   0.50977   0.51155   0.51329
 Alpha virt. eigenvalues --    0.51558   0.52171   0.52282   0.52561   0.52844
 Alpha virt. eigenvalues --    0.53150   0.53435   0.53831   0.54352   0.54489
 Alpha virt. eigenvalues --    0.54896   0.55142   0.55226   0.55414   0.56305
 Alpha virt. eigenvalues --    0.56495   0.56922   0.56962   0.57224   0.57613
 Alpha virt. eigenvalues --    0.58041   0.58281   0.58429   0.58866   0.59207
 Alpha virt. eigenvalues --    0.59387   0.59865   0.60445   0.60593   0.60938
 Alpha virt. eigenvalues --    0.61468   0.61497   0.61815   0.62032   0.62291
 Alpha virt. eigenvalues --    0.62612   0.63449   0.63685   0.64391   0.64759
 Alpha virt. eigenvalues --    0.65147   0.65303   0.65620   0.65760   0.66164
 Alpha virt. eigenvalues --    0.66401   0.66862   0.67024   0.67527   0.67739
 Alpha virt. eigenvalues --    0.68019   0.68813   0.69267   0.69553   0.69678
 Alpha virt. eigenvalues --    0.70127   0.70493   0.71340   0.71677   0.72207
 Alpha virt. eigenvalues --    0.72492   0.72736   0.72863   0.73201   0.73434
 Alpha virt. eigenvalues --    0.73935   0.74109   0.74302   0.74731   0.75202
 Alpha virt. eigenvalues --    0.75538   0.75874   0.76540   0.76773   0.77506
 Alpha virt. eigenvalues --    0.77891   0.77981   0.78866   0.79120   0.79359
 Alpha virt. eigenvalues --    0.79387   0.80047   0.80297   0.80422   0.80450
 Alpha virt. eigenvalues --    0.80791   0.80914   0.80997   0.81768   0.81908
 Alpha virt. eigenvalues --    0.82142   0.82731   0.82870   0.83021   0.83180
 Alpha virt. eigenvalues --    0.83513   0.83763   0.84204   0.84538   0.84546
 Alpha virt. eigenvalues --    0.84728   0.85548   0.85819   0.85998   0.86237
 Alpha virt. eigenvalues --    0.86358   0.86785   0.87280   0.87442   0.87725
 Alpha virt. eigenvalues --    0.87883   0.87982   0.88241   0.88390   0.88782
 Alpha virt. eigenvalues --    0.88989   0.89430   0.89896   0.90733   0.90992
 Alpha virt. eigenvalues --    0.91032   0.91178   0.91738   0.92066   0.92522
 Alpha virt. eigenvalues --    0.92962   0.93092   0.93532   0.93628   0.93793
 Alpha virt. eigenvalues --    0.94460   0.94680   0.94822   0.95342   0.95723
 Alpha virt. eigenvalues --    0.95990   0.96026   0.96553   0.97581   0.97843
 Alpha virt. eigenvalues --    0.98444   0.98932   0.99783   0.99848   1.00689
 Alpha virt. eigenvalues --    1.01330   1.01648   1.02091   1.02950   1.03349
 Alpha virt. eigenvalues --    1.04243   1.04661   1.05079   1.05609   1.05826
 Alpha virt. eigenvalues --    1.06600   1.07010   1.07835   1.08102   1.09084
 Alpha virt. eigenvalues --    1.09180   1.09898   1.10965   1.11169   1.11492
 Alpha virt. eigenvalues --    1.12766   1.13338   1.13351   1.13941   1.14318
 Alpha virt. eigenvalues --    1.16571   1.17128   1.17216   1.18080   1.19114
 Alpha virt. eigenvalues --    1.19703   1.20877   1.21128   1.22054   1.24120
 Alpha virt. eigenvalues --    1.24609   1.24800   1.26059   1.26250   1.28002
 Alpha virt. eigenvalues --    1.28240   1.29284   1.29845   1.30625   1.31241
 Alpha virt. eigenvalues --    1.32162   1.32737   1.33005   1.33506   1.34261
 Alpha virt. eigenvalues --    1.35781   1.35845   1.36648   1.37267   1.37618
 Alpha virt. eigenvalues --    1.38980   1.40669   1.40768   1.41661   1.42371
 Alpha virt. eigenvalues --    1.42831   1.43718   1.43957   1.45189   1.45672
 Alpha virt. eigenvalues --    1.46449   1.46833   1.47169   1.48322   1.49137
 Alpha virt. eigenvalues --    1.49711   1.49880   1.50280   1.50929   1.52468
 Alpha virt. eigenvalues --    1.53587   1.54179   1.54945   1.55660   1.56713
 Alpha virt. eigenvalues --    1.57134   1.58005   1.58314   1.58779   1.59111
 Alpha virt. eigenvalues --    1.60391   1.61971   1.62023   1.62462   1.64133
 Alpha virt. eigenvalues --    1.64992   1.67192   1.67814   1.68244   1.69173
 Alpha virt. eigenvalues --    1.71095   1.71559   1.71982   1.72439   1.72847
 Alpha virt. eigenvalues --    1.72979   1.73860   1.74089   1.74594   1.75202
 Alpha virt. eigenvalues --    1.75307   1.75544   1.75713   1.76320   1.76814
 Alpha virt. eigenvalues --    1.77180   1.77322   1.77712   1.77917   1.78192
 Alpha virt. eigenvalues --    1.78675   1.79384   1.79620   1.80245   1.80902
 Alpha virt. eigenvalues --    1.81657   1.81771   1.82148   1.82747   1.83267
 Alpha virt. eigenvalues --    1.83787   1.84012   1.84279   1.85160   1.85791
 Alpha virt. eigenvalues --    1.86809   1.87394   1.87685   1.87989   1.88398
 Alpha virt. eigenvalues --    1.88544   1.89259   1.89525   1.89924   1.90559
 Alpha virt. eigenvalues --    1.91163   1.91251   1.91907   1.92066   1.92326
 Alpha virt. eigenvalues --    1.92491   1.93858   1.94327   1.94541   1.94574
 Alpha virt. eigenvalues --    1.95343   1.95594   1.95807   1.95991   1.96433
 Alpha virt. eigenvalues --    1.96520   1.96974   1.97274   1.97788   1.97928
 Alpha virt. eigenvalues --    1.99070   1.99217   2.00029   2.00372   2.00665
 Alpha virt. eigenvalues --    2.01169   2.01426   2.01534   2.01775   2.02113
 Alpha virt. eigenvalues --    2.02996   2.03321   2.03823   2.04120   2.04381
 Alpha virt. eigenvalues --    2.04471   2.05111   2.05498   2.05707   2.06271
 Alpha virt. eigenvalues --    2.06740   2.07321   2.07566   2.08207   2.08536
 Alpha virt. eigenvalues --    2.08554   2.09626   2.10270   2.10522   2.10646
 Alpha virt. eigenvalues --    2.10748   2.11351   2.11507   2.11678   2.12273
 Alpha virt. eigenvalues --    2.12610   2.13293   2.14158   2.14256   2.14442
 Alpha virt. eigenvalues --    2.14982   2.15538   2.15637   2.16221   2.17164
 Alpha virt. eigenvalues --    2.18002   2.18974   2.19522   2.19786   2.20158
 Alpha virt. eigenvalues --    2.20487   2.21311   2.21384   2.21926   2.23327
 Alpha virt. eigenvalues --    2.23654   2.24127   2.24768   2.25593   2.25644
 Alpha virt. eigenvalues --    2.27018   2.27198   2.27608   2.28109   2.28564
 Alpha virt. eigenvalues --    2.28981   2.29456   2.30277   2.30380   2.30946
 Alpha virt. eigenvalues --    2.31124   2.31602   2.32176   2.32518   2.33235
 Alpha virt. eigenvalues --    2.33992   2.34137   2.34728   2.35292   2.36166
 Alpha virt. eigenvalues --    2.36364   2.36668   2.37310   2.37983   2.38275
 Alpha virt. eigenvalues --    2.38390   2.39373   2.39462   2.40068   2.40874
 Alpha virt. eigenvalues --    2.41324   2.41518   2.41716   2.42011   2.43009
 Alpha virt. eigenvalues --    2.43287   2.43483   2.43804   2.44330   2.44544
 Alpha virt. eigenvalues --    2.44602   2.45443   2.45770   2.46720   2.46943
 Alpha virt. eigenvalues --    2.47319   2.47515   2.48516   2.48868   2.49659
 Alpha virt. eigenvalues --    2.49876   2.50193   2.50708   2.51217   2.51554
 Alpha virt. eigenvalues --    2.51787   2.53005   2.53436   2.53968   2.54723
 Alpha virt. eigenvalues --    2.55361   2.55591   2.56316   2.56472   2.56948
 Alpha virt. eigenvalues --    2.57396   2.57782   2.58192   2.59314   2.59390
 Alpha virt. eigenvalues --    2.60031   2.60774   2.61336   2.61793   2.62530
 Alpha virt. eigenvalues --    2.62670   2.63184   2.63475   2.63623   2.63962
 Alpha virt. eigenvalues --    2.64703   2.64975   2.65260   2.65691   2.66273
 Alpha virt. eigenvalues --    2.66570   2.66799   2.67406   2.67807   2.68031
 Alpha virt. eigenvalues --    2.68500   2.68639   2.68920   2.69449   2.69816
 Alpha virt. eigenvalues --    2.70030   2.70549   2.71182   2.72060   2.72643
 Alpha virt. eigenvalues --    2.73025   2.73084   2.73653   2.74101   2.74594
 Alpha virt. eigenvalues --    2.75132   2.75696   2.76067   2.76648   2.76949
 Alpha virt. eigenvalues --    2.77220   2.78009   2.78194   2.79004   2.79544
 Alpha virt. eigenvalues --    2.80723   2.81017   2.81702   2.81837   2.83058
 Alpha virt. eigenvalues --    2.83443   2.83622   2.84910   2.85075   2.85811
 Alpha virt. eigenvalues --    2.86065   2.87372   2.87546   2.89300   2.90034
 Alpha virt. eigenvalues --    2.90579   2.91184   2.91357   2.91614   2.92368
 Alpha virt. eigenvalues --    2.93191   2.93316   2.94571   2.95106   2.96501
 Alpha virt. eigenvalues --    2.96555   2.97347   2.99153   2.99464   3.00498
 Alpha virt. eigenvalues --    3.01269   3.02212   3.02694   3.04139   3.05421
 Alpha virt. eigenvalues --    3.05780   3.07310   3.08991   3.09806   3.11380
 Alpha virt. eigenvalues --    3.11971   3.12113   3.12456   3.13187   3.13209
 Alpha virt. eigenvalues --    3.13967   3.15041   3.16540   3.16738   3.20384
 Alpha virt. eigenvalues --    3.20696   3.21356   3.21365   3.24554   3.25151
 Alpha virt. eigenvalues --    3.28166   3.28430   3.28772   3.29595   3.30628
 Alpha virt. eigenvalues --    3.33316   3.33933   3.34436   3.34869   3.35135
 Alpha virt. eigenvalues --    3.36124   3.36552   3.36681   3.38406   3.38808
 Alpha virt. eigenvalues --    3.39769   3.40612   3.41086   3.41735   3.42067
 Alpha virt. eigenvalues --    3.43378   3.46308   3.46361   3.47637   3.47838
 Alpha virt. eigenvalues --    3.48704   3.50110   3.51056   3.51146   3.51647
 Alpha virt. eigenvalues --    3.52407   3.53308   3.54369   3.56859   3.58463
 Alpha virt. eigenvalues --    3.58787   3.61872   3.65264   3.75545   3.80908
 Alpha virt. eigenvalues --    3.82908   3.91322   4.10354   4.11741   4.13229
 Alpha virt. eigenvalues --    4.13560   4.15455   4.17299   4.19593   4.20830
 Alpha virt. eigenvalues --    4.21326   4.24679   4.29328   4.31075   4.32634
 Alpha virt. eigenvalues --    4.33971   4.35768   4.36713   4.39692   4.40403
 Alpha virt. eigenvalues --    4.42986   4.45086   4.46037   4.48809   4.49803
 Alpha virt. eigenvalues --    4.50341   4.51587   4.55613   4.56394   4.57078
 Alpha virt. eigenvalues --    4.60414   4.60636   4.61767   4.64267   4.66742
 Alpha virt. eigenvalues --    4.70876   4.72834   4.73912   4.74607   4.79303
 Alpha virt. eigenvalues --    4.80612   4.81731
          Condensed to atoms (all electrons):
 Mulliken charges:
               1
     1  C   -0.007520
     2  C    0.006221
     3  C   -0.184718
     4  C   -0.161339
     5  C   -0.196506
     6  C   -0.186806
     7  C    0.106754
     8  C    0.071021
     9  C   -0.171319
    10  C   -0.219201
    11  C   -0.005449
    12  C    0.080934
    13  C   -0.287600
    14  C   -0.300052
    15  C   -0.271231
    16  C   -0.299806
    17  C   -0.137468
    18  C   -0.139910
    19  C   -0.336824
    20  C   -0.357336
    21  C   -0.078606
    22  C   -0.111151
    23  C    0.098970
    24  C    0.128895
    25  C   -0.356865
    26  C   -0.349290
    27  C   -0.099538
    28  C   -0.122424
    29  C   -0.092279
    30  C   -0.083300
    31  C   -0.100618
    32  C   -0.089817
    33  C    0.070747
    34  C    0.109036
    35  C   -0.333312
    36  C   -0.378408
    37  C   -0.128038
    38  C   -0.076773
    39  C   -0.073157
    40  C   -0.106868
    41  H    0.090494
    42  H    0.091556
    43  H    0.085318
    44  H    0.074416
    45  H    0.075179
    46  H    0.116452
    47  H    0.082595
    48  H    0.106094
    49  H    0.096322
    50  H    0.099921
    51  H    0.102350
    52  H    0.080942
    53  H    0.070524
    54  H    0.092135
    55  H    0.110648
    56  H    0.089178
    57  H    0.106489
    58  H    0.093148
    59  H    0.068787
    60  H    0.085119
    61  H    0.111914
    62  H    0.065533
    63  H    0.100554
    64  H    0.099844
    65  H    0.075257
    66  H    0.079106
    67  H    0.110478
    68  H    0.085422
    69  H    0.127153
    70  H    0.112722
    71  H    0.111257
    72  H    0.099024
    73  H    0.031174
    74  H    0.082552
    75  H    0.129904
    76  H    0.113538
    77  H    0.096439
    78  H    0.107108
    79  H    0.133009
    80  H    0.069894
    81  H    0.081437
    82  H    0.063091
    83  H    0.077840
    84  H    0.057001
    85  H    0.088704
    86  H    0.076407
    87  H    0.120692
    88  H    0.113023
    89  H    0.094187
    90  H    0.113002
    91  H    0.109735
    92  H    0.105338
    93  H    0.082288
    94  H    0.068505
    95  H    0.076957
    96  H    0.083197
 Sum of Mulliken charges =  -0.00000
 Mulliken charges with hydrogens summed into heavy atoms:
               1
     1  C   -0.007520
     2  C    0.006221
     3  C   -0.002669
     4  C   -0.001605
     5  C   -0.004876
     6  C    0.001883
     7  C    0.106754
     8  C    0.071021
     9  C    0.024924
    10  C   -0.035910
    11  C   -0.005449
    12  C    0.080934
    13  C   -0.014292
    14  C   -0.011236
    15  C   -0.005411
    16  C   -0.033875
    17  C   -0.062211
    18  C   -0.060805
    19  C   -0.013772
    20  C   -0.034333
    21  C   -0.047432
    22  C   -0.028599
    23  C    0.098970
    24  C    0.128895
    25  C   -0.016983
    26  C   -0.039279
    27  C   -0.018101
    28  C   -0.059333
    29  C   -0.014439
    30  C   -0.026299
    31  C   -0.011914
    32  C   -0.013410
    33  C    0.070747
    34  C    0.109036
    35  C   -0.005410
    36  C   -0.050332
    37  C   -0.045750
    38  C   -0.008268
    39  C    0.003800
    40  C   -0.023671
 Electronic spatial extent (au):  <R**2>=          95681.6268
 Charge=              0.0000 electrons
 Dipole moment (field-independent basis, Debye):
    X=             -0.9581    Y=             -0.4571    Z=             -0.2651  Tot=              1.0941
 Quadrupole moment (field-independent basis, Debye-Ang):
   XX=           -234.1992   YY=           -236.5725   ZZ=           -255.0884
   XY=             -2.6931   XZ=             -1.7722   YZ=             -3.0530
 Traceless Quadrupole moment (field-independent basis, Debye-Ang):
   XX=              7.7542   YY=              5.3808   ZZ=            -13.1350
   XY=             -2.6931   XZ=             -1.7722   YZ=             -3.0530
 Octapole moment (field-independent basis, Debye-Ang**2):
  XXX=            -83.3488  YYY=              5.9655  ZZZ=              1.7087  XYY=             18.3812
  XXY=            -32.0010  XXZ=            -21.1902  XZZ=            -23.9261  YZZ=             -5.3937
  YYZ=             -1.8206  XYZ=             12.9039
 Hexadecapole moment (field-independent basis, Debye-Ang**3):
 XXXX=        -125802.2306 YYYY=          -4394.7579 ZZZZ=          -1498.2854 XXXY=           -852.2352
 XXXZ=            147.1005 YYYX=             62.3052 YYYZ=            -37.8994 ZZZX=            -28.9681
 ZZZY=              3.7472 XXYY=         -21800.1060 XXZZ=         -21864.5120 YYZZ=           -977.9762
 XXYZ=             93.1541 YYXZ=            -15.5903 ZZXY=              7.9297
 N-N= 3.672261084883D+03 E-N=-1.094416966976D+04  KE= 1.540843778542D+03
 1\1\GINC-RYZEN-SSD1\SP\RB3LYP TD-FC\6-31G(d,p)\C40H56\PADAWAN\27-Jul-2
 019\0\\# td=(NStates=1) B3LYP/6-31G(d,p)\\TD\\0,1\C,0,12.1615704996,0.
 6494155421,-0.6413202509\C,0,-12.2077830924,0.0229972581,0.8859177707\
 C,0,13.5299024029,-0.1524749075,-0.5459405931\C,0,-12.9791244123,1.236
 1180033,1.2732880432\C,0,13.2156338776,-1.7679324656,-0.5311448733\C,0
 ,-13.3904936455,2.108619374,0.0937697441\C,0,11.1289046844,0.022606525
 2,0.3534428821\C,0,-11.0160992777,0.3829081731,-0.0955071855\C,0,12.44
 91193493,-2.0991922132,0.6425882351\C,0,-12.0878286655,2.579648273,-0.
 5323915751\C,0,11.2871384218,-1.1866507196,0.8812046889\C,0,-11.010825
 8768,1.5911647383,-0.6891177855\C,0,11.6825888466,0.6995510802,-2.0310
 315818\C,0,12.5091043238,2.1100250576,-0.2397354925\C,0,-13.143651956,
 -0.9865557743,0.1244362735\C,0,-11.7410229703,-0.60886406,2.195097658\
 C,0,9.8944275054,0.8226783814,0.4011421147\C,0,-9.9906488718,-0.621074
 6496,-0.1696010479\C,0,10.2360077771,-1.7204618579,1.9414267776\C,0,-9
 .9182547957,2.0369354326,-1.6501864835\C,0,8.6132675665,0.4635363098,0
 .3194301492\C,0,-8.631006059,-0.3567355389,-0.1884551684\C,0,7.3048290
 511,1.2158103813,0.2877313857\C,0,-7.5126301569,-1.3718256577,-0.27040
 74376\C,0,7.4471777675,2.7420068379,0.6205144884\C,0,-7.8358907773,-2.
 7835583669,-0.6881360912\C,0,6.1752414256,0.6107954685,0.1964318022\C,
 0,-6.2974983597,-0.8476755902,-0.213463458\C,0,4.8855392046,1.25268760
 07,0.3242420832\C,0,-4.9940490167,-1.5133073085,-0.5094823298\C,0,3.71
 45901706,0.5585634215,0.0688088302\C,0,-3.726608046,-1.0304336761,-0.2
 842808658\C,0,2.4438676882,1.2153622439,0.1889633842\C,0,-2.5259715966
 ,-1.875402599,-0.4751607962\C,0,2.2541697886,2.7293423007,0.5338677601
 \C,0,-2.6260631517,-3.3213856651,-0.5491262627\C,0,1.1943009786,0.5252
 23864,0.0299779148\C,0,-1.3381819913,-1.2053491069,-0.2116998751\C,0,1
 .0852728995,-0.8827432215,-0.3933668564\C,0,-0.0122706875,-1.622088448
 6,-0.4071844744\H,0,13.9938194877,0.2369961291,0.3954075837\H,0,14.194
 1764314,0.0167332976,-1.3896925077\H,0,-12.3910554705,1.8778201722,2.0
 232758924\H,0,-13.9556864262,0.873706863,1.7823146696\H,0,14.274788100
 8,-2.3355343711,-0.5374271885\H,0,12.6367295547,-1.9838322832,-1.41711
 78351\H,0,-14.0597293611,2.9746108211,0.4671777554\H,0,-13.9479295768,
 1.6168813623,-0.6754115633\H,0,12.8179337572,-2.0601485215,1.783490231
 \H,0,11.8889963541,-3.0590395961,0.572164072\H,0,-11.6541152036,3.3052
 882495,0.2473112481\H,0,-12.2828044943,3.0923427421,-1.5672406253\H,0,
 11.2590492754,-0.3697700543,-2.3398721199\H,0,12.3987867594,0.91883654
 5,-2.8741739914\H,0,10.8600735787,1.2930224139,-2.3158423037\H,0,12.90
 79317473,2.1221391158,0.8252098615\H,0,11.628401247,2.6919791088,-0.31
 81659736\H,0,13.4447563319,2.407961066,-0.8432865998\H,0,-13.658225053
 2,-0.2225962686,-0.7126973704\H,0,-14.0313453071,-1.3961654207,0.69354
 65754\H,0,-12.6131289161,-1.7420326082,-0.1210379863\H,0,-10.897632254
 1,0.1501793785,2.6692365828\H,0,-11.0216986953,-1.4388548862,2.1550295
 192\H,0,-12.5255866227,-0.8462690948,2.9570242305\H,0,9.9979031969,1.8
 604009002,0.5573416421\H,0,-10.1495894036,-1.7724523552,-0.434459824\H
 ,0,9.6442985074,-0.8316907638,2.49872363\H,0,10.8341042245,-2.14912111
 ,2.8622276528\H,0,9.657717839,-2.3888487349,1.3051801396\H,0,-9.068663
 9017,1.2365659692,-1.8735098479\H,0,-9.4302278277,2.9064741694,-1.1417
 742236\H,0,-10.4684071057,2.4751625217,-2.5445844317\H,0,8.465872178,-
 0.7863694171,0.0480978594\H,0,-8.350468442,0.6868828824,-0.2482284753\
 H,0,7.9789011222,2.8902240583,1.5781071932\H,0,6.5475366344,3.28662636
 68,0.5621187916\H,0,8.1424084785,3.1211607781,-0.2988431072\H,0,-8.308
 2817804,-2.8798650456,-1.8500416978\H,0,-8.4103420225,-3.237556943,0.1
 332994692\H,0,-6.6746720198,-3.3363162829,-0.8740162868\H,0,6.01731259
 58,-0.5097462014,0.1164296263\H,0,-6.3683788225,0.3175336919,-0.058616
 1384\H,0,4.8700503623,2.4820666508,0.4172746343\H,0,-5.1882789282,-2.4
 576892853,-0.7369758387\H,0,3.730513318,-0.4469592658,-0.2610164632\H,
 0,-3.5224698782,-0.0766513352,-0.0742392906\H,0,2.75060576,2.999230319
 1,1.4013787932\H,0,1.3804752483,2.9842091527,0.7350532328\H,0,2.613038
 3626,3.2869991734,-0.496553625\H,0,-3.2382556952,-3.7358719431,-1.3620
 812189\H,0,-3.0922608319,-3.9616281557,0.3328779392\H,0,-1.5944804193,
 -3.7189522296,-0.6564278692\H,0,0.300032404,1.1419901142,0.077728418\H
 ,0,-1.7638974783,-0.2543774505,-0.0803857647\H,0,2.0431628608,-1.26051
 51012,-0.6790574699\H,0,0.2041609269,-2.7054655889,-0.603581219\\Versi
 on=ES64L-G16RevA.03\State=1-A\HF=-1557.5646109\RMSD=4.580e-09\PG=C01 [
 X(C40H56)]\\@


 THERE IS NO CURE FOR BIRTH AND DEATH SAVE TO ENJOY THE INTERVAL.

                               -- GEORGE SANTAYANA
 Job cpu time:       0 days  9 hours 54 minutes 11.4 seconds.
 Elapsed time:       0 days  2 hours 29 minutes 19.6 seconds.
 File lengths (MBytes):  RWF=   2884 Int=      0 D2E=      0 Chk=     79 Scr=      1
 Normal termination of Gaussian 16 at Sat Jul 27 01:16:39 2019.
