 Entering Gaussian System, Link 0=g16
 Input=Geometria-227-.com
 Output=Geometria-227-.log
 Initial command:
 /usr/local/g16/l1.exe "/home/padawan/israel-mol/b-caroten/spectra/abs/Gau-54061.inp" -scrdir="/home/padawan/israel-mol/b-caroten/spectra/abs/"
 Entering Link 1 = /usr/local/g16/l1.exe PID=     54063.
  
 Copyright (c) 1988,1990,1992,1993,1995,1998,2003,2009,2016,
            Gaussian, Inc.  All Rights Reserved.
  
 This is part of the Gaussian(R) 16 program.  It is based on
 the Gaussian(R) 09 system (copyright 2009, Gaussian, Inc.),
 the Gaussian(R) 03 system (copyright 2003, Gaussian, Inc.),
 the Gaussian(R) 98 system (copyright 1998, Gaussian, Inc.),
 the Gaussian(R) 94 system (copyright 1995, Gaussian, Inc.),
 the Gaussian 92(TM) system (copyright 1992, Gaussian, Inc.),
 the Gaussian 90(TM) system (copyright 1990, Gaussian, Inc.),
 the Gaussian 88(TM) system (copyright 1988, Gaussian, Inc.),
 the Gaussian 86(TM) system (copyright 1986, Carnegie Mellon
 University), and the Gaussian 82(TM) system (copyright 1983,
 Carnegie Mellon University). Gaussian is a federally registered
 trademark of Gaussian, Inc.
  
 This software contains proprietary and confidential information,
 including trade secrets, belonging to Gaussian, Inc.
  
 This software is provided under written license and may be
 used, copied, transmitted, or stored only in accord with that
 written license.
  
 The following legend is applicable only to US Government
 contracts under FAR:
  
                    RESTRICTED RIGHTS LEGEND
  
 Use, reproduction and disclosure by the US Government is
 subject to restrictions as set forth in subparagraphs (a)
 and (c) of the Commercial Computer Software - Restricted
 Rights clause in FAR 52.227-19.
  
 Gaussian, Inc.
 340 Quinnipiac St., Bldg. 40, Wallingford CT 06492
  
  
 ---------------------------------------------------------------
 Warning -- This program may not be used in any manner that
 competes with the business of Gaussian, Inc. or will provide
 assistance to any competitor of Gaussian, Inc.  The licensee
 of this program is prohibited from giving any competitor of
 Gaussian, Inc. access to this program.  By using this program,
 the user acknowledges that Gaussian, Inc. is engaged in the
 business of creating and licensing software in the field of
 computational chemistry and represents and warrants to the
 licensee that it is not a competitor of Gaussian, Inc. and that
 it will not use this program in any manner prohibited above.
 ---------------------------------------------------------------
  

 Cite this work as:
 Gaussian 16, Revision A.03,
 M. J. Frisch, G. W. Trucks, H. B. Schlegel, G. E. Scuseria, 
 M. A. Robb, J. R. Cheeseman, G. Scalmani, V. Barone, 
 G. A. Petersson, H. Nakatsuji, X. Li, M. Caricato, A. V. Marenich, 
 J. Bloino, B. G. Janesko, R. Gomperts, B. Mennucci, H. P. Hratchian, 
 J. V. Ortiz, A. F. Izmaylov, J. L. Sonnenberg, D. Williams-Young, 
 F. Ding, F. Lipparini, F. Egidi, J. Goings, B. Peng, A. Petrone, 
 T. Henderson, D. Ranasinghe, V. G. Zakrzewski, J. Gao, N. Rega, 
 G. Zheng, W. Liang, M. Hada, M. Ehara, K. Toyota, R. Fukuda, 
 J. Hasegawa, M. Ishida, T. Nakajima, Y. Honda, O. Kitao, H. Nakai, 
 T. Vreven, K. Throssell, J. A. Montgomery, Jr., J. E. Peralta, 
 F. Ogliaro, M. J. Bearpark, J. J. Heyd, E. N. Brothers, K. N. Kudin, 
 V. N. Staroverov, T. A. Keith, R. Kobayashi, J. Normand, 
 K. Raghavachari, A. P. Rendell, J. C. Burant, S. S. Iyengar, 
 J. Tomasi, M. Cossi, J. M. Millam, M. Klene, C. Adamo, R. Cammi, 
 J. W. Ochterski, R. L. Martin, K. Morokuma, O. Farkas, 
 J. B. Foresman, and D. J. Fox, Gaussian, Inc., Wallingford CT, 2016.
 
 ******************************************
 Gaussian 16:  ES64L-G16RevA.03 25-Dec-2016
                23-Jul-2019 
 ******************************************
 %nproc=4
 Will use up to    4 processors via shared memory.
 %Mem=2GB
 ---------------------------------
 # td=(NStates=1) B3LYP/6-31G(d,p)
 ---------------------------------
 1/38=1,172=1/1;
 2/12=2,17=6,18=5,40=1/2;
 3/5=1,6=6,7=101,11=9,25=1,30=1,74=-5/1,2,3,8;
 4//1;
 5/5=2,38=5/2;
 8/6=1,10=2,108=1/1;
 9/41=1,42=1,70=2/14;
 6/7=2,8=2,9=2,10=2/1;
 99/5=1,9=1/99;
 --
 TD
 --
 Symbolic Z-matrix:
 Charge =  0 Multiplicity = 1
 6                     12.03656   0.49112  -0.75809 
 6                    -12.14712  -0.00325   0.88099 
 6                     13.38962  -0.19521  -0.65875 
 6                    -13.00943   1.2512    1.21851 
 6                     13.17793  -1.74971  -0.6002 
 6                    -13.32739   2.19592   0.13779 
 6                     11.04641  -0.01768   0.3134 
 6                    -11.04105   0.43938  -0.09697 
 6                     12.45702  -2.01745   0.71451 
 6                    -11.97108   2.7269   -0.37858 
 6                     11.20098  -1.09392   0.95844 
 6                    -10.89168   1.61929  -0.67086 
 6                     11.48893   0.43238  -2.15523 
 6                     12.39097   1.96369  -0.50672 
 6                    -13.12533  -0.97784   0.09655 
 6                    -11.58086  -0.7263    2.17556 
 6                     9.89028   0.87927   0.49323 
 6                    -9.925    -0.67401  -0.30921 
 6                     10.23519  -1.69547   2.05339 
 6                    -10.00988   2.05974  -1.72052 
 6                     8.61258   0.46916   0.30834 
 6                    -8.59122  -0.4667   -0.24309 
 6                     7.44      1.31414   0.47347 
 6                    -7.55427  -1.3701   -0.41332 
 6                     7.59621   2.72082   0.76482 
 6                    -7.96526  -2.72779  -0.72568 
 6                     6.14636   0.71366   0.15341 
 6                    -6.21497  -1.03662  -0.34152 
 6                     4.85186   1.30863   0.28539 
 6                    -5.0325   -1.82917  -0.45406 
 6                     3.69036   0.74138   0.10044 
 6                    -3.83442  -1.13643  -0.32614 
 6                     2.39968   1.29341   0.30793 
 6                    -2.54192  -1.90947  -0.42427 
 6                     2.23016   2.84094   0.59669 
 6                    -2.39291  -3.38679  -0.58288 
 6                     1.19251   0.61981   0.14957 
 6                    -1.38314  -1.09353  -0.26511 
 6                     1.136    -0.81998  -0.14607 
 6                     0.027    -1.52767  -0.28153 
 1                     14.14119   0.14159   0.0888 
 1                     13.86133  -0.05469  -1.79257 
 1                    -12.32208   1.84314   1.98474 
 1                    -13.73144   0.76841   1.72735 
 1                     13.98921  -2.35248  -0.31313 
 1                     12.52048  -2.04449  -1.43964 
 1                    -13.82287   3.18668   0.5637 
 1                    -13.87535   1.86574  -0.75998 
 1                     13.11865  -1.85088   1.66335 
 1                     12.07478  -2.94018   0.60746 
 1                    -11.63233   3.51755   0.44064 
 1                    -11.95563   3.05449  -1.5755 
 1                     11.43876  -0.58854  -2.44261 
 1                     12.09708   0.96839  -2.79688 
 1                     10.43895   0.98415  -2.25097 
 1                     12.42397   2.27805   0.47837 
 1                     11.59879   2.65118  -0.92656 
 1                     13.2957   2.28391  -1.02927 
 1                    -13.42494  -0.49634  -0.75159 
 1                    -13.82223  -1.31995   0.71631 
 1                    -12.806   -1.84437  -0.36112 
 1                    -10.86921  -0.14645   2.82226 
 1                    -11.07143  -1.62394   2.18511 
 1                    -12.53421  -0.67331   2.85004 
 1                     9.97909   1.95309   0.88527 
 1                    -10.30941  -1.6927   -0.56943 
 1                     9.52622  -0.95911   2.34162 
 1                     10.75778  -2.14044   2.93123 
 1                     9.87096  -2.62467   1.39949 
 1                    -9.17242   1.21638  -1.83123 
 1                    -9.57844   3.12933  -1.50481 
 1                    -10.59022   2.25317  -2.74201 
 1                     8.56593  -0.51066   0.04007 
 1                    -8.19916   0.51653  -0.05102 
 1                     8.20525   2.78169   1.62129 
 1                     6.6576    3.19835   1.37081 
 1                     7.88333   3.55985  -0.15587 
 1                    -8.40965  -2.94659  -1.75366 
 1                    -8.72136  -3.02692   0.01815 
 1                    -6.93346  -3.34733  -0.95727 
 1                     6.14606  -0.20437   0.02242 
 1                    -5.87779  -0.03575  -0.08835 
 1                     4.85304   2.38154   0.84969 
 1                    -4.97295  -3.00633  -0.83248 
 1                     3.71157  -0.36659  -0.0871 
 1                    -3.85757  -0.12541  -0.32466 
 1                     3.17851   3.14291   1.33101 
 1                     1.22915   3.23456   0.96685 
 1                     2.71596   3.44014  -0.26391 
 1                    -2.90117  -3.83461  -1.6175 
 1                    -2.86845  -4.05293   0.22389 
 1                    -1.3848   -3.80898  -0.55623 
 1                     0.29479   1.22399   0.0096 
 1                    -1.54681   0.0926   -0.50225 
 1                     2.02505  -1.56487  -0.54187 
 1                     0.06908  -2.76447  -0.68891 
 
 Stoichiometry    C40H56
 Framework group  C1[X(C40H56)]
 Deg. of freedom   282
 Full point group                 C1      NOp   1
 Largest Abelian subgroup         C1      NOp   1
 Largest concise Abelian subgroup C1      NOp   1
                         Standard orientation:                         
 ---------------------------------------------------------------------
 Center     Atomic      Atomic             Coordinates (Angstroms)
 Number     Number       Type             X           Y           Z
 ---------------------------------------------------------------------
      1          6           0       12.036036    0.477345   -0.768745
      2          6           0      -12.147075    0.009694    0.886420
      3          6           0       13.389280   -0.206612   -0.656400
      4          6           0      -13.009579    1.270299    1.199626
      5          6           0       13.177962   -1.759721   -0.567448
      6          6           0      -13.328051    2.193664    0.100755
      7          6           0       11.046295   -0.010653    0.312752
      8          6           0      -11.041379    0.433389   -0.100300
      9          6           0       12.457475   -2.001902    0.752438
     10          6           0      -11.972003    2.714766   -0.426263
     11          6           0       11.201291   -1.074062    0.978645
     12          6           0      -10.892438    1.601895   -0.697160
     13          6           0       11.488037    0.391217   -2.164321
     14          6           0       12.390184    1.954622   -0.546277
     15          6           0      -13.125281   -0.980255    0.121439
     16          6           0      -11.580294   -0.687813    2.194702
     17          6           0        9.890010    0.889381    0.475359
     18          6           0       -9.925134   -0.683688   -0.291067
     19          6           0       10.235936   -1.654330    2.085398
     20          6           0      -10.011027    2.021961   -1.755474
     21          6           0        8.612353    0.475447    0.298866
     22          6           0       -8.591383   -0.474826   -0.229386
     23          6           0        7.439631    1.323233    0.447793
     24          6           0       -7.554276   -1.381146   -0.382233
     25          6           0        7.595600    2.735373    0.711575
     26          6           0       -7.965041   -2.744775   -0.667906
     27          6           0        6.146036    0.716325    0.139878
     28          6           0       -6.215028   -1.046038   -0.317327
     29          6           0        4.851434    1.313478    0.260576
     30          6           0       -5.032411   -1.840366   -0.414700
     31          6           0        3.690015    0.742465    0.087066
     32          6           0       -3.834450   -1.144998   -0.300663
     33          6           0        2.399271    1.298152    0.284090
     34          6           0       -2.541805   -1.919511   -0.384041
     35          6           0        2.229472    2.850991    0.542633
     36          6           0       -2.392498   -3.399620   -0.513819
     37          6           0        1.192209    0.621323    0.139255
     38          6           0       -1.383161   -1.100363   -0.241167
     39          6           0        1.135944   -0.823979   -0.128200
     40          6           0        0.027073   -1.534428   -0.249506
     41          1           0       14.140984    0.144884    0.084220
     42          1           0       13.860651   -0.088159   -1.792880
     43          1           0      -12.322154    1.877238    1.953959
     44          1           0      -13.731345    0.797373    1.717995
     45          1           0       13.989458   -2.356585   -0.268892
     46          1           0       12.520347   -2.070981   -1.400786
     47          1           0      -13.823638    3.192445    0.507369
     48          1           0      -13.876187    1.845892   -0.790247
     49          1           0       13.119331   -1.816682    1.697663
     50          1           0       12.075420   -2.926625    0.663535
     51          1           0      -11.633215    3.521334    0.377264
     52          1           0      -11.956961    3.018921   -1.629361
     53          1           0       11.438019   -0.635137   -2.431696
     54          1           0       12.095886    0.914728   -2.816477
     55          1           0       10.437907    0.940776   -2.270516
     56          1           0       12.423383    2.288169    0.432475
     57          1           0       11.597727    2.633601   -0.979235
     58          1           0       13.294696    2.264777   -1.075225
     59          1           0      -13.425235   -0.515473   -0.735862
     60          1           0      -13.821937   -1.310346    0.747951
     61          1           0      -12.805877   -1.855483   -0.319317
     62          1           0      -10.868602   -0.095292    2.829764
     63          1           0      -11.070664   -1.584990    2.221643
     64          1           0      -12.533472   -0.621881    2.868293
     65          1           0        9.978687    1.970668    0.846334
     66          1           0      -10.309376   -1.707355   -0.531247
     67          1           0        9.526877   -0.912644    2.359392
     68          1           0       10.758868   -2.081958    2.971620
     69          1           0        9.871740   -2.596205    1.449870
     70          1           0       -9.173405    1.176793   -1.849921
     71          1           0       -9.579770    3.095654   -1.560808
     72          1           0      -10.591686    2.195281   -2.780385
     73          1           0        8.565858   -0.509433    0.049791
     74          1           0       -8.199496    0.512047   -0.056659
     75          1           0        8.204863    2.813090    1.566526
     76          1           0        6.657043    3.224429    1.308387
     77          1           0        7.882276    3.556329   -0.225401
     78          1           0       -8.409662   -2.983705   -1.691296
     79          1           0       -8.720868   -3.029485    0.081832
     80          1           0       -6.933158   -3.368484   -0.887647
     81          1           0        6.145907   -0.204079    0.026841
     82          1           0       -5.878007   -0.040338   -0.083845
     83          1           0        4.852527    2.397196    0.803818
     84          1           0       -4.972691   -3.024683   -0.770077
     85          1           0        3.711430   -0.368954   -0.078810
     86          1           0       -3.857835   -0.134140   -0.318928
     87          1           0        3.177956    3.167455    1.270650
     88          1           0        1.228477    3.251542    0.905308
     89          1           0        2.714900    3.433381   -0.329643
     90          1           0       -2.900942   -3.867670   -1.539353
     91          1           0       -2.867664   -4.049980    0.305934
     92          1           0       -1.384284   -3.820983   -0.479209
     93          1           0        0.294314    1.222449   -0.012234
     94          1           0       -1.547166    0.080869   -0.501380
     95          1           0        2.025058   -1.576256   -0.509629
     96          1           0        0.069318   -2.778940   -0.632667
 ---------------------------------------------------------------------
 Rotational constants (GHZ):           0.2704832           0.0110266           0.0107870
 Standard basis: 6-31G(d,p) (6D, 7F)
 There are   880 symmetry adapted cartesian basis functions of A   symmetry.
 There are   880 symmetry adapted basis functions of A   symmetry.
   880 basis functions,  1512 primitive gaussians,   880 cartesian basis functions
   148 alpha electrons      148 beta electrons
       nuclear repulsion energy      3672.1224387810 Hartrees.
 NAtoms=   96 NActive=   96 NUniq=   96 SFac= 1.00D+00 NAtFMM=   60 NAOKFM=T Big=T
 Integral buffers will be    131072 words long.
 Regular integral format.
 Two-electron integral symmetry is turned on.
 One-electron integrals computed using PRISM.
 NBasis=   880 RedAO= T EigKep=  9.16D-04  NBF=   880
 NBsUse=   880 1.00D-06 EigRej= -1.00D+00 NBFU=   880
 ExpMin= 1.61D-01 ExpMax= 3.05D+03 ExpMxC= 4.57D+02 IAcc=3 IRadAn=         5 AccDes= 0.00D+00
 Harris functional with IExCor=  402 and IRadAn=       5 diagonalized for initial guess.
 HarFok:  IExCor=  402 AccDes= 0.00D+00 IRadAn=         5 IDoV= 1 UseB2=F ITyADJ=14
 ICtDFT=  3500011 ScaDFX=  1.000000  1.000000  1.000000  1.000000
 FoFCou: FMM=F IPFlag=           0 FMFlag=      100000 FMFlg1=        2001
         NFxFlg=           0 DoJE=T BraDBF=F KetDBF=T FulRan=T
         wScrn=  0.000000 ICntrl=       500 IOpCl=  0 I1Cent=   200000004 NGrid=           0
         NMat0=    1 NMatS0=      1 NMatT0=    0 NMatD0=    1 NMtDS0=    0 NMtDT0=    0
 Petite list used in FoFCou.
 Requested convergence on RMS density matrix=1.00D-08 within 128 cycles.
 Requested convergence on MAX density matrix=1.00D-06.
 Requested convergence on             energy=1.00D-06.
 No special actions if energy rises.
 Integral accuracy reduced to 1.0D-05 until final iterations.
 Initial convergence to 1.0D-05 achieved.  Increase integral accuracy.
 SCF Done:  E(RB3LYP) =  -1557.48312321     A.U. after   15 cycles
            NFock= 15  Conv=0.83D-08     -V/T= 2.0108
 DoSCS=F DFT=T ScalE2(SS,OS)=  1.000000  1.000000
 ExpMin= 1.61D-01 ExpMax= 3.05D+03 ExpMxC= 4.57D+02 IAcc=3 IRadAn=         5 AccDes= 0.00D+00
 HarFok:  IExCor=  205 AccDes= 0.00D+00 IRadAn=         5 IDoV=-2 UseB2=F ITyADJ=14
 ICtDFT= 12500011 ScaDFX=  1.000000  1.000000  1.000000  1.000000
 GSVD:  LWork=       -1920 too small for GESVD, short by        8600 words or        8600 for optimal perf.
 Range of M.O.s used for correlation:    41   880
 NBasis=   880 NAE=   148 NBE=   148 NFC=    40 NFV=     0
 NROrb=    840 NOA=   108 NOB=   108 NVA=   732 NVB=   732

 **** Warning!!: The smallest alpha delta epsilon is  0.87818689D-01

 Orbital symmetries:
       Occupied  (A) (A) (A) (A) (A) (A) (A) (A) (A) (A) (A) (A)
                 (A) (A) (A) (A) (A) (A) (A) (A) (A) (A) (A) (A)
                 (A) (A) (A) (A) (A) (A) (A) (A) (A) (A) (A) (A)
                 (A) (A) (A) (A) (A) (A) (A) (A) (A) (A) (A) (A)
                 (A) (A) (A) (A) (A) (A) (A) (A) (A) (A) (A) (A)
                 (A) (A) (A) (A) (A) (A) (A) (A) (A) (A) (A) (A)
                 (A) (A) (A) (A) (A) (A) (A) (A) (A) (A) (A) (A)
                 (A) (A) (A) (A) (A) (A) (A) (A) (A) (A) (A) (A)
                 (A) (A) (A) (A) (A) (A) (A) (A) (A) (A) (A) (A)
                 (A) (A) (A) (A) (A) (A) (A) (A) (A) (A) (A) (A)
                 (A) (A) (A) (A) (A) (A) (A) (A) (A) (A) (A) (A)
                 (A) (A) (A) (A) (A) (A) (A) (A) (A) (A) (A) (A)
                 (A) (A) (A) (A)
       Virtual   (A) (A) (A) (A) (A) (A) (A) (A) (A) (A) (A) (A)
                 (A) (A) (A) (A) (A) (A) (A) (A) (A) (A) (A) (A)
                 (A) (A) (A) (A) (A) (A) (A) (A) (A) (A) (A) (A)
                 (A) (A) (A) (A) (A) (A) (A) (A) (A) (A) (A) (A)
                 (A) (A) (A) (A) (A) (A) (A) (A) (A) (A) (A) (A)
                 (A) (A) (A) (A) (A) (A) (A) (A) (A) (A) (A) (A)
                 (A) (A) (A) (A) (A) (A) (A) (A) (A) (A) (A) (A)
                 (A) (A) (A) (A) (A) (A) (A) (A) (A) (A) (A) (A)
                 (A) (A) (A) (A) (A) (A) (A) (A) (A) (A) (A) (A)
                 (A) (A) (A) (A) (A) (A) (A) (A) (A) (A) (A) (A)
                 (A) (A) (A) (A) (A) (A) (A) (A) (A) (A) (A) (A)
                 (A) (A) (A) (A) (A) (A) (A) (A) (A) (A) (A) (A)
                 (A) (A) (A) (A) (A) (A) (A) (A) (A) (A) (A) (A)
                 (A) (A) (A) (A) (A) (A) (A) (A) (A) (A) (A) (A)
                 (A) (A) (A) (A) (A) (A) (A) (A) (A) (A) (A) (A)
                 (A) (A) (A) (A) (A) (A) (A) (A) (A) (A) (A) (A)
                 (A) (A) (A) (A) (A) (A) (A) (A) (A) (A) (A) (A)
                 (A) (A) (A) (A) (A) (A) (A) (A) (A) (A) (A) (A)
                 (A) (A) (A) (A) (A) (A) (A) (A) (A) (A) (A) (A)
                 (A) (A) (A) (A) (A) (A) (A) (A) (A) (A) (A) (A)
                 (A) (A) (A) (A) (A) (A) (A) (A) (A) (A) (A) (A)
                 (A) (A) (A) (A) (A) (A) (A) (A) (A) (A) (A) (A)
                 (A) (A) (A) (A) (A) (A) (A) (A) (A) (A) (A) (A)
                 (A) (A) (A) (A) (A) (A) (A) (A) (A) (A) (A) (A)
                 (A) (A) (A) (A) (A) (A) (A) (A) (A) (A) (A) (A)
                 (A) (A) (A) (A) (A) (A) (A) (A) (A) (A) (A) (A)
                 (A) (A) (A) (A) (A) (A) (A) (A) (A) (A) (A) (A)
                 (A) (A) (A) (A) (A) (A) (A) (A) (A) (A) (A) (A)
                 (A) (A) (A) (A) (A) (A) (A) (A) (A) (A) (A) (A)
                 (A) (A) (A) (A) (A) (A) (A) (A) (A) (A) (A) (A)
                 (A) (A) (A) (A) (A) (A) (A) (A) (A) (A) (A) (A)
                 (A) (A) (A) (A) (A) (A) (A) (A) (A) (A) (A) (A)
                 (A) (A) (A) (A) (A) (A) (A) (A) (A) (A) (A) (A)
                 (A) (A) (A) (A) (A) (A) (A) (A) (A) (A) (A) (A)
                 (A) (A) (A) (A) (A) (A) (A) (A) (A) (A) (A) (A)
                 (A) (A) (A) (A) (A) (A) (A) (A) (A) (A) (A) (A)
                 (A) (A) (A) (A) (A) (A) (A) (A) (A) (A) (A) (A)
                 (A) (A) (A) (A) (A) (A) (A) (A) (A) (A) (A) (A)
                 (A) (A) (A) (A) (A) (A) (A) (A) (A) (A) (A) (A)
                 (A) (A) (A) (A) (A) (A) (A) (A) (A) (A) (A) (A)
                 (A) (A) (A) (A) (A) (A) (A) (A) (A) (A) (A) (A)
                 (A) (A) (A) (A) (A) (A) (A) (A) (A) (A) (A) (A)
                 (A) (A) (A) (A) (A) (A) (A) (A) (A) (A) (A) (A)
                 (A) (A) (A) (A) (A) (A) (A) (A) (A) (A) (A) (A)
                 (A) (A) (A) (A) (A) (A) (A) (A) (A) (A) (A) (A)
                 (A) (A) (A) (A) (A) (A) (A) (A) (A) (A) (A) (A)
                 (A) (A) (A) (A) (A) (A) (A) (A) (A) (A) (A) (A)
                 (A) (A) (A) (A) (A) (A) (A) (A) (A) (A) (A) (A)
                 (A) (A) (A) (A) (A) (A) (A) (A) (A) (A) (A) (A)
                 (A) (A) (A) (A) (A) (A) (A) (A) (A) (A) (A) (A)
                 (A) (A) (A) (A) (A) (A) (A) (A) (A) (A) (A) (A)
                 (A) (A) (A) (A) (A) (A) (A) (A) (A) (A) (A) (A)
                 (A) (A) (A) (A) (A) (A) (A) (A) (A) (A) (A) (A)
                 (A) (A) (A) (A) (A) (A) (A) (A) (A) (A) (A) (A)
                 (A) (A) (A) (A) (A) (A) (A) (A) (A) (A) (A) (A)
                 (A) (A) (A) (A) (A) (A) (A) (A) (A) (A) (A) (A)
                 (A) (A) (A) (A) (A) (A) (A) (A) (A) (A) (A) (A)
                 (A) (A) (A) (A) (A) (A) (A) (A) (A) (A) (A) (A)
                 (A) (A) (A) (A) (A) (A) (A) (A) (A) (A) (A) (A)
                 (A) (A) (A) (A) (A) (A) (A) (A) (A) (A) (A) (A)
                 (A) (A) (A) (A) (A) (A) (A) (A) (A) (A) (A) (A)
     4 initial guesses have been made.
 Convergence on wavefunction:    0.001000000000000
 Iteration     1 Dimension     4 NMult     0 NNew      4
 CISAX will form     4 AO SS matrices at one time.
 Iteration     2 Dimension     6 NMult     4 NNew      2
 Iteration     3 Dimension     8 NMult     6 NNew      2
 Iteration     4 Dimension    10 NMult     8 NNew      2
 Iteration     5 Dimension    12 NMult    10 NNew      2
 Iteration     6 Dimension    14 NMult    12 NNew      2
 Iteration     7 Dimension    16 NMult    14 NNew      2
 ***********************************************************************
 Excited states from <AA,BB:AA,BB> singles matrix:
 ***********************************************************************
 
 Ground to excited state transition densities written to RWF  633
 Ground to excited state transition electric dipole moments (Au):
       state          X           Y           Z        Dip. S.      Osc.
         1        -6.6865     -0.7340     -0.3234     45.3519      2.5131
 Ground to excited state transition velocity dipole moments (Au):
       state          X           Y           Z        Dip. S.      Osc.
         1         0.5383      0.0594      0.0267      0.2941      2.3585
 Ground to excited state transition magnetic dipole moments (Au):
       state          X           Y           Z
         1        -0.0223     -0.1614      0.9061
 Ground to excited state transition velocity quadrupole moments (Au):
       state          XX          YY          ZZ          XY          XZ          YZ
         1        -0.3247     -0.0518     -0.0094      0.2383      0.0117     -0.0088
 <0|del|b> * <b|rxdel|0> + <0|del|b> * <b|delr+rdel|0>
 Rotatory Strengths (R) in cgs (10**-40 erg-esu-cm/Gauss)
       state          XX          YY          ZZ    R(velocity)    E-M Angle
         1        86.3633      4.7946    -68.8058      7.4507       89.70
 1/2[<0|r|b>*<b|rxdel|0> + (<0|rxdel|b>*<b|r|0>)*]
 Rotatory Strengths (R) in cgs (10**-40 erg-esu-cm/Gauss)
       state          XX          YY          ZZ     R(length)
         1      -105.3908    -83.7777    207.2033      6.0116
  1/2[<0|del|b>*<b|r|0> + (<0|r|b>*<b|del|0>)*] (Au)
       state          X           Y           Z        Dip. S.   Osc.(frdel)
         1        -3.5996     -0.0436     -0.0086      3.6518      2.4346

 Excitation energies and oscillator strengths:
 
 Excited State   1:      Singlet-A      2.2618 eV  548.17 nm  f=2.5131  <S**2>=0.000
     148 ->149         0.70578
 This state for optimization and/or second-order correction.
 Total Energy, E(TD-HF/TD-DFT) =  -1557.40000463    
 Copying the excited state density for this state as the 1-particle RhoCI density.
 SavETr:  write IOETrn=   770 NScale= 10 NData=  16 NLR=1 NState=    1 LETran=      28.

 **********************************************************************

            Population analysis using the SCF density.

 **********************************************************************

 Orbital symmetries:
       Occupied  (A) (A) (A) (A) (A) (A) (A) (A) (A) (A) (A) (A)
                 (A) (A) (A) (A) (A) (A) (A) (A) (A) (A) (A) (A)
                 (A) (A) (A) (A) (A) (A) (A) (A) (A) (A) (A) (A)
                 (A) (A) (A) (A) (A) (A) (A) (A) (A) (A) (A) (A)
                 (A) (A) (A) (A) (A) (A) (A) (A) (A) (A) (A) (A)
                 (A) (A) (A) (A) (A) (A) (A) (A) (A) (A) (A) (A)
                 (A) (A) (A) (A) (A) (A) (A) (A) (A) (A) (A) (A)
                 (A) (A) (A) (A) (A) (A) (A) (A) (A) (A) (A) (A)
                 (A) (A) (A) (A) (A) (A) (A) (A) (A) (A) (A) (A)
                 (A) (A) (A) (A) (A) (A) (A) (A) (A) (A) (A) (A)
                 (A) (A) (A) (A) (A) (A) (A) (A) (A) (A) (A) (A)
                 (A) (A) (A) (A) (A) (A) (A) (A) (A) (A) (A) (A)
                 (A) (A) (A) (A)
       Virtual   (A) (A) (A) (A) (A) (A) (A) (A) (A) (A) (A) (A)
                 (A) (A) (A) (A) (A) (A) (A) (A) (A) (A) (A) (A)
                 (A) (A) (A) (A) (A) (A) (A) (A) (A) (A) (A) (A)
                 (A) (A) (A) (A) (A) (A) (A) (A) (A) (A) (A) (A)
                 (A) (A) (A) (A) (A) (A) (A) (A) (A) (A) (A) (A)
                 (A) (A) (A) (A) (A) (A) (A) (A) (A) (A) (A) (A)
                 (A) (A) (A) (A) (A) (A) (A) (A) (A) (A) (A) (A)
                 (A) (A) (A) (A) (A) (A) (A) (A) (A) (A) (A) (A)
                 (A) (A) (A) (A) (A) (A) (A) (A) (A) (A) (A) (A)
                 (A) (A) (A) (A) (A) (A) (A) (A) (A) (A) (A) (A)
                 (A) (A) (A) (A) (A) (A) (A) (A) (A) (A) (A) (A)
                 (A) (A) (A) (A) (A) (A) (A) (A) (A) (A) (A) (A)
                 (A) (A) (A) (A) (A) (A) (A) (A) (A) (A) (A) (A)
                 (A) (A) (A) (A) (A) (A) (A) (A) (A) (A) (A) (A)
                 (A) (A) (A) (A) (A) (A) (A) (A) (A) (A) (A) (A)
                 (A) (A) (A) (A) (A) (A) (A) (A) (A) (A) (A) (A)
                 (A) (A) (A) (A) (A) (A) (A) (A) (A) (A) (A) (A)
                 (A) (A) (A) (A) (A) (A) (A) (A) (A) (A) (A) (A)
                 (A) (A) (A) (A) (A) (A) (A) (A) (A) (A) (A) (A)
                 (A) (A) (A) (A) (A) (A) (A) (A) (A) (A) (A) (A)
                 (A) (A) (A) (A) (A) (A) (A) (A) (A) (A) (A) (A)
                 (A) (A) (A) (A) (A) (A) (A) (A) (A) (A) (A) (A)
                 (A) (A) (A) (A) (A) (A) (A) (A) (A) (A) (A) (A)
                 (A) (A) (A) (A) (A) (A) (A) (A) (A) (A) (A) (A)
                 (A) (A) (A) (A) (A) (A) (A) (A) (A) (A) (A) (A)
                 (A) (A) (A) (A) (A) (A) (A) (A) (A) (A) (A) (A)
                 (A) (A) (A) (A) (A) (A) (A) (A) (A) (A) (A) (A)
                 (A) (A) (A) (A) (A) (A) (A) (A) (A) (A) (A) (A)
                 (A) (A) (A) (A) (A) (A) (A) (A) (A) (A) (A) (A)
                 (A) (A) (A) (A) (A) (A) (A) (A) (A) (A) (A) (A)
                 (A) (A) (A) (A) (A) (A) (A) (A) (A) (A) (A) (A)
                 (A) (A) (A) (A) (A) (A) (A) (A) (A) (A) (A) (A)
                 (A) (A) (A) (A) (A) (A) (A) (A) (A) (A) (A) (A)
                 (A) (A) (A) (A) (A) (A) (A) (A) (A) (A) (A) (A)
                 (A) (A) (A) (A) (A) (A) (A) (A) (A) (A) (A) (A)
                 (A) (A) (A) (A) (A) (A) (A) (A) (A) (A) (A) (A)
                 (A) (A) (A) (A) (A) (A) (A) (A) (A) (A) (A) (A)
                 (A) (A) (A) (A) (A) (A) (A) (A) (A) (A) (A) (A)
                 (A) (A) (A) (A) (A) (A) (A) (A) (A) (A) (A) (A)
                 (A) (A) (A) (A) (A) (A) (A) (A) (A) (A) (A) (A)
                 (A) (A) (A) (A) (A) (A) (A) (A) (A) (A) (A) (A)
                 (A) (A) (A) (A) (A) (A) (A) (A) (A) (A) (A) (A)
                 (A) (A) (A) (A) (A) (A) (A) (A) (A) (A) (A) (A)
                 (A) (A) (A) (A) (A) (A) (A) (A) (A) (A) (A) (A)
                 (A) (A) (A) (A) (A) (A) (A) (A) (A) (A) (A) (A)
                 (A) (A) (A) (A) (A) (A) (A) (A) (A) (A) (A) (A)
                 (A) (A) (A) (A) (A) (A) (A) (A) (A) (A) (A) (A)
                 (A) (A) (A) (A) (A) (A) (A) (A) (A) (A) (A) (A)
                 (A) (A) (A) (A) (A) (A) (A) (A) (A) (A) (A) (A)
                 (A) (A) (A) (A) (A) (A) (A) (A) (A) (A) (A) (A)
                 (A) (A) (A) (A) (A) (A) (A) (A) (A) (A) (A) (A)
                 (A) (A) (A) (A) (A) (A) (A) (A) (A) (A) (A) (A)
                 (A) (A) (A) (A) (A) (A) (A) (A) (A) (A) (A) (A)
                 (A) (A) (A) (A) (A) (A) (A) (A) (A) (A) (A) (A)
                 (A) (A) (A) (A) (A) (A) (A) (A) (A) (A) (A) (A)
                 (A) (A) (A) (A) (A) (A) (A) (A) (A) (A) (A) (A)
                 (A) (A) (A) (A) (A) (A) (A) (A) (A) (A) (A) (A)
                 (A) (A) (A) (A) (A) (A) (A) (A) (A) (A) (A) (A)
                 (A) (A) (A) (A) (A) (A) (A) (A) (A) (A) (A) (A)
                 (A) (A) (A) (A) (A) (A) (A) (A) (A) (A) (A) (A)
                 (A) (A) (A) (A) (A) (A) (A) (A) (A) (A) (A) (A)
 The electronic state is 1-A.
 Alpha  occ. eigenvalues --  -10.21476 -10.20950 -10.20875 -10.20676 -10.20635
 Alpha  occ. eigenvalues --  -10.20501 -10.20471 -10.20338 -10.20295 -10.20172
 Alpha  occ. eigenvalues --  -10.19914 -10.19758 -10.19494 -10.19374 -10.19359
 Alpha  occ. eigenvalues --  -10.19332 -10.19177 -10.19078 -10.18977 -10.18958
 Alpha  occ. eigenvalues --  -10.18898 -10.18756 -10.18728 -10.18620 -10.18582
 Alpha  occ. eigenvalues --  -10.18498 -10.18425 -10.18132 -10.18008 -10.17957
 Alpha  occ. eigenvalues --  -10.17897 -10.17773 -10.17757 -10.17745 -10.17511
 Alpha  occ. eigenvalues --  -10.17324 -10.17191 -10.16775 -10.16313 -10.14995
 Alpha  occ. eigenvalues --   -0.85619  -0.84617  -0.83376  -0.83263  -0.81941
 Alpha  occ. eigenvalues --   -0.81167  -0.79106  -0.78656  -0.78359  -0.77464
 Alpha  occ. eigenvalues --   -0.76571  -0.75606  -0.74400  -0.72048  -0.71663
 Alpha  occ. eigenvalues --   -0.69425  -0.68900  -0.68448  -0.68188  -0.67978
 Alpha  occ. eigenvalues --   -0.67593  -0.67462  -0.66488  -0.66069  -0.65441
 Alpha  occ. eigenvalues --   -0.62323  -0.61668  -0.58881  -0.58347  -0.57114
 Alpha  occ. eigenvalues --   -0.56641  -0.55631  -0.55279  -0.54063  -0.53150
 Alpha  occ. eigenvalues --   -0.52195  -0.51329  -0.50122  -0.49311  -0.49037
 Alpha  occ. eigenvalues --   -0.48654  -0.47579  -0.47408  -0.46712  -0.46522
 Alpha  occ. eigenvalues --   -0.46157  -0.45043  -0.44661  -0.44079  -0.43379
 Alpha  occ. eigenvalues --   -0.43114  -0.42751  -0.42436  -0.42219  -0.42065
 Alpha  occ. eigenvalues --   -0.41949  -0.41497  -0.41362  -0.41260  -0.40515
 Alpha  occ. eigenvalues --   -0.40376  -0.40190  -0.40095  -0.39953  -0.39720
 Alpha  occ. eigenvalues --   -0.39403  -0.38953  -0.38537  -0.38501  -0.37892
 Alpha  occ. eigenvalues --   -0.37848  -0.37666  -0.37360  -0.37228  -0.36219
 Alpha  occ. eigenvalues --   -0.35851  -0.35443  -0.35282  -0.35058  -0.34975
 Alpha  occ. eigenvalues --   -0.34605  -0.34510  -0.34261  -0.33878  -0.33659
 Alpha  occ. eigenvalues --   -0.33241  -0.33099  -0.32850  -0.32399  -0.32222
 Alpha  occ. eigenvalues --   -0.31915  -0.31653  -0.31457  -0.31026  -0.30818
 Alpha  occ. eigenvalues --   -0.30537  -0.30038  -0.29518  -0.28507  -0.28142
 Alpha  occ. eigenvalues --   -0.27004  -0.26861  -0.25593  -0.24376  -0.23159
 Alpha  occ. eigenvalues --   -0.21746  -0.18897  -0.16717
 Alpha virt. eigenvalues --   -0.07935  -0.05703  -0.01402   0.00972   0.02969
 Alpha virt. eigenvalues --    0.04016   0.04844   0.05517   0.05963   0.06363
 Alpha virt. eigenvalues --    0.06765   0.07335   0.07469   0.07651   0.09081
 Alpha virt. eigenvalues --    0.09403   0.09588   0.09713   0.10002   0.10594
 Alpha virt. eigenvalues --    0.10687   0.11007   0.11401   0.11615   0.11696
 Alpha virt. eigenvalues --    0.11984   0.12496   0.12753   0.12854   0.12999
 Alpha virt. eigenvalues --    0.13423   0.13593   0.13848   0.14158   0.14787
 Alpha virt. eigenvalues --    0.14957   0.15136   0.15429   0.15455   0.15664
 Alpha virt. eigenvalues --    0.15852   0.16213   0.16319   0.16521   0.17041
 Alpha virt. eigenvalues --    0.17167   0.17650   0.17762   0.17816   0.17873
 Alpha virt. eigenvalues --    0.17958   0.18379   0.18635   0.18811   0.19064
 Alpha virt. eigenvalues --    0.19508   0.20009   0.20304   0.20639   0.20723
 Alpha virt. eigenvalues --    0.21039   0.21116   0.21496   0.22112   0.22168
 Alpha virt. eigenvalues --    0.22473   0.22512   0.23134   0.23595   0.23770
 Alpha virt. eigenvalues --    0.24046   0.24808   0.25100   0.25211   0.25372
 Alpha virt. eigenvalues --    0.25764   0.26041   0.26206   0.26267   0.26645
 Alpha virt. eigenvalues --    0.26858   0.28231   0.28479   0.28761   0.29230
 Alpha virt. eigenvalues --    0.29467   0.29658   0.30904   0.31954   0.33125
 Alpha virt. eigenvalues --    0.34204   0.34705   0.35672   0.36619   0.37407
 Alpha virt. eigenvalues --    0.37722   0.39253   0.39848   0.40389   0.41015
 Alpha virt. eigenvalues --    0.41729   0.43189   0.43474   0.44849   0.45694
 Alpha virt. eigenvalues --    0.47750   0.48047   0.48599   0.48941   0.49130
 Alpha virt. eigenvalues --    0.49788   0.50268   0.50448   0.50877   0.51423
 Alpha virt. eigenvalues --    0.51429   0.51765   0.52145   0.52402   0.52749
 Alpha virt. eigenvalues --    0.53459   0.53833   0.54383   0.54853   0.55142
 Alpha virt. eigenvalues --    0.55480   0.55798   0.55943   0.56222   0.56761
 Alpha virt. eigenvalues --    0.56973   0.56994   0.57354   0.57938   0.58332
 Alpha virt. eigenvalues --    0.58743   0.58829   0.59232   0.59547   0.59593
 Alpha virt. eigenvalues --    0.59636   0.60100   0.60466   0.60787   0.61377
 Alpha virt. eigenvalues --    0.61690   0.62147   0.62198   0.62417   0.62532
 Alpha virt. eigenvalues --    0.62906   0.63188   0.64053   0.64299   0.64589
 Alpha virt. eigenvalues --    0.64916   0.65444   0.65777   0.65866   0.66166
 Alpha virt. eigenvalues --    0.66775   0.66838   0.67385   0.67847   0.68099
 Alpha virt. eigenvalues --    0.68588   0.69005   0.69148   0.69491   0.69641
 Alpha virt. eigenvalues --    0.70080   0.70432   0.71469   0.71555   0.71777
 Alpha virt. eigenvalues --    0.72155   0.72539   0.72919   0.73708   0.74028
 Alpha virt. eigenvalues --    0.74311   0.74434   0.74765   0.75101   0.75530
 Alpha virt. eigenvalues --    0.75867   0.76160   0.76279   0.76466   0.77208
 Alpha virt. eigenvalues --    0.77325   0.77893   0.78127   0.78380   0.78439
 Alpha virt. eigenvalues --    0.78822   0.79379   0.79575   0.79788   0.79879
 Alpha virt. eigenvalues --    0.80803   0.81221   0.81360   0.81794   0.81879
 Alpha virt. eigenvalues --    0.82309   0.82675   0.82959   0.83006   0.83229
 Alpha virt. eigenvalues --    0.83782   0.84425   0.84760   0.84943   0.85170
 Alpha virt. eigenvalues --    0.85520   0.85681   0.86110   0.86251   0.86343
 Alpha virt. eigenvalues --    0.86814   0.86863   0.87316   0.87435   0.87600
 Alpha virt. eigenvalues --    0.87827   0.88094   0.88724   0.89361   0.89467
 Alpha virt. eigenvalues --    0.89555   0.89628   0.90027   0.90166   0.90491
 Alpha virt. eigenvalues --    0.90685   0.90723   0.91029   0.91816   0.92434
 Alpha virt. eigenvalues --    0.92641   0.93139   0.93379   0.93464   0.93840
 Alpha virt. eigenvalues --    0.93971   0.94615   0.95146   0.95587   0.95834
 Alpha virt. eigenvalues --    0.96155   0.96475   0.96589   0.96692   0.97588
 Alpha virt. eigenvalues --    0.98048   0.98353   0.98890   0.99813   0.99982
 Alpha virt. eigenvalues --    1.00249   1.01528   1.01681   1.02169   1.02869
 Alpha virt. eigenvalues --    1.03348   1.03529   1.04005   1.04389   1.04641
 Alpha virt. eigenvalues --    1.05038   1.05775   1.06184   1.06620   1.07747
 Alpha virt. eigenvalues --    1.08331   1.08471   1.08507   1.09409   1.11044
 Alpha virt. eigenvalues --    1.11226   1.12072   1.12649   1.14507   1.15120
 Alpha virt. eigenvalues --    1.16214   1.18045   1.18420   1.18934   1.20102
 Alpha virt. eigenvalues --    1.21027   1.21636   1.21833   1.22678   1.23591
 Alpha virt. eigenvalues --    1.24538   1.24859   1.25721   1.26045   1.27486
 Alpha virt. eigenvalues --    1.28071   1.28401   1.29503   1.31117   1.32220
 Alpha virt. eigenvalues --    1.32447   1.32781   1.33396   1.34335   1.34594
 Alpha virt. eigenvalues --    1.35807   1.37017   1.37403   1.37852   1.38062
 Alpha virt. eigenvalues --    1.38546   1.39641   1.40045   1.40433   1.41245
 Alpha virt. eigenvalues --    1.41671   1.42086   1.42817   1.43521   1.44281
 Alpha virt. eigenvalues --    1.45337   1.45698   1.46944   1.47104   1.49208
 Alpha virt. eigenvalues --    1.49552   1.49637   1.50701   1.50796   1.51617
 Alpha virt. eigenvalues --    1.53270   1.54410   1.54896   1.56356   1.57015
 Alpha virt. eigenvalues --    1.59026   1.59609   1.59792   1.60266   1.60644
 Alpha virt. eigenvalues --    1.60862   1.61563   1.62456   1.64510   1.65320
 Alpha virt. eigenvalues --    1.65519   1.66436   1.66753   1.68783   1.69058
 Alpha virt. eigenvalues --    1.69764   1.70981   1.71252   1.71503   1.72806
 Alpha virt. eigenvalues --    1.72881   1.74052   1.74528   1.74804   1.75721
 Alpha virt. eigenvalues --    1.76241   1.76398   1.76622   1.76901   1.77172
 Alpha virt. eigenvalues --    1.77618   1.77877   1.78478   1.78771   1.78865
 Alpha virt. eigenvalues --    1.79475   1.79543   1.79981   1.80361   1.80594
 Alpha virt. eigenvalues --    1.81163   1.82584   1.82702   1.83198   1.83580
 Alpha virt. eigenvalues --    1.83741   1.84564   1.85098   1.85574   1.86059
 Alpha virt. eigenvalues --    1.86254   1.86638   1.87151   1.87690   1.87816
 Alpha virt. eigenvalues --    1.88186   1.88429   1.88919   1.89427   1.89898
 Alpha virt. eigenvalues --    1.90167   1.90689   1.91370   1.91440   1.92029
 Alpha virt. eigenvalues --    1.92344   1.93226   1.93372   1.93927   1.93974
 Alpha virt. eigenvalues --    1.94100   1.94359   1.94708   1.95234   1.95935
 Alpha virt. eigenvalues --    1.96889   1.97672   1.97951   1.98185   1.98686
 Alpha virt. eigenvalues --    1.98982   1.99244   1.99574   1.99953   2.00389
 Alpha virt. eigenvalues --    2.01327   2.01924   2.02432   2.02908   2.03367
 Alpha virt. eigenvalues --    2.03627   2.03998   2.04379   2.04782   2.04938
 Alpha virt. eigenvalues --    2.05596   2.05826   2.06026   2.06425   2.06751
 Alpha virt. eigenvalues --    2.07328   2.07492   2.07850   2.08382   2.08952
 Alpha virt. eigenvalues --    2.09288   2.09828   2.10045   2.10268   2.10621
 Alpha virt. eigenvalues --    2.11215   2.11513   2.13004   2.13198   2.13335
 Alpha virt. eigenvalues --    2.13942   2.15027   2.15177   2.15346   2.15697
 Alpha virt. eigenvalues --    2.16975   2.17211   2.17680   2.18219   2.18803
 Alpha virt. eigenvalues --    2.19143   2.20221   2.20289   2.20353   2.21318
 Alpha virt. eigenvalues --    2.22176   2.22337   2.22940   2.24088   2.24313
 Alpha virt. eigenvalues --    2.24669   2.25196   2.25616   2.26318   2.26622
 Alpha virt. eigenvalues --    2.26887   2.27920   2.28018   2.28249   2.28527
 Alpha virt. eigenvalues --    2.29364   2.29516   2.29996   2.30790   2.31098
 Alpha virt. eigenvalues --    2.31909   2.32242   2.32358   2.32766   2.32870
 Alpha virt. eigenvalues --    2.33990   2.34258   2.34776   2.35090   2.35424
 Alpha virt. eigenvalues --    2.36104   2.36435   2.36660   2.36909   2.37080
 Alpha virt. eigenvalues --    2.37425   2.37928   2.38993   2.39713   2.39772
 Alpha virt. eigenvalues --    2.40256   2.40624   2.41395   2.41700   2.42011
 Alpha virt. eigenvalues --    2.42385   2.42585   2.43180   2.43606   2.43987
 Alpha virt. eigenvalues --    2.44169   2.45460   2.45911   2.46486   2.47067
 Alpha virt. eigenvalues --    2.47381   2.48014   2.48097   2.48531   2.49350
 Alpha virt. eigenvalues --    2.49936   2.50049   2.50445   2.50905   2.51718
 Alpha virt. eigenvalues --    2.52144   2.53075   2.53517   2.53870   2.54334
 Alpha virt. eigenvalues --    2.54910   2.55964   2.56099   2.56648   2.56847
 Alpha virt. eigenvalues --    2.57173   2.57241   2.57856   2.58054   2.58949
 Alpha virt. eigenvalues --    2.59333   2.60044   2.60289   2.60324   2.61184
 Alpha virt. eigenvalues --    2.61880   2.62319   2.62739   2.63399   2.63573
 Alpha virt. eigenvalues --    2.64126   2.64376   2.64729   2.65383   2.66368
 Alpha virt. eigenvalues --    2.66831   2.67233   2.67971   2.68488   2.69023
 Alpha virt. eigenvalues --    2.69240   2.69478   2.69646   2.70270   2.71427
 Alpha virt. eigenvalues --    2.71664   2.71792   2.72203   2.72575   2.72715
 Alpha virt. eigenvalues --    2.73748   2.73833   2.74534   2.74649   2.75507
 Alpha virt. eigenvalues --    2.75706   2.76216   2.76719   2.77284   2.77470
 Alpha virt. eigenvalues --    2.77925   2.78413   2.78997   2.79721   2.79978
 Alpha virt. eigenvalues --    2.80539   2.80899   2.81787   2.82234   2.83119
 Alpha virt. eigenvalues --    2.83382   2.84178   2.84424   2.84863   2.84996
 Alpha virt. eigenvalues --    2.86011   2.87910   2.88453   2.89458   2.89773
 Alpha virt. eigenvalues --    2.90191   2.90344   2.91587   2.91884   2.92870
 Alpha virt. eigenvalues --    2.93662   2.94090   2.95423   2.95881   2.96297
 Alpha virt. eigenvalues --    2.97409   2.97657   2.98426   2.99039   2.99345
 Alpha virt. eigenvalues --    3.01370   3.02139   3.02629   3.03939   3.06462
 Alpha virt. eigenvalues --    3.06855   3.08471   3.08647   3.09156   3.10423
 Alpha virt. eigenvalues --    3.10820   3.11616   3.12121   3.12672   3.14909
 Alpha virt. eigenvalues --    3.15407   3.16108   3.17064   3.19400   3.19603
 Alpha virt. eigenvalues --    3.20986   3.21918   3.22745   3.23312   3.27060
 Alpha virt. eigenvalues --    3.27989   3.28195   3.28706   3.28799   3.29635
 Alpha virt. eigenvalues --    3.30654   3.32210   3.32354   3.32840   3.33966
 Alpha virt. eigenvalues --    3.34820   3.35419   3.37597   3.39458   3.41383
 Alpha virt. eigenvalues --    3.41485   3.43190   3.43459   3.46242   3.46615
 Alpha virt. eigenvalues --    3.47007   3.48062   3.48150   3.48414   3.48596
 Alpha virt. eigenvalues --    3.49403   3.50642   3.51513   3.52989   3.54034
 Alpha virt. eigenvalues --    3.56384   3.57026   3.57862   3.61381   3.62396
 Alpha virt. eigenvalues --    3.63925   3.64258   3.66300   3.67582   3.68853
 Alpha virt. eigenvalues --    3.71352   3.92147   4.08379   4.10418   4.12097
 Alpha virt. eigenvalues --    4.13914   4.16194   4.19401   4.20122   4.21019
 Alpha virt. eigenvalues --    4.21928   4.24388   4.28296   4.29719   4.31812
 Alpha virt. eigenvalues --    4.33408   4.35882   4.37835   4.38993   4.40461
 Alpha virt. eigenvalues --    4.41045   4.44870   4.47123   4.47314   4.48497
 Alpha virt. eigenvalues --    4.49616   4.51060   4.54728   4.55472   4.55630
 Alpha virt. eigenvalues --    4.61118   4.62390   4.63141   4.64915   4.66543
 Alpha virt. eigenvalues --    4.70649   4.71913   4.75288   4.77410   4.78696
 Alpha virt. eigenvalues --    4.81447   4.82241
          Condensed to atoms (all electrons):
 Mulliken charges:
               1
     1  C    0.011038
     2  C   -0.017318
     3  C   -0.168748
     4  C   -0.145957
     5  C   -0.188641
     6  C   -0.179599
     7  C    0.088572
     8  C    0.076877
     9  C   -0.213141
    10  C   -0.212523
    11  C    0.016615
    12  C    0.090934
    13  C   -0.291398
    14  C   -0.315775
    15  C   -0.307339
    16  C   -0.308225
    17  C   -0.154649
    18  C   -0.175047
    19  C   -0.342208
    20  C   -0.367905
    21  C   -0.056568
    22  C   -0.072784
    23  C    0.097584
    24  C    0.151309
    25  C   -0.366283
    26  C   -0.377898
    27  C   -0.085789
    28  C   -0.145308
    29  C   -0.066952
    30  C   -0.059477
    31  C   -0.089084
    32  C   -0.105744
    33  C    0.125359
    34  C    0.119528
    35  C   -0.370872
    36  C   -0.373401
    37  C   -0.146697
    38  C   -0.121653
    39  C   -0.070686
    40  C   -0.097418
    41  H    0.096365
    42  H    0.054891
    43  H    0.077490
    44  H    0.091787
    45  H    0.101607
    46  H    0.097765
    47  H    0.083656
    48  H    0.103884
    49  H    0.090774
    50  H    0.102826
    51  H    0.090046
    52  H    0.062191
    53  H    0.096277
    54  H    0.111635
    55  H    0.091460
    56  H    0.106683
    57  H    0.082508
    58  H    0.100064
    59  H    0.109633
    60  H    0.105929
    61  H    0.100660
    62  H    0.099341
    63  H    0.119608
    64  H    0.078274
    65  H    0.081988
    66  H    0.082366
    67  H    0.123296
    68  H    0.107554
    69  H    0.096351
    70  H    0.103330
    71  H    0.103963
    72  H    0.099703
    73  H    0.076508
    74  H    0.075593
    75  H    0.130432
    76  H    0.085267
    77  H    0.103389
    78  H    0.112334
    79  H    0.117935
    80  H    0.075687
    81  H    0.052402
    82  H    0.074094
    83  H    0.057125
    84  H    0.081963
    85  H    0.079029
    86  H    0.087774
    87  H    0.083782
    88  H    0.116694
    89  H    0.118464
    90  H    0.094417
    91  H    0.117761
    92  H    0.122391
    93  H    0.097950
    94  H    0.068380
    95  H    0.086475
    96  H    0.047523
 Sum of Mulliken charges =  -0.00000
 Mulliken charges with hydrogens summed into heavy atoms:
               1
     1  C    0.011038
     2  C   -0.017318
     3  C   -0.017492
     4  C    0.023320
     5  C    0.010731
     6  C    0.007940
     7  C    0.088572
     8  C    0.076877
     9  C   -0.019541
    10  C   -0.060286
    11  C    0.016615
    12  C    0.090934
    13  C    0.007974
    14  C   -0.026520
    15  C    0.008883
    16  C   -0.011003
    17  C   -0.072661
    18  C   -0.092681
    19  C   -0.015007
    20  C   -0.060909
    21  C    0.019940
    22  C    0.002809
    23  C    0.097584
    24  C    0.151309
    25  C   -0.047195
    26  C   -0.071942
    27  C   -0.033387
    28  C   -0.071214
    29  C   -0.009827
    30  C    0.022486
    31  C   -0.010055
    32  C   -0.017969
    33  C    0.125359
    34  C    0.119528
    35  C   -0.051933
    36  C   -0.038832
    37  C   -0.048747
    38  C   -0.053274
    39  C    0.015789
    40  C   -0.049895
 Electronic spatial extent (au):  <R**2>=          95124.7121
 Charge=             -0.0000 electrons
 Dipole moment (field-independent basis, Debye):
    X=              1.2072    Y=             -0.3474    Z=              0.0249  Tot=              1.2564
 Quadrupole moment (field-independent basis, Debye-Ang):
   XX=           -219.2546   YY=           -236.3989   ZZ=           -254.3803
   XY=              0.5215   XZ=              6.6139   YZ=              3.7468
 Traceless Quadrupole moment (field-independent basis, Debye-Ang):
   XX=             17.4233   YY=              0.2791   ZZ=            -17.7024
   XY=              0.5215   XZ=              6.6139   YZ=              3.7468
 Octapole moment (field-independent basis, Debye-Ang**2):
  XXX=            104.8058  YYY=            -17.5910  ZZZ=              5.1549  XYY=             23.0118
  XXY=            -77.6232  XXZ=             66.3413  XZZ=              4.4231  YZZ=              2.6940
  YYZ=             -2.2613  XYZ=             -5.2910
 Hexadecapole moment (field-independent basis, Debye-Ang**3):
 XXXX=        -122508.9141 YYYY=          -4507.5593 ZZZZ=          -1598.2259 XXXY=            147.0604
 XXXZ=            980.1874 YYYX=             93.9887 YYYZ=             48.4791 ZZZX=             20.6830
 ZZZY=            -11.3129 XXYY=         -21517.1960 XXZZ=         -21486.6868 YYZZ=          -1022.9285
 XXYZ=             27.1516 YYXZ=             41.8438 ZZXY=              0.7218
 N-N= 3.672122438781D+03 E-N=-1.094397564114D+04  KE= 1.540911642711D+03
 1\1\GINC-RYZEN-SSD1\SP\RB3LYP TD-FC\6-31G(d,p)\C40H56\PADAWAN\23-Jul-2
 019\0\\# td=(NStates=1) B3LYP/6-31G(d,p)\\TD\\0,1\C,0,12.0365579984,0.
 4911197125,-0.7580919281\C,0,-12.1471170258,-0.0032453661,0.8809872776
 \C,0,13.3896183745,-0.1952091809,-0.6587518742\C,0,-13.0094274426,1.25
 11995115,1.2185125657\C,0,13.1779301072,-1.7497106435,-0.600201779\C,0
 ,-13.3273873348,2.1959181039,0.1377941465\C,0,11.0464064345,-0.0176775
 033,0.3133988777\C,0,-11.041051773,0.4393838207,-0.0969673315\C,0,12.4
 570201394,-2.0174540394,0.7145054268\C,0,-11.9710769903,2.7269029985,-
 0.3785761935\C,0,11.200979806,-1.0939214466,0.9584424126\C,0,-10.89168
 39626,1.6192875506,-0.6708559593\C,0,11.4889294806,0.4323843635,-2.155
 234002\C,0,12.3909725107,1.9636904241,-0.5067221912\C,0,-13.1253301238
 ,-0.9778449032,0.0965534852\C,0,-11.5808569537,-0.7262958032,2.1755557
 038\C,0,9.8902770903,0.879274041,0.4932313236\C,0,-9.9250023071,-0.674
 0099431,-0.3092050083\C,0,10.2351876951,-1.6954693586,2.0533879737\C,0
 ,-10.0098839586,2.0597377129,-1.7205235173\C,0,8.6125774974,0.46915687
 19,0.3083390401\C,0,-8.5912220806,-0.466696535,-0.243090632\C,0,7.4400
 025685,1.3141402143,0.4734699596\C,0,-7.5542743213,-1.3700954846,-0.41
 33217291\C,0,7.596212671,2.7208247197,0.7648189189\C,0,-7.9652637146,-
 2.7277927904,-0.7256798456\C,0,6.1463585374,0.7136557546,0.1534074997\
 C,0,-6.2149701069,-1.036624485,-0.3415162633\C,0,4.8518558363,1.308633
 1952,0.2853881978\C,0,-5.0325028621,-1.8291688947,-0.4540567873\C,0,3.
 6903577474,0.7413817034,0.1004419935\C,0,-3.8344188271,-1.1364342761,-
 0.3261350512\C,0,2.3996832697,1.2934100487,0.3079252804\C,0,-2.5419231
 917,-1.9094660053,-0.4242657067\C,0,2.2301573873,2.8409434608,0.596694
 0427\C,0,-2.3929098364,-3.3867922057,-0.5828796381\C,0,1.1925107996,0.
 6198133229,0.149569874\C,0,-1.3831364867,-1.0935279248,-0.2651052156\C
 ,0,1.135997972,-0.8199769449,-0.1460721269\C,0,0.0270032399,-1.5276690
 067,-0.2815319092\H,0,14.1411942252,0.1415865882,0.0887969226\H,0,13.8
 613331471,-0.0546938451,-1.7925727957\H,0,-12.3220785729,1.8431367039,
 1.984742039\H,0,-13.731444002,0.7684063329,1.727349173\H,0,13.98920954
 3,-2.3524760653,-0.3131347593\H,0,12.5204779295,-2.0444883488,-1.43964
 00873\H,0,-13.8228656748,3.1866820282,0.5636974073\H,0,-13.875352319,1
 .8657362478,-0.7599800201\H,0,13.1186538292,-1.8508775944,1.6633482168
 \H,0,12.074784933,-2.9401777099,0.6074576014\H,0,-11.6323330254,3.5175
 494756,0.4406405811\H,0,-11.9556317771,3.0544889567,-1.5755014513\H,0,
 11.4387572462,-0.5885419315,-2.4426123939\H,0,12.0970765884,0.96839150
 05,-2.7968762616\H,0,10.4389514664,0.9841515269,-2.2509658161\H,0,12.4
 239733514,2.2780547074,0.478365177\H,0,11.5987882857,2.6511750284,-0.9
 265568127\H,0,13.2957014264,2.2839086608,-1.0292651976\H,0,-13.4249417
 249,-0.4963436434,-0.7515912598\H,0,-13.822234396,-1.319947799,0.71630
 88516\H,0,-12.805998203,-1.8443728422,-0.3611219947\H,0,-10.8692094118
 ,-0.1464502844,2.8222618853\H,0,-11.0714336688,-1.623943395,2.18511252
 75\H,0,-12.5342074847,-0.6733117991,2.8500435325\H,0,9.9790913157,1.95
 30901691,0.8852744353\H,0,-10.3094053852,-1.6927043804,-0.5694333213\H
 ,0,9.5262166992,-0.9591135061,2.3416179194\H,0,10.7577765918,-2.140440
 2419,2.9312345535\H,0,9.8709591631,-2.6246723172,1.3994895706\H,0,-9.1
 724242777,1.216383951,-1.8312256195\H,0,-9.5784426492,3.1293264546,-1.
 5048105273\H,0,-10.5902192869,2.2531703224,-2.7420141747\H,0,8.5659321
 84,-0.5106618464,0.0400670563\H,0,-8.1991633115,0.5165258467,-0.051018
 7544\H,0,8.2052537575,2.7816932052,1.6212915117\H,0,6.6575976405,3.198
 347539,1.3708096607\H,0,7.883332571,3.5598546475,-0.1558688098\H,0,-8.
 4096519174,-2.9465917183,-1.7536620598\H,0,-8.7213631246,-3.0269158789
 ,0.0181479541\H,0,-6.9334578984,-3.347327384,-0.9572746127\H,0,6.14605
 547,-0.2043656634,0.0224202253\H,0,-5.8777897636,-0.0357516367,-0.0883
 491117\H,0,4.8530386612,2.3815365978,0.8496878756\H,0,-4.972947395,-3.
 0063341498,-0.8324753886\H,0,3.7115714238,-0.366591229,-0.0870990715\H
 ,0,-3.8575733885,-0.1254062107,-0.3246643331\H,0,3.1785085503,3.142914
 6876,1.3310117565\H,0,1.2291501158,3.2345641882,0.9668464121\H,0,2.715
 9586547,3.4401444879,-0.2639103606\H,0,-2.9011719868,-3.8346118171,-1.
 6174967605\H,0,-2.8684484506,-4.0529272856,0.2238870401\H,0,-1.3847994
 512,-3.8089812325,-0.5562278492\H,0,0.29479188,1.223988314,0.009601605
 4\H,0,-1.5468057692,0.0925972469,-0.5022479509\H,0,2.0250510496,-1.564
 8655363,-0.5418737516\H,0,0.0690774185,-2.7644714894,-0.6889097519\\Ve
 rsion=ES64L-G16RevA.03\State=1-A\HF=-1557.4831232\RMSD=8.253e-09\PG=C0
 1 [X(C40H56)]\\@


 IN THE WOODS WE RETURN TO REASON AND FAITH.

                                 -- EMERSON
 Job cpu time:       0 days 10 hours 57 minutes 38.9 seconds.
 Elapsed time:       0 days  2 hours 45 minutes 30.0 seconds.
 File lengths (MBytes):  RWF=   2884 Int=      0 D2E=      0 Chk=     79 Scr=      1
 Normal termination of Gaussian 16 at Tue Jul 23 21:25:44 2019.
