 Entering Gaussian System, Link 0=g16
 Input=Geometria-329-.com
 Output=Geometria-329-.log
 Initial command:
 /usr/local/g16/l1.exe "/home/padawan/israel-mol/b-caroten/spectra/abs/Gau-98396.inp" -scrdir="/home/padawan/israel-mol/b-caroten/spectra/abs/"
 Entering Link 1 = /usr/local/g16/l1.exe PID=     98398.
  
 Copyright (c) 1988,1990,1992,1993,1995,1998,2003,2009,2016,
            Gaussian, Inc.  All Rights Reserved.
  
 This is part of the Gaussian(R) 16 program.  It is based on
 the Gaussian(R) 09 system (copyright 2009, Gaussian, Inc.),
 the Gaussian(R) 03 system (copyright 2003, Gaussian, Inc.),
 the Gaussian(R) 98 system (copyright 1998, Gaussian, Inc.),
 the Gaussian(R) 94 system (copyright 1995, Gaussian, Inc.),
 the Gaussian 92(TM) system (copyright 1992, Gaussian, Inc.),
 the Gaussian 90(TM) system (copyright 1990, Gaussian, Inc.),
 the Gaussian 88(TM) system (copyright 1988, Gaussian, Inc.),
 the Gaussian 86(TM) system (copyright 1986, Carnegie Mellon
 University), and the Gaussian 82(TM) system (copyright 1983,
 Carnegie Mellon University). Gaussian is a federally registered
 trademark of Gaussian, Inc.
  
 This software contains proprietary and confidential information,
 including trade secrets, belonging to Gaussian, Inc.
  
 This software is provided under written license and may be
 used, copied, transmitted, or stored only in accord with that
 written license.
  
 The following legend is applicable only to US Government
 contracts under FAR:
  
                    RESTRICTED RIGHTS LEGEND
  
 Use, reproduction and disclosure by the US Government is
 subject to restrictions as set forth in subparagraphs (a)
 and (c) of the Commercial Computer Software - Restricted
 Rights clause in FAR 52.227-19.
  
 Gaussian, Inc.
 340 Quinnipiac St., Bldg. 40, Wallingford CT 06492
  
  
 ---------------------------------------------------------------
 Warning -- This program may not be used in any manner that
 competes with the business of Gaussian, Inc. or will provide
 assistance to any competitor of Gaussian, Inc.  The licensee
 of this program is prohibited from giving any competitor of
 Gaussian, Inc. access to this program.  By using this program,
 the user acknowledges that Gaussian, Inc. is engaged in the
 business of creating and licensing software in the field of
 computational chemistry and represents and warrants to the
 licensee that it is not a competitor of Gaussian, Inc. and that
 it will not use this program in any manner prohibited above.
 ---------------------------------------------------------------
  

 Cite this work as:
 Gaussian 16, Revision A.03,
 M. J. Frisch, G. W. Trucks, H. B. Schlegel, G. E. Scuseria, 
 M. A. Robb, J. R. Cheeseman, G. Scalmani, V. Barone, 
 G. A. Petersson, H. Nakatsuji, X. Li, M. Caricato, A. V. Marenich, 
 J. Bloino, B. G. Janesko, R. Gomperts, B. Mennucci, H. P. Hratchian, 
 J. V. Ortiz, A. F. Izmaylov, J. L. Sonnenberg, D. Williams-Young, 
 F. Ding, F. Lipparini, F. Egidi, J. Goings, B. Peng, A. Petrone, 
 T. Henderson, D. Ranasinghe, V. G. Zakrzewski, J. Gao, N. Rega, 
 G. Zheng, W. Liang, M. Hada, M. Ehara, K. Toyota, R. Fukuda, 
 J. Hasegawa, M. Ishida, T. Nakajima, Y. Honda, O. Kitao, H. Nakai, 
 T. Vreven, K. Throssell, J. A. Montgomery, Jr., J. E. Peralta, 
 F. Ogliaro, M. J. Bearpark, J. J. Heyd, E. N. Brothers, K. N. Kudin, 
 V. N. Staroverov, T. A. Keith, R. Kobayashi, J. Normand, 
 K. Raghavachari, A. P. Rendell, J. C. Burant, S. S. Iyengar, 
 J. Tomasi, M. Cossi, J. M. Millam, M. Klene, C. Adamo, R. Cammi, 
 J. W. Ochterski, R. L. Martin, K. Morokuma, O. Farkas, 
 J. B. Foresman, and D. J. Fox, Gaussian, Inc., Wallingford CT, 2016.
 
 ******************************************
 Gaussian 16:  ES64L-G16RevA.03 25-Dec-2016
                30-Jul-2019 
 ******************************************
 %nproc=4
 Will use up to    4 processors via shared memory.
 %Mem=2GB
 ---------------------------------
 # td=(NStates=1) B3LYP/6-31G(d,p)
 ---------------------------------
 1/38=1,172=1/1;
 2/12=2,17=6,18=5,40=1/2;
 3/5=1,6=6,7=101,11=9,25=1,30=1,74=-5/1,2,3,8;
 4//1;
 5/5=2,38=5/2;
 8/6=1,10=2,108=1/1;
 9/41=1,42=1,70=2/14;
 6/7=2,8=2,9=2,10=2/1;
 99/5=1,9=1/99;
 --
 TD
 --
 Symbolic Z-matrix:
 Charge =  0 Multiplicity = 1
 6                     12.15569   0.54531  -0.73588 
 6                    -12.10661  -0.03414   0.79958 
 6                     13.40752  -0.39655  -0.65742 
 6                    -13.06044   1.0347    1.17366 
 6                     13.12787  -1.78402  -0.66625 
 6                    -13.4504   2.02964   0.01898 
 6                     11.09365   0.06021   0.25823 
 6                    -11.01233   0.41556  -0.12468 
 6                     12.28685  -2.18499   0.55499 
 6                    -12.21892   2.56583  -0.52449 
 6                     11.09273  -1.20561   0.8213 
 6                    -11.02442   1.61084  -0.775 
 6                     11.62721   0.44985  -2.17504 
 6                     12.64413   1.92708  -0.42443 
 6                    -12.99386  -1.18766   0.11867 
 6                    -11.50337  -0.73539   2.13549 
 6                     9.8223    0.85977   0.46038 
 6                    -9.92421  -0.5996   -0.46448 
 6                     10.13108  -1.68354   1.84072 
 6                    -10.05591   2.15411  -1.69769 
 6                     8.54865   0.48889   0.28424 
 6                    -8.59569  -0.41762  -0.26063 
 6                     7.42761   1.37938   0.45307 
 6                    -7.57562  -1.30548  -0.48018 
 6                     7.69138   2.84182   0.52294 
 6                    -7.8447   -2.73831  -0.84268 
 6                     6.12495   0.77799   0.26367 
 6                    -6.19075  -0.79872  -0.29834 
 6                     4.83766   1.29444   0.34561 
 6                    -4.98932  -1.60921  -0.39314 
 6                     3.63272   0.59232   0.37096 
 6                    -3.74165  -1.03317  -0.20764 
 6                     2.35725   1.29941   0.40703 
 6                    -2.50369  -1.72951  -0.22673 
 6                     2.28682   2.86733   0.61539 
 6                    -2.43616  -3.23114  -0.50706 
 6                     1.23052   0.60869   0.25186 
 6                    -1.39049  -0.98491   0.08337 
 6                     1.21322  -0.80694  -0.08046 
 6                     0.00462  -1.52195  -0.16301 
 1                     14.04325  -0.14247   0.18147 
 1                     14.02043   0.1145   -1.38468 
 1                    -12.51281   1.6238    1.95911 
 1                    -13.91863   0.74387   1.63607 
 1                     14.22615  -2.33588  -0.56908 
 1                     12.5625  -2.1307   -1.57108 
 1                    -14.23997   2.79133   0.24712 
 1                    -13.96104   1.46251  -0.88784 
 1                     12.95412  -2.41515   1.55322 
 1                     11.73867  -3.16181   0.17835 
 1                    -11.77017   3.32956   0.28089 
 1                    -12.49724   3.19001  -1.52426 
 1                     11.39979  -0.73149  -2.31742 
 1                     12.41572   0.75986  -2.77099 
 1                     10.61506   1.06757  -2.36511 
 1                     12.61487   1.89827   0.69062 
 1                     11.97697   2.85181  -0.70307 
 1                     13.7008   2.2093   -1.00291 
 1                    -13.2328  -0.89452  -0.84514 
 1                    -14.06655  -1.21402   0.88987 
 1                    -12.63304  -2.01922   0.13434 
 1                    -10.72752  -0.19875   2.68823 
 1                    -10.7848  -1.56712   1.56431 
 1                    -12.3505  -1.03627   2.67546 
 1                     10.15714   1.91177   0.39461 
 1                    -10.24937  -1.65504  -0.67792 
 1                     9.44084  -0.81978   2.28526 
 1                     10.6363  -2.22612   2.57244 
 1                     9.81463  -2.521     1.27904 
 1                    -9.37565   1.29723  -1.77215 
 1                    -9.5282    2.9767   -1.16598 
 1                    -10.40887   2.53317  -2.64346 
 1                     8.28616  -0.52405   0.06488 
 1                    -8.33335   0.65551   0.28522 
 1                     8.26191   2.8308    1.38065 
 1                     6.75607   3.32001   0.46466 
 1                     8.39095   3.22229  -0.16877 
 1                    -8.27245  -2.86284  -1.82683 
 1                    -8.55467  -3.20688  -0.0487 
 1                    -7.03164  -3.39727  -0.88063 
 1                     5.92435  -0.36172   0.28753 
 1                    -6.2027    0.26211  -0.06508 
 1                     4.84239   2.3488    0.26027 
 1                    -5.15897  -2.69608  -0.51357 
 1                     3.66407  -0.55838   0.28855 
 1                    -3.72991  -0.02133   0.04972 
 1                     2.74098   3.25254   1.62911 
 1                     1.08815   3.1378    0.33575 
 1                     3.02496   3.29805  -0.32254 
 1                    -2.69208  -3.46221  -1.66549 
 1                    -3.27989  -3.75816   0.2003 
 1                    -1.43084  -3.6531   -0.16876 
 1                     0.23068   1.0867    0.33581 
 1                    -1.7287   -0.02179   0.69296 
 1                     2.02543  -1.309    -0.13694 
 1                     0.3046   -2.47441  -0.57653 
 
 Stoichiometry    C40H56
 Framework group  C1[X(C40H56)]
 Deg. of freedom   282
 Full point group                 C1      NOp   1
 Largest Abelian subgroup         C1      NOp   1
 Largest concise Abelian subgroup C1      NOp   1
                         Standard orientation:                         
 ---------------------------------------------------------------------
 Center     Atomic      Atomic             Coordinates (Angstroms)
 Number     Number       Type             X           Y           Z
 ---------------------------------------------------------------------
      1          6           0       12.155954    0.558919   -0.723117
      2          6           0      -12.106686   -0.046424    0.796948
      3          6           0       13.408093   -0.383317   -0.654846
      4          6           0      -13.061032    1.017783    1.182726
      5          6           0       13.128939   -1.770703   -0.679438
      6          6           0      -13.450934    2.025561    0.039217
      7          6           0       11.093734    0.062255    0.265073
      8          6           0      -11.012234    0.414071   -0.121780
      9          6           0       12.287635   -2.185731    0.536891
     10          6           0      -12.219455    2.568285   -0.497724
     11          6           0       11.093065   -1.209845    0.813810
     12          6           0      -11.024519    1.616608   -0.758565
     13          6           0       11.628025    0.479527   -2.163450
     14          6           0       12.643785    1.937259   -0.395914
     15          6           0      -12.993274   -1.192494    0.102734
     16          6           0      -11.503668   -0.762497    2.125075
     17          6           0        9.822025    0.859033    0.475773
     18          6           0       -9.923632   -0.596806   -0.472628
     19          6           0       10.131221   -1.699591    1.827420
     20          6           0      -10.055876    2.170604   -1.674717
     21          6           0        8.548571    0.489710    0.294996
     22          6           0       -8.595251   -0.416668   -0.266259
     23          6           0        7.427152    1.377838    0.473466
     24          6           0       -7.574778   -1.301628   -0.495447
     25          6           0        7.690374    2.839489    0.559945
     26          6           0       -7.843220   -2.730374   -0.874201
     27          6           0        6.124771    0.778168    0.276819
     28          6           0       -6.190156   -0.796464   -0.307401
     29          6           0        4.837275    1.293203    0.364125
     30          6           0       -4.988403   -1.605403   -0.410911
     31          6           0        3.632575    0.590410    0.381107
     32          6           0       -3.741006   -1.031058   -0.218472
     33          6           0        2.356836    1.296599    0.424694
     34          6           0       -2.502790   -1.726694   -0.244968
     35          6           0        2.285773    2.862037    0.650718
     36          6           0       -2.434626   -3.225038   -0.542216
     37          6           0        1.230414    0.607277    0.261334
     38          6           0       -1.389966   -0.985247    0.073916
     39          6           0        1.213732   -0.804514   -0.086950
     40          6           0        0.005423   -1.518978   -0.178008
     41          1           0       14.043437   -0.138502    0.187086
     42          1           0       14.021078    0.136131   -1.376069
     43          1           0      -12.513889    1.598178    1.974976
     44          1           0      -13.919283    0.721452    1.641515
     45          1           0       14.227390   -2.323236   -0.588111
     46          1           0       12.564023   -2.107338   -1.588333
     47          1           0      -14.240856    2.784348    0.275650
     48          1           0      -13.961049    1.468519   -0.874138
     49          1           0       12.954626   -2.426913    1.532697
     50          1           0       11.739938   -3.158429    0.149054
     51          1           0      -11.771261    3.323036    0.316395
     52          1           0      -12.497636    3.203620   -1.490479
     53          1           0       11.401079   -0.700203   -2.319244
     54          1           0       12.416631    0.796530   -2.755585
     55          1           0       10.615717    1.098999   -2.346900
     56          1           0       12.614142    1.895851    0.718729
     57          1           0       11.976391    2.864838   -0.664337
     58          1           0       13.700564    2.226372   -0.970788
     59          1           0      -13.231980   -0.888584   -0.857787
     60          1           0      -14.066231   -1.227941    0.873201
     61          1           0      -12.632165   -2.024055    0.109147
     62          1           0      -10.728204   -0.231855    2.684116
     63          1           0      -10.784592   -1.587471    1.544799
     64          1           0      -12.350882   -1.069755    2.661303
     65          1           0       10.156510    1.911821    0.422003
     66          1           0      -10.248335   -1.649883   -0.698092
     67          1           0        9.440514   -0.841151    2.281440
     68          1           0       10.636382   -2.250219    2.553152
     69          1           0        9.815278   -2.530772    1.256207
     70          1           0       -9.375288    1.314866   -1.758600
     71          1           0       -9.528649    2.987330   -1.133559
     72          1           0      -10.408637    2.560194   -2.616278
     73          1           0        8.286526   -0.520784    0.064122
     74          1           0       -8.333484    0.650325    0.291774
     75          1           0        8.260599    2.818989    1.417674
     76          1           0        6.754909    3.317978    0.506724
     77          1           0        8.390055    3.227997   -0.127178
     78          1           0       -8.270571   -2.843936   -1.859847
     79          1           0       -8.553300   -3.208130   -0.085816
     80          1           0       -7.029907   -3.388574   -0.919291
     81          1           0        5.924578   -0.361813    0.287735
     82          1           0       -6.202574    0.261659   -0.062178
     83          1           0        4.841650    2.348463    0.290691
     84          1           0       -5.157617   -2.690910   -0.543668
     85          1           0        3.664362   -0.559272    0.285721
     86          1           0       -3.729722   -0.022177    0.050307
     87          1           0        2.739435    3.235938    1.668892
     88          1           0        1.087099    3.135231    0.373724
     89          1           0        3.024090    3.303585   -0.282015
     90          1           0       -2.690047   -3.443112   -1.703273
     91          1           0       -3.278415   -3.760311    0.158851
     92          1           0       -1.429276   -3.650433   -0.208336
     93          1           0        0.230364    1.083957    0.350318
     94          1           0       -1.728745   -0.029198    0.694221
     95          1           0        2.026147   -1.305621   -0.148809
     96          1           0        0.305892   -2.466606   -0.602145
 ---------------------------------------------------------------------
 Rotational constants (GHZ):           0.2826339           0.0110003           0.0107651
 Standard basis: 6-31G(d,p) (6D, 7F)
 There are   880 symmetry adapted cartesian basis functions of A   symmetry.
 There are   880 symmetry adapted basis functions of A   symmetry.
   880 basis functions,  1512 primitive gaussians,   880 cartesian basis functions
   148 alpha electrons      148 beta electrons
       nuclear repulsion energy      3675.2228539954 Hartrees.
 NAtoms=   96 NActive=   96 NUniq=   96 SFac= 1.00D+00 NAtFMM=   60 NAOKFM=T Big=T
 Integral buffers will be    131072 words long.
 Regular integral format.
 Two-electron integral symmetry is turned on.
 One-electron integrals computed using PRISM.
 NBasis=   880 RedAO= T EigKep=  9.37D-04  NBF=   880
 NBsUse=   880 1.00D-06 EigRej= -1.00D+00 NBFU=   880
 ExpMin= 1.61D-01 ExpMax= 3.05D+03 ExpMxC= 4.57D+02 IAcc=3 IRadAn=         5 AccDes= 0.00D+00
 Harris functional with IExCor=  402 and IRadAn=       5 diagonalized for initial guess.
 HarFok:  IExCor=  402 AccDes= 0.00D+00 IRadAn=         5 IDoV= 1 UseB2=F ITyADJ=14
 ICtDFT=  3500011 ScaDFX=  1.000000  1.000000  1.000000  1.000000
 FoFCou: FMM=F IPFlag=           0 FMFlag=      100000 FMFlg1=        2001
         NFxFlg=           0 DoJE=T BraDBF=F KetDBF=T FulRan=T
         wScrn=  0.000000 ICntrl=       500 IOpCl=  0 I1Cent=   200000004 NGrid=           0
         NMat0=    1 NMatS0=      1 NMatT0=    0 NMatD0=    1 NMtDS0=    0 NMtDT0=    0
 Petite list used in FoFCou.
 Requested convergence on RMS density matrix=1.00D-08 within 128 cycles.
 Requested convergence on MAX density matrix=1.00D-06.
 Requested convergence on             energy=1.00D-06.
 No special actions if energy rises.
 Integral accuracy reduced to 1.0D-05 until final iterations.
 Initial convergence to 1.0D-05 achieved.  Increase integral accuracy.
 SCF Done:  E(RB3LYP) =  -1557.52236870     A.U. after   16 cycles
            NFock= 16  Conv=0.58D-08     -V/T= 2.0109
 DoSCS=F DFT=T ScalE2(SS,OS)=  1.000000  1.000000
 ExpMin= 1.61D-01 ExpMax= 3.05D+03 ExpMxC= 4.57D+02 IAcc=3 IRadAn=         5 AccDes= 0.00D+00
 HarFok:  IExCor=  205 AccDes= 0.00D+00 IRadAn=         5 IDoV=-2 UseB2=F ITyADJ=14
 ICtDFT= 12500011 ScaDFX=  1.000000  1.000000  1.000000  1.000000
 GSVD:  LWork=       -1920 too small for GESVD, short by        8600 words or        8600 for optimal perf.
 Range of M.O.s used for correlation:    41   880
 NBasis=   880 NAE=   148 NBE=   148 NFC=    40 NFV=     0
 NROrb=    840 NOA=   108 NOB=   108 NVA=   732 NVB=   732

 **** Warning!!: The smallest alpha delta epsilon is  0.77792772D-01

 Orbital symmetries:
       Occupied  (A) (A) (A) (A) (A) (A) (A) (A) (A) (A) (A) (A)
                 (A) (A) (A) (A) (A) (A) (A) (A) (A) (A) (A) (A)
                 (A) (A) (A) (A) (A) (A) (A) (A) (A) (A) (A) (A)
                 (A) (A) (A) (A) (A) (A) (A) (A) (A) (A) (A) (A)
                 (A) (A) (A) (A) (A) (A) (A) (A) (A) (A) (A) (A)
                 (A) (A) (A) (A) (A) (A) (A) (A) (A) (A) (A) (A)
                 (A) (A) (A) (A) (A) (A) (A) (A) (A) (A) (A) (A)
                 (A) (A) (A) (A) (A) (A) (A) (A) (A) (A) (A) (A)
                 (A) (A) (A) (A) (A) (A) (A) (A) (A) (A) (A) (A)
                 (A) (A) (A) (A) (A) (A) (A) (A) (A) (A) (A) (A)
                 (A) (A) (A) (A) (A) (A) (A) (A) (A) (A) (A) (A)
                 (A) (A) (A) (A) (A) (A) (A) (A) (A) (A) (A) (A)
                 (A) (A) (A) (A)
       Virtual   (A) (A) (A) (A) (A) (A) (A) (A) (A) (A) (A) (A)
                 (A) (A) (A) (A) (A) (A) (A) (A) (A) (A) (A) (A)
                 (A) (A) (A) (A) (A) (A) (A) (A) (A) (A) (A) (A)
                 (A) (A) (A) (A) (A) (A) (A) (A) (A) (A) (A) (A)
                 (A) (A) (A) (A) (A) (A) (A) (A) (A) (A) (A) (A)
                 (A) (A) (A) (A) (A) (A) (A) (A) (A) (A) (A) (A)
                 (A) (A) (A) (A) (A) (A) (A) (A) (A) (A) (A) (A)
                 (A) (A) (A) (A) (A) (A) (A) (A) (A) (A) (A) (A)
                 (A) (A) (A) (A) (A) (A) (A) (A) (A) (A) (A) (A)
                 (A) (A) (A) (A) (A) (A) (A) (A) (A) (A) (A) (A)
                 (A) (A) (A) (A) (A) (A) (A) (A) (A) (A) (A) (A)
                 (A) (A) (A) (A) (A) (A) (A) (A) (A) (A) (A) (A)
                 (A) (A) (A) (A) (A) (A) (A) (A) (A) (A) (A) (A)
                 (A) (A) (A) (A) (A) (A) (A) (A) (A) (A) (A) (A)
                 (A) (A) (A) (A) (A) (A) (A) (A) (A) (A) (A) (A)
                 (A) (A) (A) (A) (A) (A) (A) (A) (A) (A) (A) (A)
                 (A) (A) (A) (A) (A) (A) (A) (A) (A) (A) (A) (A)
                 (A) (A) (A) (A) (A) (A) (A) (A) (A) (A) (A) (A)
                 (A) (A) (A) (A) (A) (A) (A) (A) (A) (A) (A) (A)
                 (A) (A) (A) (A) (A) (A) (A) (A) (A) (A) (A) (A)
                 (A) (A) (A) (A) (A) (A) (A) (A) (A) (A) (A) (A)
                 (A) (A) (A) (A) (A) (A) (A) (A) (A) (A) (A) (A)
                 (A) (A) (A) (A) (A) (A) (A) (A) (A) (A) (A) (A)
                 (A) (A) (A) (A) (A) (A) (A) (A) (A) (A) (A) (A)
                 (A) (A) (A) (A) (A) (A) (A) (A) (A) (A) (A) (A)
                 (A) (A) (A) (A) (A) (A) (A) (A) (A) (A) (A) (A)
                 (A) (A) (A) (A) (A) (A) (A) (A) (A) (A) (A) (A)
                 (A) (A) (A) (A) (A) (A) (A) (A) (A) (A) (A) (A)
                 (A) (A) (A) (A) (A) (A) (A) (A) (A) (A) (A) (A)
                 (A) (A) (A) (A) (A) (A) (A) (A) (A) (A) (A) (A)
                 (A) (A) (A) (A) (A) (A) (A) (A) (A) (A) (A) (A)
                 (A) (A) (A) (A) (A) (A) (A) (A) (A) (A) (A) (A)
                 (A) (A) (A) (A) (A) (A) (A) (A) (A) (A) (A) (A)
                 (A) (A) (A) (A) (A) (A) (A) (A) (A) (A) (A) (A)
                 (A) (A) (A) (A) (A) (A) (A) (A) (A) (A) (A) (A)
                 (A) (A) (A) (A) (A) (A) (A) (A) (A) (A) (A) (A)
                 (A) (A) (A) (A) (A) (A) (A) (A) (A) (A) (A) (A)
                 (A) (A) (A) (A) (A) (A) (A) (A) (A) (A) (A) (A)
                 (A) (A) (A) (A) (A) (A) (A) (A) (A) (A) (A) (A)
                 (A) (A) (A) (A) (A) (A) (A) (A) (A) (A) (A) (A)
                 (A) (A) (A) (A) (A) (A) (A) (A) (A) (A) (A) (A)
                 (A) (A) (A) (A) (A) (A) (A) (A) (A) (A) (A) (A)
                 (A) (A) (A) (A) (A) (A) (A) (A) (A) (A) (A) (A)
                 (A) (A) (A) (A) (A) (A) (A) (A) (A) (A) (A) (A)
                 (A) (A) (A) (A) (A) (A) (A) (A) (A) (A) (A) (A)
                 (A) (A) (A) (A) (A) (A) (A) (A) (A) (A) (A) (A)
                 (A) (A) (A) (A) (A) (A) (A) (A) (A) (A) (A) (A)
                 (A) (A) (A) (A) (A) (A) (A) (A) (A) (A) (A) (A)
                 (A) (A) (A) (A) (A) (A) (A) (A) (A) (A) (A) (A)
                 (A) (A) (A) (A) (A) (A) (A) (A) (A) (A) (A) (A)
                 (A) (A) (A) (A) (A) (A) (A) (A) (A) (A) (A) (A)
                 (A) (A) (A) (A) (A) (A) (A) (A) (A) (A) (A) (A)
                 (A) (A) (A) (A) (A) (A) (A) (A) (A) (A) (A) (A)
                 (A) (A) (A) (A) (A) (A) (A) (A) (A) (A) (A) (A)
                 (A) (A) (A) (A) (A) (A) (A) (A) (A) (A) (A) (A)
                 (A) (A) (A) (A) (A) (A) (A) (A) (A) (A) (A) (A)
                 (A) (A) (A) (A) (A) (A) (A) (A) (A) (A) (A) (A)
                 (A) (A) (A) (A) (A) (A) (A) (A) (A) (A) (A) (A)
                 (A) (A) (A) (A) (A) (A) (A) (A) (A) (A) (A) (A)
                 (A) (A) (A) (A) (A) (A) (A) (A) (A) (A) (A) (A)
                 (A) (A) (A) (A) (A) (A) (A) (A) (A) (A) (A) (A)
     4 initial guesses have been made.
 Convergence on wavefunction:    0.001000000000000
 Iteration     1 Dimension     4 NMult     0 NNew      4
 CISAX will form     4 AO SS matrices at one time.
 Iteration     2 Dimension     6 NMult     4 NNew      2
 Iteration     3 Dimension     8 NMult     6 NNew      2
 Iteration     4 Dimension    10 NMult     8 NNew      2
 Iteration     5 Dimension    12 NMult    10 NNew      2
 Iteration     6 Dimension    14 NMult    12 NNew      2
 Iteration     7 Dimension    16 NMult    14 NNew      2
 ***********************************************************************
 Excited states from <AA,BB:AA,BB> singles matrix:
 ***********************************************************************
 
 Ground to excited state transition densities written to RWF  633
 Ground to excited state transition electric dipole moments (Au):
       state          X           Y           Z        Dip. S.      Osc.
         1         7.5106      0.5101      0.3630     56.8011      2.8697
 Ground to excited state transition velocity dipole moments (Au):
       state          X           Y           Z        Dip. S.      Osc.
         1        -0.5515     -0.0378     -0.0264      0.3062      2.6941
 Ground to excited state transition magnetic dipole moments (Au):
       state          X           Y           Z
         1         0.0372      0.0093     -0.6252
 Ground to excited state transition velocity quadrupole moments (Au):
       state          XX          YY          ZZ          XY          XZ          YZ
         1         0.2916      0.0332      0.0102     -0.0838     -0.0410      0.0088
 <0|del|b> * <b|rxdel|0> + <0|del|b> * <b|delr+rdel|0>
 Rotatory Strengths (R) in cgs (10**-40 erg-esu-cm/Gauss)
       state          XX          YY          ZZ    R(velocity)    E-M Angle
         1        78.5342    -51.6640    -67.4494    -13.5264       90.72
 1/2[<0|r|b>*<b|rxdel|0> + (<0|rxdel|b>*<b|r|0>)*]
 Rotatory Strengths (R) in cgs (10**-40 erg-esu-cm/Gauss)
       state          XX          YY          ZZ     R(length)
         1      -197.5661     -3.3497    160.4882    -13.4759
  1/2[<0|del|b>*<b|r|0> + (<0|r|b>*<b|del|0>)*] (Au)
       state          X           Y           Z        Dip. S.   Osc.(frdel)
         1        -4.1419     -0.0193     -0.0096      4.1708      2.7805

 Excitation energies and oscillator strengths:
 
 Excited State   1:      Singlet-A      2.0622 eV  601.24 nm  f=2.8697  <S**2>=0.000
     148 ->149         0.70654
     148 <-149        -0.10153
 This state for optimization and/or second-order correction.
 Total Energy, E(TD-HF/TD-DFT) =  -1557.44658590    
 Copying the excited state density for this state as the 1-particle RhoCI density.
 SavETr:  write IOETrn=   770 NScale= 10 NData=  16 NLR=1 NState=    1 LETran=      28.

 **********************************************************************

            Population analysis using the SCF density.

 **********************************************************************

 Orbital symmetries:
       Occupied  (A) (A) (A) (A) (A) (A) (A) (A) (A) (A) (A) (A)
                 (A) (A) (A) (A) (A) (A) (A) (A) (A) (A) (A) (A)
                 (A) (A) (A) (A) (A) (A) (A) (A) (A) (A) (A) (A)
                 (A) (A) (A) (A) (A) (A) (A) (A) (A) (A) (A) (A)
                 (A) (A) (A) (A) (A) (A) (A) (A) (A) (A) (A) (A)
                 (A) (A) (A) (A) (A) (A) (A) (A) (A) (A) (A) (A)
                 (A) (A) (A) (A) (A) (A) (A) (A) (A) (A) (A) (A)
                 (A) (A) (A) (A) (A) (A) (A) (A) (A) (A) (A) (A)
                 (A) (A) (A) (A) (A) (A) (A) (A) (A) (A) (A) (A)
                 (A) (A) (A) (A) (A) (A) (A) (A) (A) (A) (A) (A)
                 (A) (A) (A) (A) (A) (A) (A) (A) (A) (A) (A) (A)
                 (A) (A) (A) (A) (A) (A) (A) (A) (A) (A) (A) (A)
                 (A) (A) (A) (A)
       Virtual   (A) (A) (A) (A) (A) (A) (A) (A) (A) (A) (A) (A)
                 (A) (A) (A) (A) (A) (A) (A) (A) (A) (A) (A) (A)
                 (A) (A) (A) (A) (A) (A) (A) (A) (A) (A) (A) (A)
                 (A) (A) (A) (A) (A) (A) (A) (A) (A) (A) (A) (A)
                 (A) (A) (A) (A) (A) (A) (A) (A) (A) (A) (A) (A)
                 (A) (A) (A) (A) (A) (A) (A) (A) (A) (A) (A) (A)
                 (A) (A) (A) (A) (A) (A) (A) (A) (A) (A) (A) (A)
                 (A) (A) (A) (A) (A) (A) (A) (A) (A) (A) (A) (A)
                 (A) (A) (A) (A) (A) (A) (A) (A) (A) (A) (A) (A)
                 (A) (A) (A) (A) (A) (A) (A) (A) (A) (A) (A) (A)
                 (A) (A) (A) (A) (A) (A) (A) (A) (A) (A) (A) (A)
                 (A) (A) (A) (A) (A) (A) (A) (A) (A) (A) (A) (A)
                 (A) (A) (A) (A) (A) (A) (A) (A) (A) (A) (A) (A)
                 (A) (A) (A) (A) (A) (A) (A) (A) (A) (A) (A) (A)
                 (A) (A) (A) (A) (A) (A) (A) (A) (A) (A) (A) (A)
                 (A) (A) (A) (A) (A) (A) (A) (A) (A) (A) (A) (A)
                 (A) (A) (A) (A) (A) (A) (A) (A) (A) (A) (A) (A)
                 (A) (A) (A) (A) (A) (A) (A) (A) (A) (A) (A) (A)
                 (A) (A) (A) (A) (A) (A) (A) (A) (A) (A) (A) (A)
                 (A) (A) (A) (A) (A) (A) (A) (A) (A) (A) (A) (A)
                 (A) (A) (A) (A) (A) (A) (A) (A) (A) (A) (A) (A)
                 (A) (A) (A) (A) (A) (A) (A) (A) (A) (A) (A) (A)
                 (A) (A) (A) (A) (A) (A) (A) (A) (A) (A) (A) (A)
                 (A) (A) (A) (A) (A) (A) (A) (A) (A) (A) (A) (A)
                 (A) (A) (A) (A) (A) (A) (A) (A) (A) (A) (A) (A)
                 (A) (A) (A) (A) (A) (A) (A) (A) (A) (A) (A) (A)
                 (A) (A) (A) (A) (A) (A) (A) (A) (A) (A) (A) (A)
                 (A) (A) (A) (A) (A) (A) (A) (A) (A) (A) (A) (A)
                 (A) (A) (A) (A) (A) (A) (A) (A) (A) (A) (A) (A)
                 (A) (A) (A) (A) (A) (A) (A) (A) (A) (A) (A) (A)
                 (A) (A) (A) (A) (A) (A) (A) (A) (A) (A) (A) (A)
                 (A) (A) (A) (A) (A) (A) (A) (A) (A) (A) (A) (A)
                 (A) (A) (A) (A) (A) (A) (A) (A) (A) (A) (A) (A)
                 (A) (A) (A) (A) (A) (A) (A) (A) (A) (A) (A) (A)
                 (A) (A) (A) (A) (A) (A) (A) (A) (A) (A) (A) (A)
                 (A) (A) (A) (A) (A) (A) (A) (A) (A) (A) (A) (A)
                 (A) (A) (A) (A) (A) (A) (A) (A) (A) (A) (A) (A)
                 (A) (A) (A) (A) (A) (A) (A) (A) (A) (A) (A) (A)
                 (A) (A) (A) (A) (A) (A) (A) (A) (A) (A) (A) (A)
                 (A) (A) (A) (A) (A) (A) (A) (A) (A) (A) (A) (A)
                 (A) (A) (A) (A) (A) (A) (A) (A) (A) (A) (A) (A)
                 (A) (A) (A) (A) (A) (A) (A) (A) (A) (A) (A) (A)
                 (A) (A) (A) (A) (A) (A) (A) (A) (A) (A) (A) (A)
                 (A) (A) (A) (A) (A) (A) (A) (A) (A) (A) (A) (A)
                 (A) (A) (A) (A) (A) (A) (A) (A) (A) (A) (A) (A)
                 (A) (A) (A) (A) (A) (A) (A) (A) (A) (A) (A) (A)
                 (A) (A) (A) (A) (A) (A) (A) (A) (A) (A) (A) (A)
                 (A) (A) (A) (A) (A) (A) (A) (A) (A) (A) (A) (A)
                 (A) (A) (A) (A) (A) (A) (A) (A) (A) (A) (A) (A)
                 (A) (A) (A) (A) (A) (A) (A) (A) (A) (A) (A) (A)
                 (A) (A) (A) (A) (A) (A) (A) (A) (A) (A) (A) (A)
                 (A) (A) (A) (A) (A) (A) (A) (A) (A) (A) (A) (A)
                 (A) (A) (A) (A) (A) (A) (A) (A) (A) (A) (A) (A)
                 (A) (A) (A) (A) (A) (A) (A) (A) (A) (A) (A) (A)
                 (A) (A) (A) (A) (A) (A) (A) (A) (A) (A) (A) (A)
                 (A) (A) (A) (A) (A) (A) (A) (A) (A) (A) (A) (A)
                 (A) (A) (A) (A) (A) (A) (A) (A) (A) (A) (A) (A)
                 (A) (A) (A) (A) (A) (A) (A) (A) (A) (A) (A) (A)
                 (A) (A) (A) (A) (A) (A) (A) (A) (A) (A) (A) (A)
                 (A) (A) (A) (A) (A) (A) (A) (A) (A) (A) (A) (A)
                 (A) (A) (A) (A) (A) (A) (A) (A) (A) (A) (A) (A)
 The electronic state is 1-A.
 Alpha  occ. eigenvalues --  -10.22493 -10.21158 -10.20717 -10.20672 -10.20594
 Alpha  occ. eigenvalues --  -10.20324 -10.19941 -10.19910 -10.19865 -10.19848
 Alpha  occ. eigenvalues --  -10.19807 -10.19787 -10.19658 -10.19610 -10.19502
 Alpha  occ. eigenvalues --  -10.19362 -10.19308 -10.19216 -10.19183 -10.19121
 Alpha  occ. eigenvalues --  -10.19088 -10.18729 -10.18594 -10.18579 -10.18531
 Alpha  occ. eigenvalues --  -10.18447 -10.18392 -10.18368 -10.18259 -10.18219
 Alpha  occ. eigenvalues --  -10.18084 -10.18083 -10.18041 -10.17711 -10.17439
 Alpha  occ. eigenvalues --  -10.17001 -10.16892 -10.16729 -10.16711 -10.16703
 Alpha  occ. eigenvalues --   -0.85341  -0.84946  -0.83308  -0.82906  -0.82162
 Alpha  occ. eigenvalues --   -0.81617  -0.79081  -0.78484  -0.78300  -0.77322
 Alpha  occ. eigenvalues --   -0.76732  -0.75616  -0.74163  -0.72890  -0.72012
 Alpha  occ. eigenvalues --   -0.69059  -0.68782  -0.68090  -0.68006  -0.67605
 Alpha  occ. eigenvalues --   -0.67428  -0.67300  -0.66488  -0.66185  -0.65651
 Alpha  occ. eigenvalues --   -0.62617  -0.62052  -0.58794  -0.58275  -0.56517
 Alpha  occ. eigenvalues --   -0.56173  -0.55638  -0.55051  -0.54163  -0.52753
 Alpha  occ. eigenvalues --   -0.52457  -0.51623  -0.50639  -0.49456  -0.48485
 Alpha  occ. eigenvalues --   -0.48155  -0.47471  -0.46808  -0.46488  -0.45926
 Alpha  occ. eigenvalues --   -0.45718  -0.45358  -0.44535  -0.44369  -0.43806
 Alpha  occ. eigenvalues --   -0.43558  -0.43069  -0.42840  -0.42452  -0.42210
 Alpha  occ. eigenvalues --   -0.41867  -0.41638  -0.41604  -0.41489  -0.41090
 Alpha  occ. eigenvalues --   -0.40677  -0.40577  -0.40464  -0.39917  -0.39686
 Alpha  occ. eigenvalues --   -0.39493  -0.39394  -0.38971  -0.38817  -0.38130
 Alpha  occ. eigenvalues --   -0.37757  -0.37274  -0.37200  -0.36776  -0.36571
 Alpha  occ. eigenvalues --   -0.36167  -0.35642  -0.35303  -0.35037  -0.34938
 Alpha  occ. eigenvalues --   -0.34751  -0.34654  -0.34134  -0.33924  -0.33444
 Alpha  occ. eigenvalues --   -0.33359  -0.33212  -0.32826  -0.32717  -0.32635
 Alpha  occ. eigenvalues --   -0.32476  -0.32064  -0.31765  -0.31615  -0.31060
 Alpha  occ. eigenvalues --   -0.30486  -0.29797  -0.29214  -0.28822  -0.28338
 Alpha  occ. eigenvalues --   -0.28205  -0.27185  -0.26134  -0.23496  -0.22370
 Alpha  occ. eigenvalues --   -0.21103  -0.18193  -0.16090
 Alpha virt. eigenvalues --   -0.08310  -0.05923  -0.01701   0.01047   0.02342
 Alpha virt. eigenvalues --    0.03366   0.05531   0.06039   0.06384   0.06639
 Alpha virt. eigenvalues --    0.07082   0.07585   0.08172   0.08362   0.08750
 Alpha virt. eigenvalues --    0.08882   0.09335   0.09431   0.09658   0.09845
 Alpha virt. eigenvalues --    0.10014   0.10325   0.10675   0.10989   0.11145
 Alpha virt. eigenvalues --    0.11547   0.11895   0.12405   0.12773   0.12958
 Alpha virt. eigenvalues --    0.13139   0.13469   0.14109   0.14219   0.14450
 Alpha virt. eigenvalues --    0.14572   0.14629   0.15054   0.15254   0.15594
 Alpha virt. eigenvalues --    0.15678   0.16094   0.16528   0.16667   0.16736
 Alpha virt. eigenvalues --    0.16891   0.17366   0.17427   0.17540   0.18047
 Alpha virt. eigenvalues --    0.18322   0.18967   0.19109   0.19500   0.19691
 Alpha virt. eigenvalues --    0.19835   0.19852   0.20406   0.20481   0.20853
 Alpha virt. eigenvalues --    0.21090   0.21353   0.21820   0.22075   0.22236
 Alpha virt. eigenvalues --    0.22488   0.22668   0.23081   0.23468   0.24028
 Alpha virt. eigenvalues --    0.24210   0.24372   0.24933   0.25107   0.25217
 Alpha virt. eigenvalues --    0.26056   0.26118   0.26788   0.26972   0.27089
 Alpha virt. eigenvalues --    0.27690   0.28335   0.28600   0.29458   0.29616
 Alpha virt. eigenvalues --    0.30080   0.30855   0.31469   0.31964   0.33504
 Alpha virt. eigenvalues --    0.34875   0.35014   0.36116   0.36540   0.37006
 Alpha virt. eigenvalues --    0.37415   0.38549   0.39573   0.40693   0.40897
 Alpha virt. eigenvalues --    0.41237   0.41702   0.42817   0.43325   0.44925
 Alpha virt. eigenvalues --    0.45502   0.46968   0.47897   0.48244   0.48570
 Alpha virt. eigenvalues --    0.49297   0.50149   0.50628   0.50879   0.51487
 Alpha virt. eigenvalues --    0.51573   0.51926   0.52201   0.52476   0.53029
 Alpha virt. eigenvalues --    0.53469   0.53729   0.53964   0.54368   0.54565
 Alpha virt. eigenvalues --    0.54812   0.55282   0.55483   0.55747   0.56293
 Alpha virt. eigenvalues --    0.56502   0.57302   0.57504   0.57643   0.57908
 Alpha virt. eigenvalues --    0.58034   0.58399   0.58628   0.59294   0.59503
 Alpha virt. eigenvalues --    0.59777   0.59868   0.60321   0.60444   0.60584
 Alpha virt. eigenvalues --    0.61086   0.61524   0.61705   0.62212   0.62648
 Alpha virt. eigenvalues --    0.62904   0.63142   0.63603   0.64204   0.64508
 Alpha virt. eigenvalues --    0.64556   0.64952   0.65136   0.65702   0.65941
 Alpha virt. eigenvalues --    0.66351   0.66570   0.67004   0.67151   0.67667
 Alpha virt. eigenvalues --    0.68194   0.68477   0.68747   0.69690   0.70090
 Alpha virt. eigenvalues --    0.70283   0.70916   0.71249   0.71378   0.71852
 Alpha virt. eigenvalues --    0.72335   0.72608   0.72803   0.73192   0.73685
 Alpha virt. eigenvalues --    0.74001   0.74169   0.74702   0.74981   0.75283
 Alpha virt. eigenvalues --    0.75446   0.75999   0.76106   0.76714   0.77120
 Alpha virt. eigenvalues --    0.77426   0.77551   0.77619   0.77875   0.78336
 Alpha virt. eigenvalues --    0.78410   0.78921   0.79008   0.79538   0.79871
 Alpha virt. eigenvalues --    0.80226   0.81087   0.81244   0.81486   0.81542
 Alpha virt. eigenvalues --    0.81683   0.82055   0.82157   0.82439   0.82902
 Alpha virt. eigenvalues --    0.82945   0.83292   0.83467   0.84093   0.84443
 Alpha virt. eigenvalues --    0.85248   0.85560   0.85659   0.85805   0.85972
 Alpha virt. eigenvalues --    0.86434   0.86477   0.87094   0.87253   0.87607
 Alpha virt. eigenvalues --    0.87789   0.88522   0.88564   0.88976   0.89337
 Alpha virt. eigenvalues --    0.89970   0.90224   0.90359   0.90705   0.91108
 Alpha virt. eigenvalues --    0.91233   0.91700   0.91768   0.91825   0.92412
 Alpha virt. eigenvalues --    0.92569   0.92866   0.93144   0.93701   0.93820
 Alpha virt. eigenvalues --    0.94338   0.94906   0.95302   0.95498   0.95944
 Alpha virt. eigenvalues --    0.96023   0.96450   0.96963   0.97229   0.97543
 Alpha virt. eigenvalues --    0.97834   0.98311   0.98822   0.99489   0.99679
 Alpha virt. eigenvalues --    1.00076   1.01035   1.01224   1.02534   1.03393
 Alpha virt. eigenvalues --    1.03505   1.03906   1.04410   1.05368   1.05576
 Alpha virt. eigenvalues --    1.05726   1.05924   1.06351   1.07646   1.08590
 Alpha virt. eigenvalues --    1.08852   1.09825   1.10197   1.10620   1.11333
 Alpha virt. eigenvalues --    1.11827   1.12546   1.12665   1.13911   1.14247
 Alpha virt. eigenvalues --    1.15410   1.16647   1.17083   1.17902   1.19587
 Alpha virt. eigenvalues --    1.20083   1.21682   1.21721   1.22567   1.23554
 Alpha virt. eigenvalues --    1.23844   1.24364   1.25177   1.26781   1.26827
 Alpha virt. eigenvalues --    1.28473   1.28987   1.29583   1.30073   1.30798
 Alpha virt. eigenvalues --    1.31003   1.31726   1.32743   1.33230   1.33586
 Alpha virt. eigenvalues --    1.35157   1.35960   1.36879   1.37616   1.38090
 Alpha virt. eigenvalues --    1.38281   1.38542   1.40051   1.41055   1.42307
 Alpha virt. eigenvalues --    1.42543   1.42876   1.43878   1.44603   1.45214
 Alpha virt. eigenvalues --    1.46545   1.47241   1.47562   1.48296   1.48518
 Alpha virt. eigenvalues --    1.49131   1.50329   1.50856   1.51707   1.52753
 Alpha virt. eigenvalues --    1.53164   1.53456   1.54390   1.54775   1.55753
 Alpha virt. eigenvalues --    1.56122   1.56804   1.57549   1.57906   1.58774
 Alpha virt. eigenvalues --    1.62154   1.62422   1.63133   1.63713   1.64074
 Alpha virt. eigenvalues --    1.66242   1.66736   1.68757   1.69153   1.70449
 Alpha virt. eigenvalues --    1.71317   1.71486   1.71562   1.72420   1.73792
 Alpha virt. eigenvalues --    1.74065   1.74634   1.74834   1.75221   1.75291
 Alpha virt. eigenvalues --    1.75891   1.76471   1.76586   1.76786   1.77562
 Alpha virt. eigenvalues --    1.78364   1.78470   1.78981   1.79301   1.80184
 Alpha virt. eigenvalues --    1.80548   1.80777   1.80919   1.81502   1.82122
 Alpha virt. eigenvalues --    1.82490   1.82639   1.83444   1.83611   1.83949
 Alpha virt. eigenvalues --    1.84257   1.84513   1.84757   1.85142   1.85264
 Alpha virt. eigenvalues --    1.85789   1.86529   1.86653   1.86999   1.87124
 Alpha virt. eigenvalues --    1.87873   1.88554   1.88815   1.89773   1.90047
 Alpha virt. eigenvalues --    1.90581   1.91032   1.91346   1.91830   1.92351
 Alpha virt. eigenvalues --    1.92661   1.93031   1.93487   1.93685   1.93738
 Alpha virt. eigenvalues --    1.94038   1.94828   1.94924   1.95657   1.95793
 Alpha virt. eigenvalues --    1.96139   1.96268   1.96872   1.97468   1.97862
 Alpha virt. eigenvalues --    1.98030   1.98999   1.99085   1.99553   1.99928
 Alpha virt. eigenvalues --    2.00781   2.01217   2.01530   2.02366   2.02695
 Alpha virt. eigenvalues --    2.02786   2.02883   2.03386   2.04025   2.04277
 Alpha virt. eigenvalues --    2.04931   2.05091   2.05620   2.06553   2.07237
 Alpha virt. eigenvalues --    2.07620   2.07736   2.07964   2.08277   2.08933
 Alpha virt. eigenvalues --    2.09408   2.09456   2.09796   2.10301   2.10365
 Alpha virt. eigenvalues --    2.10988   2.11491   2.11828   2.12057   2.12135
 Alpha virt. eigenvalues --    2.12909   2.13152   2.14029   2.14196   2.14311
 Alpha virt. eigenvalues --    2.15389   2.15686   2.16253   2.17033   2.17628
 Alpha virt. eigenvalues --    2.18081   2.18862   2.19030   2.19245   2.19607
 Alpha virt. eigenvalues --    2.20194   2.21046   2.21792   2.21973   2.22596
 Alpha virt. eigenvalues --    2.22788   2.23781   2.24685   2.25359   2.26085
 Alpha virt. eigenvalues --    2.26299   2.26527   2.26770   2.27645   2.28053
 Alpha virt. eigenvalues --    2.28209   2.30106   2.30615   2.31001   2.31898
 Alpha virt. eigenvalues --    2.32158   2.32460   2.33041   2.33176   2.33640
 Alpha virt. eigenvalues --    2.34639   2.34805   2.35277   2.35891   2.36398
 Alpha virt. eigenvalues --    2.37009   2.37323   2.37726   2.37829   2.38469
 Alpha virt. eigenvalues --    2.38913   2.39146   2.39531   2.40523   2.40618
 Alpha virt. eigenvalues --    2.41183   2.41492   2.41722   2.42091   2.42670
 Alpha virt. eigenvalues --    2.42914   2.43578   2.44154   2.44376   2.45121
 Alpha virt. eigenvalues --    2.45206   2.45812   2.46108   2.46578   2.46956
 Alpha virt. eigenvalues --    2.47398   2.47848   2.48640   2.49234   2.49646
 Alpha virt. eigenvalues --    2.50597   2.50654   2.50889   2.51464   2.52489
 Alpha virt. eigenvalues --    2.52700   2.52837   2.53439   2.54013   2.54488
 Alpha virt. eigenvalues --    2.54740   2.55470   2.55904   2.55993   2.56636
 Alpha virt. eigenvalues --    2.57030   2.57409   2.57782   2.58146   2.58438
 Alpha virt. eigenvalues --    2.58938   2.59358   2.60118   2.60432   2.61082
 Alpha virt. eigenvalues --    2.61124   2.61697   2.61934   2.62101   2.62751
 Alpha virt. eigenvalues --    2.63450   2.63717   2.64351   2.64818   2.65190
 Alpha virt. eigenvalues --    2.65442   2.65828   2.66088   2.66563   2.66769
 Alpha virt. eigenvalues --    2.66966   2.67248   2.67890   2.68251   2.68780
 Alpha virt. eigenvalues --    2.68910   2.70075   2.70796   2.71029   2.71635
 Alpha virt. eigenvalues --    2.71940   2.72582   2.73220   2.73853   2.74475
 Alpha virt. eigenvalues --    2.75264   2.75476   2.75709   2.77051   2.77784
 Alpha virt. eigenvalues --    2.78112   2.78500   2.79164   2.80326   2.80739
 Alpha virt. eigenvalues --    2.80909   2.82767   2.83166   2.83507   2.83900
 Alpha virt. eigenvalues --    2.84299   2.84959   2.85340   2.85616   2.85903
 Alpha virt. eigenvalues --    2.87239   2.87308   2.87824   2.88647   2.88885
 Alpha virt. eigenvalues --    2.89289   2.90423   2.90850   2.91622   2.92630
 Alpha virt. eigenvalues --    2.93439   2.95552   2.95659   2.95866   2.96100
 Alpha virt. eigenvalues --    2.96639   2.97359   2.97927   2.98907   3.00174
 Alpha virt. eigenvalues --    3.01736   3.02732   3.03802   3.04734   3.06026
 Alpha virt. eigenvalues --    3.07755   3.08240   3.08864   3.09197   3.09841
 Alpha virt. eigenvalues --    3.10118   3.10386   3.12217   3.13078   3.15145
 Alpha virt. eigenvalues --    3.16575   3.16651   3.18264   3.18495   3.18812
 Alpha virt. eigenvalues --    3.21790   3.21935   3.22203   3.23740   3.25032
 Alpha virt. eigenvalues --    3.25264   3.26863   3.27926   3.28048   3.30948
 Alpha virt. eigenvalues --    3.31647   3.32361   3.32738   3.33968   3.35261
 Alpha virt. eigenvalues --    3.36197   3.37893   3.39387   3.40339   3.41653
 Alpha virt. eigenvalues --    3.41767   3.42160   3.42392   3.42979   3.43126
 Alpha virt. eigenvalues --    3.43814   3.44770   3.45190   3.47451   3.47841
 Alpha virt. eigenvalues --    3.48975   3.49174   3.51478   3.54433   3.54776
 Alpha virt. eigenvalues --    3.55041   3.58924   3.59186   3.59602   3.59770
 Alpha virt. eigenvalues --    3.59863   3.63193   3.64127   3.65174   3.65371
 Alpha virt. eigenvalues --    3.83943   4.02744   4.10213   4.11156   4.11419
 Alpha virt. eigenvalues --    4.13780   4.14709   4.18296   4.19174   4.19865
 Alpha virt. eigenvalues --    4.22121   4.24904   4.28791   4.30598   4.31794
 Alpha virt. eigenvalues --    4.33152   4.37126   4.37833   4.39152   4.40086
 Alpha virt. eigenvalues --    4.40445   4.45788   4.47048   4.47750   4.48956
 Alpha virt. eigenvalues --    4.50888   4.51090   4.52875   4.53063   4.56213
 Alpha virt. eigenvalues --    4.59755   4.60557   4.64341   4.65864   4.67491
 Alpha virt. eigenvalues --    4.70297   4.71651   4.73219   4.76253   4.78374
 Alpha virt. eigenvalues --    4.80529   4.82040
          Condensed to atoms (all electrons):
 Mulliken charges:
               1
     1  C   -0.009896
     2  C   -0.027981
     3  C   -0.138638
     4  C   -0.164919
     5  C   -0.179576
     6  C   -0.177816
     7  C    0.048627
     8  C    0.085837
     9  C   -0.213856
    10  C   -0.187020
    11  C    0.045679
    12  C    0.070252
    13  C   -0.261961
    14  C   -0.303336
    15  C   -0.252627
    16  C   -0.290450
    17  C   -0.172371
    18  C   -0.193967
    19  C   -0.342078
    20  C   -0.359954
    21  C   -0.040672
    22  C   -0.080049
    23  C    0.065974
    24  C    0.123555
    25  C   -0.356221
    26  C   -0.382715
    27  C   -0.130820
    28  C   -0.125574
    29  C   -0.075395
    30  C   -0.089700
    31  C   -0.115128
    32  C   -0.103779
    33  C    0.124996
    34  C    0.150843
    35  C   -0.339864
    36  C   -0.353871
    37  C   -0.124752
    38  C   -0.143981
    39  C   -0.054438
    40  C   -0.121958
    41  H    0.093239
    42  H    0.082334
    43  H    0.080935
    44  H    0.091158
    45  H    0.067850
    46  H    0.100391
    47  H    0.090521
    48  H    0.073947
    49  H    0.086728
    50  H    0.083955
    51  H    0.078313
    52  H    0.064281
    53  H    0.073303
    54  H    0.105814
    55  H    0.089190
    56  H    0.111206
    57  H    0.085688
    58  H    0.075027
    59  H    0.111998
    60  H    0.038486
    61  H    0.105031
    62  H    0.107216
    63  H    0.072040
    64  H    0.107946
    65  H    0.066807
    66  H    0.085160
    67  H    0.120310
    68  H    0.113588
    69  H    0.116413
    70  H    0.117044
    71  H    0.110705
    72  H    0.113883
    73  H    0.089065
    74  H    0.072036
    75  H    0.138057
    76  H    0.111020
    77  H    0.129062
    78  H    0.127905
    79  H    0.106332
    80  H    0.115483
    81  H    0.057480
    82  H    0.078262
    83  H    0.063913
    84  H    0.084588
    85  H    0.085716
    86  H    0.077026
    87  H    0.122272
    88  H    0.089984
    89  H    0.090423
    90  H    0.106832
    91  H    0.098995
    92  H    0.116074
    93  H    0.075465
    94  H    0.094828
    95  H    0.060631
    96  H    0.087651
 Sum of Mulliken charges =  -0.00000
 Mulliken charges with hydrogens summed into heavy atoms:
               1
     1  C   -0.009896
     2  C   -0.027981
     3  C    0.036935
     4  C    0.007174
     5  C   -0.011335
     6  C   -0.013349
     7  C    0.048627
     8  C    0.085837
     9  C   -0.043174
    10  C   -0.044427
    11  C    0.045679
    12  C    0.070252
    13  C    0.006346
    14  C   -0.031415
    15  C    0.002887
    16  C   -0.003248
    17  C   -0.105563
    18  C   -0.108807
    19  C    0.008232
    20  C   -0.018322
    21  C    0.048394
    22  C   -0.008014
    23  C    0.065974
    24  C    0.123555
    25  C    0.021918
    26  C   -0.032995
    27  C   -0.073339
    28  C   -0.047312
    29  C   -0.011482
    30  C   -0.005113
    31  C   -0.029412
    32  C   -0.026753
    33  C    0.124996
    34  C    0.150843
    35  C   -0.037185
    36  C   -0.031971
    37  C   -0.049287
    38  C   -0.049153
    39  C    0.006193
    40  C   -0.034308
 Electronic spatial extent (au):  <R**2>=          95302.7967
 Charge=             -0.0000 electrons
 Dipole moment (field-independent basis, Debye):
    X=              0.9398    Y=             -0.5207    Z=              0.0812  Tot=              1.0775
 Quadrupole moment (field-independent basis, Debye-Ang):
   XX=           -227.5918   YY=           -237.0018   ZZ=           -256.0523
   XY=              0.4477   XZ=              0.9057   YZ=              2.6354
 Traceless Quadrupole moment (field-independent basis, Debye-Ang):
   XX=             12.6235   YY=              3.2135   ZZ=            -15.8370
   XY=              0.4477   XZ=              0.9057   YZ=              2.6354
 Octapole moment (field-independent basis, Debye-Ang**2):
  XXX=            224.5559  YYY=            -16.2081  ZZZ=              1.5973  XYY=              6.3578
  XXY=              4.2369  XXZ=              1.5293  XZZ=            -19.0331  YZZ=              2.2370
  YYZ=             -9.8483  XYZ=            -23.8342
 Hexadecapole moment (field-independent basis, Debye-Ang**3):
 XXXX=        -123972.7759 YYYY=          -4417.7155 ZZZZ=          -1485.2896 XXXY=           -473.4324
 XXXZ=           -153.3606 YYYX=            123.1604 YYYZ=             12.8191 ZZZX=             63.8750
 ZZZY=              1.0999 XXYY=         -21619.3966 XXZZ=         -21834.2748 YYZZ=           -975.9165
 XXYZ=           -142.6658 YYXZ=             86.1165 ZZXY=            -34.0784
 N-N= 3.675222853995D+03 E-N=-1.094992456575D+04  KE= 1.540702478797D+03
 1\1\GINC-RYZEN-SSD1\SP\RB3LYP TD-FC\6-31G(d,p)\C40H56\PADAWAN\30-Jul-2
 019\0\\# td=(NStates=1) B3LYP/6-31G(d,p)\\TD\\0,1\C,0,12.1556899116,0.
 545305131,-0.7358797069\C,0,-12.1066129754,-0.0341384554,0.7995791368\
 C,0,13.4075201647,-0.3965493149,-0.6574217412\C,0,-13.0604425442,1.034
 6978613,1.1736580802\C,0,13.1278651007,-1.7840240748,-0.6662483836\C,0
 ,-13.4503996361,2.0296414762,0.0189822653\C,0,11.093651159,0.060210285
 5,0.2582333611\C,0,-11.0123289007,0.4155614384,-0.1246801028\C,0,12.28
 68531227,-2.1849907931,0.5549894752\C,0,-12.2189217748,2.5658268909,-0
 .524490785\C,0,11.0927289809,-1.2056126158,0.8212986983\C,0,-11.024417
 2359,1.6108367055,-0.7749963733\C,0,11.627213309,0.4498461097,-2.17503
 59822\C,0,12.6441278262,1.9270767628,-0.4244339624\C,0,-12.9938569765,
 -1.1876558843,0.1186656965\C,0,-11.5033692049,-0.7353867123,2.13549169
 74\C,0,9.8223002926,0.8597720908,0.4603780383\C,0,-9.9242122281,-0.599
 6025024,-0.4644805359\C,0,10.131077284,-1.6835381655,1.8407167066\C,0,
 -10.0559085611,2.1541071498,-1.697691234\C,0,8.5486511048,0.4888888451
 ,0.2842366299\C,0,-8.5956925277,-0.4176216275,-0.2606323861\C,0,7.4276
 113293,1.379376738,0.4530679194\C,0,-7.5756164555,-1.305479023,-0.4801
 784147\C,0,7.6913821879,2.8418168189,0.5229447315\C,0,-7.8447016584,-2
 .7383138425,-0.8426815458\C,0,6.1249463961,0.7779921882,0.2636685259\C
 ,0,-6.1907476847,-0.7987206947,-0.2983419459\C,0,4.8376644171,1.294441
 7761,0.3456142204\C,0,-4.9893185437,-1.6092068985,-0.3931406957\C,0,3.
 6327219838,0.5923167969,0.3709590452\C,0,-3.7416495502,-1.0331739501,-
 0.207643202\C,0,2.3572490263,1.2994106488,0.4070251904\C,0,-2.50368936
 83,-1.7295080095,-0.2267259527\C,0,2.2868230539,2.8673260991,0.6153859
 119\C,0,-2.4361641618,-3.2311366402,-0.5070620563\C,0,1.230524601,0.60
 86922108,0.251860103\C,0,-1.3904872218,-0.9849070627,0.0833696319\C,0,
 1.2132156938,-0.8069356408,-0.0804555653\C,0,0.0046210017,-1.521948434
 6,-0.163010057\H,0,14.0432544312,-0.1424718177,0.1814661895\H,0,14.020
 4290567,0.1145030746,-1.3846820066\H,0,-12.5128076458,1.6238047707,1.9
 591094757\H,0,-13.9186327209,0.7438738797,1.6360700451\H,0,14.22615323
 73,-2.3358844061,-0.5690803538\H,0,12.5625021319,-2.1306969697,-1.5710
 832316\H,0,-14.2399673849,2.7913324932,0.2471157492\H,0,-13.9610408879
 ,1.4625059248,-0.8878428064\H,0,12.9541173755,-2.415154022,1.553217203
 7\H,0,11.7386713216,-3.1618098731,0.1783546911\H,0,-11.7701668088,3.32
 95606768,0.2808946065\H,0,-12.4972359375,3.1900125091,-1.5242563268\H,
 0,11.3997933498,-0.7314862259,-2.3174198747\H,0,12.4157184525,0.759860
 6474,-2.7709936734\H,0,10.6150590772,1.0675698687,-2.3651072302\H,0,12
 .6148724413,1.8982667286,0.6906164021\H,0,11.9769661035,2.8518050914,-
 0.7030744644\H,0,13.7008019365,2.2093012,-1.0029125624\H,0,-13.2328025
 11,-0.8945234613,-0.8451406148\H,0,-14.0665488275,-1.2140172059,0.8898
 662073\H,0,-12.6330409073,-2.0192203269,0.1343375513\H,0,-10.727515242
 4,-0.198745514,2.6882284819\H,0,-10.7847950049,-1.5671177125,1.5643104
 472\H,0,-12.3504991139,-1.0362680947,2.6754560737\H,0,10.1571391205,1.
 9117660367,0.3946053684\H,0,-10.2493693816,-1.6550406141,-0.6779241704
 \H,0,9.4408381613,-0.8197795727,2.2852622838\H,0,10.6363044445,-2.2261
 188098,2.5724386739\H,0,9.8146335306,-2.5210019502,1.2790375254\H,0,-9
 .3756546008,1.2972320358,-1.7721497119\H,0,-9.5281976247,2.9767011921,
 -1.1659766439\H,0,-10.4088711521,2.5331683222,-2.6434643197\H,0,8.2861
 642072,-0.5240531855,0.0648795376\H,0,-8.3333467299,0.6555097451,0.285
 22487\H,0,8.261909423,2.8307981157,1.3806474472\H,0,6.7560674874,3.320
 0097052,0.4646590456\H,0,8.390953333,3.2222908911,-0.1687700999\H,0,-8
 .272448197,-2.8628433434,-1.8268293765\H,0,-8.5546664549,-3.2068838757
 ,-0.0486987306\H,0,-7.0316377164,-3.3972723785,-0.8806269479\H,0,5.924
 3532998,-0.3617213989,0.287526736\H,0,-6.2027022548,0.2621081493,-0.06
 50767845\H,0,4.8423875961,2.3488033244,0.2602689337\H,0,-5.1589659969,
 -2.6960831247,-0.5135734984\H,0,3.6640666734,-0.5583804079,0.288548493
 2\H,0,-3.7299106223,-0.0213258027,0.0497231056\H,0,2.7409847979,3.2525
 356497,1.6291115665\H,0,1.0881460154,3.1378045123,0.3357533028\H,0,3.0
 249595548,3.2980502785,-0.3225362232\H,0,-2.6920810777,-3.4622145774,-
 1.66549156\H,0,-3.2798895948,-3.7581578087,0.2003046819\H,0,-1.4308440
 557,-3.653095644,-0.1687591023\H,0,0.2306754683,1.0867045857,0.3358142
 266\H,0,-1.728703959,-0.0217941922,0.6929615701\H,0,2.0254310876,-1.30
 89999497,-0.1369432585\H,0,0.3046009709,-2.4744124835,-0.5765285138\\V
 ersion=ES64L-G16RevA.03\State=1-A\HF=-1557.5223687\RMSD=5.770e-09\PG=C
 01 [X(C40H56)]\\@


 IF IT'S NOT TRUE, IT'S WELL INVENTED -- DANTE
 Job cpu time:       0 days 12 hours  7 minutes 13.7 seconds.
 Elapsed time:       0 days  3 hours  2 minutes 57.2 seconds.
 File lengths (MBytes):  RWF=   2884 Int=      0 D2E=      0 Chk=     79 Scr=      1
 Normal termination of Gaussian 16 at Tue Jul 30 18:42:47 2019.
