 Entering Gaussian System, Link 0=g16
 Input=Geometria-185-.com
 Output=Geometria-185-.log
 Initial command:
 /usr/local/g16/l1.exe "/home/padawan/israel-mol/b-caroten/spectra/abs/Gau-84847.inp" -scrdir="/home/padawan/israel-mol/b-caroten/spectra/abs/"
 Entering Link 1 = /usr/local/g16/l1.exe PID=     84849.
  
 Copyright (c) 1988,1990,1992,1993,1995,1998,2003,2009,2016,
            Gaussian, Inc.  All Rights Reserved.
  
 This is part of the Gaussian(R) 16 program.  It is based on
 the Gaussian(R) 09 system (copyright 2009, Gaussian, Inc.),
 the Gaussian(R) 03 system (copyright 2003, Gaussian, Inc.),
 the Gaussian(R) 98 system (copyright 1998, Gaussian, Inc.),
 the Gaussian(R) 94 system (copyright 1995, Gaussian, Inc.),
 the Gaussian 92(TM) system (copyright 1992, Gaussian, Inc.),
 the Gaussian 90(TM) system (copyright 1990, Gaussian, Inc.),
 the Gaussian 88(TM) system (copyright 1988, Gaussian, Inc.),
 the Gaussian 86(TM) system (copyright 1986, Carnegie Mellon
 University), and the Gaussian 82(TM) system (copyright 1983,
 Carnegie Mellon University). Gaussian is a federally registered
 trademark of Gaussian, Inc.
  
 This software contains proprietary and confidential information,
 including trade secrets, belonging to Gaussian, Inc.
  
 This software is provided under written license and may be
 used, copied, transmitted, or stored only in accord with that
 written license.
  
 The following legend is applicable only to US Government
 contracts under FAR:
  
                    RESTRICTED RIGHTS LEGEND
  
 Use, reproduction and disclosure by the US Government is
 subject to restrictions as set forth in subparagraphs (a)
 and (c) of the Commercial Computer Software - Restricted
 Rights clause in FAR 52.227-19.
  
 Gaussian, Inc.
 340 Quinnipiac St., Bldg. 40, Wallingford CT 06492
  
  
 ---------------------------------------------------------------
 Warning -- This program may not be used in any manner that
 competes with the business of Gaussian, Inc. or will provide
 assistance to any competitor of Gaussian, Inc.  The licensee
 of this program is prohibited from giving any competitor of
 Gaussian, Inc. access to this program.  By using this program,
 the user acknowledges that Gaussian, Inc. is engaged in the
 business of creating and licensing software in the field of
 computational chemistry and represents and warrants to the
 licensee that it is not a competitor of Gaussian, Inc. and that
 it will not use this program in any manner prohibited above.
 ---------------------------------------------------------------
  

 Cite this work as:
 Gaussian 16, Revision A.03,
 M. J. Frisch, G. W. Trucks, H. B. Schlegel, G. E. Scuseria, 
 M. A. Robb, J. R. Cheeseman, G. Scalmani, V. Barone, 
 G. A. Petersson, H. Nakatsuji, X. Li, M. Caricato, A. V. Marenich, 
 J. Bloino, B. G. Janesko, R. Gomperts, B. Mennucci, H. P. Hratchian, 
 J. V. Ortiz, A. F. Izmaylov, J. L. Sonnenberg, D. Williams-Young, 
 F. Ding, F. Lipparini, F. Egidi, J. Goings, B. Peng, A. Petrone, 
 T. Henderson, D. Ranasinghe, V. G. Zakrzewski, J. Gao, N. Rega, 
 G. Zheng, W. Liang, M. Hada, M. Ehara, K. Toyota, R. Fukuda, 
 J. Hasegawa, M. Ishida, T. Nakajima, Y. Honda, O. Kitao, H. Nakai, 
 T. Vreven, K. Throssell, J. A. Montgomery, Jr., J. E. Peralta, 
 F. Ogliaro, M. J. Bearpark, J. J. Heyd, E. N. Brothers, K. N. Kudin, 
 V. N. Staroverov, T. A. Keith, R. Kobayashi, J. Normand, 
 K. Raghavachari, A. P. Rendell, J. C. Burant, S. S. Iyengar, 
 J. Tomasi, M. Cossi, J. M. Millam, M. Klene, C. Adamo, R. Cammi, 
 J. W. Ochterski, R. L. Martin, K. Morokuma, O. Farkas, 
 J. B. Foresman, and D. J. Fox, Gaussian, Inc., Wallingford CT, 2016.
 
 ******************************************
 Gaussian 16:  ES64L-G16RevA.03 25-Dec-2016
                28-Jul-2019 
 ******************************************
 %nproc=4
 Will use up to    4 processors via shared memory.
 %Mem=2GB
 ---------------------------------
 # td=(NStates=1) B3LYP/6-31G(d,p)
 ---------------------------------
 1/38=1,172=1/1;
 2/12=2,17=6,18=5,40=1/2;
 3/5=1,6=6,7=101,11=9,25=1,30=1,74=-5/1,2,3,8;
 4//1;
 5/5=2,38=5/2;
 8/6=1,10=2,108=1/1;
 9/41=1,42=1,70=2/14;
 6/7=2,8=2,9=2,10=2/1;
 99/5=1,9=1/99;
 --
 TD
 --
 Symbolic Z-matrix:
 Charge =  0 Multiplicity = 1
 6                     12.19362   0.52558  -0.75717 
 6                    -12.0765  -0.08354   0.88476 
 6                     13.43769  -0.32247  -0.67122 
 6                    -13.07817   1.02508   1.34202 
 6                     13.14041  -1.7146   -0.50564 
 6                    -13.49964   1.85526   0.13866 
 6                     11.05373  -0.08708   0.3151 
 6                    -10.99571   0.53491  -0.18148 
 6                     12.28102  -2.18203   0.67932 
 6                    -12.15939   2.64013  -0.40744 
 6                     11.11257  -1.19369   0.94872 
 6                    -11.05003   1.69964  -0.7488 
 6                     11.49687   0.37898  -2.28797 
 6                     12.50298   2.08062  -0.62482 
 6                    -12.90189  -1.28524   0.06586 
 6                    -11.36051  -0.69408   2.12342 
 6                     9.83825   0.78557   0.38632 
 6                    -9.87964  -0.50581  -0.32997 
 6                     10.2147  -1.62641   2.08261 
 6                    -10.10391   2.18678  -1.76633 
 6                     8.55454   0.39509   0.36888 
 6                    -8.57171  -0.33268  -0.4381 
 6                     7.4317    1.28053   0.5118 
 6                    -7.49307  -1.33539  -0.4959 
 6                     7.68668   2.86316   0.70735 
 6                    -7.89041  -2.75252  -0.7962 
 6                     6.23079   0.68745   0.38568 
 6                    -6.26751  -0.77345  -0.29103 
 6                     4.93204   1.37421   0.38782 
 6                    -5.06443  -1.65708  -0.20482 
 6                     3.72965   0.7697    0.28588 
 6                    -3.84236  -1.18915  -0.2767 
 6                     2.34427   1.30383   0.36289 
 6                    -2.60335  -1.74376  -0.29762 
 6                     2.37888   2.8422    0.45256 
 6                    -2.52191  -3.25829  -0.70804 
 6                     1.22597   0.54306   0.11097 
 6                    -1.42997  -1.03515  -0.21131 
 6                     1.11412  -0.83241  -0.22249 
 6                    -0.04752  -1.52915  -0.33297 
 1                     14.21512  -0.06817   0.04474 
 1                     13.96883  -0.008    -1.63704 
 1                    -12.37579   1.7629    1.75653 
 1                    -13.88451   0.53126   1.87273 
 1                     14.10879  -2.47912  -0.54938 
 1                     12.66337  -1.99616  -1.38985 
 1                    -14.36786   2.56889   0.62187 
 1                    -13.87766   1.45706  -0.73633 
 1                     13.19962  -1.84722   1.35159 
 1                     12.06249  -3.25079   0.69641 
 1                    -11.85745   3.4275    0.36707 
 1                    -12.42562   3.44258  -1.13471 
 1                     11.40663  -0.73137  -2.57586 
 1                     12.03925   0.86839  -3.16432 
 1                     10.5734   1.13928  -2.34946 
 1                     12.85519   2.2499    0.41012 
 1                     11.61972   2.51073  -0.69341 
 1                     13.4282   2.25424  -1.37847 
 1                    -13.21158  -0.93182  -0.87864 
 1                    -13.75471  -1.47315   0.9285 
 1                    -12.15392  -2.12647   0.12901 
 1                    -10.87416   0.18959   2.52273 
 1                    -10.60276  -1.5069    1.99209 
 1                    -12.16766  -1.13502   2.9998 
 1                     9.94183   1.7102    0.53932 
 1                    -10.3534  -1.45967  -0.59944 
 1                     9.46405  -0.90706   2.61097 
 1                     10.8538  -1.90454   3.04624 
 1                     9.51244  -2.58153   2.00626 
 1                    -9.29028   1.43221  -1.90907 
 1                    -9.67737   3.2218   -1.64999 
 1                    -10.67877   2.33896  -2.75551 
 1                     8.34253  -0.78054   0.12403 
 1                    -8.16278   0.68818  -0.102 
 1                     7.9498    3.18027   1.78415 
 1                     6.79996   3.37207   0.69668 
 1                     8.27532   3.40228  -0.149 
 1                    -8.63003  -2.6668   -1.60941 
 1                    -8.40952  -3.21697  -0.01539 
 1                    -7.18553  -3.37692  -0.86885 
 1                     6.19021  -0.35942   0.1402 
 1                    -6.11033   0.32079  -0.15043 
 1                     4.93054   2.41857   0.65295 
 1                    -5.14525  -2.75334  -0.42776 
 1                     3.6087   -0.34025   0.00656 
 1                    -3.79679  -0.02443  -0.2231 
 1                     2.94297   3.20286   1.30208 
 1                     1.41014   3.22717   0.5332 
 1                     2.81758   3.13292  -0.37333 
 1                    -3.15989  -3.38446  -1.67721 
 1                    -2.60913  -3.86035   0.16147 
 1                    -1.49363  -3.72294  -0.92753 
 1                     0.3395    1.11879   0.24983 
 1                    -1.57829   0.10612   0.16122 
 1                     2.03731  -1.46997  -0.07453 
 1                     0.13441  -2.44554  -0.57253 
 
 Stoichiometry    C40H56
 Framework group  C1[X(C40H56)]
 Deg. of freedom   282
 Full point group                 C1      NOp   1
 Largest Abelian subgroup         C1      NOp   1
 Largest concise Abelian subgroup C1      NOp   1
                         Standard orientation:                         
 ---------------------------------------------------------------------
 Center     Atomic      Atomic             Coordinates (Angstroms)
 Number     Number       Type             X           Y           Z
 ---------------------------------------------------------------------
      1          6           0       12.192532    0.534872   -0.751571
      2          6           0      -12.076987   -0.096462    0.890908
      3          6           0       13.436708   -0.314043   -0.676325
      4          6           0      -13.078611    1.006436    1.361917
      5          6           0       13.139605   -1.708102   -0.527539
      6          6           0      -13.500559    1.851113    0.168852
      7          6           0       11.053049   -0.090863    0.313570
      8          6           0      -10.996607    0.534983   -0.168107
      9          6           0       12.280660   -2.189953    0.651955
     10          6           0      -12.160555    2.642677   -0.368139
     11          6           0       11.112206   -1.205067    0.933708
     12          6           0      -11.051226    1.706494   -0.721251
     13          6           0       11.495282    0.406774   -2.283800
     14          6           0       12.501792    2.088221   -0.600479
     15          6           0      -12.902536   -1.288215    0.057773
     16          6           0      -11.360533   -0.721907    2.121838
     17          6           0        9.837517    0.780751    0.395772
     18          6           0       -9.880490   -0.503758   -0.329577
     19          6           0       10.214749   -1.651592    2.062564
     20          6           0      -10.105493    2.206033   -1.733107
     21          6           0        8.553837    0.390382    0.374019
     22          6           0       -8.572615   -0.329204   -0.436037
     23          6           0        7.430963    1.273913    0.528047
     24          6           0       -7.493900   -1.331034   -0.506350
     25          6           0        7.685862    2.854082    0.742688
     26          6           0       -7.891207   -2.744450   -0.823677
     27          6           0        6.230061    0.682296    0.395140
     28          6           0       -6.268321   -0.771497   -0.295089
     29          6           0        4.931256    1.368851    0.406036
     30          6           0       -5.065131   -1.655995   -0.220000
     31          6           0        3.728885    0.765511    0.297175
     32          6           0       -3.843132   -1.187108   -0.286605
     33          6           0        2.343478    1.298530    0.381116
     34          6           0       -2.604077   -1.741304   -0.314663
     35          6           0        2.377980    2.835706    0.489421
     36          6           0       -2.522637   -3.250738   -0.743444
     37          6           0        1.225171    0.540758    0.120356
     38          6           0       -1.430736   -1.033682   -0.220153
     39          6           0        1.113328   -0.830572   -0.229718
     40          6           0       -0.048284   -1.526034   -0.348250
     41          1           0       14.214352   -0.068371    0.042414
     42          1           0       13.967498    0.012169   -1.638431
     43          1           0      -12.376161    1.739245    1.785105
     44          1           0      -13.884724    0.506145    1.886866
     45          1           0       14.108047   -2.471944   -0.580864
     46          1           0       12.662303   -1.978972   -1.414932
     47          1           0      -14.368680    2.558744    0.660967
     48          1           0      -13.878832    1.463508   -0.710779
     49          1           0       13.199452   -1.863228    1.327926
     50          1           0       12.062235   -3.258861    0.656151
     51          1           0      -11.858430    3.420623    0.415764
     52          1           0      -12.427104    3.453855   -1.085535
     53          1           0       11.405053   -0.700007   -2.585101
     54          1           0       12.037326    0.906830   -3.154337
     55          1           0       10.571726    1.167673   -2.335758
     56          1           0       12.854324    2.244973    0.436323
     57          1           0       11.618466    2.519045   -0.663554
     58          1           0       13.426746    2.271050   -1.352271
     59          1           0      -13.212576   -0.923399   -0.882274
     60          1           0      -13.755052   -1.486661    0.918353
     61          1           0      -12.154473   -2.130082    0.110465
     62          1           0      -10.874127    0.156909    2.531674
     63          1           0      -10.602744   -1.533001    1.980413
     64          1           0      -12.167346   -1.173515    2.993073
     65          1           0        9.941058    1.703459    0.559938
     66          1           0      -10.354254   -1.454324   -0.610436
     67          1           0        9.464213   -0.938770    2.599862
     68          1           0       10.854196   -1.941319    3.022534
     69          1           0        9.512559   -2.605779    1.974871
     70          1           0       -9.291834    1.453323   -1.885262
     71          1           0       -9.679010    3.239603   -1.604364
     72          1           0      -10.680692    2.370140   -2.720176
     73          1           0        8.341853   -0.782211    0.115002
     74          1           0       -8.163667    0.687551   -0.087722
     75          1           0        7.949308    3.158141    1.823162
     76          1           0        6.799092    3.363004    0.738484
     77          1           0        8.274167    3.403603   -0.107258
     78          1           0       -8.631113   -2.648955   -1.635543
     79          1           0       -8.410019   -3.218394   -0.048383
     80          1           0       -7.186300   -3.367860   -0.904126
     81          1           0        6.189499   -0.361528    0.136998
     82          1           0       -6.111203    0.320975   -0.141276
     83          1           0        4.929740    2.409920    0.683811
     84          1           0       -5.145932   -2.749476   -0.456194
     85          1           0        3.607944   -0.340986    0.004456
     86          1           0       -3.797649   -0.023116   -0.218904
     87          1           0        2.942322    3.186089    1.343064
     88          1           0        1.409227    3.219576    0.575049
     89          1           0        2.816375    3.136462   -0.333029
     90          1           0       -3.160924   -3.365205   -1.713861
     91          1           0       -2.609512   -3.863304    0.118733
     92          1           0       -1.494385   -3.712596   -0.968896
     93          1           0        0.338686    1.114678    0.266481
     94          1           0       -1.579035    0.102973    0.166237
     95          1           0        2.036633   -1.469788   -0.089803
     96          1           0        0.133659   -2.439435   -0.598966
 ---------------------------------------------------------------------
 Rotational constants (GHZ):           0.2724000           0.0110037           0.0107764
 Standard basis: 6-31G(d,p) (6D, 7F)
 There are   880 symmetry adapted cartesian basis functions of A   symmetry.
 There are   880 symmetry adapted basis functions of A   symmetry.
   880 basis functions,  1512 primitive gaussians,   880 cartesian basis functions
   148 alpha electrons      148 beta electrons
       nuclear repulsion energy      3662.3094167004 Hartrees.
 NAtoms=   96 NActive=   96 NUniq=   96 SFac= 1.00D+00 NAtFMM=   60 NAOKFM=T Big=T
 Integral buffers will be    131072 words long.
 Regular integral format.
 Two-electron integral symmetry is turned on.
 One-electron integrals computed using PRISM.
 NBasis=   880 RedAO= T EigKep=  8.91D-04  NBF=   880
 NBsUse=   880 1.00D-06 EigRej= -1.00D+00 NBFU=   880
 ExpMin= 1.61D-01 ExpMax= 3.05D+03 ExpMxC= 4.57D+02 IAcc=3 IRadAn=         5 AccDes= 0.00D+00
 Harris functional with IExCor=  402 and IRadAn=       5 diagonalized for initial guess.
 HarFok:  IExCor=  402 AccDes= 0.00D+00 IRadAn=         5 IDoV= 1 UseB2=F ITyADJ=14
 ICtDFT=  3500011 ScaDFX=  1.000000  1.000000  1.000000  1.000000
 FoFCou: FMM=F IPFlag=           0 FMFlag=      100000 FMFlg1=        2001
         NFxFlg=           0 DoJE=T BraDBF=F KetDBF=T FulRan=T
         wScrn=  0.000000 ICntrl=       500 IOpCl=  0 I1Cent=   200000004 NGrid=           0
         NMat0=    1 NMatS0=      1 NMatT0=    0 NMatD0=    1 NMtDS0=    0 NMtDT0=    0
 Petite list used in FoFCou.
 Requested convergence on RMS density matrix=1.00D-08 within 128 cycles.
 Requested convergence on MAX density matrix=1.00D-06.
 Requested convergence on             energy=1.00D-06.
 No special actions if energy rises.
 Integral accuracy reduced to 1.0D-05 until final iterations.
 Initial convergence to 1.0D-05 achieved.  Increase integral accuracy.
 SCF Done:  E(RB3LYP) =  -1557.52186141     A.U. after   15 cycles
            NFock= 15  Conv=0.52D-08     -V/T= 2.0106
 DoSCS=F DFT=T ScalE2(SS,OS)=  1.000000  1.000000
 ExpMin= 1.61D-01 ExpMax= 3.05D+03 ExpMxC= 4.57D+02 IAcc=3 IRadAn=         5 AccDes= 0.00D+00
 HarFok:  IExCor=  205 AccDes= 0.00D+00 IRadAn=         5 IDoV=-2 UseB2=F ITyADJ=14
 ICtDFT= 12500011 ScaDFX=  1.000000  1.000000  1.000000  1.000000
 GSVD:  LWork=       -1920 too small for GESVD, short by        8600 words or        8600 for optimal perf.
 Range of M.O.s used for correlation:    41   880
 NBasis=   880 NAE=   148 NBE=   148 NFC=    40 NFV=     0
 NROrb=    840 NOA=   108 NOB=   108 NVA=   732 NVB=   732

 **** Warning!!: The smallest alpha delta epsilon is  0.94280997D-01

 Orbital symmetries:
       Occupied  (A) (A) (A) (A) (A) (A) (A) (A) (A) (A) (A) (A)
                 (A) (A) (A) (A) (A) (A) (A) (A) (A) (A) (A) (A)
                 (A) (A) (A) (A) (A) (A) (A) (A) (A) (A) (A) (A)
                 (A) (A) (A) (A) (A) (A) (A) (A) (A) (A) (A) (A)
                 (A) (A) (A) (A) (A) (A) (A) (A) (A) (A) (A) (A)
                 (A) (A) (A) (A) (A) (A) (A) (A) (A) (A) (A) (A)
                 (A) (A) (A) (A) (A) (A) (A) (A) (A) (A) (A) (A)
                 (A) (A) (A) (A) (A) (A) (A) (A) (A) (A) (A) (A)
                 (A) (A) (A) (A) (A) (A) (A) (A) (A) (A) (A) (A)
                 (A) (A) (A) (A) (A) (A) (A) (A) (A) (A) (A) (A)
                 (A) (A) (A) (A) (A) (A) (A) (A) (A) (A) (A) (A)
                 (A) (A) (A) (A) (A) (A) (A) (A) (A) (A) (A) (A)
                 (A) (A) (A) (A)
       Virtual   (A) (A) (A) (A) (A) (A) (A) (A) (A) (A) (A) (A)
                 (A) (A) (A) (A) (A) (A) (A) (A) (A) (A) (A) (A)
                 (A) (A) (A) (A) (A) (A) (A) (A) (A) (A) (A) (A)
                 (A) (A) (A) (A) (A) (A) (A) (A) (A) (A) (A) (A)
                 (A) (A) (A) (A) (A) (A) (A) (A) (A) (A) (A) (A)
                 (A) (A) (A) (A) (A) (A) (A) (A) (A) (A) (A) (A)
                 (A) (A) (A) (A) (A) (A) (A) (A) (A) (A) (A) (A)
                 (A) (A) (A) (A) (A) (A) (A) (A) (A) (A) (A) (A)
                 (A) (A) (A) (A) (A) (A) (A) (A) (A) (A) (A) (A)
                 (A) (A) (A) (A) (A) (A) (A) (A) (A) (A) (A) (A)
                 (A) (A) (A) (A) (A) (A) (A) (A) (A) (A) (A) (A)
                 (A) (A) (A) (A) (A) (A) (A) (A) (A) (A) (A) (A)
                 (A) (A) (A) (A) (A) (A) (A) (A) (A) (A) (A) (A)
                 (A) (A) (A) (A) (A) (A) (A) (A) (A) (A) (A) (A)
                 (A) (A) (A) (A) (A) (A) (A) (A) (A) (A) (A) (A)
                 (A) (A) (A) (A) (A) (A) (A) (A) (A) (A) (A) (A)
                 (A) (A) (A) (A) (A) (A) (A) (A) (A) (A) (A) (A)
                 (A) (A) (A) (A) (A) (A) (A) (A) (A) (A) (A) (A)
                 (A) (A) (A) (A) (A) (A) (A) (A) (A) (A) (A) (A)
                 (A) (A) (A) (A) (A) (A) (A) (A) (A) (A) (A) (A)
                 (A) (A) (A) (A) (A) (A) (A) (A) (A) (A) (A) (A)
                 (A) (A) (A) (A) (A) (A) (A) (A) (A) (A) (A) (A)
                 (A) (A) (A) (A) (A) (A) (A) (A) (A) (A) (A) (A)
                 (A) (A) (A) (A) (A) (A) (A) (A) (A) (A) (A) (A)
                 (A) (A) (A) (A) (A) (A) (A) (A) (A) (A) (A) (A)
                 (A) (A) (A) (A) (A) (A) (A) (A) (A) (A) (A) (A)
                 (A) (A) (A) (A) (A) (A) (A) (A) (A) (A) (A) (A)
                 (A) (A) (A) (A) (A) (A) (A) (A) (A) (A) (A) (A)
                 (A) (A) (A) (A) (A) (A) (A) (A) (A) (A) (A) (A)
                 (A) (A) (A) (A) (A) (A) (A) (A) (A) (A) (A) (A)
                 (A) (A) (A) (A) (A) (A) (A) (A) (A) (A) (A) (A)
                 (A) (A) (A) (A) (A) (A) (A) (A) (A) (A) (A) (A)
                 (A) (A) (A) (A) (A) (A) (A) (A) (A) (A) (A) (A)
                 (A) (A) (A) (A) (A) (A) (A) (A) (A) (A) (A) (A)
                 (A) (A) (A) (A) (A) (A) (A) (A) (A) (A) (A) (A)
                 (A) (A) (A) (A) (A) (A) (A) (A) (A) (A) (A) (A)
                 (A) (A) (A) (A) (A) (A) (A) (A) (A) (A) (A) (A)
                 (A) (A) (A) (A) (A) (A) (A) (A) (A) (A) (A) (A)
                 (A) (A) (A) (A) (A) (A) (A) (A) (A) (A) (A) (A)
                 (A) (A) (A) (A) (A) (A) (A) (A) (A) (A) (A) (A)
                 (A) (A) (A) (A) (A) (A) (A) (A) (A) (A) (A) (A)
                 (A) (A) (A) (A) (A) (A) (A) (A) (A) (A) (A) (A)
                 (A) (A) (A) (A) (A) (A) (A) (A) (A) (A) (A) (A)
                 (A) (A) (A) (A) (A) (A) (A) (A) (A) (A) (A) (A)
                 (A) (A) (A) (A) (A) (A) (A) (A) (A) (A) (A) (A)
                 (A) (A) (A) (A) (A) (A) (A) (A) (A) (A) (A) (A)
                 (A) (A) (A) (A) (A) (A) (A) (A) (A) (A) (A) (A)
                 (A) (A) (A) (A) (A) (A) (A) (A) (A) (A) (A) (A)
                 (A) (A) (A) (A) (A) (A) (A) (A) (A) (A) (A) (A)
                 (A) (A) (A) (A) (A) (A) (A) (A) (A) (A) (A) (A)
                 (A) (A) (A) (A) (A) (A) (A) (A) (A) (A) (A) (A)
                 (A) (A) (A) (A) (A) (A) (A) (A) (A) (A) (A) (A)
                 (A) (A) (A) (A) (A) (A) (A) (A) (A) (A) (A) (A)
                 (A) (A) (A) (A) (A) (A) (A) (A) (A) (A) (A) (A)
                 (A) (A) (A) (A) (A) (A) (A) (A) (A) (A) (A) (A)
                 (A) (A) (A) (A) (A) (A) (A) (A) (A) (A) (A) (A)
                 (A) (A) (A) (A) (A) (A) (A) (A) (A) (A) (A) (A)
                 (A) (A) (A) (A) (A) (A) (A) (A) (A) (A) (A) (A)
                 (A) (A) (A) (A) (A) (A) (A) (A) (A) (A) (A) (A)
                 (A) (A) (A) (A) (A) (A) (A) (A) (A) (A) (A) (A)
                 (A) (A) (A) (A) (A) (A) (A) (A) (A) (A) (A) (A)
     4 initial guesses have been made.
 Convergence on wavefunction:    0.001000000000000
 Iteration     1 Dimension     4 NMult     0 NNew      4
 CISAX will form     4 AO SS matrices at one time.
 Iteration     2 Dimension     6 NMult     4 NNew      2
 Iteration     3 Dimension     8 NMult     6 NNew      2
 Iteration     4 Dimension    10 NMult     8 NNew      2
 Iteration     5 Dimension    12 NMult    10 NNew      2
 Iteration     6 Dimension    14 NMult    12 NNew      2
 ***********************************************************************
 Excited states from <AA,BB:AA,BB> singles matrix:
 ***********************************************************************
 
 Ground to excited state transition densities written to RWF  633
 Ground to excited state transition electric dipole moments (Au):
       state          X           Y           Z        Dip. S.      Osc.
         1        -6.9584     -0.7348     -0.3119     49.0560      2.9362
 Ground to excited state transition velocity dipole moments (Au):
       state          X           Y           Z        Dip. S.      Osc.
         1         0.6078      0.0660      0.0273      0.3746      2.7813
 Ground to excited state transition magnetic dipole moments (Au):
       state          X           Y           Z
         1         0.0225     -0.1353      0.6716
 Ground to excited state transition velocity quadrupole moments (Au):
       state          XX          YY          ZZ          XY          XZ          YZ
         1         0.2565     -0.0812      0.0246      0.0533      0.1006     -0.0038
 <0|del|b> * <b|rxdel|0> + <0|del|b> * <b|delr+rdel|0>
 Rotatory Strengths (R) in cgs (10**-40 erg-esu-cm/Gauss)
       state          XX          YY          ZZ    R(velocity)    E-M Angle
         1        16.5051    111.1143     53.7800     60.4665       86.85
 1/2[<0|r|b>*<b|rxdel|0> + (<0|rxdel|b>*<b|r|0>)*]
 Rotatory Strengths (R) in cgs (10**-40 erg-esu-cm/Gauss)
       state          XX          YY          ZZ     R(length)
         1       110.5263    -70.3239    148.1430     62.7818
  1/2[<0|del|b>*<b|r|0> + (<0|r|b>*<b|del|0>)*] (Au)
       state          X           Y           Z        Dip. S.   Osc.(frdel)
         1        -4.2295     -0.0485     -0.0085      4.2865      2.8577

 Excitation energies and oscillator strengths:
 
 Excited State   1:      Singlet-A      2.4430 eV  507.50 nm  f=2.9362  <S**2>=0.000
     148 ->149         0.70433
 This state for optimization and/or second-order correction.
 Total Energy, E(TD-HF/TD-DFT) =  -1557.43208107    
 Copying the excited state density for this state as the 1-particle RhoCI density.
 SavETr:  write IOETrn=   770 NScale= 10 NData=  16 NLR=1 NState=    1 LETran=      28.

 **********************************************************************

            Population analysis using the SCF density.

 **********************************************************************

 Orbital symmetries:
       Occupied  (A) (A) (A) (A) (A) (A) (A) (A) (A) (A) (A) (A)
                 (A) (A) (A) (A) (A) (A) (A) (A) (A) (A) (A) (A)
                 (A) (A) (A) (A) (A) (A) (A) (A) (A) (A) (A) (A)
                 (A) (A) (A) (A) (A) (A) (A) (A) (A) (A) (A) (A)
                 (A) (A) (A) (A) (A) (A) (A) (A) (A) (A) (A) (A)
                 (A) (A) (A) (A) (A) (A) (A) (A) (A) (A) (A) (A)
                 (A) (A) (A) (A) (A) (A) (A) (A) (A) (A) (A) (A)
                 (A) (A) (A) (A) (A) (A) (A) (A) (A) (A) (A) (A)
                 (A) (A) (A) (A) (A) (A) (A) (A) (A) (A) (A) (A)
                 (A) (A) (A) (A) (A) (A) (A) (A) (A) (A) (A) (A)
                 (A) (A) (A) (A) (A) (A) (A) (A) (A) (A) (A) (A)
                 (A) (A) (A) (A) (A) (A) (A) (A) (A) (A) (A) (A)
                 (A) (A) (A) (A)
       Virtual   (A) (A) (A) (A) (A) (A) (A) (A) (A) (A) (A) (A)
                 (A) (A) (A) (A) (A) (A) (A) (A) (A) (A) (A) (A)
                 (A) (A) (A) (A) (A) (A) (A) (A) (A) (A) (A) (A)
                 (A) (A) (A) (A) (A) (A) (A) (A) (A) (A) (A) (A)
                 (A) (A) (A) (A) (A) (A) (A) (A) (A) (A) (A) (A)
                 (A) (A) (A) (A) (A) (A) (A) (A) (A) (A) (A) (A)
                 (A) (A) (A) (A) (A) (A) (A) (A) (A) (A) (A) (A)
                 (A) (A) (A) (A) (A) (A) (A) (A) (A) (A) (A) (A)
                 (A) (A) (A) (A) (A) (A) (A) (A) (A) (A) (A) (A)
                 (A) (A) (A) (A) (A) (A) (A) (A) (A) (A) (A) (A)
                 (A) (A) (A) (A) (A) (A) (A) (A) (A) (A) (A) (A)
                 (A) (A) (A) (A) (A) (A) (A) (A) (A) (A) (A) (A)
                 (A) (A) (A) (A) (A) (A) (A) (A) (A) (A) (A) (A)
                 (A) (A) (A) (A) (A) (A) (A) (A) (A) (A) (A) (A)
                 (A) (A) (A) (A) (A) (A) (A) (A) (A) (A) (A) (A)
                 (A) (A) (A) (A) (A) (A) (A) (A) (A) (A) (A) (A)
                 (A) (A) (A) (A) (A) (A) (A) (A) (A) (A) (A) (A)
                 (A) (A) (A) (A) (A) (A) (A) (A) (A) (A) (A) (A)
                 (A) (A) (A) (A) (A) (A) (A) (A) (A) (A) (A) (A)
                 (A) (A) (A) (A) (A) (A) (A) (A) (A) (A) (A) (A)
                 (A) (A) (A) (A) (A) (A) (A) (A) (A) (A) (A) (A)
                 (A) (A) (A) (A) (A) (A) (A) (A) (A) (A) (A) (A)
                 (A) (A) (A) (A) (A) (A) (A) (A) (A) (A) (A) (A)
                 (A) (A) (A) (A) (A) (A) (A) (A) (A) (A) (A) (A)
                 (A) (A) (A) (A) (A) (A) (A) (A) (A) (A) (A) (A)
                 (A) (A) (A) (A) (A) (A) (A) (A) (A) (A) (A) (A)
                 (A) (A) (A) (A) (A) (A) (A) (A) (A) (A) (A) (A)
                 (A) (A) (A) (A) (A) (A) (A) (A) (A) (A) (A) (A)
                 (A) (A) (A) (A) (A) (A) (A) (A) (A) (A) (A) (A)
                 (A) (A) (A) (A) (A) (A) (A) (A) (A) (A) (A) (A)
                 (A) (A) (A) (A) (A) (A) (A) (A) (A) (A) (A) (A)
                 (A) (A) (A) (A) (A) (A) (A) (A) (A) (A) (A) (A)
                 (A) (A) (A) (A) (A) (A) (A) (A) (A) (A) (A) (A)
                 (A) (A) (A) (A) (A) (A) (A) (A) (A) (A) (A) (A)
                 (A) (A) (A) (A) (A) (A) (A) (A) (A) (A) (A) (A)
                 (A) (A) (A) (A) (A) (A) (A) (A) (A) (A) (A) (A)
                 (A) (A) (A) (A) (A) (A) (A) (A) (A) (A) (A) (A)
                 (A) (A) (A) (A) (A) (A) (A) (A) (A) (A) (A) (A)
                 (A) (A) (A) (A) (A) (A) (A) (A) (A) (A) (A) (A)
                 (A) (A) (A) (A) (A) (A) (A) (A) (A) (A) (A) (A)
                 (A) (A) (A) (A) (A) (A) (A) (A) (A) (A) (A) (A)
                 (A) (A) (A) (A) (A) (A) (A) (A) (A) (A) (A) (A)
                 (A) (A) (A) (A) (A) (A) (A) (A) (A) (A) (A) (A)
                 (A) (A) (A) (A) (A) (A) (A) (A) (A) (A) (A) (A)
                 (A) (A) (A) (A) (A) (A) (A) (A) (A) (A) (A) (A)
                 (A) (A) (A) (A) (A) (A) (A) (A) (A) (A) (A) (A)
                 (A) (A) (A) (A) (A) (A) (A) (A) (A) (A) (A) (A)
                 (A) (A) (A) (A) (A) (A) (A) (A) (A) (A) (A) (A)
                 (A) (A) (A) (A) (A) (A) (A) (A) (A) (A) (A) (A)
                 (A) (A) (A) (A) (A) (A) (A) (A) (A) (A) (A) (A)
                 (A) (A) (A) (A) (A) (A) (A) (A) (A) (A) (A) (A)
                 (A) (A) (A) (A) (A) (A) (A) (A) (A) (A) (A) (A)
                 (A) (A) (A) (A) (A) (A) (A) (A) (A) (A) (A) (A)
                 (A) (A) (A) (A) (A) (A) (A) (A) (A) (A) (A) (A)
                 (A) (A) (A) (A) (A) (A) (A) (A) (A) (A) (A) (A)
                 (A) (A) (A) (A) (A) (A) (A) (A) (A) (A) (A) (A)
                 (A) (A) (A) (A) (A) (A) (A) (A) (A) (A) (A) (A)
                 (A) (A) (A) (A) (A) (A) (A) (A) (A) (A) (A) (A)
                 (A) (A) (A) (A) (A) (A) (A) (A) (A) (A) (A) (A)
                 (A) (A) (A) (A) (A) (A) (A) (A) (A) (A) (A) (A)
                 (A) (A) (A) (A) (A) (A) (A) (A) (A) (A) (A) (A)
 The electronic state is 1-A.
 Alpha  occ. eigenvalues --  -10.21646 -10.20649 -10.20390 -10.20300 -10.20209
 Alpha  occ. eigenvalues --  -10.20163 -10.19946 -10.19831 -10.19627 -10.19605
 Alpha  occ. eigenvalues --  -10.19370 -10.19296 -10.19254 -10.19074 -10.19037
 Alpha  occ. eigenvalues --  -10.18988 -10.18975 -10.18907 -10.18861 -10.18857
 Alpha  occ. eigenvalues --  -10.18845 -10.18821 -10.18779 -10.18675 -10.18565
 Alpha  occ. eigenvalues --  -10.18536 -10.18435 -10.18430 -10.18391 -10.18322
 Alpha  occ. eigenvalues --  -10.18157 -10.18150 -10.18103 -10.18087 -10.17819
 Alpha  occ. eigenvalues --  -10.17700 -10.17516 -10.17057 -10.16433 -10.16280
 Alpha  occ. eigenvalues --   -0.84569  -0.84318  -0.83705  -0.82871  -0.82164
 Alpha  occ. eigenvalues --   -0.81537  -0.79196  -0.78271  -0.78010  -0.76775
 Alpha  occ. eigenvalues --   -0.76335  -0.75041  -0.74292  -0.72478  -0.71705
 Alpha  occ. eigenvalues --   -0.70807  -0.69553  -0.68981  -0.67752  -0.67661
 Alpha  occ. eigenvalues --   -0.67134  -0.66703  -0.66581  -0.66148  -0.65770
 Alpha  occ. eigenvalues --   -0.62944  -0.61831  -0.59583  -0.58689  -0.57632
 Alpha  occ. eigenvalues --   -0.56855  -0.55308  -0.54461  -0.53795  -0.52975
 Alpha  occ. eigenvalues --   -0.52653  -0.51733  -0.50554  -0.49951  -0.49175
 Alpha  occ. eigenvalues --   -0.48533  -0.47672  -0.47334  -0.47132  -0.46188
 Alpha  occ. eigenvalues --   -0.45343  -0.45144  -0.44627  -0.43867  -0.43727
 Alpha  occ. eigenvalues --   -0.43387  -0.43237  -0.42927  -0.42580  -0.42451
 Alpha  occ. eigenvalues --   -0.42043  -0.41740  -0.41390  -0.41314  -0.41064
 Alpha  occ. eigenvalues --   -0.40492  -0.40359  -0.39948  -0.39709  -0.39352
 Alpha  occ. eigenvalues --   -0.39165  -0.38794  -0.38327  -0.38074  -0.37942
 Alpha  occ. eigenvalues --   -0.37802  -0.36895  -0.36851  -0.36698  -0.36369
 Alpha  occ. eigenvalues --   -0.36169  -0.36061  -0.35840  -0.35516  -0.34975
 Alpha  occ. eigenvalues --   -0.34900  -0.34830  -0.33996  -0.33884  -0.33806
 Alpha  occ. eigenvalues --   -0.33627  -0.33349  -0.32979  -0.32828  -0.32294
 Alpha  occ. eigenvalues --   -0.32077  -0.31299  -0.31245  -0.31101  -0.30653
 Alpha  occ. eigenvalues --   -0.30343  -0.29839  -0.29022  -0.28536  -0.28257
 Alpha  occ. eigenvalues --   -0.27500  -0.27092  -0.26104  -0.24478  -0.23334
 Alpha  occ. eigenvalues --   -0.21729  -0.19516  -0.17175
 Alpha virt. eigenvalues --   -0.07746  -0.04472  -0.01330   0.01190   0.03246
 Alpha virt. eigenvalues --    0.04386   0.06244   0.06797   0.07197   0.07833
 Alpha virt. eigenvalues --    0.08057   0.08499   0.08706   0.08857   0.09190
 Alpha virt. eigenvalues --    0.09419   0.09466   0.09554   0.10173   0.10204
 Alpha virt. eigenvalues --    0.10405   0.10961   0.11619   0.11777   0.11913
 Alpha virt. eigenvalues --    0.11960   0.12582   0.12815   0.12889   0.13257
 Alpha virt. eigenvalues --    0.13451   0.13630   0.13809   0.14149   0.14287
 Alpha virt. eigenvalues --    0.14465   0.14720   0.15069   0.15310   0.15327
 Alpha virt. eigenvalues --    0.15694   0.15728   0.16169   0.16531   0.16648
 Alpha virt. eigenvalues --    0.16843   0.17322   0.17357   0.17990   0.18377
 Alpha virt. eigenvalues --    0.18513   0.18673   0.18725   0.18805   0.19310
 Alpha virt. eigenvalues --    0.19320   0.19626   0.19957   0.20048   0.20617
 Alpha virt. eigenvalues --    0.20827   0.20882   0.21248   0.21371   0.21739
 Alpha virt. eigenvalues --    0.22017   0.22697   0.23195   0.23298   0.23456
 Alpha virt. eigenvalues --    0.23667   0.24282   0.24459   0.24581   0.25041
 Alpha virt. eigenvalues --    0.25329   0.25971   0.26238   0.26271   0.26688
 Alpha virt. eigenvalues --    0.27045   0.27100   0.27426   0.28043   0.28669
 Alpha virt. eigenvalues --    0.28941   0.29339   0.30995   0.32735   0.33942
 Alpha virt. eigenvalues --    0.34943   0.35651   0.36327   0.36693   0.37280
 Alpha virt. eigenvalues --    0.38041   0.38984   0.39781   0.41282   0.42560
 Alpha virt. eigenvalues --    0.43373   0.43944   0.44579   0.45553   0.46472
 Alpha virt. eigenvalues --    0.48012   0.48639   0.49032   0.49205   0.49777
 Alpha virt. eigenvalues --    0.50217   0.50356   0.50572   0.50808   0.50884
 Alpha virt. eigenvalues --    0.51344   0.52077   0.52343   0.52488   0.52836
 Alpha virt. eigenvalues --    0.53044   0.53112   0.53549   0.53951   0.54199
 Alpha virt. eigenvalues --    0.54677   0.55027   0.55150   0.55201   0.55822
 Alpha virt. eigenvalues --    0.56310   0.56522   0.56701   0.56783   0.57205
 Alpha virt. eigenvalues --    0.57373   0.57529   0.57978   0.58460   0.58759
 Alpha virt. eigenvalues --    0.59249   0.59754   0.60080   0.60427   0.60555
 Alpha virt. eigenvalues --    0.60984   0.61136   0.61977   0.62226   0.62683
 Alpha virt. eigenvalues --    0.63040   0.63199   0.63431   0.63631   0.64216
 Alpha virt. eigenvalues --    0.64865   0.65213   0.65266   0.66181   0.66361
 Alpha virt. eigenvalues --    0.67035   0.67372   0.67542   0.67702   0.68437
 Alpha virt. eigenvalues --    0.68656   0.68785   0.69560   0.69728   0.70202
 Alpha virt. eigenvalues --    0.70533   0.71327   0.71329   0.71469   0.71997
 Alpha virt. eigenvalues --    0.72353   0.72733   0.73038   0.73415   0.73825
 Alpha virt. eigenvalues --    0.74260   0.74530   0.75006   0.75070   0.75905
 Alpha virt. eigenvalues --    0.76413   0.76514   0.77325   0.77604   0.77695
 Alpha virt. eigenvalues --    0.77870   0.78202   0.78313   0.78791   0.78949
 Alpha virt. eigenvalues --    0.79422   0.79703   0.79990   0.80153   0.80650
 Alpha virt. eigenvalues --    0.81152   0.81189   0.81321   0.81655   0.82062
 Alpha virt. eigenvalues --    0.82518   0.82959   0.83475   0.83655   0.83883
 Alpha virt. eigenvalues --    0.84003   0.84212   0.84454   0.84749   0.85142
 Alpha virt. eigenvalues --    0.85372   0.85667   0.86037   0.86122   0.86364
 Alpha virt. eigenvalues --    0.86901   0.87068   0.87714   0.87926   0.88109
 Alpha virt. eigenvalues --    0.88525   0.88861   0.89677   0.89931   0.90493
 Alpha virt. eigenvalues --    0.90583   0.90647   0.90985   0.91106   0.91247
 Alpha virt. eigenvalues --    0.91352   0.91590   0.92213   0.92478   0.92777
 Alpha virt. eigenvalues --    0.92875   0.93028   0.93239   0.93749   0.93817
 Alpha virt. eigenvalues --    0.94217   0.94455   0.94786   0.95068   0.95598
 Alpha virt. eigenvalues --    0.96112   0.96903   0.97489   0.97862   0.98126
 Alpha virt. eigenvalues --    0.98458   0.98878   0.99937   1.00041   1.00601
 Alpha virt. eigenvalues --    1.00998   1.01234   1.01697   1.02440   1.02468
 Alpha virt. eigenvalues --    1.03885   1.04008   1.04751   1.05421   1.05607
 Alpha virt. eigenvalues --    1.05874   1.06959   1.07429   1.07733   1.08373
 Alpha virt. eigenvalues --    1.09257   1.09446   1.10004   1.10595   1.11809
 Alpha virt. eigenvalues --    1.12334   1.12807   1.13298   1.14071   1.14859
 Alpha virt. eigenvalues --    1.15519   1.17117   1.18337   1.18660   1.19537
 Alpha virt. eigenvalues --    1.20565   1.21458   1.22243   1.22574   1.23153
 Alpha virt. eigenvalues --    1.24242   1.24528   1.25460   1.26217   1.26950
 Alpha virt. eigenvalues --    1.27429   1.28554   1.29550   1.30613   1.31744
 Alpha virt. eigenvalues --    1.32418   1.33387   1.34297   1.34749   1.35155
 Alpha virt. eigenvalues --    1.35840   1.36761   1.37399   1.38355   1.38549
 Alpha virt. eigenvalues --    1.38895   1.39283   1.40219   1.40524   1.40889
 Alpha virt. eigenvalues --    1.41017   1.41427   1.41845   1.43216   1.44174
 Alpha virt. eigenvalues --    1.45198   1.45556   1.46241   1.47357   1.48394
 Alpha virt. eigenvalues --    1.48720   1.49309   1.49711   1.49833   1.50504
 Alpha virt. eigenvalues --    1.51943   1.52206   1.53529   1.54913   1.55588
 Alpha virt. eigenvalues --    1.57136   1.57603   1.58425   1.59984   1.60257
 Alpha virt. eigenvalues --    1.61033   1.61420   1.62748   1.62790   1.63758
 Alpha virt. eigenvalues --    1.64534   1.64787   1.65183   1.66924   1.68091
 Alpha virt. eigenvalues --    1.68486   1.68684   1.69713   1.69795   1.70128
 Alpha virt. eigenvalues --    1.70929   1.71682   1.73310   1.73413   1.73472
 Alpha virt. eigenvalues --    1.74335   1.75324   1.75824   1.76070   1.76415
 Alpha virt. eigenvalues --    1.76918   1.77182   1.77376   1.77674   1.77919
 Alpha virt. eigenvalues --    1.79395   1.79494   1.79627   1.81013   1.81310
 Alpha virt. eigenvalues --    1.81573   1.82447   1.82682   1.83653   1.83718
 Alpha virt. eigenvalues --    1.84091   1.84344   1.84723   1.84983   1.85588
 Alpha virt. eigenvalues --    1.86186   1.86435   1.86671   1.86787   1.87155
 Alpha virt. eigenvalues --    1.87995   1.88397   1.88492   1.89275   1.89670
 Alpha virt. eigenvalues --    1.90050   1.90578   1.91147   1.91326   1.91585
 Alpha virt. eigenvalues --    1.91817   1.92452   1.92684   1.92901   1.93464
 Alpha virt. eigenvalues --    1.93822   1.94395   1.94919   1.95449   1.96614
 Alpha virt. eigenvalues --    1.96940   1.97168   1.97848   1.97975   1.98760
 Alpha virt. eigenvalues --    1.99430   1.99765   2.00943   2.01101   2.01359
 Alpha virt. eigenvalues --    2.02028   2.02306   2.02688   2.03024   2.03449
 Alpha virt. eigenvalues --    2.03823   2.04224   2.04820   2.05307   2.05859
 Alpha virt. eigenvalues --    2.05971   2.06177   2.06762   2.06918   2.06953
 Alpha virt. eigenvalues --    2.07350   2.08140   2.08514   2.08760   2.09838
 Alpha virt. eigenvalues --    2.10125   2.10254   2.10402   2.10737   2.10963
 Alpha virt. eigenvalues --    2.12241   2.12889   2.12953   2.13742   2.13747
 Alpha virt. eigenvalues --    2.14495   2.14653   2.15100   2.15246   2.15506
 Alpha virt. eigenvalues --    2.15793   2.15944   2.17036   2.17468   2.17992
 Alpha virt. eigenvalues --    2.18059   2.18262   2.19237   2.19921   2.20533
 Alpha virt. eigenvalues --    2.21299   2.21595   2.21984   2.22192   2.22713
 Alpha virt. eigenvalues --    2.23246   2.24324   2.25606   2.25907   2.26103
 Alpha virt. eigenvalues --    2.26343   2.26812   2.27336   2.27936   2.28520
 Alpha virt. eigenvalues --    2.28810   2.29321   2.29815   2.30350   2.31273
 Alpha virt. eigenvalues --    2.32277   2.32490   2.32840   2.33695   2.34672
 Alpha virt. eigenvalues --    2.34965   2.35262   2.35531   2.36279   2.36394
 Alpha virt. eigenvalues --    2.36928   2.37431   2.37879   2.38145   2.38887
 Alpha virt. eigenvalues --    2.39501   2.39742   2.40338   2.40915   2.41194
 Alpha virt. eigenvalues --    2.41435   2.42274   2.42581   2.43058   2.43379
 Alpha virt. eigenvalues --    2.44004   2.44953   2.45351   2.45516   2.45803
 Alpha virt. eigenvalues --    2.45993   2.46712   2.47198   2.47559   2.48105
 Alpha virt. eigenvalues --    2.48187   2.48378   2.48835   2.49570   2.49627
 Alpha virt. eigenvalues --    2.50163   2.50674   2.51920   2.52015   2.52283
 Alpha virt. eigenvalues --    2.52932   2.54240   2.54784   2.54945   2.55417
 Alpha virt. eigenvalues --    2.55684   2.56858   2.57039   2.57175   2.57488
 Alpha virt. eigenvalues --    2.57888   2.58249   2.59009   2.59691   2.60321
 Alpha virt. eigenvalues --    2.60491   2.61457   2.61781   2.62162   2.62495
 Alpha virt. eigenvalues --    2.62694   2.62801   2.63580   2.63702   2.63786
 Alpha virt. eigenvalues --    2.64230   2.64875   2.65261   2.65660   2.66102
 Alpha virt. eigenvalues --    2.67078   2.67310   2.68527   2.68765   2.69437
 Alpha virt. eigenvalues --    2.70143   2.70292   2.70770   2.71544   2.71914
 Alpha virt. eigenvalues --    2.72310   2.72329   2.73570   2.73988   2.74110
 Alpha virt. eigenvalues --    2.74348   2.74826   2.75341   2.75830   2.75922
 Alpha virt. eigenvalues --    2.76383   2.76863   2.76988   2.77327   2.77938
 Alpha virt. eigenvalues --    2.78781   2.79252   2.80479   2.80652   2.81622
 Alpha virt. eigenvalues --    2.81943   2.82136   2.82334   2.82583   2.82910
 Alpha virt. eigenvalues --    2.83360   2.84152   2.84901   2.85265   2.85859
 Alpha virt. eigenvalues --    2.86536   2.87238   2.87576   2.88319   2.89258
 Alpha virt. eigenvalues --    2.90723   2.91855   2.91886   2.92344   2.92737
 Alpha virt. eigenvalues --    2.92895   2.94890   2.96077   2.96828   2.97355
 Alpha virt. eigenvalues --    2.98281   2.99621   2.99950   3.00106   3.00306
 Alpha virt. eigenvalues --    3.00969   3.02701   3.04650   3.05871   3.06152
 Alpha virt. eigenvalues --    3.07367   3.07891   3.09364   3.10323   3.10550
 Alpha virt. eigenvalues --    3.13191   3.13634   3.13789   3.14643   3.15890
 Alpha virt. eigenvalues --    3.16017   3.17120   3.20072   3.20335   3.20666
 Alpha virt. eigenvalues --    3.24080   3.24930   3.29082   3.29311   3.29964
 Alpha virt. eigenvalues --    3.31904   3.32120   3.32765   3.33077   3.34309
 Alpha virt. eigenvalues --    3.34858   3.35553   3.38280   3.38653   3.38768
 Alpha virt. eigenvalues --    3.38945   3.39639   3.40290   3.41484   3.41572
 Alpha virt. eigenvalues --    3.41608   3.43059   3.44335   3.44547   3.45593
 Alpha virt. eigenvalues --    3.46776   3.46951   3.47705   3.48373   3.49249
 Alpha virt. eigenvalues --    3.49945   3.50961   3.51275   3.52345   3.53573
 Alpha virt. eigenvalues --    3.54991   3.58873   3.59669   3.60077   3.61298
 Alpha virt. eigenvalues --    3.61832   3.65427   3.69437   3.70475   3.81168
 Alpha virt. eigenvalues --    3.86388   3.87953   4.10695   4.12247   4.12909
 Alpha virt. eigenvalues --    4.14095   4.17276   4.17520   4.18773   4.19361
 Alpha virt. eigenvalues --    4.21371   4.24414   4.25679   4.27086   4.30077
 Alpha virt. eigenvalues --    4.32870   4.35493   4.37818   4.39954   4.41317
 Alpha virt. eigenvalues --    4.43646   4.46474   4.46936   4.47089   4.47901
 Alpha virt. eigenvalues --    4.49643   4.50302   4.53443   4.54159   4.56742
 Alpha virt. eigenvalues --    4.58452   4.59107   4.63499   4.65473   4.67064
 Alpha virt. eigenvalues --    4.68963   4.70501   4.72844   4.75249   4.77522
 Alpha virt. eigenvalues --    4.78597   4.80321
          Condensed to atoms (all electrons):
 Mulliken charges:
               1
     1  C   -0.004380
     2  C   -0.016538
     3  C   -0.157942
     4  C   -0.156497
     5  C   -0.190647
     6  C   -0.173731
     7  C    0.051441
     8  C    0.024048
     9  C   -0.216457
    10  C   -0.277103
    11  C    0.103592
    12  C    0.137089
    13  C   -0.306942
    14  C   -0.294641
    15  C   -0.294277
    16  C   -0.284973
    17  C   -0.121239
    18  C   -0.133981
    19  C   -0.366848
    20  C   -0.376637
    21  C   -0.082037
    22  C   -0.116103
    23  C    0.116453
    24  C    0.128078
    25  C   -0.375846
    26  C   -0.354523
    27  C   -0.116086
    28  C   -0.137565
    29  C   -0.093730
    30  C   -0.100807
    31  C   -0.096654
    32  C   -0.097364
    33  C    0.070669
    34  C    0.140253
    35  C   -0.368625
    36  C   -0.380327
    37  C   -0.105239
    38  C   -0.127417
    39  C   -0.107420
    40  C   -0.053363
    41  H    0.088551
    42  H    0.085125
    43  H    0.107852
    44  H    0.091573
    45  H    0.052096
    46  H    0.098713
    47  H    0.059572
    48  H    0.110605
    49  H    0.093313
    50  H    0.108957
    51  H    0.096020
    52  H    0.090488
    53  H    0.104382
    54  H    0.087745
    55  H    0.091903
    56  H    0.101934
    57  H    0.116171
    58  H    0.093517
    59  H    0.118125
    60  H    0.073742
    61  H    0.103612
    62  H    0.111216
    63  H    0.107397
    64  H    0.057526
    65  H    0.065109
    66  H    0.080579
    67  H    0.112663
    68  H    0.090555
    69  H    0.092856
    70  H    0.116780
    71  H    0.105686
    72  H    0.098988
    73  H    0.067518
    74  H    0.077861
    75  H    0.114624
    76  H    0.120973
    77  H    0.114326
    78  H    0.124211
    79  H    0.127048
    80  H    0.111337
    81  H    0.083691
    82  H    0.092565
    83  H    0.075031
    84  H    0.078489
    85  H    0.057894
    86  H    0.055536
    87  H    0.114828
    88  H    0.102023
    89  H    0.144202
    90  H    0.115065
    91  H    0.132176
    92  H    0.097185
    93  H    0.075328
    94  H    0.065815
    95  H    0.087785
    96  H    0.065459
 Sum of Mulliken charges =  -0.00000
 Mulliken charges with hydrogens summed into heavy atoms:
               1
     1  C   -0.004380
     2  C   -0.016538
     3  C    0.015734
     4  C    0.042928
     5  C   -0.039837
     6  C   -0.003555
     7  C    0.051441
     8  C    0.024048
     9  C   -0.014186
    10  C   -0.090595
    11  C    0.103592
    12  C    0.137089
    13  C   -0.022912
    14  C    0.016980
    15  C    0.001202
    16  C   -0.008835
    17  C   -0.056130
    18  C   -0.053402
    19  C   -0.070774
    20  C   -0.055184
    21  C   -0.014519
    22  C   -0.038242
    23  C    0.116453
    24  C    0.128078
    25  C   -0.025923
    26  C    0.008074
    27  C   -0.032396
    28  C   -0.045000
    29  C   -0.018699
    30  C   -0.022318
    31  C   -0.038760
    32  C   -0.041829
    33  C    0.070669
    34  C    0.140253
    35  C   -0.007572
    36  C   -0.035901
    37  C   -0.029911
    38  C   -0.061602
    39  C   -0.019635
    40  C    0.012095
 Electronic spatial extent (au):  <R**2>=          95294.0485
 Charge=              0.0000 electrons
 Dipole moment (field-independent basis, Debye):
    X=             -0.1839    Y=              0.3124    Z=             -0.1522  Tot=              0.3931
 Quadrupole moment (field-independent basis, Debye-Ang):
   XX=           -239.7881   YY=           -231.0092   ZZ=           -255.7060
   XY=              6.1809   XZ=              1.3390   YZ=              1.8219
 Traceless Quadrupole moment (field-independent basis, Debye-Ang):
   XX=              2.3797   YY=             11.1585   ZZ=            -13.5382
   XY=              6.1809   XZ=              1.3390   YZ=              1.8219
 Octapole moment (field-independent basis, Debye-Ang**2):
  XXX=             39.5108  YYY=             -3.5502  ZZZ=             -3.2041  XYY=              4.4061
  XXY=             64.7799  XXZ=            -45.9777  XZZ=              1.6045  YZZ=              5.7072
  YYZ=             -0.9675  XYZ=              5.0427
 Hexadecapole moment (field-independent basis, Debye-Ang**3):
 XXXX=        -126961.6783 YYYY=          -4266.8993 ZZZZ=          -1668.2417 XXXY=            174.1704
 XXXZ=           -298.8451 YYYX=             57.2228 YYYZ=             15.6996 ZZZX=             32.9266
 ZZZY=              3.0055 XXYY=         -21456.8101 XXZZ=         -21912.2269 YYZZ=          -1004.9938
 XXYZ=           -100.6290 YYXZ=             74.1198 ZZXY=             42.6667
 N-N= 3.662309416700D+03 E-N=-1.092462677050D+04  KE= 1.541255414818D+03
 1\1\GINC-RYZEN-SSD1\SP\RB3LYP TD-FC\6-31G(d,p)\C40H56\PADAWAN\28-Jul-2
 019\0\\# td=(NStates=1) B3LYP/6-31G(d,p)\\TD\\0,1\C,0,12.193623705,0.5
 255831588,-0.7571718361\C,0,-12.0764999641,-0.0835433959,0.8847576547\
 C,0,13.437693182,-0.3224719072,-0.6712231213\C,0,-13.0781743173,1.0250
 768992,1.3420249169\C,0,13.1404063548,-1.7145971321,-0.505642323\C,0,-
 13.4996445606,1.8552640385,0.1386642335\C,0,11.0537271666,-0.087084443
 9,0.3150990477\C,0,-10.9957072385,0.5349133736,-0.1814757824\C,0,12.28
 10225397,-2.182030497,0.6793219085\C,0,-12.1593858212,2.6401343216,-0.
 4074390798\C,0,11.1125709651,-1.1936914236,0.9487214405\C,0,-11.050029
 7972,1.6996355854,-0.7488037541\C,0,11.4968702747,0.378979023,-2.28796
 72753\C,0,12.5029837118,2.0806221173,-0.6248240014\C,0,-12.9018877796,
 -1.2852356423,0.0658604159\C,0,-11.3605149195,-0.6940825819,2.12342049
 02\C,0,9.8382518878,0.7855746711,0.3863206326\C,0,-9.8796377707,-0.505
 8131234,-0.3299670845\C,0,10.2146956459,-1.6264124529,2.082610896\C,0,
 -10.1039133615,2.1867804171,-1.7663280977\C,0,8.5545416939,0.395089465
 1,0.3688750937\C,0,-8.5717101294,-0.3326831336,-0.4381001329\C,0,7.431
 7017384,1.280526853,0.511803793\C,0,-7.4930682007,-1.3353920143,-0.495
 8999869\C,0,7.6866817179,2.8631589531,0.7073531723\C,0,-7.8904062288,-
 2.7525152626,-0.7961968973\C,0,6.2307869802,0.6874531343,0.3856807271\
 C,0,-6.2675053604,-0.7734481674,-0.2910312148\C,0,4.9320438551,1.37420
 97529,0.3878184408\C,0,-5.0644260544,-1.657081686,-0.2048218638\C,0,3.
 7296516768,0.7697045357,0.2858805374\C,0,-3.8423596212,-1.1891495477,-
 0.2767001077\C,0,2.3442677282,1.3038310908,0.362890777\C,0,-2.60334933
 43,-1.7437594346,-0.2976230424\C,0,2.3788822598,2.8422035869,0.4525596
 293\C,0,-2.5219127367,-3.2582893554,-0.7080421543\C,0,1.2259741459,0.5
 430556472,0.1109660136\C,0,-1.4299711702,-1.0351520872,-0.2113098361\C
 ,0,1.1141157838,-0.832408188,-0.2224897687\C,0,-0.0475242128,-1.529149
 1547,-0.3329670527\H,0,14.215121618,-0.0681743879,0.0447425172\H,0,13.
 9688338972,-0.0079991756,-1.6370372421\H,0,-12.3757939444,1.7628986801
 ,1.7565292177\H,0,-13.8845093085,0.5312626186,1.8727337115\H,0,14.1087
 915012,-2.4791187296,-0.5493783836\H,0,12.6633722189,-1.9961635164,-1.
 3898451078\H,0,-14.3678601742,2.568890249,0.6218732249\H,0,-13.8776625
 501,1.4570553797,-0.7363276549\H,0,13.199621926,-1.8472172283,1.351587
 0407\H,0,12.0624937039,-3.250788771,0.6964064962\H,0,-11.8574455367,3.
 4275004707,0.3670732243\H,0,-12.4256187758,3.4425777656,-1.1347073719\
 H,0,11.4066340339,-0.7313662139,-2.5758557183\H,0,12.0392508058,0.8683
 915005,-3.1643230063\H,0,10.5734049118,1.1392770394,-2.3494556651\H,0,
 12.8551864727,2.2499018921,0.4101183523\H,0,11.6197203789,2.510730984,
 -0.6934134983\H,0,13.4282046768,2.2542356935,-1.3784701181\H,0,-13.211
 5803887,-0.9318171907,-0.8786439651\H,0,-13.7547076434,-1.4731531195,0
 .9285000707\H,0,-12.1539229955,-2.126471052,0.1290070182\H,0,-10.87415
 99069,0.1895933199,2.5227319323\H,0,-10.6027568011,-1.5069016909,1.992
 0932255\H,0,-12.1676608301,-1.1350179697,2.999798508\H,0,9.9418275894,
 1.7101958797,0.5393198399\H,0,-10.3533997847,-1.4596710771,-0.59943632
 16\H,0,9.4640504825,-0.9070583005,2.6109748551\H,0,10.8537961937,-1.90
 45366516,3.0462360536\H,0,9.5124433115,-2.5815280028,2.0062602476\H,0,
 -9.2902760629,1.4322055332,-1.9090734042\H,0,-9.6773725422,3.221795701
 6,-1.6499850447\H,0,-10.6787681418,2.3389589013,-2.7555055239\H,0,8.34
 25298438,-0.7805388341,0.1240254521\H,0,-8.1627796732,0.6881830124,-0.
 1020038529\H,0,7.9497982119,3.1802730632,1.7841477973\H,0,6.7999618769
 ,3.3720749117,0.6966822479\H,0,8.2753217699,3.4022788899,-0.1489981227
 \H,0,-8.6300339556,-2.6668037395,-1.6094076344\H,0,-8.4095219405,-3.21
 69748848,-0.0153853992\H,0,-7.1855331059,-3.3769203433,-0.8688457698\H
 ,0,6.1902098855,-0.3594211689,0.1402020035\H,0,-6.1103330179,0.3207940
 179,-0.1504253193\H,0,4.9305364109,2.4185703011,0.6529482016\H,0,-5.14
 52546258,-2.7533388503,-0.4277649176\H,0,3.6087011368,-0.3402485948,0.
 0065602944\H,0,-3.7967873099,-0.0244261127,-0.2231041771\H,0,2.9429749
 969,3.2028606822,1.3020788632\H,0,1.4101382146,3.2271734491,0.53320304
 78\H,0,2.8175788167,3.1329237659,-0.3733313027\H,0,-3.1598878584,-3.38
 44568016,-1.6772127321\H,0,-2.6091325191,-3.8603480277,0.1614707985\H,
 0,-1.4936303343,-3.7229426287,-0.9275349799\H,0,0.3394963504,1.1187877
 94,0.2498256278\H,0,-1.5782889175,0.1061185991,0.1612183957\H,0,2.0373
 122757,-1.4699660463,-0.0745270169\H,0,0.1344139522,-2.4455395963,-0.5
 725281137\\Version=ES64L-G16RevA.03\State=1-A\HF=-1557.5218614\RMSD=5.
 202e-09\PG=C01 [X(C40H56)]\\@


 COMMON SENSE IS NOT SO COMMON.   -- VOLTAIRE
 Job cpu time:       0 days 10 hours 18 minutes 13.8 seconds.
 Elapsed time:       0 days  2 hours 35 minutes 35.3 seconds.
 File lengths (MBytes):  RWF=   2884 Int=      0 D2E=      0 Chk=     79 Scr=      1
 Normal termination of Gaussian 16 at Sun Jul 28 16:07:21 2019.
