 Entering Gaussian System, Link 0=g16
 Input=Geometria-322-.com
 Output=Geometria-322-.log
 Initial command:
 /usr/local/g16/l1.exe "/home/padawan/israel-mol/b-caroten/spectra/abs/Gau-97696.inp" -scrdir="/home/padawan/israel-mol/b-caroten/spectra/abs/"
 Entering Link 1 = /usr/local/g16/l1.exe PID=     97698.
  
 Copyright (c) 1988,1990,1992,1993,1995,1998,2003,2009,2016,
            Gaussian, Inc.  All Rights Reserved.
  
 This is part of the Gaussian(R) 16 program.  It is based on
 the Gaussian(R) 09 system (copyright 2009, Gaussian, Inc.),
 the Gaussian(R) 03 system (copyright 2003, Gaussian, Inc.),
 the Gaussian(R) 98 system (copyright 1998, Gaussian, Inc.),
 the Gaussian(R) 94 system (copyright 1995, Gaussian, Inc.),
 the Gaussian 92(TM) system (copyright 1992, Gaussian, Inc.),
 the Gaussian 90(TM) system (copyright 1990, Gaussian, Inc.),
 the Gaussian 88(TM) system (copyright 1988, Gaussian, Inc.),
 the Gaussian 86(TM) system (copyright 1986, Carnegie Mellon
 University), and the Gaussian 82(TM) system (copyright 1983,
 Carnegie Mellon University). Gaussian is a federally registered
 trademark of Gaussian, Inc.
  
 This software contains proprietary and confidential information,
 including trade secrets, belonging to Gaussian, Inc.
  
 This software is provided under written license and may be
 used, copied, transmitted, or stored only in accord with that
 written license.
  
 The following legend is applicable only to US Government
 contracts under FAR:
  
                    RESTRICTED RIGHTS LEGEND
  
 Use, reproduction and disclosure by the US Government is
 subject to restrictions as set forth in subparagraphs (a)
 and (c) of the Commercial Computer Software - Restricted
 Rights clause in FAR 52.227-19.
  
 Gaussian, Inc.
 340 Quinnipiac St., Bldg. 40, Wallingford CT 06492
  
  
 ---------------------------------------------------------------
 Warning -- This program may not be used in any manner that
 competes with the business of Gaussian, Inc. or will provide
 assistance to any competitor of Gaussian, Inc.  The licensee
 of this program is prohibited from giving any competitor of
 Gaussian, Inc. access to this program.  By using this program,
 the user acknowledges that Gaussian, Inc. is engaged in the
 business of creating and licensing software in the field of
 computational chemistry and represents and warrants to the
 licensee that it is not a competitor of Gaussian, Inc. and that
 it will not use this program in any manner prohibited above.
 ---------------------------------------------------------------
  

 Cite this work as:
 Gaussian 16, Revision A.03,
 M. J. Frisch, G. W. Trucks, H. B. Schlegel, G. E. Scuseria, 
 M. A. Robb, J. R. Cheeseman, G. Scalmani, V. Barone, 
 G. A. Petersson, H. Nakatsuji, X. Li, M. Caricato, A. V. Marenich, 
 J. Bloino, B. G. Janesko, R. Gomperts, B. Mennucci, H. P. Hratchian, 
 J. V. Ortiz, A. F. Izmaylov, J. L. Sonnenberg, D. Williams-Young, 
 F. Ding, F. Lipparini, F. Egidi, J. Goings, B. Peng, A. Petrone, 
 T. Henderson, D. Ranasinghe, V. G. Zakrzewski, J. Gao, N. Rega, 
 G. Zheng, W. Liang, M. Hada, M. Ehara, K. Toyota, R. Fukuda, 
 J. Hasegawa, M. Ishida, T. Nakajima, Y. Honda, O. Kitao, H. Nakai, 
 T. Vreven, K. Throssell, J. A. Montgomery, Jr., J. E. Peralta, 
 F. Ogliaro, M. J. Bearpark, J. J. Heyd, E. N. Brothers, K. N. Kudin, 
 V. N. Staroverov, T. A. Keith, R. Kobayashi, J. Normand, 
 K. Raghavachari, A. P. Rendell, J. C. Burant, S. S. Iyengar, 
 J. Tomasi, M. Cossi, J. M. Millam, M. Klene, C. Adamo, R. Cammi, 
 J. W. Ochterski, R. L. Martin, K. Morokuma, O. Farkas, 
 J. B. Foresman, and D. J. Fox, Gaussian, Inc., Wallingford CT, 2016.
 
 ******************************************
 Gaussian 16:  ES64L-G16RevA.03 25-Dec-2016
                30-Jul-2019 
 ******************************************
 %nproc=4
 Will use up to    4 processors via shared memory.
 %Mem=2GB
 ---------------------------------
 # td=(NStates=1) B3LYP/6-31G(d,p)
 ---------------------------------
 1/38=1,172=1/1;
 2/12=2,17=6,18=5,40=1/2;
 3/5=1,6=6,7=101,11=9,25=1,30=1,74=-5/1,2,3,8;
 4//1;
 5/5=2,38=5/2;
 8/6=1,10=2,108=1/1;
 9/41=1,42=1,70=2/14;
 6/7=2,8=2,9=2,10=2/1;
 99/5=1,9=1/99;
 --
 TD
 --
 Symbolic Z-matrix:
 Charge =  0 Multiplicity = 1
 6                     12.24496   0.47565  -0.69943 
 6                    -12.21509  -0.1904    0.85452 
 6                     13.50755  -0.26412  -0.55737 
 6                    -13.16179   1.01245   1.20974 
 6                     13.29635  -1.82062  -0.51815 
 6                    -13.55768   1.90522   0.03699 
 6                     11.06959  -0.13855   0.16058 
 6                    -11.11007   0.40016  -0.12674 
 6                     12.35885  -2.25373   0.5736 
 6                    -12.32206   2.56621  -0.58005 
 6                     11.22554  -1.30527   0.85459 
 6                    -11.19705   1.56947  -0.75534 
 6                     11.68049   0.49534  -2.1838 
 6                     12.66076   1.87425  -0.29587 
 6                    -12.99145  -1.3287    0.1384 
 6                    -11.51383  -0.78589   2.1691 
 6                     9.91062   0.82055   0.42499 
 6                    -9.92386  -0.46929  -0.28739 
 6                     10.26107  -1.81221   1.93629 
 6                    -10.13334   2.02108  -1.74593 
 6                     8.59562   0.47703   0.40765 
 6                    -8.62278  -0.29472  -0.08813 
 6                     7.44558   1.40257   0.48107 
 6                    -7.55644  -1.21529  -0.34628 
 6                     7.63653   2.83686   0.78818 
 6                    -7.94869  -2.59642  -0.69169 
 6                     6.19752   0.77447   0.14355 
 6                    -6.23902  -0.76556  -0.33512 
 6                     4.93511   1.43257   0.16509 
 6                    -5.0619   -1.48907  -0.44884 
 6                     3.74599   0.7295    0.11192 
 6                    -3.87238  -1.00054  -0.15835 
 6                     2.45748   1.28181   0.17524 
 6                    -2.5065   -1.6523   -0.33274 
 6                     2.36014   2.83712   0.44756 
 6                    -2.57937  -3.14037  -0.44761 
 6                     1.23243   0.6027    0.07267 
 6                    -1.37262  -1.01961  -0.25018 
 6                     1.15277  -0.76959  -0.18353 
 6                     0.05229  -1.52483  -0.33015 
 1                     14.13676   0.1484    0.55822 
 1                     14.48508  -0.08059  -1.36891 
 1                    -12.68306   1.61119   1.9321 
 1                    -14.13833   0.6967    1.71819 
 1                     14.37507  -2.25442  -0.16301 
 1                     12.90138  -2.15366  -1.65614 
 1                    -14.35215   2.68038   0.43125 
 1                    -14.05945   1.17894  -0.6891 
 1                     12.85398  -2.39466   1.62905 
 1                     12.04518  -3.32206   0.29874 
 1                    -11.98188   3.40921   0.029 
 1                    -12.76605   3.12773  -1.51375 
 1                     11.44951  -0.32639  -2.71452 
 1                     12.41168   0.96835  -2.88092 
 1                     10.91153   1.2946   -2.26359 
 1                     12.91696   2.05843   0.81177 
 1                     12.00163   2.62377  -0.7231 
 1                     13.77739   2.07164  -0.8681 
 1                    -13.51946  -0.85196  -0.66385 
 1                    -13.61405  -1.61734   1.01511 
 1                    -12.36827  -2.33629  -0.37819 
 1                    -10.99549   0.02849   2.9079 
 1                    -10.82417  -1.57616   2.10149 
 1                    -12.55951  -1.24177   2.58351 
 1                     10.0963   2.06258   0.38615 
 1                    -10.3864  -1.46442  -0.74441 
 1                     9.32753  -1.19408   2.1263 
 1                     10.80398  -2.21861   3.01393 
 1                     9.63076  -2.67332   1.66491 
 1                    -9.21261   1.15625  -1.56607 
 1                    -9.72463   2.86945  -1.2793 
 1                    -10.61039   2.30926  -2.82957 
 1                     8.59095  -0.55189   0.25618 
 1                    -8.44982   0.75578   0.28837 
 1                     8.04455   2.89516   1.81653 
 1                     6.77083   3.27995   1.15843 
 1                     8.4286    3.4166    0.14045 
 1                    -8.65679  -2.78244  -1.54709 
 1                    -8.59181  -2.64223   0.25374 
 1                    -7.14763  -3.32317  -0.73133 
 1                     6.15252  -0.27287   0.02403 
 1                    -6.03043   0.27905   0.03986 
 1                     4.9154    2.56944   0.70604 
 1                    -5.25139  -2.56655  -0.3914 
 1                     3.96504  -0.21439  -0.1259 
 1                    -3.56179   0.00102   0.15739 
 1                     2.47003   3.10591   1.58599 
 1                     1.27752   3.40616   0.37189 
 1                     2.86296   3.2702   -0.20863 
 1                    -3.3089   -3.67376  -1.24172 
 1                    -2.84881  -3.50804   0.55231 
 1                    -1.50622  -3.53292  -0.7633 
 1                     0.30721   1.26289   0.26819 
 1                    -1.34131   0.13834  -0.13245 
 1                     1.93875  -1.41677  -0.40448 
 1                    -0.09385  -2.52608  -0.35618 
 
 Stoichiometry    C40H56
 Framework group  C1[X(C40H56)]
 Deg. of freedom   282
 Full point group                 C1      NOp   1
 Largest Abelian subgroup         C1      NOp   1
 Largest concise Abelian subgroup C1      NOp   1
                         Standard orientation:                         
 ---------------------------------------------------------------------
 Center     Atomic      Atomic             Coordinates (Angstroms)
 Number     Number       Type             X           Y           Z
 ---------------------------------------------------------------------
      1          6           0       12.244406    0.501231   -0.689058
      2          6           0      -12.215323   -0.221300    0.844617
      3          6           0       13.507132   -0.242744   -0.572469
      4          6           0      -13.162159    0.968594    1.240750
      5          6           0       13.296180   -1.799711   -0.586291
      6          6           0      -13.558350    1.900753    0.099163
      7          6           0       11.069252   -0.142107    0.149680
      8          6           0      -11.110529    0.402539   -0.116102
      9          6           0       12.358900   -2.269927    0.490197
     10          6           0      -12.322922    2.582583   -0.495160
     11          6           0       11.225485   -1.331780    0.803502
     12          6           0      -11.197784    1.592581   -0.704478
     13          6           0       11.679723    0.571409   -2.171818
     14          6           0       12.660047    1.885335   -0.238129
     15          6           0      -12.991601   -1.334653    0.090218
     16          6           0      -11.513782   -0.861131    2.138034
     17          6           0        9.910172    0.807237    0.446781
     18          6           0       -9.924210   -0.460741   -0.306453
     19          6           0       10.261244   -1.875442    1.867422
     20          6           0      -10.134276    2.077859   -1.679238
     21          6           0        8.595219    0.464297    0.417917
     22          6           0       -8.623122   -0.292856   -0.101529
     23          6           0        7.445053    1.386615    0.522995
     24          6           0       -7.556685   -1.203923   -0.391047
     25          6           0        7.635818    2.809633    0.878782
     26          6           0       -7.948767   -2.572542   -0.783273
     27          6           0        6.197044    0.770186    0.164431
     28          6           0       -6.239331   -0.754622   -0.364746
     29          6           0        4.934535    1.426962    0.208558
     30          6           0       -5.062109   -1.473655   -0.503218
     31          6           0        3.745516    0.725927    0.131627
     32          6           0       -3.872630   -0.995115   -0.196412
     33          6           0        2.456925    1.275551    0.213907
     34          6           0       -2.506671   -1.640335   -0.393096
     35          6           0        2.359384    2.820665    0.539085
     36          6           0       -2.579325   -3.123634   -0.558603
     37          6           0        1.231971    0.600138    0.088419
     38          6           0       -1.372873   -1.010645   -0.289183
     39          6           0        1.152483   -0.762640   -0.214387
     40          6           0        0.052095   -1.512617   -0.386512
     41          1           0       14.136439    0.131611    0.556451
     42          1           0       14.484514   -0.031507   -1.377414
     43          1           0      -12.683421    1.542452    1.983026
     44          1           0      -14.138580    0.635547    1.738273
     45          1           0       14.375014   -2.245189   -0.246284
     46          1           0       12.901095   -2.093840   -1.734914
     47          1           0      -14.352883    2.661901    0.519720
     48          1           0      -14.060111    1.199558   -0.651196
     49          1           0       12.854198   -2.446670    1.540167
     50          1           0       12.045359   -3.328317    0.179126
     51          1           0      -11.982782    3.404393    0.142215
     52          1           0      -12.767131    3.175526   -1.409120
     53          1           0       11.448795   -0.231790   -2.730206
     54          1           0       12.410740    1.068020   -2.852520
     55          1           0       10.910628    1.372803   -2.224219
     56          1           0       12.916378    2.031701    0.875109
     57          1           0       12.000739    2.648875   -0.639473
     58          1           0       13.776565    2.102286   -0.803450
     59          1           0      -13.519803   -0.830933   -0.695247
     60          1           0      -13.614039   -1.653101    0.956668
     61          1           0      -12.368346   -2.323955   -0.460497
     62          1           0      -10.995465   -0.072321    2.904094
     63          1           0      -10.824008   -1.648525    2.043446
     64          1           0      -12.559332   -1.331033    2.536811
     65          1           0       10.095658    2.049902    0.450267
     66          1           0      -10.386661   -1.439794   -0.797057
     67          1           0        9.327632   -1.264292    2.078515
     68          1           0       10.804371   -2.318243    2.930519
     69          1           0        9.631024   -2.726900    1.566939
     70          1           0       -9.213389    1.207543   -1.529085
     71          1           0       -9.725633    2.909896   -1.184024
     72          1           0      -10.611529    2.402719   -2.752370
     73          1           0        8.590696   -0.558857    0.231470
     74          1           0       -8.450275    0.744230    0.310521
     75          1           0        8.043975    2.832926    1.908467
     76          1           0        6.770104    3.239709    1.264033
     77          1           0        8.427707    3.411242    0.251078
     78          1           0       -8.656954   -2.729410   -1.644425
     79          1           0       -8.591745   -2.650646    0.160132
     80          1           0       -7.147598   -3.297396   -0.847773
     81          1           0        6.152181   -0.272484    0.009297
     82          1           0       -6.030843    0.276632    0.045587
     83          1           0        4.914726    2.544732    0.787949
     84          1           0       -5.251423   -2.552493   -0.482512
     85          1           0        3.964672   -0.209271   -0.138258
     86          1           0       -3.562152   -0.004851    0.153238
     87          1           0        2.469390    3.050517    1.685997
     88          1           0        1.276669    3.391779    0.482997
     89          1           0        2.862047    3.275932   -0.102037
     90          1           0       -3.308889   -3.629766   -1.370333
     91          1           0       -2.848565   -3.525216    0.428238
     92          1           0       -1.506162   -3.505032   -0.887636
     93          1           0        0.306675    1.253134    0.306446
     94          1           0       -1.341726    0.142628   -0.132060
     95          1           0        1.938535   -1.401787   -0.457376
     96          1           0       -0.093888   -2.512420   -0.446629
 ---------------------------------------------------------------------
 Rotational constants (GHZ):           0.2854781           0.0108432           0.0106223
 Standard basis: 6-31G(d,p) (6D, 7F)
 There are   880 symmetry adapted cartesian basis functions of A   symmetry.
 There are   880 symmetry adapted basis functions of A   symmetry.
   880 basis functions,  1512 primitive gaussians,   880 cartesian basis functions
   148 alpha electrons      148 beta electrons
       nuclear repulsion energy      3656.3910962069 Hartrees.
 NAtoms=   96 NActive=   96 NUniq=   96 SFac= 1.00D+00 NAtFMM=   60 NAOKFM=T Big=T
 Integral buffers will be    131072 words long.
 Regular integral format.
 Two-electron integral symmetry is turned on.
 One-electron integrals computed using PRISM.
 NBasis=   880 RedAO= T EigKep=  8.30D-04  NBF=   880
 NBsUse=   880 1.00D-06 EigRej= -1.00D+00 NBFU=   880
 ExpMin= 1.61D-01 ExpMax= 3.05D+03 ExpMxC= 4.57D+02 IAcc=3 IRadAn=         5 AccDes= 0.00D+00
 Harris functional with IExCor=  402 and IRadAn=       5 diagonalized for initial guess.
 HarFok:  IExCor=  402 AccDes= 0.00D+00 IRadAn=         5 IDoV= 1 UseB2=F ITyADJ=14
 ICtDFT=  3500011 ScaDFX=  1.000000  1.000000  1.000000  1.000000
 FoFCou: FMM=F IPFlag=           0 FMFlag=      100000 FMFlg1=        2001
         NFxFlg=           0 DoJE=T BraDBF=F KetDBF=T FulRan=T
         wScrn=  0.000000 ICntrl=       500 IOpCl=  0 I1Cent=   200000004 NGrid=           0
         NMat0=    1 NMatS0=      1 NMatT0=    0 NMatD0=    1 NMtDS0=    0 NMtDT0=    0
 Petite list used in FoFCou.
 Requested convergence on RMS density matrix=1.00D-08 within 128 cycles.
 Requested convergence on MAX density matrix=1.00D-06.
 Requested convergence on             energy=1.00D-06.
 No special actions if energy rises.
 Integral accuracy reduced to 1.0D-05 until final iterations.
 Initial convergence to 1.0D-05 achieved.  Increase integral accuracy.
 SCF Done:  E(RB3LYP) =  -1557.46277491     A.U. after   15 cycles
            NFock= 15  Conv=0.91D-08     -V/T= 2.0115
 DoSCS=F DFT=T ScalE2(SS,OS)=  1.000000  1.000000
 ExpMin= 1.61D-01 ExpMax= 3.05D+03 ExpMxC= 4.57D+02 IAcc=3 IRadAn=         5 AccDes= 0.00D+00
 HarFok:  IExCor=  205 AccDes= 0.00D+00 IRadAn=         5 IDoV=-2 UseB2=F ITyADJ=14
 ICtDFT= 12500011 ScaDFX=  1.000000  1.000000  1.000000  1.000000
 GSVD:  LWork=       -1920 too small for GESVD, short by        8600 words or        8600 for optimal perf.
 Range of M.O.s used for correlation:    41   880
 NBasis=   880 NAE=   148 NBE=   148 NFC=    40 NFV=     0
 NROrb=    840 NOA=   108 NOB=   108 NVA=   732 NVB=   732

 **** Warning!!: The smallest alpha delta epsilon is  0.85892400D-01

 Orbital symmetries:
       Occupied  (A) (A) (A) (A) (A) (A) (A) (A) (A) (A) (A) (A)
                 (A) (A) (A) (A) (A) (A) (A) (A) (A) (A) (A) (A)
                 (A) (A) (A) (A) (A) (A) (A) (A) (A) (A) (A) (A)
                 (A) (A) (A) (A) (A) (A) (A) (A) (A) (A) (A) (A)
                 (A) (A) (A) (A) (A) (A) (A) (A) (A) (A) (A) (A)
                 (A) (A) (A) (A) (A) (A) (A) (A) (A) (A) (A) (A)
                 (A) (A) (A) (A) (A) (A) (A) (A) (A) (A) (A) (A)
                 (A) (A) (A) (A) (A) (A) (A) (A) (A) (A) (A) (A)
                 (A) (A) (A) (A) (A) (A) (A) (A) (A) (A) (A) (A)
                 (A) (A) (A) (A) (A) (A) (A) (A) (A) (A) (A) (A)
                 (A) (A) (A) (A) (A) (A) (A) (A) (A) (A) (A) (A)
                 (A) (A) (A) (A) (A) (A) (A) (A) (A) (A) (A) (A)
                 (A) (A) (A) (A)
       Virtual   (A) (A) (A) (A) (A) (A) (A) (A) (A) (A) (A) (A)
                 (A) (A) (A) (A) (A) (A) (A) (A) (A) (A) (A) (A)
                 (A) (A) (A) (A) (A) (A) (A) (A) (A) (A) (A) (A)
                 (A) (A) (A) (A) (A) (A) (A) (A) (A) (A) (A) (A)
                 (A) (A) (A) (A) (A) (A) (A) (A) (A) (A) (A) (A)
                 (A) (A) (A) (A) (A) (A) (A) (A) (A) (A) (A) (A)
                 (A) (A) (A) (A) (A) (A) (A) (A) (A) (A) (A) (A)
                 (A) (A) (A) (A) (A) (A) (A) (A) (A) (A) (A) (A)
                 (A) (A) (A) (A) (A) (A) (A) (A) (A) (A) (A) (A)
                 (A) (A) (A) (A) (A) (A) (A) (A) (A) (A) (A) (A)
                 (A) (A) (A) (A) (A) (A) (A) (A) (A) (A) (A) (A)
                 (A) (A) (A) (A) (A) (A) (A) (A) (A) (A) (A) (A)
                 (A) (A) (A) (A) (A) (A) (A) (A) (A) (A) (A) (A)
                 (A) (A) (A) (A) (A) (A) (A) (A) (A) (A) (A) (A)
                 (A) (A) (A) (A) (A) (A) (A) (A) (A) (A) (A) (A)
                 (A) (A) (A) (A) (A) (A) (A) (A) (A) (A) (A) (A)
                 (A) (A) (A) (A) (A) (A) (A) (A) (A) (A) (A) (A)
                 (A) (A) (A) (A) (A) (A) (A) (A) (A) (A) (A) (A)
                 (A) (A) (A) (A) (A) (A) (A) (A) (A) (A) (A) (A)
                 (A) (A) (A) (A) (A) (A) (A) (A) (A) (A) (A) (A)
                 (A) (A) (A) (A) (A) (A) (A) (A) (A) (A) (A) (A)
                 (A) (A) (A) (A) (A) (A) (A) (A) (A) (A) (A) (A)
                 (A) (A) (A) (A) (A) (A) (A) (A) (A) (A) (A) (A)
                 (A) (A) (A) (A) (A) (A) (A) (A) (A) (A) (A) (A)
                 (A) (A) (A) (A) (A) (A) (A) (A) (A) (A) (A) (A)
                 (A) (A) (A) (A) (A) (A) (A) (A) (A) (A) (A) (A)
                 (A) (A) (A) (A) (A) (A) (A) (A) (A) (A) (A) (A)
                 (A) (A) (A) (A) (A) (A) (A) (A) (A) (A) (A) (A)
                 (A) (A) (A) (A) (A) (A) (A) (A) (A) (A) (A) (A)
                 (A) (A) (A) (A) (A) (A) (A) (A) (A) (A) (A) (A)
                 (A) (A) (A) (A) (A) (A) (A) (A) (A) (A) (A) (A)
                 (A) (A) (A) (A) (A) (A) (A) (A) (A) (A) (A) (A)
                 (A) (A) (A) (A) (A) (A) (A) (A) (A) (A) (A) (A)
                 (A) (A) (A) (A) (A) (A) (A) (A) (A) (A) (A) (A)
                 (A) (A) (A) (A) (A) (A) (A) (A) (A) (A) (A) (A)
                 (A) (A) (A) (A) (A) (A) (A) (A) (A) (A) (A) (A)
                 (A) (A) (A) (A) (A) (A) (A) (A) (A) (A) (A) (A)
                 (A) (A) (A) (A) (A) (A) (A) (A) (A) (A) (A) (A)
                 (A) (A) (A) (A) (A) (A) (A) (A) (A) (A) (A) (A)
                 (A) (A) (A) (A) (A) (A) (A) (A) (A) (A) (A) (A)
                 (A) (A) (A) (A) (A) (A) (A) (A) (A) (A) (A) (A)
                 (A) (A) (A) (A) (A) (A) (A) (A) (A) (A) (A) (A)
                 (A) (A) (A) (A) (A) (A) (A) (A) (A) (A) (A) (A)
                 (A) (A) (A) (A) (A) (A) (A) (A) (A) (A) (A) (A)
                 (A) (A) (A) (A) (A) (A) (A) (A) (A) (A) (A) (A)
                 (A) (A) (A) (A) (A) (A) (A) (A) (A) (A) (A) (A)
                 (A) (A) (A) (A) (A) (A) (A) (A) (A) (A) (A) (A)
                 (A) (A) (A) (A) (A) (A) (A) (A) (A) (A) (A) (A)
                 (A) (A) (A) (A) (A) (A) (A) (A) (A) (A) (A) (A)
                 (A) (A) (A) (A) (A) (A) (A) (A) (A) (A) (A) (A)
                 (A) (A) (A) (A) (A) (A) (A) (A) (A) (A) (A) (A)
                 (A) (A) (A) (A) (A) (A) (A) (A) (A) (A) (A) (A)
                 (A) (A) (A) (A) (A) (A) (A) (A) (A) (A) (A) (A)
                 (A) (A) (A) (A) (A) (A) (A) (A) (A) (A) (A) (A)
                 (A) (A) (A) (A) (A) (A) (A) (A) (A) (A) (A) (A)
                 (A) (A) (A) (A) (A) (A) (A) (A) (A) (A) (A) (A)
                 (A) (A) (A) (A) (A) (A) (A) (A) (A) (A) (A) (A)
                 (A) (A) (A) (A) (A) (A) (A) (A) (A) (A) (A) (A)
                 (A) (A) (A) (A) (A) (A) (A) (A) (A) (A) (A) (A)
                 (A) (A) (A) (A) (A) (A) (A) (A) (A) (A) (A) (A)
                 (A) (A) (A) (A) (A) (A) (A) (A) (A) (A) (A) (A)
     4 initial guesses have been made.
 Convergence on wavefunction:    0.001000000000000
 Iteration     1 Dimension     4 NMult     0 NNew      4
 CISAX will form     4 AO SS matrices at one time.
 Iteration     2 Dimension     6 NMult     4 NNew      2
 Iteration     3 Dimension     8 NMult     6 NNew      2
 Iteration     4 Dimension    10 NMult     8 NNew      2
 Iteration     5 Dimension    12 NMult    10 NNew      2
 Iteration     6 Dimension    14 NMult    12 NNew      2
 ***********************************************************************
 Excited states from <AA,BB:AA,BB> singles matrix:
 ***********************************************************************
 
 Ground to excited state transition densities written to RWF  633
 Ground to excited state transition electric dipole moments (Au):
       state          X           Y           Z        Dip. S.      Osc.
         1         7.1729      0.6643      0.4175     52.0665      2.9079
 Ground to excited state transition velocity dipole moments (Au):
       state          X           Y           Z        Dip. S.      Osc.
         1        -0.5827     -0.0555     -0.0345      0.3438      2.7356
 Ground to excited state transition magnetic dipole moments (Au):
       state          X           Y           Z
         1        -0.0397      0.2395     -0.1386
 Ground to excited state transition velocity quadrupole moments (Au):
       state          XX          YY          ZZ          XY          XZ          YZ
         1        -2.0340     -0.0180     -0.0302     -0.0023     -0.1508      0.0306
 <0|del|b> * <b|rxdel|0> + <0|del|b> * <b|delr+rdel|0>
 Rotatory Strengths (R) in cgs (10**-40 erg-esu-cm/Gauss)
       state          XX          YY          ZZ    R(velocity)    E-M Angle
         1       -70.8408     42.4284    152.1246     41.2374       84.87
 1/2[<0|r|b>*<b|rxdel|0> + (<0|rxdel|b>*<b|r|0>)*]
 Rotatory Strengths (R) in cgs (10**-40 erg-esu-cm/Gauss)
       state          XX          YY          ZZ     R(length)
         1       201.5852   -112.5066     40.9268     43.3351
  1/2[<0|del|b>*<b|r|0> + (<0|r|b>*<b|del|0>)*] (Au)
       state          X           Y           Z        Dip. S.   Osc.(frdel)
         1        -4.1794     -0.0368     -0.0144      4.2306      2.8204

 Excitation energies and oscillator strengths:
 
 Excited State   1:      Singlet-A      2.2796 eV  543.88 nm  f=2.9079  <S**2>=0.000
     147 ->149         0.11346
     148 ->149         0.69708
 This state for optimization and/or second-order correction.
 Total Energy, E(TD-HF/TD-DFT) =  -1557.37899970    
 Copying the excited state density for this state as the 1-particle RhoCI density.
 SavETr:  write IOETrn=   770 NScale= 10 NData=  16 NLR=1 NState=    1 LETran=      28.

 **********************************************************************

            Population analysis using the SCF density.

 **********************************************************************

 Orbital symmetries:
       Occupied  (A) (A) (A) (A) (A) (A) (A) (A) (A) (A) (A) (A)
                 (A) (A) (A) (A) (A) (A) (A) (A) (A) (A) (A) (A)
                 (A) (A) (A) (A) (A) (A) (A) (A) (A) (A) (A) (A)
                 (A) (A) (A) (A) (A) (A) (A) (A) (A) (A) (A) (A)
                 (A) (A) (A) (A) (A) (A) (A) (A) (A) (A) (A) (A)
                 (A) (A) (A) (A) (A) (A) (A) (A) (A) (A) (A) (A)
                 (A) (A) (A) (A) (A) (A) (A) (A) (A) (A) (A) (A)
                 (A) (A) (A) (A) (A) (A) (A) (A) (A) (A) (A) (A)
                 (A) (A) (A) (A) (A) (A) (A) (A) (A) (A) (A) (A)
                 (A) (A) (A) (A) (A) (A) (A) (A) (A) (A) (A) (A)
                 (A) (A) (A) (A) (A) (A) (A) (A) (A) (A) (A) (A)
                 (A) (A) (A) (A) (A) (A) (A) (A) (A) (A) (A) (A)
                 (A) (A) (A) (A)
       Virtual   (A) (A) (A) (A) (A) (A) (A) (A) (A) (A) (A) (A)
                 (A) (A) (A) (A) (A) (A) (A) (A) (A) (A) (A) (A)
                 (A) (A) (A) (A) (A) (A) (A) (A) (A) (A) (A) (A)
                 (A) (A) (A) (A) (A) (A) (A) (A) (A) (A) (A) (A)
                 (A) (A) (A) (A) (A) (A) (A) (A) (A) (A) (A) (A)
                 (A) (A) (A) (A) (A) (A) (A) (A) (A) (A) (A) (A)
                 (A) (A) (A) (A) (A) (A) (A) (A) (A) (A) (A) (A)
                 (A) (A) (A) (A) (A) (A) (A) (A) (A) (A) (A) (A)
                 (A) (A) (A) (A) (A) (A) (A) (A) (A) (A) (A) (A)
                 (A) (A) (A) (A) (A) (A) (A) (A) (A) (A) (A) (A)
                 (A) (A) (A) (A) (A) (A) (A) (A) (A) (A) (A) (A)
                 (A) (A) (A) (A) (A) (A) (A) (A) (A) (A) (A) (A)
                 (A) (A) (A) (A) (A) (A) (A) (A) (A) (A) (A) (A)
                 (A) (A) (A) (A) (A) (A) (A) (A) (A) (A) (A) (A)
                 (A) (A) (A) (A) (A) (A) (A) (A) (A) (A) (A) (A)
                 (A) (A) (A) (A) (A) (A) (A) (A) (A) (A) (A) (A)
                 (A) (A) (A) (A) (A) (A) (A) (A) (A) (A) (A) (A)
                 (A) (A) (A) (A) (A) (A) (A) (A) (A) (A) (A) (A)
                 (A) (A) (A) (A) (A) (A) (A) (A) (A) (A) (A) (A)
                 (A) (A) (A) (A) (A) (A) (A) (A) (A) (A) (A) (A)
                 (A) (A) (A) (A) (A) (A) (A) (A) (A) (A) (A) (A)
                 (A) (A) (A) (A) (A) (A) (A) (A) (A) (A) (A) (A)
                 (A) (A) (A) (A) (A) (A) (A) (A) (A) (A) (A) (A)
                 (A) (A) (A) (A) (A) (A) (A) (A) (A) (A) (A) (A)
                 (A) (A) (A) (A) (A) (A) (A) (A) (A) (A) (A) (A)
                 (A) (A) (A) (A) (A) (A) (A) (A) (A) (A) (A) (A)
                 (A) (A) (A) (A) (A) (A) (A) (A) (A) (A) (A) (A)
                 (A) (A) (A) (A) (A) (A) (A) (A) (A) (A) (A) (A)
                 (A) (A) (A) (A) (A) (A) (A) (A) (A) (A) (A) (A)
                 (A) (A) (A) (A) (A) (A) (A) (A) (A) (A) (A) (A)
                 (A) (A) (A) (A) (A) (A) (A) (A) (A) (A) (A) (A)
                 (A) (A) (A) (A) (A) (A) (A) (A) (A) (A) (A) (A)
                 (A) (A) (A) (A) (A) (A) (A) (A) (A) (A) (A) (A)
                 (A) (A) (A) (A) (A) (A) (A) (A) (A) (A) (A) (A)
                 (A) (A) (A) (A) (A) (A) (A) (A) (A) (A) (A) (A)
                 (A) (A) (A) (A) (A) (A) (A) (A) (A) (A) (A) (A)
                 (A) (A) (A) (A) (A) (A) (A) (A) (A) (A) (A) (A)
                 (A) (A) (A) (A) (A) (A) (A) (A) (A) (A) (A) (A)
                 (A) (A) (A) (A) (A) (A) (A) (A) (A) (A) (A) (A)
                 (A) (A) (A) (A) (A) (A) (A) (A) (A) (A) (A) (A)
                 (A) (A) (A) (A) (A) (A) (A) (A) (A) (A) (A) (A)
                 (A) (A) (A) (A) (A) (A) (A) (A) (A) (A) (A) (A)
                 (A) (A) (A) (A) (A) (A) (A) (A) (A) (A) (A) (A)
                 (A) (A) (A) (A) (A) (A) (A) (A) (A) (A) (A) (A)
                 (A) (A) (A) (A) (A) (A) (A) (A) (A) (A) (A) (A)
                 (A) (A) (A) (A) (A) (A) (A) (A) (A) (A) (A) (A)
                 (A) (A) (A) (A) (A) (A) (A) (A) (A) (A) (A) (A)
                 (A) (A) (A) (A) (A) (A) (A) (A) (A) (A) (A) (A)
                 (A) (A) (A) (A) (A) (A) (A) (A) (A) (A) (A) (A)
                 (A) (A) (A) (A) (A) (A) (A) (A) (A) (A) (A) (A)
                 (A) (A) (A) (A) (A) (A) (A) (A) (A) (A) (A) (A)
                 (A) (A) (A) (A) (A) (A) (A) (A) (A) (A) (A) (A)
                 (A) (A) (A) (A) (A) (A) (A) (A) (A) (A) (A) (A)
                 (A) (A) (A) (A) (A) (A) (A) (A) (A) (A) (A) (A)
                 (A) (A) (A) (A) (A) (A) (A) (A) (A) (A) (A) (A)
                 (A) (A) (A) (A) (A) (A) (A) (A) (A) (A) (A) (A)
                 (A) (A) (A) (A) (A) (A) (A) (A) (A) (A) (A) (A)
                 (A) (A) (A) (A) (A) (A) (A) (A) (A) (A) (A) (A)
                 (A) (A) (A) (A) (A) (A) (A) (A) (A) (A) (A) (A)
                 (A) (A) (A) (A) (A) (A) (A) (A) (A) (A) (A) (A)
                 (A) (A) (A) (A) (A) (A) (A) (A) (A) (A) (A) (A)
 The electronic state is 1-A.
 Alpha  occ. eigenvalues --  -10.21584 -10.21344 -10.21337 -10.20880 -10.20662
 Alpha  occ. eigenvalues --  -10.20626 -10.20431 -10.20308 -10.20259 -10.20163
 Alpha  occ. eigenvalues --  -10.20087 -10.19773 -10.19728 -10.19537 -10.19533
 Alpha  occ. eigenvalues --  -10.19531 -10.19443 -10.19406 -10.19289 -10.19273
 Alpha  occ. eigenvalues --  -10.19258 -10.19246 -10.19167 -10.18926 -10.18820
 Alpha  occ. eigenvalues --  -10.18819 -10.18789 -10.18715 -10.18540 -10.18444
 Alpha  occ. eigenvalues --  -10.18418 -10.18363 -10.18346 -10.18318 -10.18268
 Alpha  occ. eigenvalues --  -10.18208 -10.18208 -10.18161 -10.18026 -10.17022
 Alpha  occ. eigenvalues --   -0.84826  -0.84734  -0.83735  -0.83366  -0.82406
 Alpha  occ. eigenvalues --   -0.81519  -0.79488  -0.78626  -0.78060  -0.77606
 Alpha  occ. eigenvalues --   -0.76549  -0.75807  -0.74397  -0.72132  -0.72076
 Alpha  occ. eigenvalues --   -0.69562  -0.69093  -0.68505  -0.68016  -0.67412
 Alpha  occ. eigenvalues --   -0.67283  -0.66760  -0.66601  -0.66233  -0.65809
 Alpha  occ. eigenvalues --   -0.62638  -0.61717  -0.59253  -0.58206  -0.57135
 Alpha  occ. eigenvalues --   -0.56229  -0.55504  -0.54452  -0.53643  -0.53251
 Alpha  occ. eigenvalues --   -0.52449  -0.52186  -0.50934  -0.50181  -0.48552
 Alpha  occ. eigenvalues --   -0.48030  -0.47227  -0.46934  -0.46681  -0.46254
 Alpha  occ. eigenvalues --   -0.46005  -0.45308  -0.44993  -0.44133  -0.43684
 Alpha  occ. eigenvalues --   -0.43557  -0.43205  -0.43108  -0.42566  -0.42478
 Alpha  occ. eigenvalues --   -0.42061  -0.41804  -0.41271  -0.41025  -0.40879
 Alpha  occ. eigenvalues --   -0.40570  -0.40204  -0.39755  -0.39399  -0.38729
 Alpha  occ. eigenvalues --   -0.38620  -0.38076  -0.38041  -0.37922  -0.37203
 Alpha  occ. eigenvalues --   -0.37124  -0.36725  -0.36676  -0.36633  -0.36282
 Alpha  occ. eigenvalues --   -0.36181  -0.35941  -0.35688  -0.35643  -0.35214
 Alpha  occ. eigenvalues --   -0.34847  -0.34420  -0.34196  -0.34173  -0.33441
 Alpha  occ. eigenvalues --   -0.33297  -0.33190  -0.32977  -0.32335  -0.32091
 Alpha  occ. eigenvalues --   -0.31929  -0.31588  -0.31446  -0.31125  -0.30091
 Alpha  occ. eigenvalues --   -0.29793  -0.29381  -0.29120  -0.28892  -0.28662
 Alpha  occ. eigenvalues --   -0.28578  -0.27427  -0.26269  -0.24310  -0.22842
 Alpha  occ. eigenvalues --   -0.21705  -0.19202  -0.16839
 Alpha virt. eigenvalues --   -0.08249  -0.05270  -0.01679   0.00930   0.02573
 Alpha virt. eigenvalues --    0.03888   0.05284   0.05676   0.05942   0.06099
 Alpha virt. eigenvalues --    0.07018   0.07183   0.07768   0.07889   0.08270
 Alpha virt. eigenvalues --    0.08592   0.08816   0.09197   0.09454   0.09738
 Alpha virt. eigenvalues --    0.09854   0.10031   0.10495   0.10983   0.11053
 Alpha virt. eigenvalues --    0.11461   0.11705   0.12101   0.12248   0.12300
 Alpha virt. eigenvalues --    0.12694   0.12917   0.13495   0.13829   0.13892
 Alpha virt. eigenvalues --    0.14154   0.14279   0.14592   0.14920   0.15012
 Alpha virt. eigenvalues --    0.15407   0.15796   0.15934   0.16069   0.16181
 Alpha virt. eigenvalues --    0.16397   0.17157   0.17532   0.17973   0.18019
 Alpha virt. eigenvalues --    0.18132   0.18280   0.18456   0.18686   0.18916
 Alpha virt. eigenvalues --    0.19009   0.19119   0.20118   0.20181   0.20619
 Alpha virt. eigenvalues --    0.20845   0.21019   0.21209   0.21608   0.21839
 Alpha virt. eigenvalues --    0.22076   0.22747   0.22927   0.23256   0.23467
 Alpha virt. eigenvalues --    0.23793   0.23918   0.24161   0.24630   0.25100
 Alpha virt. eigenvalues --    0.25357   0.26154   0.26317   0.26411   0.26606
 Alpha virt. eigenvalues --    0.27503   0.27744   0.28192   0.28688   0.28774
 Alpha virt. eigenvalues --    0.29386   0.29506   0.29717   0.31128   0.31762
 Alpha virt. eigenvalues --    0.34140   0.34882   0.35567   0.36473   0.37315
 Alpha virt. eigenvalues --    0.38474   0.39315   0.40254   0.40358   0.41413
 Alpha virt. eigenvalues --    0.42295   0.43958   0.44458   0.45372   0.45804
 Alpha virt. eigenvalues --    0.47464   0.47791   0.48495   0.49199   0.49277
 Alpha virt. eigenvalues --    0.49900   0.50371   0.50544   0.50841   0.51019
 Alpha virt. eigenvalues --    0.51294   0.51578   0.52025   0.52059   0.52164
 Alpha virt. eigenvalues --    0.52401   0.53531   0.53678   0.53990   0.54638
 Alpha virt. eigenvalues --    0.54840   0.55512   0.55664   0.56016   0.56180
 Alpha virt. eigenvalues --    0.56334   0.56545   0.57186   0.57683   0.57966
 Alpha virt. eigenvalues --    0.58518   0.58590   0.59201   0.59509   0.59522
 Alpha virt. eigenvalues --    0.59948   0.60319   0.60450   0.60580   0.61005
 Alpha virt. eigenvalues --    0.61195   0.61494   0.62126   0.62662   0.62705
 Alpha virt. eigenvalues --    0.62847   0.63388   0.63507   0.64117   0.64190
 Alpha virt. eigenvalues --    0.64393   0.64507   0.64772   0.65160   0.65652
 Alpha virt. eigenvalues --    0.65732   0.65951   0.66458   0.67029   0.67555
 Alpha virt. eigenvalues --    0.67978   0.68299   0.68554   0.69677   0.69843
 Alpha virt. eigenvalues --    0.69870   0.70413   0.70786   0.71149   0.71533
 Alpha virt. eigenvalues --    0.71835   0.72401   0.72703   0.72846   0.73773
 Alpha virt. eigenvalues --    0.73927   0.74236   0.74482   0.74729   0.75342
 Alpha virt. eigenvalues --    0.75560   0.76257   0.76355   0.76617   0.76858
 Alpha virt. eigenvalues --    0.77148   0.77407   0.77704   0.78069   0.78257
 Alpha virt. eigenvalues --    0.78690   0.79199   0.79404   0.79780   0.79967
 Alpha virt. eigenvalues --    0.80107   0.80508   0.80640   0.80726   0.81189
 Alpha virt. eigenvalues --    0.81728   0.81831   0.82332   0.82556   0.83210
 Alpha virt. eigenvalues --    0.83554   0.83705   0.83742   0.83830   0.84400
 Alpha virt. eigenvalues --    0.84582   0.84945   0.85166   0.85360   0.85708
 Alpha virt. eigenvalues --    0.85922   0.86399   0.86495   0.86843   0.87122
 Alpha virt. eigenvalues --    0.87336   0.87556   0.87650   0.88603   0.88896
 Alpha virt. eigenvalues --    0.88995   0.89177   0.89710   0.89820   0.90100
 Alpha virt. eigenvalues --    0.90494   0.90893   0.90945   0.91299   0.91587
 Alpha virt. eigenvalues --    0.91827   0.91866   0.92674   0.92803   0.93513
 Alpha virt. eigenvalues --    0.93955   0.94249   0.94387   0.95229   0.95271
 Alpha virt. eigenvalues --    0.95519   0.95702   0.96643   0.96759   0.97830
 Alpha virt. eigenvalues --    0.98321   0.98429   0.98811   0.99826   1.00365
 Alpha virt. eigenvalues --    1.00911   1.01214   1.01405   1.01988   1.02269
 Alpha virt. eigenvalues --    1.02599   1.03072   1.03634   1.04050   1.04832
 Alpha virt. eigenvalues --    1.05301   1.05985   1.06591   1.06598   1.07774
 Alpha virt. eigenvalues --    1.08624   1.08937   1.09833   1.10361   1.10837
 Alpha virt. eigenvalues --    1.12129   1.12448   1.13010   1.14081   1.15550
 Alpha virt. eigenvalues --    1.15836   1.16833   1.17287   1.18515   1.19605
 Alpha virt. eigenvalues --    1.20190   1.21043   1.21615   1.21939   1.22532
 Alpha virt. eigenvalues --    1.23962   1.24609   1.25077   1.26135   1.26755
 Alpha virt. eigenvalues --    1.27697   1.28552   1.29342   1.30530   1.31074
 Alpha virt. eigenvalues --    1.31579   1.32013   1.32366   1.32956   1.33511
 Alpha virt. eigenvalues --    1.34914   1.35237   1.36230   1.36389   1.37043
 Alpha virt. eigenvalues --    1.38137   1.38506   1.40076   1.41011   1.41181
 Alpha virt. eigenvalues --    1.41430   1.41554   1.42534   1.42865   1.44206
 Alpha virt. eigenvalues --    1.44435   1.45244   1.46505   1.47257   1.48803
 Alpha virt. eigenvalues --    1.49752   1.50005   1.51182   1.51649   1.51880
 Alpha virt. eigenvalues --    1.52060   1.54165   1.54188   1.54993   1.55583
 Alpha virt. eigenvalues --    1.56577   1.57207   1.58433   1.58625   1.59243
 Alpha virt. eigenvalues --    1.60308   1.61421   1.62024   1.63746   1.63958
 Alpha virt. eigenvalues --    1.64767   1.65719   1.65821   1.66580   1.68178
 Alpha virt. eigenvalues --    1.69353   1.70356   1.70946   1.71084   1.71576
 Alpha virt. eigenvalues --    1.72621   1.72996   1.73201   1.73404   1.74029
 Alpha virt. eigenvalues --    1.74672   1.75328   1.75506   1.75861   1.76335
 Alpha virt. eigenvalues --    1.76419   1.76671   1.77938   1.78748   1.78953
 Alpha virt. eigenvalues --    1.79132   1.79639   1.80165   1.80834   1.81305
 Alpha virt. eigenvalues --    1.81510   1.81615   1.82097   1.82410   1.82630
 Alpha virt. eigenvalues --    1.82854   1.83574   1.83798   1.84244   1.84463
 Alpha virt. eigenvalues --    1.84617   1.85238   1.86186   1.86338   1.86492
 Alpha virt. eigenvalues --    1.87158   1.87922   1.88528   1.88728   1.89032
 Alpha virt. eigenvalues --    1.89569   1.89993   1.90340   1.90698   1.91327
 Alpha virt. eigenvalues --    1.91705   1.91898   1.92298   1.92928   1.93279
 Alpha virt. eigenvalues --    1.93807   1.93975   1.94579   1.94970   1.95869
 Alpha virt. eigenvalues --    1.96303   1.96646   1.96727   1.97284   1.97425
 Alpha virt. eigenvalues --    1.97990   1.98135   1.98208   1.98505   1.99346
 Alpha virt. eigenvalues --    1.99810   2.00550   2.00825   2.01348   2.01536
 Alpha virt. eigenvalues --    2.01948   2.02759   2.02998   2.03364   2.03880
 Alpha virt. eigenvalues --    2.04343   2.04815   2.05323   2.05745   2.05822
 Alpha virt. eigenvalues --    2.06350   2.06762   2.07336   2.07953   2.08430
 Alpha virt. eigenvalues --    2.08667   2.08945   2.09315   2.09720   2.11293
 Alpha virt. eigenvalues --    2.11414   2.11558   2.11956   2.12029   2.12354
 Alpha virt. eigenvalues --    2.12892   2.13598   2.14023   2.14878   2.15131
 Alpha virt. eigenvalues --    2.15484   2.15703   2.16400   2.16410   2.16985
 Alpha virt. eigenvalues --    2.17923   2.18247   2.19121   2.19279   2.19865
 Alpha virt. eigenvalues --    2.20643   2.20945   2.21138   2.21766   2.22326
 Alpha virt. eigenvalues --    2.23175   2.23581   2.24077   2.24495   2.24896
 Alpha virt. eigenvalues --    2.25524   2.26110   2.26238   2.27676   2.28352
 Alpha virt. eigenvalues --    2.28665   2.29290   2.29786   2.29818   2.30187
 Alpha virt. eigenvalues --    2.31287   2.31558   2.31970   2.32064   2.32897
 Alpha virt. eigenvalues --    2.33405   2.33712   2.34139   2.34228   2.34302
 Alpha virt. eigenvalues --    2.35171   2.35621   2.35867   2.36364   2.36664
 Alpha virt. eigenvalues --    2.36948   2.37561   2.37614   2.38233   2.38342
 Alpha virt. eigenvalues --    2.38699   2.39213   2.39635   2.40015   2.40150
 Alpha virt. eigenvalues --    2.40480   2.40692   2.41833   2.42805   2.43496
 Alpha virt. eigenvalues --    2.43721   2.44013   2.44246   2.44375   2.45071
 Alpha virt. eigenvalues --    2.45738   2.46098   2.47120   2.47312   2.48187
 Alpha virt. eigenvalues --    2.48795   2.49214   2.49572   2.49975   2.51316
 Alpha virt. eigenvalues --    2.51693   2.52242   2.52805   2.52887   2.53268
 Alpha virt. eigenvalues --    2.53622   2.53923   2.54677   2.55373   2.55654
 Alpha virt. eigenvalues --    2.56033   2.56529   2.56709   2.56773   2.57188
 Alpha virt. eigenvalues --    2.57672   2.58798   2.59107   2.59551   2.59935
 Alpha virt. eigenvalues --    2.61044   2.61572   2.62148   2.62189   2.62825
 Alpha virt. eigenvalues --    2.62986   2.63555   2.64333   2.64975   2.65050
 Alpha virt. eigenvalues --    2.65304   2.65593   2.65836   2.66237   2.66670
 Alpha virt. eigenvalues --    2.68054   2.68349   2.68788   2.69306   2.69918
 Alpha virt. eigenvalues --    2.70144   2.70254   2.70990   2.71838   2.72112
 Alpha virt. eigenvalues --    2.72371   2.72772   2.73000   2.73915   2.74675
 Alpha virt. eigenvalues --    2.74961   2.75079   2.75842   2.76090   2.76320
 Alpha virt. eigenvalues --    2.76685   2.77868   2.78287   2.78491   2.78775
 Alpha virt. eigenvalues --    2.79150   2.79733   2.79871   2.80480   2.81287
 Alpha virt. eigenvalues --    2.81485   2.82425   2.82542   2.83341   2.83680
 Alpha virt. eigenvalues --    2.84384   2.84568   2.85951   2.86295   2.86383
 Alpha virt. eigenvalues --    2.86865   2.88476   2.89074   2.89991   2.90619
 Alpha virt. eigenvalues --    2.92218   2.92824   2.92987   2.93058   2.94341
 Alpha virt. eigenvalues --    2.94550   2.94817   2.97110   2.97817   2.98390
 Alpha virt. eigenvalues --    2.98837   2.99733   3.01040   3.01385   3.02255
 Alpha virt. eigenvalues --    3.02709   3.04447   3.04606   3.05844   3.07508
 Alpha virt. eigenvalues --    3.07832   3.07974   3.09022   3.09196   3.09454
 Alpha virt. eigenvalues --    3.13579   3.15215   3.16436   3.18037   3.18727
 Alpha virt. eigenvalues --    3.19110   3.19684   3.20074   3.20212   3.22301
 Alpha virt. eigenvalues --    3.22597   3.23902   3.24852   3.25184   3.27584
 Alpha virt. eigenvalues --    3.30229   3.32140   3.33270   3.33889   3.34395
 Alpha virt. eigenvalues --    3.34496   3.34684   3.35276   3.35496   3.36711
 Alpha virt. eigenvalues --    3.38043   3.38695   3.39606   3.40520   3.40664
 Alpha virt. eigenvalues --    3.41250   3.41772   3.43237   3.44716   3.45574
 Alpha virt. eigenvalues --    3.46530   3.47655   3.47908   3.50865   3.52007
 Alpha virt. eigenvalues --    3.52259   3.53401   3.54316   3.56958   3.58585
 Alpha virt. eigenvalues --    3.62299   3.64032   3.67110   3.68798   3.76321
 Alpha virt. eigenvalues --    3.79580   3.89381   4.09839   4.12229   4.14439
 Alpha virt. eigenvalues --    4.14908   4.16133   4.18047   4.19062   4.20335
 Alpha virt. eigenvalues --    4.23093   4.25687   4.27298   4.28621   4.31138
 Alpha virt. eigenvalues --    4.33261   4.34856   4.36643   4.38830   4.41161
 Alpha virt. eigenvalues --    4.42501   4.45755   4.46581   4.46673   4.47755
 Alpha virt. eigenvalues --    4.48378   4.49565   4.50152   4.52900   4.56403
 Alpha virt. eigenvalues --    4.58269   4.58935   4.59671   4.63467   4.67292
 Alpha virt. eigenvalues --    4.70590   4.71447   4.72688   4.76824   4.77312
 Alpha virt. eigenvalues --    4.79133   4.81109
          Condensed to atoms (all electrons):
 Mulliken charges:
               1
     1  C    0.034417
     2  C   -0.014911
     3  C   -0.136152
     4  C   -0.174169
     5  C   -0.182171
     6  C   -0.185453
     7  C    0.039642
     8  C    0.051294
     9  C   -0.198253
    10  C   -0.210908
    11  C    0.092676
    12  C    0.068467
    13  C   -0.312176
    14  C   -0.289666
    15  C   -0.271871
    16  C   -0.281198
    17  C   -0.114742
    18  C   -0.125446
    19  C   -0.363290
    20  C   -0.351023
    21  C   -0.083032
    22  C   -0.112209
    23  C    0.095850
    24  C    0.105284
    25  C   -0.376572
    26  C   -0.363093
    27  C   -0.113093
    28  C   -0.115040
    29  C   -0.083586
    30  C   -0.078259
    31  C   -0.087833
    32  C   -0.098660
    33  C    0.079047
    34  C    0.126095
    35  C   -0.350159
    36  C   -0.376338
    37  C   -0.116181
    38  C   -0.132570
    39  C   -0.068173
    40  C   -0.085194
    41  H    0.035681
    42  H    0.065842
    43  H    0.105763
    44  H    0.073373
    45  H    0.079822
    46  H    0.077920
    47  H    0.076182
    48  H    0.092041
    49  H    0.092811
    50  H    0.102542
    51  H    0.110164
    52  H    0.084059
    53  H    0.117744
    54  H    0.087297
    55  H    0.105043
    56  H    0.110385
    57  H    0.094978
    58  H    0.068970
    59  H    0.115767
    60  H    0.101099
    61  H    0.070731
    62  H    0.083877
    63  H    0.121507
    64  H    0.067033
    65  H    0.052103
    66  H    0.069979
    67  H    0.111155
    68  H    0.077459
    69  H    0.113610
    70  H    0.091448
    71  H    0.118064
    72  H    0.091122
    73  H    0.083819
    74  H    0.090788
    75  H    0.125226
    76  H    0.118451
    77  H    0.123103
    78  H    0.123315
    79  H    0.119611
    80  H    0.108957
    81  H    0.085179
    82  H    0.071110
    83  H    0.067266
    84  H    0.083421
    85  H    0.075969
    86  H    0.072425
    87  H    0.109945
    88  H    0.073483
    89  H    0.138085
    90  H    0.099005
    91  H    0.130175
    92  H    0.088364
    93  H    0.094196
    94  H    0.056377
    95  H    0.088339
    96  H    0.066470
 Sum of Mulliken charges =  -0.00000
 Mulliken charges with hydrogens summed into heavy atoms:
               1
     1  C    0.034417
     2  C   -0.014911
     3  C   -0.034629
     4  C    0.004967
     5  C   -0.024429
     6  C   -0.017231
     7  C    0.039642
     8  C    0.051294
     9  C   -0.002900
    10  C   -0.016685
    11  C    0.092676
    12  C    0.068467
    13  C   -0.002092
    14  C   -0.015333
    15  C    0.015725
    16  C   -0.008781
    17  C   -0.062639
    18  C   -0.055467
    19  C   -0.061065
    20  C   -0.050389
    21  C    0.000787
    22  C   -0.021421
    23  C    0.095850
    24  C    0.105284
    25  C   -0.009792
    26  C   -0.011210
    27  C   -0.027914
    28  C   -0.043930
    29  C   -0.016321
    30  C    0.005162
    31  C   -0.011864
    32  C   -0.026235
    33  C    0.079047
    34  C    0.126095
    35  C   -0.028646
    36  C   -0.058794
    37  C   -0.021984
    38  C   -0.076194
    39  C    0.020166
    40  C   -0.018724
 Electronic spatial extent (au):  <R**2>=          96636.0665
 Charge=              0.0000 electrons
 Dipole moment (field-independent basis, Debye):
    X=              0.2489    Y=             -0.0554    Z=              0.8891  Tot=              0.9249
 Quadrupole moment (field-independent basis, Debye-Ang):
   XX=           -230.9112   YY=           -236.3050   ZZ=           -256.2488
   XY=             -1.1239   XZ=             -3.4937   YZ=              5.2813
 Traceless Quadrupole moment (field-independent basis, Debye-Ang):
   XX=             10.2438   YY=              4.8500   ZZ=            -15.0938
   XY=             -1.1239   XZ=             -3.4937   YZ=              5.2813
 Octapole moment (field-independent basis, Debye-Ang**2):
  XXX=           -180.6521  YYY=              8.2988  ZZZ=             -2.0349  XYY=             -3.6797
  XXY=             23.9823  XXZ=              7.5476  XZZ=             18.3377  YZZ=              2.5229
  YYZ=              5.8329  XYZ=            -14.4482
 Hexadecapole moment (field-independent basis, Debye-Ang**3):
 XXXX=        -128348.3589 YYYY=          -4298.0938 ZZZZ=          -1540.5876 XXXY=           -979.1824
 XXXZ=           -295.9678 YYYX=             24.2982 YYYZ=             48.2800 ZZZX=            -19.8223
 ZZZY=             15.0183 XXYY=         -21899.9572 XXZZ=         -22353.2582 YYZZ=           -957.7793
 XXYZ=            184.3972 YYXZ=            101.4536 ZZXY=            -26.8894
 N-N= 3.656391096207D+03 E-N=-1.091121086417D+04  KE= 1.539822342730D+03
 1\1\GINC-RYZEN-SSD1\SP\RB3LYP TD-FC\6-31G(d,p)\C40H56\PADAWAN\30-Jul-2
 019\0\\# td=(NStates=1) B3LYP/6-31G(d,p)\\TD\\0,1\C,0,12.2449588385,0.
 4756481653,-0.6994260615\C,0,-12.2150938235,-0.190404082,0.8545246314\
 C,0,13.5075501677,-0.2641160716,-0.5573717362\C,0,-13.1617926792,1.012
 4456361,1.2097416886\C,0,13.2963519494,-1.8206177342,-0.5181535742\C,0
 ,-13.5576803641,1.905219034,0.0369940665\C,0,11.0695887528,-0.13854959
 05,0.1605835962\C,0,-11.1100686747,0.4001598983,-0.1267403088\C,0,12.3
 588503224,-2.2537276668,0.5736013364\C,0,-12.3220620888,2.5662069289,-
 0.5800463405\C,0,11.2255422622,-1.3052725818,0.8545920276\C,0,-11.1970
 544996,1.5694725691,-0.7553444081\C,0,11.6804886366,0.4953406592,-2.18
 37968583\C,0,12.6607594893,1.8742514802,-0.2958711061\C,0,-12.99144673
 55,-1.3286999887,0.1383976697\C,0,-11.513830251,-0.7858917628,2.169095
 0577\C,0,9.9106191245,0.8205481684,0.4249945\C,0,-9.9238621931,-0.4692
 89471,-0.2873928271\C,0,10.2610702833,-1.8122110328,1.9362862635\C,0,-
 10.1333363038,2.0210838475,-1.7459260575\C,0,8.5956158013,0.477027659,
 0.4076489711\C,0,-8.6227752359,-0.2947193372,-0.0881251354\C,0,7.44558
 31265,1.4025690572,0.4810707197\C,0,-7.5564445384,-1.2152900041,-0.346
 2750244\C,0,7.6365267024,2.8368563228,0.7881812551\C,0,-7.9486920574,-
 2.5964196531,-0.6916864462\C,0,6.1975236539,0.7744718362,0.1435465137\
 C,0,-6.2390225122,-0.7655573783,-0.3351156233\C,0,4.9351141621,1.43256
 55885,0.1650861676\C,0,-5.0618958014,-1.4890748853,-0.4488362652\C,0,3
 .7459933109,0.7295005153,0.1119231416\C,0,-3.8723826235,-1.0005406868,
 -0.1583482725\C,0,2.4574790493,1.2818088886,0.1752420121\C,0,-2.506499
 6494,-1.6523002887,-0.3327365538\C,0,2.3601403856,2.8371230788,0.44755
 91292\C,0,-2.5793684822,-3.1403675633,-0.4476061107\C,0,1.232434792,0.
 6027016118,0.0726721842\C,0,-1.3726154346,-1.0196105331,-0.2501837235\
 C,0,1.1527696492,-0.7695919064,-0.1835258723\C,0,0.0522857682,-1.52482
 87227,-0.3301467707\H,0,14.1367637822,0.1483972692,0.5582238653\H,0,14
 .4850755214,-0.0805864343,-1.3689104294\H,0,-12.6830646715,1.611193509
 6,1.9320967745\H,0,-14.1383346911,0.6966991622,1.7181882569\H,0,14.375
 0681288,-2.2544162593,-0.1630097468\H,0,12.9013760193,-2.1536592659,-1
 .6561417375\H,0,-14.3521486031,2.6803813981,0.431254163\H,0,-14.059450
 7289,1.178937568,-0.6891029324\H,0,12.8539773615,-2.3946619728,1.62905
 47875\H,0,12.0451819727,-3.3220558977,0.2987367293\H,0,-11.9818779799,
 3.4092086416,0.0289994169\H,0,-12.7660528192,3.1277262804,-1.513745275
 7\H,0,11.4495083213,-0.3263857159,-2.7145195847\H,0,12.4116780485,0.96
 83514964,-2.8809246665\H,0,10.9115287242,1.294602572,-2.2635870782\H,0
 ,12.9169626504,2.0584327452,0.8117685174\H,0,12.0016285698,2.623772288
 1,-0.7230964666\H,0,13.7773895953,2.0716374336,-0.868099081\H,0,-13.51
 94611768,-0.8519592049,-0.6638524859\H,0,-13.614053578,-1.617337538,1.
 0151087316\H,0,-12.3682744306,-2.3362920341,-0.3781937019\H,0,-10.9954
 920401,0.0284872093,2.9079004491\H,0,-10.8241689423,-1.5761586166,2.10
 14941656\H,0,-12.559510015,-1.2417686448,2.5835068788\H,0,10.096303036
 9,2.0625811182,0.3861545234\H,0,-10.386403085,-1.4644215522,-0.7444108
 191\H,0,9.3275268302,-1.1940770024,2.1262963872\H,0,10.8039812122,-2.2
 186080587,3.0139328233\H,0,9.6307551427,-2.6733171817,1.6649061122\H,0
 ,-9.2126082961,1.1562479374,-1.5660691038\H,0,-9.7246272676,2.86945046
 7,-1.279297976\H,0,-10.6103913041,2.309255931,-2.8295729306\H,0,8.5909
 546863,-0.5518859688,0.2561786675\H,0,-8.449818377,0.7557797721,0.2883
 65184\H,0,8.0445476869,2.8951645524,1.8165310356\H,0,6.7708289636,3.27
 99456988,1.1584284225\H,0,8.4285970974,3.416600322,0.1404508222\H,0,-8
 .6567866309,-2.7824353026,-1.5470914027\H,0,-8.5918101693,-2.64222741,
 0.2537415135\H,0,-7.1476293155,-3.3231749688,-0.7313320184\H,0,6.15251
 61161,-0.2728725141,0.0240303863\H,0,-6.0304250271,0.2790498435,0.0398
 637096\H,0,4.9154048978,2.5694353876,0.7060435112\H,0,-5.2513852388,-2
 .5665501714,-0.3914012812\H,0,3.9650367704,-0.2143860085,-0.1259029519
 \H,0,-3.5617938106,0.0010164315,0.1573938727\H,0,2.4700277022,3.105910
 9872,1.585987254\H,0,1.2775249533,3.4061613479,0.3718869162\H,0,2.8629
 633551,3.2701974932,-0.2086348331\H,0,-3.3089027599,-3.6737557315,-1.2
 417191827\H,0,-2.8488064864,-3.5080427972,0.5523098824\H,0,-1.50622159
 35,-3.5329236268,-0.7632985563\H,0,0.3072131221,1.2628922044,0.2681874
 639\H,0,-1.3413052191,0.1383418214,-0.1324509712\H,0,1.9387524197,-1.4
 167707268,-0.4044800122\H,0,-0.0938488741,-2.5260776501,-0.3561764785\
 \Version=ES64L-G16RevA.03\State=1-A\HF=-1557.4627749\RMSD=9.085e-09\PG
 =C01 [X(C40H56)]\\@


 SUPPORT THE RIGHT TO ARM BEARS!
 (ADD A CLAWS TO THE BILL OF RIGHTS)
 Job cpu time:       0 days  9 hours 49 minutes 18.9 seconds.
 Elapsed time:       0 days  2 hours 28 minutes  8.0 seconds.
 File lengths (MBytes):  RWF=   2884 Int=      0 D2E=      0 Chk=     79 Scr=      1
 Normal termination of Gaussian 16 at Tue Jul 30 15:39:47 2019.
