 Entering Gaussian System, Link 0=g16
 Input=Geometria-50-.com
 Output=Geometria-50-.log
 Initial command:
 /usr/local/g16/l1.exe "/home/padawan/israel-mol/b-caroten/spectra/abs/Gau-71514.inp" -scrdir="/home/padawan/israel-mol/b-caroten/spectra/abs/"
 Entering Link 1 = /usr/local/g16/l1.exe PID=     71516.
  
 Copyright (c) 1988,1990,1992,1993,1995,1998,2003,2009,2016,
            Gaussian, Inc.  All Rights Reserved.
  
 This is part of the Gaussian(R) 16 program.  It is based on
 the Gaussian(R) 09 system (copyright 2009, Gaussian, Inc.),
 the Gaussian(R) 03 system (copyright 2003, Gaussian, Inc.),
 the Gaussian(R) 98 system (copyright 1998, Gaussian, Inc.),
 the Gaussian(R) 94 system (copyright 1995, Gaussian, Inc.),
 the Gaussian 92(TM) system (copyright 1992, Gaussian, Inc.),
 the Gaussian 90(TM) system (copyright 1990, Gaussian, Inc.),
 the Gaussian 88(TM) system (copyright 1988, Gaussian, Inc.),
 the Gaussian 86(TM) system (copyright 1986, Carnegie Mellon
 University), and the Gaussian 82(TM) system (copyright 1983,
 Carnegie Mellon University). Gaussian is a federally registered
 trademark of Gaussian, Inc.
  
 This software contains proprietary and confidential information,
 including trade secrets, belonging to Gaussian, Inc.
  
 This software is provided under written license and may be
 used, copied, transmitted, or stored only in accord with that
 written license.
  
 The following legend is applicable only to US Government
 contracts under FAR:
  
                    RESTRICTED RIGHTS LEGEND
  
 Use, reproduction and disclosure by the US Government is
 subject to restrictions as set forth in subparagraphs (a)
 and (c) of the Commercial Computer Software - Restricted
 Rights clause in FAR 52.227-19.
  
 Gaussian, Inc.
 340 Quinnipiac St., Bldg. 40, Wallingford CT 06492
  
  
 ---------------------------------------------------------------
 Warning -- This program may not be used in any manner that
 competes with the business of Gaussian, Inc. or will provide
 assistance to any competitor of Gaussian, Inc.  The licensee
 of this program is prohibited from giving any competitor of
 Gaussian, Inc. access to this program.  By using this program,
 the user acknowledges that Gaussian, Inc. is engaged in the
 business of creating and licensing software in the field of
 computational chemistry and represents and warrants to the
 licensee that it is not a competitor of Gaussian, Inc. and that
 it will not use this program in any manner prohibited above.
 ---------------------------------------------------------------
  

 Cite this work as:
 Gaussian 16, Revision A.03,
 M. J. Frisch, G. W. Trucks, H. B. Schlegel, G. E. Scuseria, 
 M. A. Robb, J. R. Cheeseman, G. Scalmani, V. Barone, 
 G. A. Petersson, H. Nakatsuji, X. Li, M. Caricato, A. V. Marenich, 
 J. Bloino, B. G. Janesko, R. Gomperts, B. Mennucci, H. P. Hratchian, 
 J. V. Ortiz, A. F. Izmaylov, J. L. Sonnenberg, D. Williams-Young, 
 F. Ding, F. Lipparini, F. Egidi, J. Goings, B. Peng, A. Petrone, 
 T. Henderson, D. Ranasinghe, V. G. Zakrzewski, J. Gao, N. Rega, 
 G. Zheng, W. Liang, M. Hada, M. Ehara, K. Toyota, R. Fukuda, 
 J. Hasegawa, M. Ishida, T. Nakajima, Y. Honda, O. Kitao, H. Nakai, 
 T. Vreven, K. Throssell, J. A. Montgomery, Jr., J. E. Peralta, 
 F. Ogliaro, M. J. Bearpark, J. J. Heyd, E. N. Brothers, K. N. Kudin, 
 V. N. Staroverov, T. A. Keith, R. Kobayashi, J. Normand, 
 K. Raghavachari, A. P. Rendell, J. C. Burant, S. S. Iyengar, 
 J. Tomasi, M. Cossi, J. M. Millam, M. Klene, C. Adamo, R. Cammi, 
 J. W. Ochterski, R. L. Martin, K. Morokuma, O. Farkas, 
 J. B. Foresman, and D. J. Fox, Gaussian, Inc., Wallingford CT, 2016.
 
 ******************************************
 Gaussian 16:  ES64L-G16RevA.03 25-Dec-2016
                26-Jul-2019 
 ******************************************
 %nproc=4
 Will use up to    4 processors via shared memory.
 %Mem=2GB
 ---------------------------------
 # td=(NStates=1) B3LYP/6-31G(d,p)
 ---------------------------------
 1/38=1,172=1/1;
 2/12=2,17=6,18=5,40=1/2;
 3/5=1,6=6,7=101,11=9,25=1,30=1,74=-5/1,2,3,8;
 4//1;
 5/5=2,38=5/2;
 8/6=1,10=2,108=1/1;
 9/41=1,42=1,70=2/14;
 6/7=2,8=2,9=2,10=2/1;
 99/5=1,9=1/99;
 --
 TD
 --
 Symbolic Z-matrix:
 Charge =  0 Multiplicity = 1
 6                     12.17414   0.54241  -0.54854 
 6                    -12.03084  -0.07869   0.94228 
 6                     13.33929  -0.34229  -0.42438 
 6                    -12.85316   1.17529   1.4324 
 6                     13.08511  -1.83952  -0.55415 
 6                    -13.31759   2.06556   0.38333 
 6                     11.01921   0.00595   0.35693 
 6                    -10.8696   0.50981  -0.02633 
 6                     12.20198  -2.23498   0.63958 
 6                    -12.16989   2.60998  -0.55519 
 6                     10.97292  -1.28749   0.89806 
 6                    -11.00639   1.62765  -0.77469 
 6                     11.65003   0.583    -2.09199 
 6                     12.64413   1.92428  -0.1819 
 6                    -12.86742  -1.15567   0.42279 
 6                    -11.30033  -0.63747   2.18586 
 6                     9.80148   0.91367   0.44838 
 6                    -9.86599  -0.46503  -0.39833 
 6                     9.92443  -1.76713   1.79489 
 6                    -9.98455   2.04685  -1.8179 
 6                     8.46574   0.51542   0.18674 
 6                    -8.47653  -0.35759  -0.34372 
 6                     7.38434   1.49991   0.36895 
 6                    -7.53904  -1.39048  -0.51544 
 6                     7.62976   3.01951   0.66004 
 6                    -7.95217  -2.84234  -0.63375 
 6                     6.19183   0.80498   0.36024 
 6                    -6.2367   -0.96028  -0.45781 
 6                     4.86075   1.49081   0.36751 
 6                    -5.00698  -1.67345  -0.49114 
 6                     3.72633   0.76859   0.23542 
 6                    -3.73616  -1.11817  -0.41132 
 6                     2.28462   1.34806   0.09079 
 6                    -2.56603  -1.90503  -0.51541 
 6                     2.12851   2.85854   0.26963 
 6                    -2.55709  -3.33519  -0.77343 
 6                     1.14944   0.52331   0.04809 
 6                    -1.35416  -1.20126  -0.26389 
 6                     1.11613  -0.87954  -0.10829 
 6                     0.04862  -1.67995  -0.20801 
 1                     13.87684  -0.18511   0.64441 
 1                     14.23598   0.12858  -1.0985 
 1                    -12.22128   1.79975   2.05363 
 1                    -13.78733   0.81425   2.00787 
 1                     14.04523  -2.34652  -0.52603 
 1                     12.50232  -1.72569  -1.50026 
 1                    -14.07192   2.994     0.76779 
 1                    -14.02118   1.73279  -0.27728 
 1                     12.69948  -2.35835   1.6803 
 1                     11.89338  -3.35797   0.41683 
 1                    -11.70296   3.54707  -0.09478 
 1                    -12.40686   2.92877  -1.45787 
 1                     11.38787  -0.41727  -2.41581 
 1                     12.40938   0.77031  -2.81795 
 1                     10.66046   1.15977  -2.30123 
 1                     12.78205   2.02985   0.87235 
 1                     11.98553   2.73317  -0.44015 
 1                     13.83678   2.17734  -0.6991 
 1                    -13.42141  -1.02089  -0.63401 
 1                    -13.57094  -1.53754   1.05497 
 1                    -12.47877  -1.99025   0.00572 
 1                    -10.71739  -0.08199   2.69124 
 1                    -10.88125  -1.49276   1.62438 
 1                    -12.05366  -0.86406   2.90842 
 1                     10.04376   1.95097   0.69728 
 1                    -10.36012  -1.54325  -0.22121 
 1                     9.32498  -0.93478   2.0639 
 1                     10.29095  -2.38181   2.70777 
 1                     9.35055  -2.55003   1.2835 
 1                    -9.31349   1.05291  -2.04064 
 1                    -9.14216   2.84069  -1.44183 
 1                    -10.59858   2.3488   -2.75339 
 1                     8.27392  -0.47376  -0.16139 
 1                    -8.24267   0.71312   0.04355 
 1                     8.15141   2.85628   1.49823 
 1                     6.63828   3.59066   0.4826 
 1                     8.25463   3.40781  -0.18002 
 1                    -8.66059  -3.20875  -1.47173 
 1                    -8.44249  -3.09778   0.30511 
 1                    -7.04529  -3.40891  -0.87437 
 1                     6.18447  -0.23723  -0.06538 
 1                    -6.13419   0.09868  -0.40138 
 1                     4.94031   2.38684   0.44157 
 1                    -5.14543  -2.74688  -0.46562 
 1                     3.834    -0.37745   0.18012 
 1                    -3.61767   0.06772  -0.52921 
 1                     2.55338   3.12681   1.16881 
 1                     1.01982   3.07766   0.24938 
 1                     2.66226   3.3878   -0.58204 
 1                    -3.22659  -3.75274  -1.42257 
 1                    -2.67664  -3.75674   0.32282 
 1                    -1.48423  -3.58217  -0.97494 
 1                     0.19429   1.1206   -0.03705 
 1                    -1.54672   0.02377   0.08891 
 1                     2.11719  -1.66223  -0.01437 
 1                     0.18269  -2.83712  -0.34414 
 
 Stoichiometry    C40H56
 Framework group  C1[X(C40H56)]
 Deg. of freedom   282
 Full point group                 C1      NOp   1
 Largest Abelian subgroup         C1      NOp   1
 Largest concise Abelian subgroup C1      NOp   1
                         Standard orientation:                         
 ---------------------------------------------------------------------
 Center     Atomic      Atomic             Coordinates (Angstroms)
 Number     Number       Type             X           Y           Z
 ---------------------------------------------------------------------
      1          6           0       12.174701    0.534145   -0.546768
      2          6           0      -12.031160   -0.063046    0.939458
      3          6           0       13.339077   -0.351245   -0.420204
      4          6           0      -12.852553    1.192796    1.426382
      5          6           0       13.083667   -1.848561   -0.546467
      6          6           0      -13.315967    2.080945    0.375071
      7          6           0       11.019097    0.000817    0.359693
      8          6           0      -10.869193    0.522170   -0.030264
      9          6           0       12.199911   -2.240428    0.647976
     10          6           0      -12.167576    2.622167   -0.564459
     11          6           0       10.971577   -1.291296    0.903886
     12          6           0      -11.004847    1.638335   -0.781317
     13          6           0       11.651004    0.571491   -2.090438
     14          6           0       12.645759    1.916481   -0.183303
     15          6           0      -12.868526   -1.140557    0.422320
     16          6           0      -11.301434   -0.619468    2.184544
     17          6           0        9.802103    0.909769    0.448667
     18          6           0       -9.866304   -0.454398   -0.399691
     19          6           0        9.922460   -1.767910    1.801600
     20          6           0       -9.982401    2.054185   -1.825274
     21          6           0        8.466098    0.512024    0.187642
     22          6           0       -8.476772   -0.347993   -0.344985
     23          6           0        7.385476    1.497852    0.367236
     24          6           0       -7.540111   -1.382080   -0.514008
     25          6           0        7.632102    3.017941    0.654763
     26          6           0       -7.954433   -2.833876   -0.628959
     27          6           0        6.192390    0.803913    0.359882
     28          6           0       -6.237423   -0.952838   -0.457073
     29          6           0        4.861880    1.490874    0.365181
     30          6           0       -5.008294   -1.667127   -0.488397
     31          6           0        3.726890    0.769299    0.234527
     32          6           0       -3.737025   -1.112726   -0.409585
     33          6           0        2.285704    1.349626    0.088163
     34          6           0       -2.567529   -1.900809   -0.511507
     35          6           0        2.130817    2.860659    0.263360
     36          6           0       -2.559729   -3.331589   -0.766108
     37          6           0        1.149836    0.525740    0.047140
     38          6           0       -1.355137   -1.197464   -0.261351
     39          6           0        1.115383   -0.877457   -0.105902
     40          6           0        0.047224   -1.677205   -0.203988
     41          1           0       13.876487   -0.191962    0.648344
     42          1           0       14.236328    0.117271   -1.095224
     43          1           0      -12.220299    1.818203    2.046275
     44          1           0      -13.787167    0.833913    2.002470
     45          1           0       14.043347   -2.356296   -0.516896
     46          1           0       12.501203   -1.736494   -1.492991
     47          1           0      -14.069615    3.010941    0.757126
     48          1           0      -14.019673    1.747201   -0.284921
     49          1           0       12.697045   -2.361737    1.689114
     50          1           0       11.890413   -3.363689    0.427827
     51          1           0      -11.699975    3.559960   -0.106166
     52          1           0      -12.404053    2.938998   -1.467951
     53          1           0       11.388089   -0.429332   -2.411941
     54          1           0       12.410694    0.756433   -2.816653
     55          1           0       10.661980    1.148592   -2.301304
     56          1           0       12.783507    2.024451    0.870731
     57          1           0       11.987904    2.725314   -0.443645
     58          1           0       13.838748    2.167305   -0.700808
     59          1           0      -13.422136   -1.007824   -0.634933
     60          1           0      -13.572520   -1.520323    1.055239
     61          1           0      -12.480466   -1.976450    0.007347
     62          1           0      -10.718158   -0.063282    2.688746
     63          1           0      -10.882940   -1.476449    1.625209
     64          1           0      -12.055135   -0.843704    2.907455
     65          1           0       10.045194    1.947458    0.695153
     66          1           0      -10.361389   -1.531777   -0.220120
     67          1           0        9.323644   -0.934421    2.068472
     68          1           0       10.288238   -2.380728    2.716034
     69          1           0        9.348049   -2.551552    1.291929
     70          1           0       -9.312119    1.059154   -2.045468
     71          1           0       -9.139434    2.848212   -1.450887
     72          1           0      -10.595942    2.354424   -2.761627
     73          1           0        8.273532   -0.477821   -0.158177
     74          1           0       -8.242104    0.723431    0.039792
     75          1           0        8.153408    2.856267    1.493471
     76          1           0        6.641147    3.589492    0.475716
     77          1           0        8.257511    3.403706   -0.186063
     78          1           0       -8.662947   -3.201681   -1.466245
     79          1           0       -8.445194   -3.086663    0.310381
     80          1           0       -7.047967   -3.401780   -0.867996
     81          1           0        6.184255   -0.239306   -0.063251
     82          1           0       -6.134029    0.106165   -0.403144
     83          1           0        4.942176    2.387007    0.437125
     84          1           0       -5.147658   -2.740371   -0.460351
     85          1           0        3.833611   -0.376966    0.181989
     86          1           0       -3.617508    0.072785   -0.530273
     87          1           0        2.555687    3.130722    1.161999
     88          1           0        1.022319    3.080666    0.242313
     89          1           0        2.665230    3.387442   -0.589439
     90          1           0       -3.229427   -3.750128   -1.414418
     91          1           0       -2.679910   -3.750424    0.331109
     92          1           0       -1.487030   -3.579952   -0.966761
     93          1           0        0.195216    1.123623   -0.039666
     94          1           0       -1.546746    0.028564    0.088476
     95          1           0        2.115765   -1.660755   -0.009868
     96          1           0        0.180357   -2.834803   -0.337316
 ---------------------------------------------------------------------
 Rotational constants (GHZ):           0.2659833           0.0111302           0.0108705
 Standard basis: 6-31G(d,p) (6D, 7F)
 There are   880 symmetry adapted cartesian basis functions of A   symmetry.
 There are   880 symmetry adapted basis functions of A   symmetry.
   880 basis functions,  1512 primitive gaussians,   880 cartesian basis functions
   148 alpha electrons      148 beta electrons
       nuclear repulsion energy      3668.2768769152 Hartrees.
 NAtoms=   96 NActive=   96 NUniq=   96 SFac= 1.00D+00 NAtFMM=   60 NAOKFM=T Big=T
 Integral buffers will be    131072 words long.
 Regular integral format.
 Two-electron integral symmetry is turned on.
 One-electron integrals computed using PRISM.
 NBasis=   880 RedAO= T EigKep=  9.63D-04  NBF=   880
 NBsUse=   880 1.00D-06 EigRej= -1.00D+00 NBFU=   880
 ExpMin= 1.61D-01 ExpMax= 3.05D+03 ExpMxC= 4.57D+02 IAcc=3 IRadAn=         5 AccDes= 0.00D+00
 Harris functional with IExCor=  402 and IRadAn=       5 diagonalized for initial guess.
 HarFok:  IExCor=  402 AccDes= 0.00D+00 IRadAn=         5 IDoV= 1 UseB2=F ITyADJ=14
 ICtDFT=  3500011 ScaDFX=  1.000000  1.000000  1.000000  1.000000
 FoFCou: FMM=F IPFlag=           0 FMFlag=      100000 FMFlg1=        2001
         NFxFlg=           0 DoJE=T BraDBF=F KetDBF=T FulRan=T
         wScrn=  0.000000 ICntrl=       500 IOpCl=  0 I1Cent=   200000004 NGrid=           0
         NMat0=    1 NMatS0=      1 NMatT0=    0 NMatD0=    1 NMtDS0=    0 NMtDT0=    0
 Petite list used in FoFCou.
 Requested convergence on RMS density matrix=1.00D-08 within 128 cycles.
 Requested convergence on MAX density matrix=1.00D-06.
 Requested convergence on             energy=1.00D-06.
 No special actions if energy rises.
 Integral accuracy reduced to 1.0D-05 until final iterations.
 Initial convergence to 1.0D-05 achieved.  Increase integral accuracy.
 SCF Done:  E(RB3LYP) =  -1557.52340382     A.U. after   16 cycles
            NFock= 16  Conv=0.48D-08     -V/T= 2.0110
 DoSCS=F DFT=T ScalE2(SS,OS)=  1.000000  1.000000
 ExpMin= 1.61D-01 ExpMax= 3.05D+03 ExpMxC= 4.57D+02 IAcc=3 IRadAn=         5 AccDes= 0.00D+00
 HarFok:  IExCor=  205 AccDes= 0.00D+00 IRadAn=         5 IDoV=-2 UseB2=F ITyADJ=14
 ICtDFT= 12500011 ScaDFX=  1.000000  1.000000  1.000000  1.000000
 GSVD:  LWork=       -1920 too small for GESVD, short by        8600 words or        8600 for optimal perf.
 Range of M.O.s used for correlation:    41   880
 NBasis=   880 NAE=   148 NBE=   148 NFC=    40 NFV=     0
 NROrb=    840 NOA=   108 NOB=   108 NVA=   732 NVB=   732

 **** Warning!!: The smallest alpha delta epsilon is  0.83020630D-01

 Orbital symmetries:
       Occupied  (A) (A) (A) (A) (A) (A) (A) (A) (A) (A) (A) (A)
                 (A) (A) (A) (A) (A) (A) (A) (A) (A) (A) (A) (A)
                 (A) (A) (A) (A) (A) (A) (A) (A) (A) (A) (A) (A)
                 (A) (A) (A) (A) (A) (A) (A) (A) (A) (A) (A) (A)
                 (A) (A) (A) (A) (A) (A) (A) (A) (A) (A) (A) (A)
                 (A) (A) (A) (A) (A) (A) (A) (A) (A) (A) (A) (A)
                 (A) (A) (A) (A) (A) (A) (A) (A) (A) (A) (A) (A)
                 (A) (A) (A) (A) (A) (A) (A) (A) (A) (A) (A) (A)
                 (A) (A) (A) (A) (A) (A) (A) (A) (A) (A) (A) (A)
                 (A) (A) (A) (A) (A) (A) (A) (A) (A) (A) (A) (A)
                 (A) (A) (A) (A) (A) (A) (A) (A) (A) (A) (A) (A)
                 (A) (A) (A) (A) (A) (A) (A) (A) (A) (A) (A) (A)
                 (A) (A) (A) (A)
       Virtual   (A) (A) (A) (A) (A) (A) (A) (A) (A) (A) (A) (A)
                 (A) (A) (A) (A) (A) (A) (A) (A) (A) (A) (A) (A)
                 (A) (A) (A) (A) (A) (A) (A) (A) (A) (A) (A) (A)
                 (A) (A) (A) (A) (A) (A) (A) (A) (A) (A) (A) (A)
                 (A) (A) (A) (A) (A) (A) (A) (A) (A) (A) (A) (A)
                 (A) (A) (A) (A) (A) (A) (A) (A) (A) (A) (A) (A)
                 (A) (A) (A) (A) (A) (A) (A) (A) (A) (A) (A) (A)
                 (A) (A) (A) (A) (A) (A) (A) (A) (A) (A) (A) (A)
                 (A) (A) (A) (A) (A) (A) (A) (A) (A) (A) (A) (A)
                 (A) (A) (A) (A) (A) (A) (A) (A) (A) (A) (A) (A)
                 (A) (A) (A) (A) (A) (A) (A) (A) (A) (A) (A) (A)
                 (A) (A) (A) (A) (A) (A) (A) (A) (A) (A) (A) (A)
                 (A) (A) (A) (A) (A) (A) (A) (A) (A) (A) (A) (A)
                 (A) (A) (A) (A) (A) (A) (A) (A) (A) (A) (A) (A)
                 (A) (A) (A) (A) (A) (A) (A) (A) (A) (A) (A) (A)
                 (A) (A) (A) (A) (A) (A) (A) (A) (A) (A) (A) (A)
                 (A) (A) (A) (A) (A) (A) (A) (A) (A) (A) (A) (A)
                 (A) (A) (A) (A) (A) (A) (A) (A) (A) (A) (A) (A)
                 (A) (A) (A) (A) (A) (A) (A) (A) (A) (A) (A) (A)
                 (A) (A) (A) (A) (A) (A) (A) (A) (A) (A) (A) (A)
                 (A) (A) (A) (A) (A) (A) (A) (A) (A) (A) (A) (A)
                 (A) (A) (A) (A) (A) (A) (A) (A) (A) (A) (A) (A)
                 (A) (A) (A) (A) (A) (A) (A) (A) (A) (A) (A) (A)
                 (A) (A) (A) (A) (A) (A) (A) (A) (A) (A) (A) (A)
                 (A) (A) (A) (A) (A) (A) (A) (A) (A) (A) (A) (A)
                 (A) (A) (A) (A) (A) (A) (A) (A) (A) (A) (A) (A)
                 (A) (A) (A) (A) (A) (A) (A) (A) (A) (A) (A) (A)
                 (A) (A) (A) (A) (A) (A) (A) (A) (A) (A) (A) (A)
                 (A) (A) (A) (A) (A) (A) (A) (A) (A) (A) (A) (A)
                 (A) (A) (A) (A) (A) (A) (A) (A) (A) (A) (A) (A)
                 (A) (A) (A) (A) (A) (A) (A) (A) (A) (A) (A) (A)
                 (A) (A) (A) (A) (A) (A) (A) (A) (A) (A) (A) (A)
                 (A) (A) (A) (A) (A) (A) (A) (A) (A) (A) (A) (A)
                 (A) (A) (A) (A) (A) (A) (A) (A) (A) (A) (A) (A)
                 (A) (A) (A) (A) (A) (A) (A) (A) (A) (A) (A) (A)
                 (A) (A) (A) (A) (A) (A) (A) (A) (A) (A) (A) (A)
                 (A) (A) (A) (A) (A) (A) (A) (A) (A) (A) (A) (A)
                 (A) (A) (A) (A) (A) (A) (A) (A) (A) (A) (A) (A)
                 (A) (A) (A) (A) (A) (A) (A) (A) (A) (A) (A) (A)
                 (A) (A) (A) (A) (A) (A) (A) (A) (A) (A) (A) (A)
                 (A) (A) (A) (A) (A) (A) (A) (A) (A) (A) (A) (A)
                 (A) (A) (A) (A) (A) (A) (A) (A) (A) (A) (A) (A)
                 (A) (A) (A) (A) (A) (A) (A) (A) (A) (A) (A) (A)
                 (A) (A) (A) (A) (A) (A) (A) (A) (A) (A) (A) (A)
                 (A) (A) (A) (A) (A) (A) (A) (A) (A) (A) (A) (A)
                 (A) (A) (A) (A) (A) (A) (A) (A) (A) (A) (A) (A)
                 (A) (A) (A) (A) (A) (A) (A) (A) (A) (A) (A) (A)
                 (A) (A) (A) (A) (A) (A) (A) (A) (A) (A) (A) (A)
                 (A) (A) (A) (A) (A) (A) (A) (A) (A) (A) (A) (A)
                 (A) (A) (A) (A) (A) (A) (A) (A) (A) (A) (A) (A)
                 (A) (A) (A) (A) (A) (A) (A) (A) (A) (A) (A) (A)
                 (A) (A) (A) (A) (A) (A) (A) (A) (A) (A) (A) (A)
                 (A) (A) (A) (A) (A) (A) (A) (A) (A) (A) (A) (A)
                 (A) (A) (A) (A) (A) (A) (A) (A) (A) (A) (A) (A)
                 (A) (A) (A) (A) (A) (A) (A) (A) (A) (A) (A) (A)
                 (A) (A) (A) (A) (A) (A) (A) (A) (A) (A) (A) (A)
                 (A) (A) (A) (A) (A) (A) (A) (A) (A) (A) (A) (A)
                 (A) (A) (A) (A) (A) (A) (A) (A) (A) (A) (A) (A)
                 (A) (A) (A) (A) (A) (A) (A) (A) (A) (A) (A) (A)
                 (A) (A) (A) (A) (A) (A) (A) (A) (A) (A) (A) (A)
                 (A) (A) (A) (A) (A) (A) (A) (A) (A) (A) (A) (A)
     4 initial guesses have been made.
 Convergence on wavefunction:    0.001000000000000
 Iteration     1 Dimension     4 NMult     0 NNew      4
 CISAX will form     4 AO SS matrices at one time.
 Iteration     2 Dimension     6 NMult     4 NNew      2
 Iteration     3 Dimension     8 NMult     6 NNew      2
 Iteration     4 Dimension    10 NMult     8 NNew      2
 Iteration     5 Dimension    12 NMult    10 NNew      2
 Iteration     6 Dimension    14 NMult    12 NNew      2
 ***********************************************************************
 Excited states from <AA,BB:AA,BB> singles matrix:
 ***********************************************************************
 
 Ground to excited state transition densities written to RWF  633
 Ground to excited state transition electric dipole moments (Au):
       state          X           Y           Z        Dip. S.      Osc.
         1         7.2599      0.4175      0.3052     52.9742      2.8607
 Ground to excited state transition velocity dipole moments (Au):
       state          X           Y           Z        Dip. S.      Osc.
         1        -0.5696     -0.0339     -0.0234      0.3261      2.6840
 Ground to excited state transition magnetic dipole moments (Au):
       state          X           Y           Z
         1         0.0593      0.2731     -1.1931
 Ground to excited state transition velocity quadrupole moments (Au):
       state          XX          YY          ZZ          XY          XZ          YZ
         1         2.1917      0.0605      0.0400     -0.3192      0.0202     -0.0025
 <0|del|b> * <b|rxdel|0> + <0|del|b> * <b|delr+rdel|0>
 Rotatory Strengths (R) in cgs (10**-40 erg-esu-cm/Gauss)
       state          XX          YY          ZZ    R(velocity)    E-M Angle
         1       117.2527    -51.9050   -196.9092    -43.8538       91.23
 1/2[<0|r|b>*<b|rxdel|0> + (<0|rxdel|b>*<b|r|0>)*]
 Rotatory Strengths (R) in cgs (10**-40 erg-esu-cm/Gauss)
       state          XX          YY          ZZ     R(length)
         1      -304.3398    -80.6434    257.4856    -42.4992
  1/2[<0|del|b>*<b|r|0> + (<0|r|b>*<b|del|0>)*] (Au)
       state          X           Y           Z        Dip. S.   Osc.(frdel)
         1        -4.1350     -0.0142     -0.0072      4.1564      2.7709

 Excitation energies and oscillator strengths:
 
 Excited State   1:      Singlet-A      2.2042 eV  562.50 nm  f=2.8607  <S**2>=0.000
     148 ->149         0.69640
     148 ->150        -0.10258
 This state for optimization and/or second-order correction.
 Total Energy, E(TD-HF/TD-DFT) =  -1557.44240178    
 Copying the excited state density for this state as the 1-particle RhoCI density.
 SavETr:  write IOETrn=   770 NScale= 10 NData=  16 NLR=1 NState=    1 LETran=      28.

 **********************************************************************

            Population analysis using the SCF density.

 **********************************************************************

 Orbital symmetries:
       Occupied  (A) (A) (A) (A) (A) (A) (A) (A) (A) (A) (A) (A)
                 (A) (A) (A) (A) (A) (A) (A) (A) (A) (A) (A) (A)
                 (A) (A) (A) (A) (A) (A) (A) (A) (A) (A) (A) (A)
                 (A) (A) (A) (A) (A) (A) (A) (A) (A) (A) (A) (A)
                 (A) (A) (A) (A) (A) (A) (A) (A) (A) (A) (A) (A)
                 (A) (A) (A) (A) (A) (A) (A) (A) (A) (A) (A) (A)
                 (A) (A) (A) (A) (A) (A) (A) (A) (A) (A) (A) (A)
                 (A) (A) (A) (A) (A) (A) (A) (A) (A) (A) (A) (A)
                 (A) (A) (A) (A) (A) (A) (A) (A) (A) (A) (A) (A)
                 (A) (A) (A) (A) (A) (A) (A) (A) (A) (A) (A) (A)
                 (A) (A) (A) (A) (A) (A) (A) (A) (A) (A) (A) (A)
                 (A) (A) (A) (A) (A) (A) (A) (A) (A) (A) (A) (A)
                 (A) (A) (A) (A)
       Virtual   (A) (A) (A) (A) (A) (A) (A) (A) (A) (A) (A) (A)
                 (A) (A) (A) (A) (A) (A) (A) (A) (A) (A) (A) (A)
                 (A) (A) (A) (A) (A) (A) (A) (A) (A) (A) (A) (A)
                 (A) (A) (A) (A) (A) (A) (A) (A) (A) (A) (A) (A)
                 (A) (A) (A) (A) (A) (A) (A) (A) (A) (A) (A) (A)
                 (A) (A) (A) (A) (A) (A) (A) (A) (A) (A) (A) (A)
                 (A) (A) (A) (A) (A) (A) (A) (A) (A) (A) (A) (A)
                 (A) (A) (A) (A) (A) (A) (A) (A) (A) (A) (A) (A)
                 (A) (A) (A) (A) (A) (A) (A) (A) (A) (A) (A) (A)
                 (A) (A) (A) (A) (A) (A) (A) (A) (A) (A) (A) (A)
                 (A) (A) (A) (A) (A) (A) (A) (A) (A) (A) (A) (A)
                 (A) (A) (A) (A) (A) (A) (A) (A) (A) (A) (A) (A)
                 (A) (A) (A) (A) (A) (A) (A) (A) (A) (A) (A) (A)
                 (A) (A) (A) (A) (A) (A) (A) (A) (A) (A) (A) (A)
                 (A) (A) (A) (A) (A) (A) (A) (A) (A) (A) (A) (A)
                 (A) (A) (A) (A) (A) (A) (A) (A) (A) (A) (A) (A)
                 (A) (A) (A) (A) (A) (A) (A) (A) (A) (A) (A) (A)
                 (A) (A) (A) (A) (A) (A) (A) (A) (A) (A) (A) (A)
                 (A) (A) (A) (A) (A) (A) (A) (A) (A) (A) (A) (A)
                 (A) (A) (A) (A) (A) (A) (A) (A) (A) (A) (A) (A)
                 (A) (A) (A) (A) (A) (A) (A) (A) (A) (A) (A) (A)
                 (A) (A) (A) (A) (A) (A) (A) (A) (A) (A) (A) (A)
                 (A) (A) (A) (A) (A) (A) (A) (A) (A) (A) (A) (A)
                 (A) (A) (A) (A) (A) (A) (A) (A) (A) (A) (A) (A)
                 (A) (A) (A) (A) (A) (A) (A) (A) (A) (A) (A) (A)
                 (A) (A) (A) (A) (A) (A) (A) (A) (A) (A) (A) (A)
                 (A) (A) (A) (A) (A) (A) (A) (A) (A) (A) (A) (A)
                 (A) (A) (A) (A) (A) (A) (A) (A) (A) (A) (A) (A)
                 (A) (A) (A) (A) (A) (A) (A) (A) (A) (A) (A) (A)
                 (A) (A) (A) (A) (A) (A) (A) (A) (A) (A) (A) (A)
                 (A) (A) (A) (A) (A) (A) (A) (A) (A) (A) (A) (A)
                 (A) (A) (A) (A) (A) (A) (A) (A) (A) (A) (A) (A)
                 (A) (A) (A) (A) (A) (A) (A) (A) (A) (A) (A) (A)
                 (A) (A) (A) (A) (A) (A) (A) (A) (A) (A) (A) (A)
                 (A) (A) (A) (A) (A) (A) (A) (A) (A) (A) (A) (A)
                 (A) (A) (A) (A) (A) (A) (A) (A) (A) (A) (A) (A)
                 (A) (A) (A) (A) (A) (A) (A) (A) (A) (A) (A) (A)
                 (A) (A) (A) (A) (A) (A) (A) (A) (A) (A) (A) (A)
                 (A) (A) (A) (A) (A) (A) (A) (A) (A) (A) (A) (A)
                 (A) (A) (A) (A) (A) (A) (A) (A) (A) (A) (A) (A)
                 (A) (A) (A) (A) (A) (A) (A) (A) (A) (A) (A) (A)
                 (A) (A) (A) (A) (A) (A) (A) (A) (A) (A) (A) (A)
                 (A) (A) (A) (A) (A) (A) (A) (A) (A) (A) (A) (A)
                 (A) (A) (A) (A) (A) (A) (A) (A) (A) (A) (A) (A)
                 (A) (A) (A) (A) (A) (A) (A) (A) (A) (A) (A) (A)
                 (A) (A) (A) (A) (A) (A) (A) (A) (A) (A) (A) (A)
                 (A) (A) (A) (A) (A) (A) (A) (A) (A) (A) (A) (A)
                 (A) (A) (A) (A) (A) (A) (A) (A) (A) (A) (A) (A)
                 (A) (A) (A) (A) (A) (A) (A) (A) (A) (A) (A) (A)
                 (A) (A) (A) (A) (A) (A) (A) (A) (A) (A) (A) (A)
                 (A) (A) (A) (A) (A) (A) (A) (A) (A) (A) (A) (A)
                 (A) (A) (A) (A) (A) (A) (A) (A) (A) (A) (A) (A)
                 (A) (A) (A) (A) (A) (A) (A) (A) (A) (A) (A) (A)
                 (A) (A) (A) (A) (A) (A) (A) (A) (A) (A) (A) (A)
                 (A) (A) (A) (A) (A) (A) (A) (A) (A) (A) (A) (A)
                 (A) (A) (A) (A) (A) (A) (A) (A) (A) (A) (A) (A)
                 (A) (A) (A) (A) (A) (A) (A) (A) (A) (A) (A) (A)
                 (A) (A) (A) (A) (A) (A) (A) (A) (A) (A) (A) (A)
                 (A) (A) (A) (A) (A) (A) (A) (A) (A) (A) (A) (A)
                 (A) (A) (A) (A) (A) (A) (A) (A) (A) (A) (A) (A)
                 (A) (A) (A) (A) (A) (A) (A) (A) (A) (A) (A) (A)
 The electronic state is 1-A.
 Alpha  occ. eigenvalues --  -10.21273 -10.20638 -10.20632 -10.20393 -10.20389
 Alpha  occ. eigenvalues --  -10.20228 -10.20135 -10.20035 -10.19994 -10.19969
 Alpha  occ. eigenvalues --  -10.19929 -10.19802 -10.19749 -10.19719 -10.19698
 Alpha  occ. eigenvalues --  -10.19603 -10.19497 -10.19313 -10.19245 -10.19131
 Alpha  occ. eigenvalues --  -10.19047 -10.18953 -10.18933 -10.18870 -10.18781
 Alpha  occ. eigenvalues --  -10.18730 -10.18647 -10.18617 -10.18475 -10.18163
 Alpha  occ. eigenvalues --  -10.18045 -10.18019 -10.17980 -10.17800 -10.17656
 Alpha  occ. eigenvalues --  -10.17585 -10.17499 -10.17455 -10.16540 -10.15093
 Alpha  occ. eigenvalues --   -0.84607  -0.84521  -0.83369  -0.82687  -0.82101
 Alpha  occ. eigenvalues --   -0.81093  -0.78903  -0.78598  -0.78080  -0.77249
 Alpha  occ. eigenvalues --   -0.76366  -0.75217  -0.74533  -0.71965  -0.71816
 Alpha  occ. eigenvalues --   -0.69718  -0.69640  -0.69454  -0.68972  -0.67964
 Alpha  occ. eigenvalues --   -0.67860  -0.66776  -0.66549  -0.65754  -0.65467
 Alpha  occ. eigenvalues --   -0.62293  -0.61491  -0.59388  -0.58806  -0.56908
 Alpha  occ. eigenvalues --   -0.56320  -0.55692  -0.54459  -0.54141  -0.52848
 Alpha  occ. eigenvalues --   -0.52439  -0.51860  -0.49894  -0.48961  -0.48584
 Alpha  occ. eigenvalues --   -0.48226  -0.47030  -0.46706  -0.46613  -0.46208
 Alpha  occ. eigenvalues --   -0.45956  -0.45422  -0.44880  -0.44382  -0.44119
 Alpha  occ. eigenvalues --   -0.44024  -0.43259  -0.42464  -0.42256  -0.42182
 Alpha  occ. eigenvalues --   -0.41959  -0.41751  -0.41482  -0.41328  -0.40984
 Alpha  occ. eigenvalues --   -0.40769  -0.40545  -0.40222  -0.39848  -0.39645
 Alpha  occ. eigenvalues --   -0.39254  -0.38616  -0.38458  -0.38371  -0.38024
 Alpha  occ. eigenvalues --   -0.37329  -0.37184  -0.37018  -0.36703  -0.36493
 Alpha  occ. eigenvalues --   -0.36112  -0.35969  -0.35878  -0.35823  -0.35174
 Alpha  occ. eigenvalues --   -0.34942  -0.34661  -0.34567  -0.34221  -0.34013
 Alpha  occ. eigenvalues --   -0.33894  -0.33208  -0.33060  -0.32852  -0.32567
 Alpha  occ. eigenvalues --   -0.32493  -0.31790  -0.31473  -0.30527  -0.30438
 Alpha  occ. eigenvalues --   -0.30101  -0.29546  -0.29218  -0.28712  -0.28286
 Alpha  occ. eigenvalues --   -0.27903  -0.27094  -0.25807  -0.24093  -0.22647
 Alpha  occ. eigenvalues --   -0.20761  -0.18631  -0.16221
 Alpha virt. eigenvalues --   -0.07919  -0.04998  -0.02018   0.00571   0.02372
 Alpha virt. eigenvalues --    0.03766   0.04766   0.05452   0.06134   0.06898
 Alpha virt. eigenvalues --    0.07367   0.07633   0.08336   0.08612   0.08639
 Alpha virt. eigenvalues --    0.08937   0.09227   0.09580   0.09909   0.09984
 Alpha virt. eigenvalues --    0.10621   0.11027   0.11274   0.11599   0.11720
 Alpha virt. eigenvalues --    0.12040   0.12458   0.12657   0.12902   0.13467
 Alpha virt. eigenvalues --    0.13536   0.13862   0.14062   0.14280   0.14345
 Alpha virt. eigenvalues --    0.14731   0.14946   0.15125   0.15268   0.15803
 Alpha virt. eigenvalues --    0.15978   0.16062   0.16155   0.16450   0.16816
 Alpha virt. eigenvalues --    0.17220   0.17594   0.18127   0.18184   0.18460
 Alpha virt. eigenvalues --    0.18561   0.18801   0.19047   0.19149   0.19543
 Alpha virt. eigenvalues --    0.19652   0.19721   0.20116   0.20344   0.20835
 Alpha virt. eigenvalues --    0.21055   0.21205   0.21548   0.21645   0.22263
 Alpha virt. eigenvalues --    0.22715   0.22889   0.23049   0.23452   0.23741
 Alpha virt. eigenvalues --    0.23958   0.24044   0.24617   0.24759   0.24903
 Alpha virt. eigenvalues --    0.25379   0.25690   0.25740   0.26465   0.27415
 Alpha virt. eigenvalues --    0.27622   0.27797   0.28641   0.28840   0.28999
 Alpha virt. eigenvalues --    0.29911   0.30193   0.31743   0.31888   0.33490
 Alpha virt. eigenvalues --    0.33793   0.34654   0.35361   0.35679   0.36342
 Alpha virt. eigenvalues --    0.37505   0.38009   0.38676   0.39580   0.39819
 Alpha virt. eigenvalues --    0.41338   0.41760   0.42797   0.44012   0.44141
 Alpha virt. eigenvalues --    0.44456   0.47013   0.47507   0.48389   0.48734
 Alpha virt. eigenvalues --    0.49285   0.49523   0.50426   0.50623   0.50897
 Alpha virt. eigenvalues --    0.51137   0.51514   0.51831   0.52022   0.52799
 Alpha virt. eigenvalues --    0.52872   0.53234   0.53845   0.54007   0.54075
 Alpha virt. eigenvalues --    0.54378   0.54614   0.55164   0.55750   0.55961
 Alpha virt. eigenvalues --    0.56255   0.56434   0.57092   0.57285   0.57672
 Alpha virt. eigenvalues --    0.58007   0.58142   0.58542   0.58967   0.59414
 Alpha virt. eigenvalues --    0.59808   0.60093   0.60442   0.60665   0.61345
 Alpha virt. eigenvalues --    0.61595   0.61684   0.62613   0.62897   0.63051
 Alpha virt. eigenvalues --    0.63227   0.63233   0.63635   0.63883   0.64123
 Alpha virt. eigenvalues --    0.64284   0.64490   0.64736   0.65378   0.65729
 Alpha virt. eigenvalues --    0.66126   0.67117   0.67372   0.67623   0.68182
 Alpha virt. eigenvalues --    0.68283   0.68594   0.69059   0.69575   0.70208
 Alpha virt. eigenvalues --    0.70532   0.70711   0.70866   0.71653   0.72111
 Alpha virt. eigenvalues --    0.72426   0.72791   0.73028   0.73290   0.73523
 Alpha virt. eigenvalues --    0.74260   0.74416   0.74796   0.74991   0.75247
 Alpha virt. eigenvalues --    0.75464   0.76179   0.76830   0.77197   0.77293
 Alpha virt. eigenvalues --    0.77521   0.77651   0.77875   0.78376   0.78574
 Alpha virt. eigenvalues --    0.78720   0.78835   0.79144   0.79795   0.79942
 Alpha virt. eigenvalues --    0.80389   0.80697   0.81427   0.81749   0.81770
 Alpha virt. eigenvalues --    0.81810   0.82270   0.82375   0.82830   0.83278
 Alpha virt. eigenvalues --    0.83335   0.83641   0.84141   0.84422   0.85124
 Alpha virt. eigenvalues --    0.85282   0.85542   0.85661   0.86002   0.86192
 Alpha virt. eigenvalues --    0.86748   0.86856   0.87571   0.87727   0.87951
 Alpha virt. eigenvalues --    0.88294   0.88507   0.88556   0.88935   0.89136
 Alpha virt. eigenvalues --    0.89361   0.89587   0.90526   0.90925   0.91231
 Alpha virt. eigenvalues --    0.91359   0.91518   0.91736   0.91883   0.92093
 Alpha virt. eigenvalues --    0.92594   0.93000   0.93708   0.94001   0.94249
 Alpha virt. eigenvalues --    0.94600   0.95126   0.95337   0.95548   0.96138
 Alpha virt. eigenvalues --    0.96582   0.96627   0.96957   0.97618   0.97699
 Alpha virt. eigenvalues --    0.97921   0.98434   0.99004   0.99628   1.00102
 Alpha virt. eigenvalues --    1.00564   1.00685   1.01399   1.01645   1.02338
 Alpha virt. eigenvalues --    1.03371   1.04022   1.04136   1.04981   1.05421
 Alpha virt. eigenvalues --    1.05738   1.06231   1.06731   1.07009   1.07561
 Alpha virt. eigenvalues --    1.09005   1.09496   1.10009   1.10502   1.11177
 Alpha virt. eigenvalues --    1.12184   1.12359   1.13391   1.14691   1.14868
 Alpha virt. eigenvalues --    1.15413   1.15942   1.16522   1.17297   1.18250
 Alpha virt. eigenvalues --    1.20242   1.20812   1.21605   1.22426   1.23006
 Alpha virt. eigenvalues --    1.24170   1.24466   1.25828   1.26020   1.27151
 Alpha virt. eigenvalues --    1.28080   1.28545   1.29170   1.29314   1.30396
 Alpha virt. eigenvalues --    1.30566   1.31887   1.32564   1.32928   1.33425
 Alpha virt. eigenvalues --    1.34254   1.35377   1.36392   1.36936   1.37777
 Alpha virt. eigenvalues --    1.38329   1.39225   1.40317   1.40609   1.40914
 Alpha virt. eigenvalues --    1.41584   1.42649   1.43428   1.43787   1.44726
 Alpha virt. eigenvalues --    1.45361   1.45879   1.46341   1.46777   1.47216
 Alpha virt. eigenvalues --    1.47501   1.47812   1.48637   1.49696   1.50299
 Alpha virt. eigenvalues --    1.51372   1.52372   1.52612   1.53667   1.54099
 Alpha virt. eigenvalues --    1.55540   1.57503   1.57638   1.58587   1.59675
 Alpha virt. eigenvalues --    1.59694   1.62296   1.62804   1.63071   1.63241
 Alpha virt. eigenvalues --    1.65412   1.66764   1.66834   1.68456   1.69171
 Alpha virt. eigenvalues --    1.69361   1.69770   1.70976   1.71031   1.72060
 Alpha virt. eigenvalues --    1.73141   1.73377   1.73821   1.74162   1.74276
 Alpha virt. eigenvalues --    1.75051   1.75303   1.76626   1.77138   1.77335
 Alpha virt. eigenvalues --    1.77725   1.77885   1.78295   1.78460   1.79150
 Alpha virt. eigenvalues --    1.79570   1.80166   1.80607   1.81039   1.81845
 Alpha virt. eigenvalues --    1.82217   1.82745   1.82756   1.83558   1.84284
 Alpha virt. eigenvalues --    1.84673   1.84961   1.85280   1.85494   1.85917
 Alpha virt. eigenvalues --    1.86266   1.86825   1.87095   1.87687   1.88105
 Alpha virt. eigenvalues --    1.88783   1.88890   1.88995   1.89566   1.89808
 Alpha virt. eigenvalues --    1.90380   1.91476   1.91607   1.92038   1.92735
 Alpha virt. eigenvalues --    1.93192   1.93208   1.93878   1.94204   1.94381
 Alpha virt. eigenvalues --    1.95150   1.95903   1.96064   1.96115   1.96342
 Alpha virt. eigenvalues --    1.96833   1.97019   1.97246   1.97762   1.98926
 Alpha virt. eigenvalues --    1.99112   1.99412   1.99703   2.00453   2.00826
 Alpha virt. eigenvalues --    2.01184   2.01944   2.02265   2.02450   2.02551
 Alpha virt. eigenvalues --    2.02767   2.03211   2.03680   2.03958   2.04106
 Alpha virt. eigenvalues --    2.04713   2.04969   2.05544   2.06122   2.06653
 Alpha virt. eigenvalues --    2.06686   2.07390   2.07838   2.08309   2.08741
 Alpha virt. eigenvalues --    2.09293   2.09818   2.10320   2.10529   2.10631
 Alpha virt. eigenvalues --    2.11189   2.11372   2.12157   2.12351   2.13562
 Alpha virt. eigenvalues --    2.13753   2.13978   2.14467   2.15007   2.15466
 Alpha virt. eigenvalues --    2.15636   2.16451   2.16649   2.17428   2.17946
 Alpha virt. eigenvalues --    2.18113   2.18552   2.18748   2.19121   2.19324
 Alpha virt. eigenvalues --    2.20405   2.20680   2.20936   2.22993   2.23501
 Alpha virt. eigenvalues --    2.23978   2.24061   2.24482   2.25165   2.25214
 Alpha virt. eigenvalues --    2.25879   2.26031   2.27225   2.27255   2.28747
 Alpha virt. eigenvalues --    2.28778   2.29256   2.29537   2.29670   2.30084
 Alpha virt. eigenvalues --    2.30349   2.30820   2.31483   2.32368   2.32681
 Alpha virt. eigenvalues --    2.32845   2.33190   2.33916   2.34200   2.34240
 Alpha virt. eigenvalues --    2.35616   2.35676   2.36191   2.36544   2.37658
 Alpha virt. eigenvalues --    2.37725   2.38390   2.38850   2.39000   2.40770
 Alpha virt. eigenvalues --    2.40842   2.41265   2.42061   2.42464   2.43020
 Alpha virt. eigenvalues --    2.43213   2.43463   2.43993   2.44202   2.45087
 Alpha virt. eigenvalues --    2.45419   2.45843   2.47068   2.47294   2.48183
 Alpha virt. eigenvalues --    2.49005   2.49320   2.49819   2.50049   2.50331
 Alpha virt. eigenvalues --    2.50646   2.51108   2.51213   2.51688   2.52070
 Alpha virt. eigenvalues --    2.52394   2.52957   2.53696   2.54117   2.54510
 Alpha virt. eigenvalues --    2.54968   2.55762   2.55970   2.56076   2.56942
 Alpha virt. eigenvalues --    2.57339   2.57521   2.58509   2.59017   2.59857
 Alpha virt. eigenvalues --    2.59901   2.60494   2.60638   2.61374   2.61557
 Alpha virt. eigenvalues --    2.62166   2.62321   2.62651   2.63118   2.63194
 Alpha virt. eigenvalues --    2.63411   2.64453   2.65536   2.65644   2.65671
 Alpha virt. eigenvalues --    2.65941   2.66369   2.66750   2.67495   2.68122
 Alpha virt. eigenvalues --    2.68552   2.69200   2.69493   2.69680   2.70354
 Alpha virt. eigenvalues --    2.70861   2.72147   2.72688   2.73361   2.74260
 Alpha virt. eigenvalues --    2.74861   2.75433   2.76369   2.76533   2.76918
 Alpha virt. eigenvalues --    2.77255   2.77807   2.78092   2.78470   2.79127
 Alpha virt. eigenvalues --    2.79357   2.79628   2.79834   2.80703   2.81244
 Alpha virt. eigenvalues --    2.82117   2.82379   2.83173   2.83595   2.83734
 Alpha virt. eigenvalues --    2.84294   2.84839   2.85141   2.86320   2.86583
 Alpha virt. eigenvalues --    2.86865   2.87354   2.87770   2.88055   2.89311
 Alpha virt. eigenvalues --    2.89775   2.90096   2.90629   2.91627   2.93383
 Alpha virt. eigenvalues --    2.94111   2.94409   2.94915   2.95104   2.95175
 Alpha virt. eigenvalues --    2.97130   2.98042   2.98293   2.98918   3.00856
 Alpha virt. eigenvalues --    3.01290   3.02732   3.02781   3.05248   3.06704
 Alpha virt. eigenvalues --    3.07915   3.08537   3.08793   3.09019   3.09371
 Alpha virt. eigenvalues --    3.11705   3.12684   3.13573   3.14086   3.14944
 Alpha virt. eigenvalues --    3.17339   3.17506   3.18056   3.18438   3.19394
 Alpha virt. eigenvalues --    3.19540   3.21928   3.22612   3.26298   3.26808
 Alpha virt. eigenvalues --    3.27035   3.27937   3.30095   3.30852   3.31528
 Alpha virt. eigenvalues --    3.33225   3.33525   3.35309   3.37490   3.37631
 Alpha virt. eigenvalues --    3.38563   3.39215   3.39483   3.39517   3.39933
 Alpha virt. eigenvalues --    3.41560   3.42597   3.42706   3.43709   3.43797
 Alpha virt. eigenvalues --    3.44567   3.45426   3.46803   3.48035   3.49095
 Alpha virt. eigenvalues --    3.49905   3.50447   3.51042   3.52819   3.54624
 Alpha virt. eigenvalues --    3.55050   3.56398   3.57232   3.57623   3.58181
 Alpha virt. eigenvalues --    3.64041   3.64991   3.65466   3.70546   3.71923
 Alpha virt. eigenvalues --    3.84231   4.07074   4.11083   4.12140   4.12847
 Alpha virt. eigenvalues --    4.13261   4.16209   4.17118   4.17785   4.18855
 Alpha virt. eigenvalues --    4.21140   4.24617   4.27740   4.29971   4.32499
 Alpha virt. eigenvalues --    4.34273   4.36947   4.38075   4.39453   4.40386
 Alpha virt. eigenvalues --    4.42217   4.46473   4.47631   4.48032   4.49166
 Alpha virt. eigenvalues --    4.49919   4.50533   4.51718   4.55447   4.58868
 Alpha virt. eigenvalues --    4.59524   4.60814   4.63338   4.64028   4.66536
 Alpha virt. eigenvalues --    4.70328   4.72576   4.73181   4.74314   4.77797
 Alpha virt. eigenvalues --    4.78091   4.79086
          Condensed to atoms (all electrons):
 Mulliken charges:
               1
     1  C    0.032269
     2  C   -0.029167
     3  C   -0.163588
     4  C   -0.164391
     5  C   -0.180972
     6  C   -0.171578
     7  C    0.041907
     8  C    0.071078
     9  C   -0.211753
    10  C   -0.207829
    11  C    0.076693
    12  C    0.065488
    13  C   -0.317602
    14  C   -0.282826
    15  C   -0.301391
    16  C   -0.257975
    17  C   -0.175417
    18  C   -0.172480
    19  C   -0.367080
    20  C   -0.351696
    21  C   -0.076952
    22  C   -0.110371
    23  C    0.072347
    24  C    0.127097
    25  C   -0.356054
    26  C   -0.372055
    27  C   -0.140369
    28  C   -0.106330
    29  C   -0.009575
    30  C   -0.100584
    31  C   -0.112605
    32  C   -0.113570
    33  C    0.078284
    34  C    0.133175
    35  C   -0.365949
    36  C   -0.365364
    37  C   -0.129447
    38  C   -0.118992
    39  C   -0.050050
    40  C   -0.111935
    41  H    0.062032
    42  H    0.056534
    43  H    0.099168
    44  H    0.074564
    45  H    0.100860
    46  H    0.105233
    47  H    0.043306
    48  H    0.113548
    49  H    0.097320
    50  H    0.077275
    51  H    0.093807
    52  H    0.101167
    53  H    0.100219
    54  H    0.107385
    55  H    0.098050
    56  H    0.109858
    57  H    0.101050
    58  H    0.051891
    59  H    0.071815
    60  H    0.115036
    61  H    0.114885
    62  H    0.106433
    63  H    0.086514
    64  H    0.087730
    65  H    0.078848
    66  H    0.058520
    67  H    0.129265
    68  H    0.093428
    69  H    0.113799
    70  H    0.109094
    71  H    0.096305
    72  H    0.095652
    73  H    0.099727
    74  H    0.092654
    75  H    0.152909
    76  H    0.116592
    77  H    0.128720
    78  H    0.111643
    79  H    0.131340
    80  H    0.108192
    81  H    0.080796
    82  H    0.071372
    83  H    0.029037
    84  H    0.074422
    85  H    0.075796
    86  H    0.080599
    87  H    0.138145
    88  H    0.103362
    89  H    0.112573
    90  H    0.127620
    91  H    0.117667
    92  H    0.111553
    93  H    0.084340
    94  H    0.052928
    95  H    0.064760
    96  H    0.080274
 Sum of Mulliken charges =  -0.00000
 Mulliken charges with hydrogens summed into heavy atoms:
               1
     1  C    0.032269
     2  C   -0.029167
     3  C   -0.045022
     4  C    0.009341
     5  C    0.025121
     6  C   -0.014724
     7  C    0.041907
     8  C    0.071078
     9  C   -0.037159
    10  C   -0.012855
    11  C    0.076693
    12  C    0.065488
    13  C   -0.011948
    14  C   -0.020027
    15  C    0.000344
    16  C    0.022702
    17  C   -0.096569
    18  C   -0.113960
    19  C   -0.030589
    20  C   -0.050646
    21  C    0.022775
    22  C   -0.017717
    23  C    0.072347
    24  C    0.127097
    25  C    0.042167
    26  C   -0.020879
    27  C   -0.059573
    28  C   -0.034958
    29  C    0.019462
    30  C   -0.026162
    31  C   -0.036809
    32  C   -0.032971
    33  C    0.078284
    34  C    0.133175
    35  C   -0.011869
    36  C   -0.008524
    37  C   -0.045107
    38  C   -0.066064
    39  C    0.014710
    40  C   -0.031661
 Electronic spatial extent (au):  <R**2>=          94436.7726
 Charge=             -0.0000 electrons
 Dipole moment (field-independent basis, Debye):
    X=              0.2093    Y=             -0.3166    Z=              0.0924  Tot=              0.3906
 Quadrupole moment (field-independent basis, Debye-Ang):
   XX=           -237.8048   YY=           -232.8708   ZZ=           -256.1452
   XY=              7.1695   XZ=              0.0402   YZ=              1.8210
 Traceless Quadrupole moment (field-independent basis, Debye-Ang):
   XX=              4.4688   YY=              9.4028   ZZ=            -13.8716
   XY=              7.1695   XZ=              0.0402   YZ=              1.8210
 Octapole moment (field-independent basis, Debye-Ang**2):
  XXX=           -201.6171  YYY=            -13.0629  ZZZ=              6.2818  XYY=              2.9498
  XXY=            -97.5193  XXZ=             13.9320  XZZ=             -6.5235  YZZ=              1.4809
  YYZ=             -4.9146  XYZ=             -5.5513
 Hexadecapole moment (field-independent basis, Debye-Ang**3):
 XXXX=        -124892.2731 YYYY=          -4590.9788 ZZZZ=          -1515.3338 XXXY=            270.8892
 XXXZ=             88.2886 YYYX=            203.9467 YYYZ=             18.3006 ZZZX=            -71.2492
 ZZZY=              2.9659 XXYY=         -21303.1047 XXZZ=         -21508.6704 YYZZ=          -1031.3830
 XXYZ=            -71.9843 YYXZ=            139.5617 ZZXY=            -45.7449
 N-N= 3.668276876915D+03 E-N=-1.093596011312D+04  KE= 1.540627273596D+03
 1\1\GINC-RYZEN-SSD1\SP\RB3LYP TD-FC\6-31G(d,p)\C40H56\PADAWAN\26-Jul-2
 019\0\\# td=(NStates=1) B3LYP/6-31G(d,p)\\TD\\0,1\C,0,12.1741417568,0.
 542414842,-0.548540973\C,0,-12.0308353976,-0.0786929109,0.9422834072\C
 ,0,13.339293342,-0.3422938894,-0.4243784368\C,0,-12.8531618161,1.17529
 19207,1.4324039548\C,0,13.0851108253,-1.8395196244,-0.5541471735\C,0,-
 13.3175863547,2.0655550676,0.3833287\C,0,11.0192137153,0.00595486,0.35
 69332311\C,0,-10.8696046283,0.5098108634,-0.0263302678\C,0,12.20198463
 59,-2.2349757916,0.6395779341\C,0,-12.1698868713,2.6099813063,-0.55519
 38553\C,0,10.9729169997,-1.2874908036,0.898056374\C,0,-11.0063854327,1
 .6276483866,-0.7746863423\C,0,11.6500255903,0.582999425,-2.0919876774\
 C,0,12.6441278262,1.9242764827,-0.181899709\C,0,-12.8674243332,-1.1556
 72686,0.4227861085\C,0,-11.3003289009,-0.6374669203,2.1858567339\C,0,9
 .8014782104,0.9136674803,0.4483768382\C,0,-9.8659864055,-0.465029045,-
 0.3983339212\C,0,9.924426619,-1.7671265244,1.7948921241\C,0,-9.9845514
 253,2.0468464237,-1.8179032552\C,0,8.465742814,0.5154214983,0.18673687
 99\C,0,-8.4765306115,-0.3575856239,-0.343720695\C,0,7.3843370019,1.499
 9087912,0.3689495076\C,0,-7.5390427982,-1.3904775229,-0.5154419411\C,0
 ,7.6297560253,3.0195145887,0.6600384408\C,0,-7.9521724054,-2.842344245
 5,-0.6337506527\C,0,6.1918330848,0.8049848875,0.3602381828\C,0,-6.2367
 022801,-0.9602768503,-0.4578078925\C,0,4.8607467254,1.490811413,0.3675
 064096\C,0,-5.0069803098,-1.6734533231,-0.4911404956\C,0,3.7263313447,
 0.7685944246,0.2354154908\C,0,-3.7361590011,-1.1181724499,-0.411323570
 1\C,0,2.2846217636,1.3480555133,0.0907935673\C,0,-2.566025602,-1.90502
 55613,-0.5154148216\C,0,2.1285072223,2.85853522,0.2696313364\C,0,-2.55
 7086254,-3.3351870452,-0.773428693\C,0,1.1494364921,0.523313673,0.0480
 89726\C,0,-1.3541635895,-1.2012586979,-0.2638850936\C,0,1.1161259848,-
 0.8795429015,-0.1082883485\C,0,0.0486154011,-1.6799542352,-0.208014557
 5\H,0,13.8768377896,-0.1851060811,0.6444124841\H,0,14.2359806119,0.128
 5844827,-1.0985033887\H,0,-12.2212784928,1.7997523654,2.0536289277\H,0
 ,-13.7873295906,0.8142509174,2.0078672248\H,0,14.0452251445,-2.3465154
 692,-0.5260260484\H,0,12.5023161133,-1.7256864686,-1.5002561489\H,0,-1
 4.0719205803,2.9940027603,0.7677878164\H,0,-14.0211769015,1.7327929535
 ,-0.2772817503\H,0,12.699481912,-2.3583483414,1.680299912\H,0,11.89337
 67922,-3.357969489,0.4168285385\H,0,-11.7029600881,3.5470724279,-0.094
 7829613\H,0,-12.4068568996,2.9287663844,-1.4578696882\H,0,11.387872157
 7,-0.4172748048,-2.4158097137\H,0,12.4093778185,0.7703116925,-2.817948
 3688\H,0,10.6604636177,1.1597690886,-2.3012308426\H,0,12.782049159,2.0
 298498869,0.872354576\H,0,11.9855269596,2.7331732282,-0.4401481718\H,0
 ,13.8367755339,2.1773380037,-0.6991021813\H,0,-13.4214113718,-1.020886
 0976,-0.6340095017\H,0,-13.5709392665,-1.5375395582,1.054972718\H,0,-1
 2.4787654797,-1.9902474296,0.00572469\H,0,-10.7173942303,-0.0819938388
 ,2.691238783\H,0,-10.8812546509,-1.4927602767,1.6243764538\H,0,-12.053
 6594299,-0.864060874,2.90841937\H,0,10.0437577824,1.9509699571,0.69727
 56355\H,0,-10.3601204567,-1.5432494349,-0.2212084988\H,0,9.3249765752,
 -0.9347810728,2.0639001476\H,0,10.2909499091,-2.3818143793,2.707772207
 2\H,0,9.3505471219,-2.5500348535,1.2834979714\H,0,-9.3134883841,1.0529
 076034,-2.0406365606\H,0,-9.1421590208,2.8406875908,-1.4418342296\H,0,
 -10.598580123,2.3487998854,-2.7533853118\H,0,8.2739229831,-0.473758156
 ,-0.1613930897\H,0,-8.242667662,0.7131155057,0.0435507026\H,0,8.151408
 3729,2.856280664,1.4982292054\H,0,6.6382757083,3.5906567699,0.48260083
 98\H,0,8.2546297007,3.4078094429,-0.180021225\H,0,-8.6605870109,-3.208
 7479339,-1.471733867\H,0,-8.4424852368,-3.0977829656,0.30510665\H,0,-7
 .0452890815,-3.4089135427,-0.8743663218\H,0,6.1844693114,-0.2372289497
 ,-0.0653785546\H,0,-6.1341854031,0.0986818067,-0.4013804148\H,0,4.9403
 07388,2.3868371278,0.4415670635\H,0,-5.1454346438,-2.7468782042,-0.465
 618703\H,0,3.8340036671,-0.3774523151,0.1801176502\H,0,-3.6176693981,0
 .0677231022,-0.5292147882\H,0,2.553376037,3.1268130774,1.1688055359\H,
 0,1.0198191827,3.0776584976,0.249384666\H,0,2.6622632851,3.3877992534,
 -0.5820421738\H,0,-3.2265945291,-3.7527436303,-1.4225672675\H,0,-2.676
 6392697,-3.7567376667,0.3228169331\H,0,-1.4842293942,-3.5821685513,-0.
 9749397204\H,0,0.19429183,1.120597975,-0.0370530601\H,0,-1.5467157602,
 0.0237703642,0.088911165\H,0,2.1171902635,-1.6622252722,-0.0143710013\
 H,0,0.1826887797,-2.8371187542,-0.3441352744\\Version=ES64L-G16RevA.03
 \State=1-A\HF=-1557.5234038\RMSD=4.841e-09\PG=C01 [X(C40H56)]\\@


 ABALONE: AN EXPRESSION OF DISBELIEF.
 Job cpu time:       0 days  9 hours 40 minutes  0.4 seconds.
 Elapsed time:       0 days  2 hours 25 minutes 52.1 seconds.
 File lengths (MBytes):  RWF=   2884 Int=      0 D2E=      0 Chk=     79 Scr=      1
 Normal termination of Gaussian 16 at Fri Jul 26 15:03:11 2019.
