 Entering Gaussian System, Link 0=g16
 Input=Geometria-179-.com
 Output=Geometria-179-.log
 Initial command:
 /usr/local/g16/l1.exe "/home/padawan/israel-mol/b-caroten/spectra/abs/Gau-84110.inp" -scrdir="/home/padawan/israel-mol/b-caroten/spectra/abs/"
 Entering Link 1 = /usr/local/g16/l1.exe PID=     84112.
  
 Copyright (c) 1988,1990,1992,1993,1995,1998,2003,2009,2016,
            Gaussian, Inc.  All Rights Reserved.
  
 This is part of the Gaussian(R) 16 program.  It is based on
 the Gaussian(R) 09 system (copyright 2009, Gaussian, Inc.),
 the Gaussian(R) 03 system (copyright 2003, Gaussian, Inc.),
 the Gaussian(R) 98 system (copyright 1998, Gaussian, Inc.),
 the Gaussian(R) 94 system (copyright 1995, Gaussian, Inc.),
 the Gaussian 92(TM) system (copyright 1992, Gaussian, Inc.),
 the Gaussian 90(TM) system (copyright 1990, Gaussian, Inc.),
 the Gaussian 88(TM) system (copyright 1988, Gaussian, Inc.),
 the Gaussian 86(TM) system (copyright 1986, Carnegie Mellon
 University), and the Gaussian 82(TM) system (copyright 1983,
 Carnegie Mellon University). Gaussian is a federally registered
 trademark of Gaussian, Inc.
  
 This software contains proprietary and confidential information,
 including trade secrets, belonging to Gaussian, Inc.
  
 This software is provided under written license and may be
 used, copied, transmitted, or stored only in accord with that
 written license.
  
 The following legend is applicable only to US Government
 contracts under FAR:
  
                    RESTRICTED RIGHTS LEGEND
  
 Use, reproduction and disclosure by the US Government is
 subject to restrictions as set forth in subparagraphs (a)
 and (c) of the Commercial Computer Software - Restricted
 Rights clause in FAR 52.227-19.
  
 Gaussian, Inc.
 340 Quinnipiac St., Bldg. 40, Wallingford CT 06492
  
  
 ---------------------------------------------------------------
 Warning -- This program may not be used in any manner that
 competes with the business of Gaussian, Inc. or will provide
 assistance to any competitor of Gaussian, Inc.  The licensee
 of this program is prohibited from giving any competitor of
 Gaussian, Inc. access to this program.  By using this program,
 the user acknowledges that Gaussian, Inc. is engaged in the
 business of creating and licensing software in the field of
 computational chemistry and represents and warrants to the
 licensee that it is not a competitor of Gaussian, Inc. and that
 it will not use this program in any manner prohibited above.
 ---------------------------------------------------------------
  

 Cite this work as:
 Gaussian 16, Revision A.03,
 M. J. Frisch, G. W. Trucks, H. B. Schlegel, G. E. Scuseria, 
 M. A. Robb, J. R. Cheeseman, G. Scalmani, V. Barone, 
 G. A. Petersson, H. Nakatsuji, X. Li, M. Caricato, A. V. Marenich, 
 J. Bloino, B. G. Janesko, R. Gomperts, B. Mennucci, H. P. Hratchian, 
 J. V. Ortiz, A. F. Izmaylov, J. L. Sonnenberg, D. Williams-Young, 
 F. Ding, F. Lipparini, F. Egidi, J. Goings, B. Peng, A. Petrone, 
 T. Henderson, D. Ranasinghe, V. G. Zakrzewski, J. Gao, N. Rega, 
 G. Zheng, W. Liang, M. Hada, M. Ehara, K. Toyota, R. Fukuda, 
 J. Hasegawa, M. Ishida, T. Nakajima, Y. Honda, O. Kitao, H. Nakai, 
 T. Vreven, K. Throssell, J. A. Montgomery, Jr., J. E. Peralta, 
 F. Ogliaro, M. J. Bearpark, J. J. Heyd, E. N. Brothers, K. N. Kudin, 
 V. N. Staroverov, T. A. Keith, R. Kobayashi, J. Normand, 
 K. Raghavachari, A. P. Rendell, J. C. Burant, S. S. Iyengar, 
 J. Tomasi, M. Cossi, J. M. Millam, M. Klene, C. Adamo, R. Cammi, 
 J. W. Ochterski, R. L. Martin, K. Morokuma, O. Farkas, 
 J. B. Foresman, and D. J. Fox, Gaussian, Inc., Wallingford CT, 2016.
 
 ******************************************
 Gaussian 16:  ES64L-G16RevA.03 25-Dec-2016
                28-Jul-2019 
 ******************************************
 %nproc=4
 Will use up to    4 processors via shared memory.
 %Mem=2GB
 ---------------------------------
 # td=(NStates=1) B3LYP/6-31G(d,p)
 ---------------------------------
 1/38=1,172=1/1;
 2/12=2,17=6,18=5,40=1/2;
 3/5=1,6=6,7=101,11=9,25=1,30=1,74=-5/1,2,3,8;
 4//1;
 5/5=2,38=5/2;
 8/6=1,10=2,108=1/1;
 9/41=1,42=1,70=2/14;
 6/7=2,8=2,9=2,10=2/1;
 99/5=1,9=1/99;
 --
 TD
 --
 Symbolic Z-matrix:
 Charge =  0 Multiplicity = 1
 6                     12.25293   0.44568  -0.64894 
 6                    -12.08041   0.02862   0.98697 
 6                     13.48232  -0.53644  -0.44063 
 6                    -12.86156   1.20759   1.44729 
 6                     12.98535  -2.05835  -0.33927 
 6                    -13.45661   1.97259   0.29294 
 6                     11.10596   0.05698   0.29133 
 6                    -10.92333   0.5188    0.04095 
 6                     12.15169  -2.20435   0.84764 
 6                    -12.24225   2.58313  -0.52157 
 6                     11.08224  -1.08123   1.09096 
 6                    -11.05041   1.63769  -0.70335 
 6                     11.7774   0.48307  -2.10005 
 6                     12.74979   1.93478  -0.34782 
 6                    -12.94417  -1.16398   0.48146 
 6                    -11.21263  -0.65457   2.21655 
 6                     9.90541   1.0658    0.26439 
 6                    -9.9355   -0.54326  -0.17708 
 6                     10.03079  -1.51492   2.0402 
 6                    -10.04926   1.97802  -1.78089 
 6                     8.62186   0.68245   0.14737 
 6                    -8.58186  -0.34625  -0.22985 
 6                     7.3808    1.48408   0.34359 
 6                    -7.46527  -1.23632  -0.50735 
 6                     7.55972   3.04314   0.48886 
 6                    -7.87028  -2.70171  -0.86101 
 6                     6.13786   0.87824   0.30878 
 6                    -6.24747  -0.8813   -0.41009 
 6                     4.7963    1.47461   0.47802 
 6                    -5.05688  -1.72669  -0.64558 
 6                     3.7453    0.72408   0.1821 
 6                    -3.80164  -1.24623  -0.46466 
 6                     2.28498   1.24075   0.2824 
 6                    -2.47424  -1.82749  -0.5391 
 6                     2.16877   2.66866   0.56251 
 6                    -2.50029  -3.33486  -1.07271 
 6                     1.18417   0.38385   0.04591 
 6                    -1.39984  -1.07954  -0.31018 
 6                     1.14023  -0.96216  -0.22013 
 6                    -0.06803  -1.65632  -0.60298 
 1                     14.00102  -0.31826   0.45234 
 1                     14.1934  -0.40386  -1.10264 
 1                    -12.18764   1.96398   1.92276 
 1                    -13.7687   0.9588    2.21646 
 1                     13.88529  -2.71155  -0.40056 
 1                     12.52375  -2.32737  -1.30992 
 1                    -14.3197   2.79996   0.56489 
 1                    -14.10637   1.37835  -0.29482 
 1                     12.88069  -2.16348   1.69975 
 1                     11.79309  -3.23656   0.96705 
 1                    -11.83947   3.48252  -0.12416 
 1                    -12.80858   3.02331  -1.4775 
 1                     11.63703  -0.6093   -2.34651 
 1                     12.50795   0.70827  -2.86502 
 1                     10.90254   1.13127  -2.32772 
 1                     12.76018   2.07017   0.84837 
 1                     12.19478   2.69933  -0.65006 
 1                     13.89861   2.30364  -0.72889 
 1                    -13.59913  -0.89357  -0.38453 
 1                    -13.61033  -1.76833   1.19008 
 1                    -11.97208  -1.6937    0.14258 
 1                    -10.47606   0.09217   2.76831 
 1                    -10.8345  -1.54632   1.77444 
 1                    -12.10101  -0.65736   2.95908 
 1                     10.0961   2.13079   0.12922 
 1                    -10.36983  -1.58561  -0.07495 
 1                     9.35317  -0.81551   2.62255 
 1                     10.36569  -2.11122   3.01421 
 1                     9.57361  -2.23723   1.46459 
 1                    -9.60795   1.07719  -2.18167 
 1                    -9.38909   2.56386  -1.45668 
 1                    -10.56962   2.60957  -2.46043 
 1                     8.1953   -0.38615   0.01027 
 1                    -8.39307   0.66678   0.07918 
 1                     7.95185   3.46059   1.41373 
 1                     6.45226   3.40654   0.10417 
 1                     8.28418   3.3835   -0.27853 
 1                    -8.48545  -2.76496  -1.71112 
 1                    -8.83085  -3.11168  -0.05219 
 1                    -6.90025  -3.38005  -0.86586 
 1                     6.06219  -0.15324   0.09879 
 1                    -5.96618  -0.00266   0.08771 
 1                     4.66254   2.52181   0.67872 
 1                    -5.13431  -2.84037  -0.89815 
 1                     3.84152  -0.47102   0.03766 
 1                    -3.67184  -0.19168   0.16245 
 1                     2.8676    2.87164   1.27557 
 1                     1.01724   2.98354   0.949 
 1                     2.35381   3.38202  -0.33836 
 1                    -3.12134  -3.25373  -1.93361 
 1                    -2.81998  -3.725    -0.16849 
 1                    -1.49956  -3.67845  -1.33375 
 1                     0.2728    0.89623   0.17086 
 1                    -1.5148   -0.17239   0.07972 
 1                     2.18541  -1.43326  -0.41538 
 1                     0.05525  -2.7718   -0.8488 
 
 Stoichiometry    C40H56
 Framework group  C1[X(C40H56)]
 Deg. of freedom   282
 Full point group                 C1      NOp   1
 Largest Abelian subgroup         C1      NOp   1
 Largest concise Abelian subgroup C1      NOp   1
                         Standard orientation:                         
 ---------------------------------------------------------------------
 Center     Atomic      Atomic             Coordinates (Angstroms)
 Number     Number       Type             X           Y           Z
 ---------------------------------------------------------------------
      1          6           0       12.250153    0.421951   -0.667951
      2          6           0      -12.083146    0.068765    0.983528
      3          6           0       13.479707   -0.550487   -0.419138
      4          6           0      -12.864511    1.265646    1.394625
      5          6           0       12.983001   -2.066979   -0.254852
      6          6           0      -13.459669    1.982091    0.209587
      7          6           0       11.103235    0.072322    0.287591
      8          6           0      -10.926132    0.519559    0.018035
      9          6           0       12.149342   -2.163856    0.937070
     10          6           0      -12.245402    2.558596   -0.629490
     11          6           0       11.079692   -1.031807    1.133662
     12          6           0      -11.053391    1.606647   -0.771952
     13          6           0       11.774643    0.399147   -2.119368
     14          6           0       12.746749    1.922330   -0.428735
     15          6           0      -12.946692   -1.143894    0.527825
     16          6           0      -11.215272   -0.562773    2.240353
     17          6           0        9.902507    1.078956    0.218890
     18          6           0       -9.938118   -0.550445   -0.155819
     19          6           0       10.028297   -1.426005    2.100033
     20          6           0      -10.052277    1.902243   -1.862647
     21          6           0        8.619026    0.690862    0.117832
     22          6           0       -8.584509   -0.355561   -0.216682
     23          6           0        7.377821    1.499713    0.280671
     24          6           0       -7.467754   -1.256162   -0.457078
     25          6           0        7.556472    3.063482    0.361270
     26          6           0       -7.872513   -2.735007   -0.749767
     27          6           0        6.134988    0.892741    0.270967
     28          6           0       -6.250025   -0.897205   -0.374589
     29          6           0        4.793324    1.495372    0.415347
     30          6           0       -5.059276   -1.751414   -0.574852
     31          6           0        3.742463    0.733050    0.150747
     32          6           0       -3.804123   -1.263654   -0.413968
     33          6           0        2.282050    1.253182    0.229552
     34          6           0       -2.476622   -1.847269   -0.464259
     35          6           0        2.165587    2.691437    0.450296
     36          6           0       -2.502405   -3.375445   -0.935000
     37          6           0        1.181391    0.387029    0.028729
     38          6           0       -1.402358   -1.090295   -0.266494
     39          6           0        1.137687   -0.968851   -0.181350
     40          6           0       -0.070440   -1.678478   -0.535149
     41          1           0       13.998354   -0.295426    0.464041
     42          1           0       14.190775   -0.445304   -1.086066
     43          1           0      -12.190724    2.041195    1.838377
     44          1           0      -13.771618    1.048760    2.173428
     45          1           0       13.883053   -2.722001   -0.289040
     46          1           0       12.521464   -2.376034   -1.213538
     47          1           0      -14.322902    2.819869    0.447033
     48          1           0      -14.109310    1.363913   -0.353075
     49          1           0       12.878319   -2.087608    1.786769
     50          1           0       11.790915   -3.190293    1.099117
     51          1           0      -11.842785    3.473737   -0.269651
     52          1           0      -12.811783    2.958716   -1.602834
     53          1           0       11.634466   -0.702519   -2.320392
     54          1           0       12.505169    0.592602   -2.893002
     55          1           0       10.899675    1.037209   -2.373697
     56          1           0       12.757091    2.107141    0.760822
     57          1           0       12.191612    2.673616   -0.762382
     58          1           0       13.895515    2.275298   -0.824736
     59          1           0      -13.601679   -0.909686   -0.348634
     60          1           0      -13.612762   -1.718500    1.260847
     61          1           0      -11.974507   -1.687017    0.211177
     62          1           0      -10.478841    0.206302    2.760726
     63          1           0      -10.836979   -1.471996    1.835552
     64          1           0      -12.103670   -0.534972    2.982356
     65          1           0       10.093020    2.137464    0.039743
     66          1           0      -10.372268   -1.587754   -0.010625
     67          1           0        9.350547   -0.703198    2.652915
     68          1           0       10.363282   -1.981402    3.097908
     69          1           0        9.571256   -2.171611    1.554818
     70          1           0       -9.610804    0.985668   -2.225780
     71          1           0       -9.392220    2.501120   -1.562960
     72          1           0      -10.572732    2.505021   -2.567757
     73          1           0        8.192650   -0.382569    0.025092
     74          1           0       -8.395901    0.669434    0.050144
     75          1           0        7.948511    3.518941    1.268066
     76          1           0        6.448954    3.410451   -0.038149
     77          1           0        8.280891    3.371902   -0.419548
     78          1           0       -8.487650   -2.833512   -1.596531
     79          1           0       -8.833027   -3.111307    0.075327
     80          1           0       -6.902366   -3.412798   -0.726507
     81          1           0        6.059500   -0.146565    0.103860
     82          1           0       -5.968892    0.001342    0.086409
     83          1           0        4.659379    2.549961    0.572517
     84          1           0       -5.136517   -2.874609   -0.781100
     85          1           0        3.838893   -0.466990    0.055919
     86          1           0       -3.674527   -0.184027    0.168945
     87          1           0        2.864364    2.923890    1.154344
     88          1           0        1.013993    3.021853    0.823407
     89          1           0        2.350522    3.366919   -0.479335
     90          1           0       -3.123456   -3.330145   -1.798528
     91          1           0       -2.822049   -3.727874   -0.015409
     92          1           0       -1.501611   -3.729376   -1.181574
     93          1           0        0.269929    0.903981    0.132344
     94          1           0       -1.517486   -0.167802    0.085509
     95          1           0        2.182951   -1.447451   -0.356915
     96          1           0        0.053029   -2.803158   -0.734562
 ---------------------------------------------------------------------
 Rotational constants (GHZ):           0.2662502           0.0110272           0.0107924
 Standard basis: 6-31G(d,p) (6D, 7F)
 There are   880 symmetry adapted cartesian basis functions of A   symmetry.
 There are   880 symmetry adapted basis functions of A   symmetry.
   880 basis functions,  1512 primitive gaussians,   880 cartesian basis functions
   148 alpha electrons      148 beta electrons
       nuclear repulsion energy      3661.6946282273 Hartrees.
 NAtoms=   96 NActive=   96 NUniq=   96 SFac= 1.00D+00 NAtFMM=   60 NAOKFM=T Big=T
 Integral buffers will be    131072 words long.
 Regular integral format.
 Two-electron integral symmetry is turned on.
 One-electron integrals computed using PRISM.
 NBasis=   880 RedAO= T EigKep=  8.68D-04  NBF=   880
 NBsUse=   880 1.00D-06 EigRej= -1.00D+00 NBFU=   880
 ExpMin= 1.61D-01 ExpMax= 3.05D+03 ExpMxC= 4.57D+02 IAcc=3 IRadAn=         5 AccDes= 0.00D+00
 Harris functional with IExCor=  402 and IRadAn=       5 diagonalized for initial guess.
 HarFok:  IExCor=  402 AccDes= 0.00D+00 IRadAn=         5 IDoV= 1 UseB2=F ITyADJ=14
 ICtDFT=  3500011 ScaDFX=  1.000000  1.000000  1.000000  1.000000
 FoFCou: FMM=F IPFlag=           0 FMFlag=      100000 FMFlg1=        2001
         NFxFlg=           0 DoJE=T BraDBF=F KetDBF=T FulRan=T
         wScrn=  0.000000 ICntrl=       500 IOpCl=  0 I1Cent=   200000004 NGrid=           0
         NMat0=    1 NMatS0=      1 NMatT0=    0 NMatD0=    1 NMtDS0=    0 NMtDT0=    0
 Petite list used in FoFCou.
 Requested convergence on RMS density matrix=1.00D-08 within 128 cycles.
 Requested convergence on MAX density matrix=1.00D-06.
 Requested convergence on             energy=1.00D-06.
 No special actions if energy rises.
 Integral accuracy reduced to 1.0D-05 until final iterations.
 Initial convergence to 1.0D-05 achieved.  Increase integral accuracy.
 SCF Done:  E(RB3LYP) =  -1557.53994404     A.U. after   14 cycles
            NFock= 14  Conv=0.76D-08     -V/T= 2.0109
 DoSCS=F DFT=T ScalE2(SS,OS)=  1.000000  1.000000
 ExpMin= 1.61D-01 ExpMax= 3.05D+03 ExpMxC= 4.57D+02 IAcc=3 IRadAn=         5 AccDes= 0.00D+00
 HarFok:  IExCor=  205 AccDes= 0.00D+00 IRadAn=         5 IDoV=-2 UseB2=F ITyADJ=14
 ICtDFT= 12500011 ScaDFX=  1.000000  1.000000  1.000000  1.000000
 GSVD:  LWork=       -1920 too small for GESVD, short by        8600 words or        8600 for optimal perf.
 Range of M.O.s used for correlation:    41   880
 NBasis=   880 NAE=   148 NBE=   148 NFC=    40 NFV=     0
 NROrb=    840 NOA=   108 NOB=   108 NVA=   732 NVB=   732

 **** Warning!!: The smallest alpha delta epsilon is  0.90462761D-01

 Orbital symmetries:
       Occupied  (A) (A) (A) (A) (A) (A) (A) (A) (A) (A) (A) (A)
                 (A) (A) (A) (A) (A) (A) (A) (A) (A) (A) (A) (A)
                 (A) (A) (A) (A) (A) (A) (A) (A) (A) (A) (A) (A)
                 (A) (A) (A) (A) (A) (A) (A) (A) (A) (A) (A) (A)
                 (A) (A) (A) (A) (A) (A) (A) (A) (A) (A) (A) (A)
                 (A) (A) (A) (A) (A) (A) (A) (A) (A) (A) (A) (A)
                 (A) (A) (A) (A) (A) (A) (A) (A) (A) (A) (A) (A)
                 (A) (A) (A) (A) (A) (A) (A) (A) (A) (A) (A) (A)
                 (A) (A) (A) (A) (A) (A) (A) (A) (A) (A) (A) (A)
                 (A) (A) (A) (A) (A) (A) (A) (A) (A) (A) (A) (A)
                 (A) (A) (A) (A) (A) (A) (A) (A) (A) (A) (A) (A)
                 (A) (A) (A) (A) (A) (A) (A) (A) (A) (A) (A) (A)
                 (A) (A) (A) (A)
       Virtual   (A) (A) (A) (A) (A) (A) (A) (A) (A) (A) (A) (A)
                 (A) (A) (A) (A) (A) (A) (A) (A) (A) (A) (A) (A)
                 (A) (A) (A) (A) (A) (A) (A) (A) (A) (A) (A) (A)
                 (A) (A) (A) (A) (A) (A) (A) (A) (A) (A) (A) (A)
                 (A) (A) (A) (A) (A) (A) (A) (A) (A) (A) (A) (A)
                 (A) (A) (A) (A) (A) (A) (A) (A) (A) (A) (A) (A)
                 (A) (A) (A) (A) (A) (A) (A) (A) (A) (A) (A) (A)
                 (A) (A) (A) (A) (A) (A) (A) (A) (A) (A) (A) (A)
                 (A) (A) (A) (A) (A) (A) (A) (A) (A) (A) (A) (A)
                 (A) (A) (A) (A) (A) (A) (A) (A) (A) (A) (A) (A)
                 (A) (A) (A) (A) (A) (A) (A) (A) (A) (A) (A) (A)
                 (A) (A) (A) (A) (A) (A) (A) (A) (A) (A) (A) (A)
                 (A) (A) (A) (A) (A) (A) (A) (A) (A) (A) (A) (A)
                 (A) (A) (A) (A) (A) (A) (A) (A) (A) (A) (A) (A)
                 (A) (A) (A) (A) (A) (A) (A) (A) (A) (A) (A) (A)
                 (A) (A) (A) (A) (A) (A) (A) (A) (A) (A) (A) (A)
                 (A) (A) (A) (A) (A) (A) (A) (A) (A) (A) (A) (A)
                 (A) (A) (A) (A) (A) (A) (A) (A) (A) (A) (A) (A)
                 (A) (A) (A) (A) (A) (A) (A) (A) (A) (A) (A) (A)
                 (A) (A) (A) (A) (A) (A) (A) (A) (A) (A) (A) (A)
                 (A) (A) (A) (A) (A) (A) (A) (A) (A) (A) (A) (A)
                 (A) (A) (A) (A) (A) (A) (A) (A) (A) (A) (A) (A)
                 (A) (A) (A) (A) (A) (A) (A) (A) (A) (A) (A) (A)
                 (A) (A) (A) (A) (A) (A) (A) (A) (A) (A) (A) (A)
                 (A) (A) (A) (A) (A) (A) (A) (A) (A) (A) (A) (A)
                 (A) (A) (A) (A) (A) (A) (A) (A) (A) (A) (A) (A)
                 (A) (A) (A) (A) (A) (A) (A) (A) (A) (A) (A) (A)
                 (A) (A) (A) (A) (A) (A) (A) (A) (A) (A) (A) (A)
                 (A) (A) (A) (A) (A) (A) (A) (A) (A) (A) (A) (A)
                 (A) (A) (A) (A) (A) (A) (A) (A) (A) (A) (A) (A)
                 (A) (A) (A) (A) (A) (A) (A) (A) (A) (A) (A) (A)
                 (A) (A) (A) (A) (A) (A) (A) (A) (A) (A) (A) (A)
                 (A) (A) (A) (A) (A) (A) (A) (A) (A) (A) (A) (A)
                 (A) (A) (A) (A) (A) (A) (A) (A) (A) (A) (A) (A)
                 (A) (A) (A) (A) (A) (A) (A) (A) (A) (A) (A) (A)
                 (A) (A) (A) (A) (A) (A) (A) (A) (A) (A) (A) (A)
                 (A) (A) (A) (A) (A) (A) (A) (A) (A) (A) (A) (A)
                 (A) (A) (A) (A) (A) (A) (A) (A) (A) (A) (A) (A)
                 (A) (A) (A) (A) (A) (A) (A) (A) (A) (A) (A) (A)
                 (A) (A) (A) (A) (A) (A) (A) (A) (A) (A) (A) (A)
                 (A) (A) (A) (A) (A) (A) (A) (A) (A) (A) (A) (A)
                 (A) (A) (A) (A) (A) (A) (A) (A) (A) (A) (A) (A)
                 (A) (A) (A) (A) (A) (A) (A) (A) (A) (A) (A) (A)
                 (A) (A) (A) (A) (A) (A) (A) (A) (A) (A) (A) (A)
                 (A) (A) (A) (A) (A) (A) (A) (A) (A) (A) (A) (A)
                 (A) (A) (A) (A) (A) (A) (A) (A) (A) (A) (A) (A)
                 (A) (A) (A) (A) (A) (A) (A) (A) (A) (A) (A) (A)
                 (A) (A) (A) (A) (A) (A) (A) (A) (A) (A) (A) (A)
                 (A) (A) (A) (A) (A) (A) (A) (A) (A) (A) (A) (A)
                 (A) (A) (A) (A) (A) (A) (A) (A) (A) (A) (A) (A)
                 (A) (A) (A) (A) (A) (A) (A) (A) (A) (A) (A) (A)
                 (A) (A) (A) (A) (A) (A) (A) (A) (A) (A) (A) (A)
                 (A) (A) (A) (A) (A) (A) (A) (A) (A) (A) (A) (A)
                 (A) (A) (A) (A) (A) (A) (A) (A) (A) (A) (A) (A)
                 (A) (A) (A) (A) (A) (A) (A) (A) (A) (A) (A) (A)
                 (A) (A) (A) (A) (A) (A) (A) (A) (A) (A) (A) (A)
                 (A) (A) (A) (A) (A) (A) (A) (A) (A) (A) (A) (A)
                 (A) (A) (A) (A) (A) (A) (A) (A) (A) (A) (A) (A)
                 (A) (A) (A) (A) (A) (A) (A) (A) (A) (A) (A) (A)
                 (A) (A) (A) (A) (A) (A) (A) (A) (A) (A) (A) (A)
                 (A) (A) (A) (A) (A) (A) (A) (A) (A) (A) (A) (A)
     4 initial guesses have been made.
 Convergence on wavefunction:    0.001000000000000
 Iteration     1 Dimension     4 NMult     0 NNew      4
 CISAX will form     4 AO SS matrices at one time.
 Iteration     2 Dimension     6 NMult     4 NNew      2
 Iteration     3 Dimension     8 NMult     6 NNew      2
 Iteration     4 Dimension    10 NMult     8 NNew      2
 Iteration     5 Dimension    12 NMult    10 NNew      2
 Iteration     6 Dimension    14 NMult    12 NNew      2
 ***********************************************************************
 Excited states from <AA,BB:AA,BB> singles matrix:
 ***********************************************************************
 
 Ground to excited state transition densities written to RWF  633
 Ground to excited state transition electric dipole moments (Au):
       state          X           Y           Z        Dip. S.      Osc.
         1        -6.9227     -0.8180     -0.3895     48.7441      2.8137
 Ground to excited state transition velocity dipole moments (Au):
       state          X           Y           Z        Dip. S.      Osc.
         1         0.5804      0.0704      0.0326      0.3428      2.6397
 Ground to excited state transition magnetic dipole moments (Au):
       state          X           Y           Z
         1        -0.0031     -0.3547      0.8570
 Ground to excited state transition velocity quadrupole moments (Au):
       state          XX          YY          ZZ          XY          XZ          YZ
         1        -0.2478     -0.0226     -0.0090      0.2230      0.1053     -0.0373
 <0|del|b> * <b|rxdel|0> + <0|del|b> * <b|delr+rdel|0>
 Rotatory Strengths (R) in cgs (10**-40 erg-esu-cm/Gauss)
       state          XX          YY          ZZ    R(velocity)    E-M Angle
         1        11.5080    -11.2713      9.3322      3.1896       89.88
 1/2[<0|r|b>*<b|rxdel|0> + (<0|rxdel|b>*<b|r|0>)*]
 Rotatory Strengths (R) in cgs (10**-40 erg-esu-cm/Gauss)
       state          XX          YY          ZZ     R(length)
         1       -15.0974   -205.1903    236.0463      5.2529
  1/2[<0|del|b>*<b|r|0> + (<0|r|b>*<b|del|0>)*] (Au)
       state          X           Y           Z        Dip. S.   Osc.(frdel)
         1        -4.0176     -0.0576     -0.0127      4.0879      2.7253

 Excitation energies and oscillator strengths:
 
 Excited State   1:      Singlet-A      2.3561 eV  526.23 nm  f=2.8137  <S**2>=0.000
     148 ->149         0.70163
 This state for optimization and/or second-order correction.
 Total Energy, E(TD-HF/TD-DFT) =  -1557.45335917    
 Copying the excited state density for this state as the 1-particle RhoCI density.
 SavETr:  write IOETrn=   770 NScale= 10 NData=  16 NLR=1 NState=    1 LETran=      28.

 **********************************************************************

            Population analysis using the SCF density.

 **********************************************************************

 Orbital symmetries:
       Occupied  (A) (A) (A) (A) (A) (A) (A) (A) (A) (A) (A) (A)
                 (A) (A) (A) (A) (A) (A) (A) (A) (A) (A) (A) (A)
                 (A) (A) (A) (A) (A) (A) (A) (A) (A) (A) (A) (A)
                 (A) (A) (A) (A) (A) (A) (A) (A) (A) (A) (A) (A)
                 (A) (A) (A) (A) (A) (A) (A) (A) (A) (A) (A) (A)
                 (A) (A) (A) (A) (A) (A) (A) (A) (A) (A) (A) (A)
                 (A) (A) (A) (A) (A) (A) (A) (A) (A) (A) (A) (A)
                 (A) (A) (A) (A) (A) (A) (A) (A) (A) (A) (A) (A)
                 (A) (A) (A) (A) (A) (A) (A) (A) (A) (A) (A) (A)
                 (A) (A) (A) (A) (A) (A) (A) (A) (A) (A) (A) (A)
                 (A) (A) (A) (A) (A) (A) (A) (A) (A) (A) (A) (A)
                 (A) (A) (A) (A) (A) (A) (A) (A) (A) (A) (A) (A)
                 (A) (A) (A) (A)
       Virtual   (A) (A) (A) (A) (A) (A) (A) (A) (A) (A) (A) (A)
                 (A) (A) (A) (A) (A) (A) (A) (A) (A) (A) (A) (A)
                 (A) (A) (A) (A) (A) (A) (A) (A) (A) (A) (A) (A)
                 (A) (A) (A) (A) (A) (A) (A) (A) (A) (A) (A) (A)
                 (A) (A) (A) (A) (A) (A) (A) (A) (A) (A) (A) (A)
                 (A) (A) (A) (A) (A) (A) (A) (A) (A) (A) (A) (A)
                 (A) (A) (A) (A) (A) (A) (A) (A) (A) (A) (A) (A)
                 (A) (A) (A) (A) (A) (A) (A) (A) (A) (A) (A) (A)
                 (A) (A) (A) (A) (A) (A) (A) (A) (A) (A) (A) (A)
                 (A) (A) (A) (A) (A) (A) (A) (A) (A) (A) (A) (A)
                 (A) (A) (A) (A) (A) (A) (A) (A) (A) (A) (A) (A)
                 (A) (A) (A) (A) (A) (A) (A) (A) (A) (A) (A) (A)
                 (A) (A) (A) (A) (A) (A) (A) (A) (A) (A) (A) (A)
                 (A) (A) (A) (A) (A) (A) (A) (A) (A) (A) (A) (A)
                 (A) (A) (A) (A) (A) (A) (A) (A) (A) (A) (A) (A)
                 (A) (A) (A) (A) (A) (A) (A) (A) (A) (A) (A) (A)
                 (A) (A) (A) (A) (A) (A) (A) (A) (A) (A) (A) (A)
                 (A) (A) (A) (A) (A) (A) (A) (A) (A) (A) (A) (A)
                 (A) (A) (A) (A) (A) (A) (A) (A) (A) (A) (A) (A)
                 (A) (A) (A) (A) (A) (A) (A) (A) (A) (A) (A) (A)
                 (A) (A) (A) (A) (A) (A) (A) (A) (A) (A) (A) (A)
                 (A) (A) (A) (A) (A) (A) (A) (A) (A) (A) (A) (A)
                 (A) (A) (A) (A) (A) (A) (A) (A) (A) (A) (A) (A)
                 (A) (A) (A) (A) (A) (A) (A) (A) (A) (A) (A) (A)
                 (A) (A) (A) (A) (A) (A) (A) (A) (A) (A) (A) (A)
                 (A) (A) (A) (A) (A) (A) (A) (A) (A) (A) (A) (A)
                 (A) (A) (A) (A) (A) (A) (A) (A) (A) (A) (A) (A)
                 (A) (A) (A) (A) (A) (A) (A) (A) (A) (A) (A) (A)
                 (A) (A) (A) (A) (A) (A) (A) (A) (A) (A) (A) (A)
                 (A) (A) (A) (A) (A) (A) (A) (A) (A) (A) (A) (A)
                 (A) (A) (A) (A) (A) (A) (A) (A) (A) (A) (A) (A)
                 (A) (A) (A) (A) (A) (A) (A) (A) (A) (A) (A) (A)
                 (A) (A) (A) (A) (A) (A) (A) (A) (A) (A) (A) (A)
                 (A) (A) (A) (A) (A) (A) (A) (A) (A) (A) (A) (A)
                 (A) (A) (A) (A) (A) (A) (A) (A) (A) (A) (A) (A)
                 (A) (A) (A) (A) (A) (A) (A) (A) (A) (A) (A) (A)
                 (A) (A) (A) (A) (A) (A) (A) (A) (A) (A) (A) (A)
                 (A) (A) (A) (A) (A) (A) (A) (A) (A) (A) (A) (A)
                 (A) (A) (A) (A) (A) (A) (A) (A) (A) (A) (A) (A)
                 (A) (A) (A) (A) (A) (A) (A) (A) (A) (A) (A) (A)
                 (A) (A) (A) (A) (A) (A) (A) (A) (A) (A) (A) (A)
                 (A) (A) (A) (A) (A) (A) (A) (A) (A) (A) (A) (A)
                 (A) (A) (A) (A) (A) (A) (A) (A) (A) (A) (A) (A)
                 (A) (A) (A) (A) (A) (A) (A) (A) (A) (A) (A) (A)
                 (A) (A) (A) (A) (A) (A) (A) (A) (A) (A) (A) (A)
                 (A) (A) (A) (A) (A) (A) (A) (A) (A) (A) (A) (A)
                 (A) (A) (A) (A) (A) (A) (A) (A) (A) (A) (A) (A)
                 (A) (A) (A) (A) (A) (A) (A) (A) (A) (A) (A) (A)
                 (A) (A) (A) (A) (A) (A) (A) (A) (A) (A) (A) (A)
                 (A) (A) (A) (A) (A) (A) (A) (A) (A) (A) (A) (A)
                 (A) (A) (A) (A) (A) (A) (A) (A) (A) (A) (A) (A)
                 (A) (A) (A) (A) (A) (A) (A) (A) (A) (A) (A) (A)
                 (A) (A) (A) (A) (A) (A) (A) (A) (A) (A) (A) (A)
                 (A) (A) (A) (A) (A) (A) (A) (A) (A) (A) (A) (A)
                 (A) (A) (A) (A) (A) (A) (A) (A) (A) (A) (A) (A)
                 (A) (A) (A) (A) (A) (A) (A) (A) (A) (A) (A) (A)
                 (A) (A) (A) (A) (A) (A) (A) (A) (A) (A) (A) (A)
                 (A) (A) (A) (A) (A) (A) (A) (A) (A) (A) (A) (A)
                 (A) (A) (A) (A) (A) (A) (A) (A) (A) (A) (A) (A)
                 (A) (A) (A) (A) (A) (A) (A) (A) (A) (A) (A) (A)
                 (A) (A) (A) (A) (A) (A) (A) (A) (A) (A) (A) (A)
 The electronic state is 1-A.
 Alpha  occ. eigenvalues --  -10.20966 -10.20826 -10.20691 -10.20668 -10.20495
 Alpha  occ. eigenvalues --  -10.20411 -10.20303 -10.20083 -10.20023 -10.19982
 Alpha  occ. eigenvalues --  -10.19981 -10.19917 -10.19685 -10.19664 -10.19624
 Alpha  occ. eigenvalues --  -10.19514 -10.19463 -10.19436 -10.19344 -10.19207
 Alpha  occ. eigenvalues --  -10.19176 -10.19096 -10.18987 -10.18791 -10.18683
 Alpha  occ. eigenvalues --  -10.18601 -10.18587 -10.18569 -10.18410 -10.18375
 Alpha  occ. eigenvalues --  -10.18365 -10.18363 -10.18228 -10.18150 -10.18020
 Alpha  occ. eigenvalues --  -10.17982 -10.17956 -10.16856 -10.16440 -10.15405
 Alpha  occ. eigenvalues --   -0.85022  -0.83832  -0.83741  -0.83017  -0.82287
 Alpha  occ. eigenvalues --   -0.80772  -0.78625  -0.78284  -0.77987  -0.77634
 Alpha  occ. eigenvalues --   -0.76464  -0.75248  -0.74291  -0.72390  -0.71709
 Alpha  occ. eigenvalues --   -0.70766  -0.68587  -0.68004  -0.67771  -0.67480
 Alpha  occ. eigenvalues --   -0.67148  -0.67027  -0.66760  -0.66645  -0.65853
 Alpha  occ. eigenvalues --   -0.62481  -0.61306  -0.59915  -0.58899  -0.57397
 Alpha  occ. eigenvalues --   -0.56724  -0.56221  -0.55062  -0.53948  -0.52940
 Alpha  occ. eigenvalues --   -0.52673  -0.52161  -0.50154  -0.49572  -0.49052
 Alpha  occ. eigenvalues --   -0.48439  -0.47272  -0.46928  -0.46419  -0.46075
 Alpha  occ. eigenvalues --   -0.45602  -0.45132  -0.44973  -0.44377  -0.44170
 Alpha  occ. eigenvalues --   -0.43800  -0.43339  -0.42941  -0.42605  -0.42433
 Alpha  occ. eigenvalues --   -0.42103  -0.41819  -0.41099  -0.40985  -0.40858
 Alpha  occ. eigenvalues --   -0.40723  -0.40594  -0.40518  -0.39912  -0.39308
 Alpha  occ. eigenvalues --   -0.39007  -0.38901  -0.38661  -0.38253  -0.38182
 Alpha  occ. eigenvalues --   -0.37838  -0.37427  -0.37052  -0.36750  -0.36712
 Alpha  occ. eigenvalues --   -0.36654  -0.36161  -0.35954  -0.35862  -0.35521
 Alpha  occ. eigenvalues --   -0.35288  -0.35049  -0.34566  -0.33967  -0.33691
 Alpha  occ. eigenvalues --   -0.33117  -0.32773  -0.32615  -0.32470  -0.32112
 Alpha  occ. eigenvalues --   -0.31773  -0.31731  -0.31628  -0.31191  -0.30554
 Alpha  occ. eigenvalues --   -0.30150  -0.29572  -0.29264  -0.28927  -0.28601
 Alpha  occ. eigenvalues --   -0.27888  -0.27347  -0.26674  -0.24214  -0.23064
 Alpha  occ. eigenvalues --   -0.20893  -0.19460  -0.17029
 Alpha virt. eigenvalues --   -0.07983  -0.04726  -0.02411   0.00527   0.02225
 Alpha virt. eigenvalues --    0.04198   0.05120   0.05452   0.06401   0.07060
 Alpha virt. eigenvalues --    0.07156   0.08109   0.08245   0.08770   0.08902
 Alpha virt. eigenvalues --    0.09103   0.09682   0.09913   0.10088   0.10566
 Alpha virt. eigenvalues --    0.10923   0.11077   0.11340   0.11558   0.11809
 Alpha virt. eigenvalues --    0.12316   0.12724   0.12934   0.12961   0.13162
 Alpha virt. eigenvalues --    0.13334   0.13713   0.13857   0.14013   0.14768
 Alpha virt. eigenvalues --    0.14823   0.15053   0.15257   0.15543   0.15715
 Alpha virt. eigenvalues --    0.16020   0.16372   0.16798   0.16813   0.16970
 Alpha virt. eigenvalues --    0.17421   0.17553   0.17810   0.17945   0.18236
 Alpha virt. eigenvalues --    0.18401   0.18649   0.18683   0.19151   0.19237
 Alpha virt. eigenvalues --    0.19338   0.19631   0.19881   0.20120   0.20247
 Alpha virt. eigenvalues --    0.20659   0.21041   0.21222   0.21529   0.22186
 Alpha virt. eigenvalues --    0.22283   0.22507   0.22945   0.23229   0.23353
 Alpha virt. eigenvalues --    0.23630   0.24104   0.24700   0.24756   0.25543
 Alpha virt. eigenvalues --    0.26112   0.26219   0.26542   0.26652   0.27185
 Alpha virt. eigenvalues --    0.27302   0.27872   0.28546   0.28852   0.29264
 Alpha virt. eigenvalues --    0.29960   0.30253   0.30779   0.31909   0.32429
 Alpha virt. eigenvalues --    0.33658   0.34423   0.35249   0.36248   0.37381
 Alpha virt. eigenvalues --    0.37824   0.38651   0.39632   0.40293   0.41473
 Alpha virt. eigenvalues --    0.42718   0.42804   0.43425   0.44323   0.44982
 Alpha virt. eigenvalues --    0.45242   0.47158   0.47310   0.48593   0.49249
 Alpha virt. eigenvalues --    0.49426   0.50088   0.50507   0.50687   0.51026
 Alpha virt. eigenvalues --    0.51363   0.51551   0.51727   0.51882   0.52163
 Alpha virt. eigenvalues --    0.52507   0.52785   0.53236   0.53672   0.54108
 Alpha virt. eigenvalues --    0.54471   0.54580   0.54625   0.54951   0.55429
 Alpha virt. eigenvalues --    0.55761   0.55996   0.56749   0.56863   0.57450
 Alpha virt. eigenvalues --    0.57682   0.57899   0.58056   0.58146   0.58450
 Alpha virt. eigenvalues --    0.58811   0.59128   0.59727   0.60293   0.60751
 Alpha virt. eigenvalues --    0.61138   0.61428   0.62030   0.62073   0.62310
 Alpha virt. eigenvalues --    0.62556   0.62793   0.63482   0.63598   0.64210
 Alpha virt. eigenvalues --    0.64534   0.64797   0.65121   0.65600   0.66146
 Alpha virt. eigenvalues --    0.66286   0.66449   0.66843   0.67200   0.67369
 Alpha virt. eigenvalues --    0.68037   0.68430   0.68693   0.69056   0.69200
 Alpha virt. eigenvalues --    0.69551   0.70140   0.70645   0.70904   0.71150
 Alpha virt. eigenvalues --    0.71612   0.71838   0.72580   0.73068   0.73345
 Alpha virt. eigenvalues --    0.73568   0.74206   0.74827   0.75488   0.75652
 Alpha virt. eigenvalues --    0.75865   0.76173   0.76307   0.76698   0.77052
 Alpha virt. eigenvalues --    0.77129   0.78067   0.78573   0.78753   0.78801
 Alpha virt. eigenvalues --    0.79289   0.79477   0.79864   0.80062   0.80609
 Alpha virt. eigenvalues --    0.80819   0.80887   0.81752   0.81860   0.82263
 Alpha virt. eigenvalues --    0.82320   0.82650   0.83120   0.83274   0.83420
 Alpha virt. eigenvalues --    0.83486   0.84254   0.84514   0.84614   0.85007
 Alpha virt. eigenvalues --    0.85415   0.86327   0.86401   0.86562   0.86828
 Alpha virt. eigenvalues --    0.86891   0.87381   0.87823   0.87933   0.88352
 Alpha virt. eigenvalues --    0.88641   0.89326   0.89838   0.89884   0.90073
 Alpha virt. eigenvalues --    0.90460   0.91067   0.91255   0.91329   0.91696
 Alpha virt. eigenvalues --    0.91779   0.92116   0.92388   0.92747   0.92979
 Alpha virt. eigenvalues --    0.93328   0.93558   0.93842   0.94369   0.95167
 Alpha virt. eigenvalues --    0.95186   0.95653   0.95887   0.95997   0.96487
 Alpha virt. eigenvalues --    0.96845   0.96965   0.97383   0.97497   0.98231
 Alpha virt. eigenvalues --    0.98385   0.98726   0.99370   0.99640   0.99849
 Alpha virt. eigenvalues --    1.00429   1.01485   1.02039   1.02133   1.02925
 Alpha virt. eigenvalues --    1.03563   1.03828   1.04148   1.04572   1.05386
 Alpha virt. eigenvalues --    1.05962   1.06594   1.06790   1.07447   1.07907
 Alpha virt. eigenvalues --    1.08133   1.08577   1.09104   1.09305   1.10246
 Alpha virt. eigenvalues --    1.11260   1.11977   1.12435   1.12966   1.15755
 Alpha virt. eigenvalues --    1.15850   1.16427   1.17376   1.18659   1.19976
 Alpha virt. eigenvalues --    1.20251   1.20616   1.21271   1.21867   1.22693
 Alpha virt. eigenvalues --    1.23144   1.24441   1.24741   1.25228   1.26564
 Alpha virt. eigenvalues --    1.26818   1.27826   1.28715   1.29636   1.31364
 Alpha virt. eigenvalues --    1.31475   1.32176   1.32564   1.33450   1.33834
 Alpha virt. eigenvalues --    1.34248   1.35129   1.35414   1.35929   1.37480
 Alpha virt. eigenvalues --    1.38217   1.38474   1.38820   1.40140   1.40688
 Alpha virt. eigenvalues --    1.41165   1.41893   1.42268   1.43381   1.44238
 Alpha virt. eigenvalues --    1.45602   1.45913   1.47879   1.48132   1.48590
 Alpha virt. eigenvalues --    1.48725   1.49541   1.49999   1.50222   1.50615
 Alpha virt. eigenvalues --    1.52405   1.52890   1.53405   1.55566   1.56058
 Alpha virt. eigenvalues --    1.57575   1.57823   1.58443   1.58895   1.59462
 Alpha virt. eigenvalues --    1.59818   1.60815   1.61219   1.61875   1.62183
 Alpha virt. eigenvalues --    1.64394   1.65154   1.66942   1.67371   1.68456
 Alpha virt. eigenvalues --    1.68873   1.69190   1.70632   1.71177   1.71366
 Alpha virt. eigenvalues --    1.71597   1.72449   1.72842   1.73146   1.74570
 Alpha virt. eigenvalues --    1.74605   1.75194   1.75641   1.75971   1.76070
 Alpha virt. eigenvalues --    1.76234   1.76808   1.77918   1.78218   1.78255
 Alpha virt. eigenvalues --    1.78658   1.78917   1.80180   1.80368   1.80978
 Alpha virt. eigenvalues --    1.81691   1.81954   1.82489   1.82657   1.83216
 Alpha virt. eigenvalues --    1.83502   1.84314   1.84468   1.85262   1.85528
 Alpha virt. eigenvalues --    1.85858   1.86097   1.86420   1.86699   1.87190
 Alpha virt. eigenvalues --    1.87342   1.88102   1.88464   1.89034   1.89763
 Alpha virt. eigenvalues --    1.89877   1.90182   1.90745   1.90960   1.91294
 Alpha virt. eigenvalues --    1.91869   1.92017   1.93433   1.93707   1.94051
 Alpha virt. eigenvalues --    1.94617   1.95133   1.95412   1.95634   1.96622
 Alpha virt. eigenvalues --    1.96993   1.97380   1.97725   1.97801   1.98113
 Alpha virt. eigenvalues --    1.98806   1.99224   1.99950   2.00022   2.00696
 Alpha virt. eigenvalues --    2.01401   2.01735   2.02071   2.02914   2.03008
 Alpha virt. eigenvalues --    2.03413   2.03486   2.04628   2.05280   2.05317
 Alpha virt. eigenvalues --    2.06058   2.06719   2.07049   2.07537   2.07708
 Alpha virt. eigenvalues --    2.07935   2.08228   2.08480   2.08959   2.09347
 Alpha virt. eigenvalues --    2.09602   2.10121   2.10524   2.10866   2.11105
 Alpha virt. eigenvalues --    2.11804   2.12636   2.12791   2.13013   2.13372
 Alpha virt. eigenvalues --    2.13878   2.13954   2.14040   2.14603   2.15311
 Alpha virt. eigenvalues --    2.15816   2.16040   2.16547   2.16606   2.17966
 Alpha virt. eigenvalues --    2.18278   2.18587   2.19224   2.19891   2.20088
 Alpha virt. eigenvalues --    2.20619   2.20799   2.21810   2.22480   2.22894
 Alpha virt. eigenvalues --    2.23421   2.23723   2.24705   2.25253   2.25518
 Alpha virt. eigenvalues --    2.25638   2.27734   2.28026   2.28306   2.28830
 Alpha virt. eigenvalues --    2.29546   2.30209   2.30839   2.31041   2.31289
 Alpha virt. eigenvalues --    2.31828   2.32543   2.32653   2.32798   2.33200
 Alpha virt. eigenvalues --    2.33736   2.34254   2.34378   2.34669   2.35265
 Alpha virt. eigenvalues --    2.35863   2.36005   2.36296   2.37002   2.37215
 Alpha virt. eigenvalues --    2.37288   2.39088   2.39519   2.40199   2.40962
 Alpha virt. eigenvalues --    2.41258   2.42119   2.42242   2.42919   2.43147
 Alpha virt. eigenvalues --    2.43528   2.43748   2.44043   2.44309   2.44704
 Alpha virt. eigenvalues --    2.45465   2.46375   2.46520   2.46810   2.47681
 Alpha virt. eigenvalues --    2.48048   2.48339   2.48955   2.49368   2.49864
 Alpha virt. eigenvalues --    2.50718   2.50897   2.51730   2.51950   2.52745
 Alpha virt. eigenvalues --    2.53318   2.53731   2.54000   2.54277   2.54360
 Alpha virt. eigenvalues --    2.55287   2.55413   2.55897   2.56766   2.56813
 Alpha virt. eigenvalues --    2.56836   2.57046   2.57228   2.57992   2.58332
 Alpha virt. eigenvalues --    2.59063   2.59279   2.60541   2.60648   2.61009
 Alpha virt. eigenvalues --    2.61419   2.62036   2.62470   2.62716   2.63229
 Alpha virt. eigenvalues --    2.63732   2.63837   2.65340   2.65400   2.66069
 Alpha virt. eigenvalues --    2.66301   2.66729   2.67146   2.67471   2.67631
 Alpha virt. eigenvalues --    2.68473   2.69067   2.69656   2.70158   2.70515
 Alpha virt. eigenvalues --    2.71716   2.72145   2.72394   2.72901   2.73518
 Alpha virt. eigenvalues --    2.74408   2.74967   2.75198   2.75537   2.76657
 Alpha virt. eigenvalues --    2.76907   2.77157   2.77818   2.78561   2.78747
 Alpha virt. eigenvalues --    2.79329   2.79457   2.80295   2.80423   2.80590
 Alpha virt. eigenvalues --    2.81032   2.81261   2.82223   2.83459   2.83841
 Alpha virt. eigenvalues --    2.84339   2.84630   2.85210   2.85686   2.86193
 Alpha virt. eigenvalues --    2.87806   2.87908   2.88307   2.88539   2.88784
 Alpha virt. eigenvalues --    2.90377   2.90788   2.91392   2.92429   2.93395
 Alpha virt. eigenvalues --    2.93775   2.94492   2.94693   2.95827   2.96234
 Alpha virt. eigenvalues --    2.97322   2.97505   2.97986   2.99491   2.99811
 Alpha virt. eigenvalues --    3.00235   3.01242   3.01623   3.04300   3.05641
 Alpha virt. eigenvalues --    3.07081   3.07596   3.07772   3.09033   3.11282
 Alpha virt. eigenvalues --    3.11778   3.12618   3.14046   3.14805   3.15633
 Alpha virt. eigenvalues --    3.16880   3.17975   3.18215   3.19917   3.20994
 Alpha virt. eigenvalues --    3.22822   3.23079   3.24999   3.25819   3.25853
 Alpha virt. eigenvalues --    3.27576   3.29304   3.29391   3.32568   3.33053
 Alpha virt. eigenvalues --    3.33516   3.33935   3.36307   3.36684   3.37040
 Alpha virt. eigenvalues --    3.39154   3.40869   3.42142   3.42262   3.42976
 Alpha virt. eigenvalues --    3.44497   3.44762   3.45046   3.45802   3.46840
 Alpha virt. eigenvalues --    3.47075   3.48096   3.49013   3.49039   3.49460
 Alpha virt. eigenvalues --    3.50621   3.50802   3.51324   3.55618   3.55809
 Alpha virt. eigenvalues --    3.56385   3.56862   3.57027   3.57622   3.58476
 Alpha virt. eigenvalues --    3.59594   3.61150   3.64874   3.70416   3.74577
 Alpha virt. eigenvalues --    3.75094   3.85823   4.09951   4.10994   4.12780
 Alpha virt. eigenvalues --    4.13907   4.15912   4.16094   4.18469   4.18805
 Alpha virt. eigenvalues --    4.20347   4.24141   4.28306   4.30545   4.32799
 Alpha virt. eigenvalues --    4.33904   4.35312   4.36703   4.38031   4.39976
 Alpha virt. eigenvalues --    4.41954   4.45163   4.45988   4.47379   4.48504
 Alpha virt. eigenvalues --    4.49763   4.51246   4.52220   4.54316   4.57646
 Alpha virt. eigenvalues --    4.60301   4.60869   4.62672   4.63550   4.65740
 Alpha virt. eigenvalues --    4.70189   4.70827   4.73051   4.74029   4.76761
 Alpha virt. eigenvalues --    4.77186   4.81255
          Condensed to atoms (all electrons):
 Mulliken charges:
               1
     1  C    0.006521
     2  C   -0.035263
     3  C   -0.176661
     4  C   -0.168658
     5  C   -0.203997
     6  C   -0.174152
     7  C    0.060610
     8  C    0.087672
     9  C   -0.212512
    10  C   -0.233542
    11  C    0.069915
    12  C    0.055143
    13  C   -0.297864
    14  C   -0.293804
    15  C   -0.274546
    16  C   -0.278486
    17  C   -0.158570
    18  C   -0.148792
    19  C   -0.361542
    20  C   -0.354073
    21  C   -0.060319
    22  C   -0.121419
    23  C    0.098343
    24  C    0.165561
    25  C   -0.369226
    26  C   -0.350367
    27  C   -0.130767
    28  C   -0.125721
    29  C   -0.074314
    30  C   -0.105455
    31  C   -0.094311
    32  C   -0.108034
    33  C    0.078344
    34  C    0.074615
    35  C   -0.366130
    36  C   -0.355415
    37  C   -0.079719
    38  C   -0.080181
    39  C   -0.095308
    40  C   -0.122092
    41  H    0.098655
    42  H    0.090873
    43  H    0.090406
    44  H    0.056236
    45  H    0.084918
    46  H    0.094495
    47  H    0.057319
    48  H    0.107680
    49  H    0.104366
    50  H    0.098015
    51  H    0.119766
    52  H    0.079679
    53  H    0.089226
    54  H    0.099275
    55  H    0.105003
    56  H    0.075388
    57  H    0.115717
    58  H    0.062225
    59  H    0.100730
    60  H    0.105041
    61  H    0.079498
    62  H    0.090705
    63  H    0.102179
    64  H    0.086622
    65  H    0.083934
    66  H    0.077447
    67  H    0.120444
    68  H    0.082843
    69  H    0.137391
    70  H    0.126322
    71  H    0.131360
    72  H    0.100057
    73  H    0.067997
    74  H    0.081844
    75  H    0.128207
    76  H    0.086477
    77  H    0.115984
    78  H    0.137486
    79  H    0.064639
    80  H    0.099206
    81  H    0.075777
    82  H    0.083535
    83  H    0.088428
    84  H    0.084965
    85  H    0.073882
    86  H    0.046455
    87  H    0.136151
    88  H    0.079160
    89  H    0.118066
    90  H    0.132078
    91  H    0.143886
    92  H    0.103883
    93  H    0.070139
    94  H    0.079958
    95  H    0.073406
    96  H    0.089093
 Sum of Mulliken charges =  -0.00000
 Mulliken charges with hydrogens summed into heavy atoms:
               1
     1  C    0.006521
     2  C   -0.035263
     3  C    0.012867
     4  C   -0.022016
     5  C   -0.024584
     6  C   -0.009154
     7  C    0.060610
     8  C    0.087672
     9  C   -0.010130
    10  C   -0.034097
    11  C    0.069915
    12  C    0.055143
    13  C   -0.004359
    14  C   -0.040474
    15  C    0.010723
    16  C    0.001019
    17  C   -0.074636
    18  C   -0.071345
    19  C   -0.020865
    20  C    0.003668
    21  C    0.007678
    22  C   -0.039575
    23  C    0.098343
    24  C    0.165561
    25  C   -0.038558
    26  C   -0.049036
    27  C   -0.054990
    28  C   -0.042186
    29  C    0.014115
    30  C   -0.020490
    31  C   -0.020429
    32  C   -0.061579
    33  C    0.078344
    34  C    0.074615
    35  C   -0.032753
    36  C    0.024432
    37  C   -0.009580
    38  C   -0.000223
    39  C   -0.021902
    40  C   -0.032999
 Electronic spatial extent (au):  <R**2>=          95189.1681
 Charge=             -0.0000 electrons
 Dipole moment (field-independent basis, Debye):
    X=              0.2378    Y=              0.0648    Z=             -0.1604  Tot=              0.2940
 Quadrupole moment (field-independent basis, Debye-Ang):
   XX=           -233.5974   YY=           -235.1761   ZZ=           -256.9033
   XY=             -8.0655   XZ=              3.4997   YZ=              0.9570
 Traceless Quadrupole moment (field-independent basis, Debye-Ang):
   XX=              8.2949   YY=              6.7162   ZZ=            -15.0111
   XY=             -8.0655   XZ=              3.4997   YZ=              0.9570
 Octapole moment (field-independent basis, Debye-Ang**2):
  XXX=             14.9609  YYY=              5.2892  ZZZ=             -2.1091  XYY=             23.9076
  XXY=            -16.4123  XXZ=            -69.1434  XZZ=             29.4100  YZZ=              1.2390
  YYZ=             -9.6590  XYZ=            -11.8519
 Hexadecapole moment (field-independent basis, Debye-Ang**3):
 XXXX=        -122755.8451 YYYY=          -4493.8002 ZZZZ=          -1668.2702 XXXY=          -1486.6787
 XXXZ=            125.7827 YYYX=            -83.7417 YYYZ=             -1.8937 ZZZX=             83.7172
 ZZZY=              1.6604 XXYY=         -21317.1362 XXZZ=         -21991.2869 YYZZ=          -1031.4464
 XXYZ=           -245.1958 YYXZ=             96.7144 ZZXY=            -69.0778
 N-N= 3.661694628227D+03 E-N=-1.092266573000D+04  KE= 1.540678787028D+03
 1\1\GINC-RYZEN-SSD1\SP\RB3LYP TD-FC\6-31G(d,p)\C40H56\PADAWAN\28-Jul-2
 019\0\\# td=(NStates=1) B3LYP/6-31G(d,p)\\TD\\0,1\C,0,12.2529296356,0.
 445675168,-0.648941013\C,0,-12.0804103551,0.0286178202,0.9869678757\C,
 0,13.4823176445,-0.5364433043,-0.440630062\C,0,-12.8615626562,1.207585
 15,1.4472854429\C,0,12.9853508493,-2.0583515076,-0.3392656854\C,0,-13.
 4566102571,1.9725857707,0.2929396611\C,0,11.1059623901,0.0569799625,0.
 2913266705\C,0,-10.9233300008,0.5188017625,0.0409464598\C,0,12.1516896
 064,-2.2043527293,0.8476387402\C,0,-12.242254108,2.5831286211,-0.52157
 04929\C,0,11.0822379318,-1.0812301775,1.090955664\C,0,-11.0504098352,1
 .6376893907,-0.7033492086\C,0,11.7773983275,0.483069432,-2.1000484834\
 C,0,12.7497883922,1.9347775329,-0.3478163006\C,0,-12.944172008,-1.1639
 835171,0.4814619761\C,0,-11.212630131,-0.6545686305,2.2165498032\C,0,9
 .9054086035,1.0658026939,0.2643884393\C,0,-9.9355033572,-0.5432568678,
 -0.177081796\C,0,10.030787255,-1.5149213038,2.0401966546\C,0,-10.04925
 7896,1.9780195411,-1.7808895539\C,0,8.6218584255,0.682448201,0.1473729
 435\C,0,-8.5818611445,-0.3462544907,-0.2298493078\C,0,7.3807966479,1.4
 84077208,0.3435869713\C,0,-7.4652654204,-1.2363221073,-0.507351132\C,0
 ,7.5597190216,3.0431369509,0.4888613231\C,0,-7.8702842166,-2.701710182
 1,-0.8610133789\C,0,6.1378576873,0.8782422132,0.3087830373\C,0,-6.2474
 733572,-0.8812989525,-0.410093121\C,0,4.7963002807,1.4746097929,0.4780
 174607\C,0,-5.0568752993,-1.7266886467,-0.6455759392\C,0,3.7453032419,
 0.7240799732,0.1821001593\C,0,-3.8016355488,-1.2462252552,-0.464658903
 6\C,0,2.2849817996,1.2407547832,0.2824027282\C,0,-2.474236423,-1.82748
 78075,-0.5390971898\C,0,2.1687712487,2.6686562321,0.5625106244\C,0,-2.
 5002905745,-3.3348570122,-1.072708621\C,0,1.1841699655,0.3838497266,0.
 045909508\C,0,-1.3998381569,-1.0795365257,-0.3101797231\C,0,1.14022839
 5,-0.9621611633,-0.2201295327\C,0,-0.068026263,-1.656321872,-0.6029840
 544\H,0,14.0010202078,-0.3182593964,0.4523432772\H,0,14.1933963534,-0.
 4038587616,-1.1026438028\H,0,-12.1876351285,1.9639787881,1.9227558404\
 H,0,-13.7686977274,0.9587953718,2.2164580839\H,0,13.8852891509,-2.7115
 519729,-0.4005635022\H,0,12.5237482565,-2.3273666367,-1.309917115\H,0,
 -14.3196953577,2.7999633563,0.5648875264\H,0,-14.1063654203,1.37834750
 9,-0.2948235045\H,0,12.8806900328,-2.1634788545,1.6997518572\H,0,11.79
 30867632,-3.2365573478,0.967053561\H,0,-11.8394737395,3.4825159723,-0.
 1241558986\H,0,-12.8085770716,3.0233058384,-1.4775016514\H,0,11.637027
 0732,-0.6093040077,-2.346512784\H,0,12.5079476755,0.7082654878,-2.8650
 230763\H,0,10.9025378251,1.1312662383,-2.3277234918\H,0,12.7601769718,
 2.0701739193,0.8483721777\H,0,12.1947778847,2.6993298439,-0.6500591629
 \H,0,13.8986117175,2.303640634,-0.7288851596\H,0,-13.5991291436,-0.893
 5733663,-0.3845345542\H,0,-13.6103332059,-1.7683326375,1.1900762283\H,
 0,-11.9720848117,-1.6936977747,0.1425783753\H,0,-10.4760600969,0.09217
 3578,2.7683064897\H,0,-10.8344999754,-1.5463156323,1.7744414603\H,0,-1
 2.1010141654,-0.6573602039,2.9590844365\H,0,10.0961030169,2.1307879389
 ,0.1292188298\H,0,-10.3698314278,-1.5856136714,-0.0749538734\H,0,9.353
 1693944,-0.8155091456,2.6225460122\H,0,10.3656873828,-2.1112173196,3.0
 142128513\H,0,9.5736094281,-2.2372335734,1.4645860802\H,0,-9.607947830
 1,1.0771900316,-2.181670664\H,0,-9.3890937143,2.563859908,-1.456675713
 8\H,0,-10.5696172267,2.609565962,-2.4604260159\H,0,8.1952951203,-0.386
 1493951,0.010274077\H,0,-8.3930727025,0.6667808722,0.0791842659\H,0,7.
 9518484169,3.460591095,1.4137307556\H,0,6.4522571064,3.406538358,0.104
 172997\H,0,8.284182656,3.3834970117,-0.278531076\H,0,-8.4854494971,-2.
 7649635555,-1.7111178054\H,0,-8.8308540737,-3.1116843557,-0.0521890796
 \H,0,-6.9002545781,-3.3800506564,-0.8658554707\H,0,6.0621870832,-0.153
 2405509,0.0987878621\H,0,-5.9661786025,-0.0026583273,0.087708494\H,0,4
 .6625396113,2.5218106252,0.6787207789\H,0,-5.1343135317,-2.8403675532,
 -0.8981519563\H,0,3.8415244191,-0.4710216721,0.0376634047\H,0,-3.67184
 48157,-0.1916828384,0.1624543787\H,0,2.8675974591,2.8716375599,1.27556
 62119\H,0,1.0172389247,2.9835390857,0.949004628\H,0,2.35381244,3.38201
 86754,-0.3383578054\H,0,-3.121344004,-3.2537337293,-1.9336083716\H,0,-
 2.8199836042,-3.7250044933,-0.1684921978\H,0,-1.4995609274,-3.67844817
 92,-1.333745601\H,0,0.2727996808,0.8962255378,0.170857731\H,0,-1.51480
 25689,-0.1723892517,0.0797202459\H,0,2.1854070852,-1.4332623759,-0.415
 3811023\H,0,0.0552460354,-2.7718022225,-0.8487957405\\Version=ES64L-G1
 6RevA.03\State=1-A\HF=-1557.539944\RMSD=7.629e-09\PG=C01 [X(C40H56)]\\
 @


 WE ARE REACHING THE STAGE WHERE THE PROBLEMS WE MUST SOLVE ARE 
 GOING TO BECOME INSOLUBLE WITHOUT COMPUTERS.
 I DO NOT FEAR COMPUTERS.  I FEAR THE LACK OF THEM.

                                   -- ISSAC ASIMOV
 Job cpu time:       0 days 10 hours 15 minutes 33.4 seconds.
 Elapsed time:       0 days  2 hours 34 minutes 52.0 seconds.
 File lengths (MBytes):  RWF=   2884 Int=      0 D2E=      0 Chk=     79 Scr=      1
 Normal termination of Gaussian 16 at Sun Jul 28 13:44:15 2019.
