 Entering Gaussian System, Link 0=g16
 Input=Geometria-60-.com
 Output=Geometria-60-.log
 Initial command:
 /usr/local/g16/l1.exe "/home/padawan/israel-mol/b-caroten/spectra/abs/Gau-72333.inp" -scrdir="/home/padawan/israel-mol/b-caroten/spectra/abs/"
 Entering Link 1 = /usr/local/g16/l1.exe PID=     72335.
  
 Copyright (c) 1988,1990,1992,1993,1995,1998,2003,2009,2016,
            Gaussian, Inc.  All Rights Reserved.
  
 This is part of the Gaussian(R) 16 program.  It is based on
 the Gaussian(R) 09 system (copyright 2009, Gaussian, Inc.),
 the Gaussian(R) 03 system (copyright 2003, Gaussian, Inc.),
 the Gaussian(R) 98 system (copyright 1998, Gaussian, Inc.),
 the Gaussian(R) 94 system (copyright 1995, Gaussian, Inc.),
 the Gaussian 92(TM) system (copyright 1992, Gaussian, Inc.),
 the Gaussian 90(TM) system (copyright 1990, Gaussian, Inc.),
 the Gaussian 88(TM) system (copyright 1988, Gaussian, Inc.),
 the Gaussian 86(TM) system (copyright 1986, Carnegie Mellon
 University), and the Gaussian 82(TM) system (copyright 1983,
 Carnegie Mellon University). Gaussian is a federally registered
 trademark of Gaussian, Inc.
  
 This software contains proprietary and confidential information,
 including trade secrets, belonging to Gaussian, Inc.
  
 This software is provided under written license and may be
 used, copied, transmitted, or stored only in accord with that
 written license.
  
 The following legend is applicable only to US Government
 contracts under FAR:
  
                    RESTRICTED RIGHTS LEGEND
  
 Use, reproduction and disclosure by the US Government is
 subject to restrictions as set forth in subparagraphs (a)
 and (c) of the Commercial Computer Software - Restricted
 Rights clause in FAR 52.227-19.
  
 Gaussian, Inc.
 340 Quinnipiac St., Bldg. 40, Wallingford CT 06492
  
  
 ---------------------------------------------------------------
 Warning -- This program may not be used in any manner that
 competes with the business of Gaussian, Inc. or will provide
 assistance to any competitor of Gaussian, Inc.  The licensee
 of this program is prohibited from giving any competitor of
 Gaussian, Inc. access to this program.  By using this program,
 the user acknowledges that Gaussian, Inc. is engaged in the
 business of creating and licensing software in the field of
 computational chemistry and represents and warrants to the
 licensee that it is not a competitor of Gaussian, Inc. and that
 it will not use this program in any manner prohibited above.
 ---------------------------------------------------------------
  

 Cite this work as:
 Gaussian 16, Revision A.03,
 M. J. Frisch, G. W. Trucks, H. B. Schlegel, G. E. Scuseria, 
 M. A. Robb, J. R. Cheeseman, G. Scalmani, V. Barone, 
 G. A. Petersson, H. Nakatsuji, X. Li, M. Caricato, A. V. Marenich, 
 J. Bloino, B. G. Janesko, R. Gomperts, B. Mennucci, H. P. Hratchian, 
 J. V. Ortiz, A. F. Izmaylov, J. L. Sonnenberg, D. Williams-Young, 
 F. Ding, F. Lipparini, F. Egidi, J. Goings, B. Peng, A. Petrone, 
 T. Henderson, D. Ranasinghe, V. G. Zakrzewski, J. Gao, N. Rega, 
 G. Zheng, W. Liang, M. Hada, M. Ehara, K. Toyota, R. Fukuda, 
 J. Hasegawa, M. Ishida, T. Nakajima, Y. Honda, O. Kitao, H. Nakai, 
 T. Vreven, K. Throssell, J. A. Montgomery, Jr., J. E. Peralta, 
 F. Ogliaro, M. J. Bearpark, J. J. Heyd, E. N. Brothers, K. N. Kudin, 
 V. N. Staroverov, T. A. Keith, R. Kobayashi, J. Normand, 
 K. Raghavachari, A. P. Rendell, J. C. Burant, S. S. Iyengar, 
 J. Tomasi, M. Cossi, J. M. Millam, M. Klene, C. Adamo, R. Cammi, 
 J. W. Ochterski, R. L. Martin, K. Morokuma, O. Farkas, 
 J. B. Foresman, and D. J. Fox, Gaussian, Inc., Wallingford CT, 2016.
 
 ******************************************
 Gaussian 16:  ES64L-G16RevA.03 25-Dec-2016
                26-Jul-2019 
 ******************************************
 %nproc=4
 Will use up to    4 processors via shared memory.
 %Mem=2GB
 ---------------------------------
 # td=(NStates=1) B3LYP/6-31G(d,p)
 ---------------------------------
 1/38=1,172=1/1;
 2/12=2,17=6,18=5,40=1/2;
 3/5=1,6=6,7=101,11=9,25=1,30=1,74=-5/1,2,3,8;
 4//1;
 5/5=2,38=5/2;
 8/6=1,10=2,108=1/1;
 9/41=1,42=1,70=2/14;
 6/7=2,8=2,9=2,10=2/1;
 99/5=1,9=1/99;
 --
 TD
 --
 Symbolic Z-matrix:
 Charge =  0 Multiplicity = 1
 6                     12.10465   0.50684  -0.74211 
 6                    -12.0447  -0.05574   0.92203 
 6                     13.40189  -0.42147  -0.55585 
 6                    -12.90722   1.1815    1.2838 
 6                     13.04116  -1.89859  -0.57188 
 6                    -13.38915   1.9378    0.0388 
 6                     11.03142  -0.05693   0.2011 
 6                    -11.05289   0.38408  -0.12133 
 6                     12.23425  -2.27556   0.64362 
 6                    -12.29299   2.57603  -0.80574 
 6                     11.10041  -1.23226   0.83857 
 6                    -11.08189   1.55424  -0.78389 
 6                     11.59442   0.54926  -2.25348 
 6                     12.5452   1.95651  -0.32374 
 6                    -12.89755  -1.14319   0.11714 
 6                    -11.39304  -0.58043   2.17112 
 6                     9.8147    0.84294   0.34566 
 6                    -9.91539  -0.6152   -0.29381 
 6                     10.22615  -1.78693   1.77618 
 6                    -10.01718   1.93569  -1.73452 
 6                     8.50246   0.50954   0.344 
 6                    -8.56796  -0.31177  -0.1753 
 6                     7.37177   1.36764   0.50974 
 6                    -7.46964  -1.31372  -0.30063 
 6                     7.66299   2.7921    0.6695 
 6                    -7.88506  -2.77362  -0.42513 
 6                     6.12133   0.81625   0.29016 
 6                    -6.18091  -0.82099  -0.37822 
 6                     4.82832   1.58036   0.37059 
 6                    -4.92651  -1.60549  -0.46859 
 6                     3.72411   0.83961   0.35968 
 6                    -3.71955  -0.96988  -0.29281 
 6                     2.28983   1.35757   0.34784 
 6                    -2.47526  -1.77913  -0.4335 
 6                     2.09565   2.82656   0.79172 
 6                    -2.54637  -3.28255  -0.7058 
 6                     1.16991   0.6233    0.11705 
 6                    -1.30383  -1.01002  -0.26737 
 6                     1.15936  -0.86918  -0.16429 
 6                    -0.00575  -1.56614  -0.33763 
 1                     13.90354  -0.05613   0.46557 
 1                     14.12226  -0.2082   -1.35325 
 1                    -12.23974   1.84671   2.01419 
 1                    -13.81691   0.86488   1.91664 
 1                     14.10656  -2.52451  -0.39825 
 1                     12.7531  -2.31514  -1.48095 
 1                    -14.07388   2.66442   0.40209 
 1                    -13.93218   1.20249  -0.69894 
 1                     12.71019  -2.01627   1.53791 
 1                     11.76297  -3.34038   0.53786 
 1                    -12.02666   3.41496  -0.36652 
 1                    -12.44093   2.9255   -1.73459 
 1                     11.19781  -0.38834  -2.69364 
 1                     12.40932   0.8648   -2.8878 
 1                     10.83921   1.33399  -2.42139 
 1                     12.60733   1.72858   0.85352 
 1                     11.82986   2.87281  -0.50182 
 1                     13.55     2.33159  -0.81746 
 1                    -13.55719  -0.48567  -0.52136 
 1                    -13.4209  -1.98503   0.73215 
 1                    -12.13331  -1.65581  -0.43102 
 1                    -10.53725   0.0643    2.67532 
 1                    -10.96869  -1.54584   1.79888 
 1                    -12.22904  -0.68044   2.82428 
 1                     10.08026   1.97244   0.61015 
 1                    -10.24298  -1.59901  -0.31663 
 1                     9.78391  -0.96009   2.32439 
 1                     10.69609  -2.46901   2.48478 
 1                     9.50736  -2.54826   1.43183 
 1                    -9.3289    1.04368  -2.09488 
 1                    -9.47999   2.59429  -1.18296 
 1                    -10.65396   2.29611  -2.5242 
 1                     8.27892  -0.72985   0.11969 
 1                    -8.39617   0.84344  -0.2053 
 1                     8.45359   3.0452    1.50974 
 1                     6.77962   3.31218   0.86113 
 1                     8.23863   3.22832  -0.20747 
 1                    -8.74257  -2.9664   -1.15722 
 1                    -8.30107  -3.27082   0.49071 
 1                    -6.97625  -3.42653  -0.86167 
 1                     6.07955  -0.21646   0.20552 
 1                    -6.03523   0.27856  -0.12157 
 1                     4.95942   2.52061   0.48551 
 1                    -4.74154  -2.72246  -0.78359 
 1                     3.81913  -0.24239   0.15051 
 1                    -3.5499    0.01252  -0.08175 
 1                     2.95078   2.93875   1.64188 
 1                     1.17741   3.07984   1.18486 
 1                     2.36338   3.6427   -0.18763 
 1                    -3.10664  -3.43876  -1.81004 
 1                    -2.94662  -3.83576   0.0926 
 1                    -1.41977  -3.5654   -0.89546 
 1                     0.16161   1.12312   0.16889 
 1                    -1.40334   0.19204   0.08619 
 1                     2.16077  -1.30867  -0.11913 
 1                     0.05357  -2.59065  -0.57535 
 
 Stoichiometry    C40H56
 Framework group  C1[X(C40H56)]
 Deg. of freedom   282
 Full point group                 C1      NOp   1
 Largest Abelian subgroup         C1      NOp   1
 Largest concise Abelian subgroup C1      NOp   1
                         Standard orientation:                         
 ---------------------------------------------------------------------
 Center     Atomic      Atomic             Coordinates (Angstroms)
 Number     Number       Type             X           Y           Z
 ---------------------------------------------------------------------
      1          6           0      -12.102474   -0.513865   -0.756412
      2          6           0       12.045008    0.059530    0.931003
      3          6           0      -13.400834    0.411400   -0.562968
      4          6           0       12.908570   -1.179942    1.282511
      5          6           0      -13.041659    1.888978   -0.565704
      6          6           0       13.392246   -1.924731    0.031267
      7          6           0      -11.030553    0.042707    0.192544
      8          6           0       11.054457   -0.372124   -0.116948
      9          6           0      -12.236066    2.256078    0.653682
     10          6           0       12.297396   -2.556647   -0.819702
     11          6           0      -11.101266    1.212293    0.840296
     12          6           0       11.085198   -1.536372   -0.789769
     13          6           0      -11.591059   -0.542420   -2.267712
     14          6           0      -12.541791   -1.967628   -0.351172
     15          6           0       12.897307    1.154931    0.136370
     16          6           0       11.391853    0.572504    2.184166
     17          6           0       -9.812982   -0.857119    0.330094
     18          6           0        9.916024    0.627437   -0.281485
     19          6           0      -10.228298    1.759605    1.783422
     20          6           0       10.021611   -1.910547   -1.744541
     21          6           0       -8.501093   -0.522332    0.332376
     22          6           0        8.568827    0.321549   -0.166679
     23          6           0       -7.369616   -1.380660    0.491410
     24          6           0        7.469533    1.323403   -0.284008
     25          6           0       -7.659445   -2.806785    0.638386
     26          6           0        7.883495    2.784779   -0.395322
     27          6           0       -6.119598   -0.826037    0.277647
     28          6           0        6.181387    0.830019   -0.366917
     29          6           0       -4.825845   -1.589464    0.352320
     30          6           0        4.926228    1.613953   -0.451324
     31          6           0       -3.722412   -0.847482    0.348780
     32          6           0        3.719808    0.975546   -0.282074
     33          6           0       -2.287575   -1.363798    0.333469
     34          6           0        2.474764    1.784695   -0.416569
     35          6           0       -2.092170   -2.836443    0.764539
     36          6           0        2.544479    3.290530   -0.675562
     37          6           0       -1.168259   -0.626348    0.110008
     38          6           0        1.304029    1.012911   -0.258114
     39          6           0       -1.159086    0.868569   -0.158162
     40          6           0        0.005414    1.568261   -0.324460
     41          1           0      -13.902864    0.036545    0.454817
     42          1           0      -14.120377    0.204403   -1.362761
     43          1           0       12.241252   -1.852262    2.006508
     44          1           0       13.817453   -0.867944    1.918807
     45          1           0      -14.107859    2.512226   -0.387380
     46          1           0      -12.753363    2.313827   -1.470854
     47          1           0       14.077472   -2.653799    0.388658
     48          1           0       13.935043   -1.182373   -0.699560
     49          1           0      -12.712407    1.988419    1.545287
     50          1           0      -11.765844    3.322283    0.557670
     51          1           0       12.031630   -3.399697   -0.388095
     52          1           0       12.446406   -2.897759   -1.751481
     53          1           0      -11.195117    0.399439   -2.699284
     54          1           0      -12.405143   -0.853223   -2.905399
     55          1           0      -10.834891   -1.324842   -2.441954
     56          1           0      -12.605052   -1.750148    0.828010
     57          1           0      -11.825348   -2.881565   -0.536775
     58          1           0      -13.545819   -2.339407   -0.848942
     59          1           0       13.558133    0.503762   -0.507390
     60          1           0       13.419307    1.991874    0.759178
     61          1           0       12.132939    1.671558   -0.407827
     62          1           0       10.536368   -0.077550    2.682015
     63          1           0       10.966763    1.540702    1.820133
     64          1           0       12.227254    0.667638    2.838823
     65          1           0      -10.077542   -1.989187    0.584418
     66          1           0       10.242583    1.611747   -0.295380
     67          1           0       -9.785598    0.928439    2.324657
     68          1           0      -10.699499    2.434922    2.497647
     69          1           0       -9.510065    2.524705    1.446344
     70          1           0        9.332650   -1.016125   -2.097547
     71          1           0        9.484705   -2.574557   -1.199208
     72          1           0       10.659358   -2.263331   -2.536879
     73          1           0       -8.278708    0.719226    0.119159
     74          1           0        8.398290   -0.833532   -0.206989
     75          1           0       -8.450407   -3.068113    1.475762
     76          1           0       -6.775668   -3.327598    0.826097
     77          1           0       -8.233961   -3.235867   -0.242835
     78          1           0        8.741350    2.984915   -1.125034
     79          1           0        8.298293    3.274331    0.525175
     80          1           0        6.974327    3.440549   -0.826778
     81          1           0       -6.078854    0.207416    0.202139
     82          1           0        6.036682   -0.271906   -0.120080
     83          1           0       -4.956028   -2.530829    0.458855
     84          1           0        4.740310    2.733459   -0.756612
     85          1           0       -3.818426    0.236218    0.149087
     86          1           0        3.551048   -0.008850   -0.079806
     87          1           0       -2.947811   -2.957026    1.613026
     88          1           0       -1.173958   -3.092204    1.156125
     89          1           0       -2.358296   -3.644205   -0.222174
     90          1           0        3.105420    3.457057   -1.777950
     91          1           0        2.943542    3.837098    0.127992
     92          1           0        1.417730    3.573845   -0.863579
     93          1           0       -0.159468   -1.125535    0.158210
     94          1           0        1.404553   -0.192109    0.084912
     95          1           0       -2.161000    1.306585   -0.109891
     96          1           0       -0.054812    2.594764   -0.553189
 ---------------------------------------------------------------------
 Rotational constants (GHZ):           0.2755623           0.0110689           0.0108306
 Standard basis: 6-31G(d,p) (6D, 7F)
 There are   880 symmetry adapted cartesian basis functions of A   symmetry.
 There are   880 symmetry adapted basis functions of A   symmetry.
   880 basis functions,  1512 primitive gaussians,   880 cartesian basis functions
   148 alpha electrons      148 beta electrons
       nuclear repulsion energy      3674.4609919233 Hartrees.
 NAtoms=   96 NActive=   96 NUniq=   96 SFac= 1.00D+00 NAtFMM=   60 NAOKFM=T Big=T
 Integral buffers will be    131072 words long.
 Regular integral format.
 Two-electron integral symmetry is turned on.
 One-electron integrals computed using PRISM.
 NBasis=   880 RedAO= T EigKep=  9.62D-04  NBF=   880
 NBsUse=   880 1.00D-06 EigRej= -1.00D+00 NBFU=   880
 ExpMin= 1.61D-01 ExpMax= 3.05D+03 ExpMxC= 4.57D+02 IAcc=3 IRadAn=         5 AccDes= 0.00D+00
 Harris functional with IExCor=  402 and IRadAn=       5 diagonalized for initial guess.
 HarFok:  IExCor=  402 AccDes= 0.00D+00 IRadAn=         5 IDoV= 1 UseB2=F ITyADJ=14
 ICtDFT=  3500011 ScaDFX=  1.000000  1.000000  1.000000  1.000000
 FoFCou: FMM=F IPFlag=           0 FMFlag=      100000 FMFlg1=        2001
         NFxFlg=           0 DoJE=T BraDBF=F KetDBF=T FulRan=T
         wScrn=  0.000000 ICntrl=       500 IOpCl=  0 I1Cent=   200000004 NGrid=           0
         NMat0=    1 NMatS0=      1 NMatT0=    0 NMatD0=    1 NMtDS0=    0 NMtDT0=    0
 Petite list used in FoFCou.
 Requested convergence on RMS density matrix=1.00D-08 within 128 cycles.
 Requested convergence on MAX density matrix=1.00D-06.
 Requested convergence on             energy=1.00D-06.
 No special actions if energy rises.
 Integral accuracy reduced to 1.0D-05 until final iterations.
 Initial convergence to 1.0D-05 achieved.  Increase integral accuracy.
 SCF Done:  E(RB3LYP) =  -1557.59245686     A.U. after   14 cycles
            NFock= 14  Conv=0.80D-08     -V/T= 2.0112
 DoSCS=F DFT=T ScalE2(SS,OS)=  1.000000  1.000000
 ExpMin= 1.61D-01 ExpMax= 3.05D+03 ExpMxC= 4.57D+02 IAcc=3 IRadAn=         5 AccDes= 0.00D+00
 HarFok:  IExCor=  205 AccDes= 0.00D+00 IRadAn=         5 IDoV=-2 UseB2=F ITyADJ=14
 ICtDFT= 12500011 ScaDFX=  1.000000  1.000000  1.000000  1.000000
 GSVD:  LWork=       -1920 too small for GESVD, short by        8600 words or        8600 for optimal perf.
 Range of M.O.s used for correlation:    41   880
 NBasis=   880 NAE=   148 NBE=   148 NFC=    40 NFV=     0
 NROrb=    840 NOA=   108 NOB=   108 NVA=   732 NVB=   732

 **** Warning!!: The smallest alpha delta epsilon is  0.96901366D-01

 Orbital symmetries:
       Occupied  (A) (A) (A) (A) (A) (A) (A) (A) (A) (A) (A) (A)
                 (A) (A) (A) (A) (A) (A) (A) (A) (A) (A) (A) (A)
                 (A) (A) (A) (A) (A) (A) (A) (A) (A) (A) (A) (A)
                 (A) (A) (A) (A) (A) (A) (A) (A) (A) (A) (A) (A)
                 (A) (A) (A) (A) (A) (A) (A) (A) (A) (A) (A) (A)
                 (A) (A) (A) (A) (A) (A) (A) (A) (A) (A) (A) (A)
                 (A) (A) (A) (A) (A) (A) (A) (A) (A) (A) (A) (A)
                 (A) (A) (A) (A) (A) (A) (A) (A) (A) (A) (A) (A)
                 (A) (A) (A) (A) (A) (A) (A) (A) (A) (A) (A) (A)
                 (A) (A) (A) (A) (A) (A) (A) (A) (A) (A) (A) (A)
                 (A) (A) (A) (A) (A) (A) (A) (A) (A) (A) (A) (A)
                 (A) (A) (A) (A) (A) (A) (A) (A) (A) (A) (A) (A)
                 (A) (A) (A) (A)
       Virtual   (A) (A) (A) (A) (A) (A) (A) (A) (A) (A) (A) (A)
                 (A) (A) (A) (A) (A) (A) (A) (A) (A) (A) (A) (A)
                 (A) (A) (A) (A) (A) (A) (A) (A) (A) (A) (A) (A)
                 (A) (A) (A) (A) (A) (A) (A) (A) (A) (A) (A) (A)
                 (A) (A) (A) (A) (A) (A) (A) (A) (A) (A) (A) (A)
                 (A) (A) (A) (A) (A) (A) (A) (A) (A) (A) (A) (A)
                 (A) (A) (A) (A) (A) (A) (A) (A) (A) (A) (A) (A)
                 (A) (A) (A) (A) (A) (A) (A) (A) (A) (A) (A) (A)
                 (A) (A) (A) (A) (A) (A) (A) (A) (A) (A) (A) (A)
                 (A) (A) (A) (A) (A) (A) (A) (A) (A) (A) (A) (A)
                 (A) (A) (A) (A) (A) (A) (A) (A) (A) (A) (A) (A)
                 (A) (A) (A) (A) (A) (A) (A) (A) (A) (A) (A) (A)
                 (A) (A) (A) (A) (A) (A) (A) (A) (A) (A) (A) (A)
                 (A) (A) (A) (A) (A) (A) (A) (A) (A) (A) (A) (A)
                 (A) (A) (A) (A) (A) (A) (A) (A) (A) (A) (A) (A)
                 (A) (A) (A) (A) (A) (A) (A) (A) (A) (A) (A) (A)
                 (A) (A) (A) (A) (A) (A) (A) (A) (A) (A) (A) (A)
                 (A) (A) (A) (A) (A) (A) (A) (A) (A) (A) (A) (A)
                 (A) (A) (A) (A) (A) (A) (A) (A) (A) (A) (A) (A)
                 (A) (A) (A) (A) (A) (A) (A) (A) (A) (A) (A) (A)
                 (A) (A) (A) (A) (A) (A) (A) (A) (A) (A) (A) (A)
                 (A) (A) (A) (A) (A) (A) (A) (A) (A) (A) (A) (A)
                 (A) (A) (A) (A) (A) (A) (A) (A) (A) (A) (A) (A)
                 (A) (A) (A) (A) (A) (A) (A) (A) (A) (A) (A) (A)
                 (A) (A) (A) (A) (A) (A) (A) (A) (A) (A) (A) (A)
                 (A) (A) (A) (A) (A) (A) (A) (A) (A) (A) (A) (A)
                 (A) (A) (A) (A) (A) (A) (A) (A) (A) (A) (A) (A)
                 (A) (A) (A) (A) (A) (A) (A) (A) (A) (A) (A) (A)
                 (A) (A) (A) (A) (A) (A) (A) (A) (A) (A) (A) (A)
                 (A) (A) (A) (A) (A) (A) (A) (A) (A) (A) (A) (A)
                 (A) (A) (A) (A) (A) (A) (A) (A) (A) (A) (A) (A)
                 (A) (A) (A) (A) (A) (A) (A) (A) (A) (A) (A) (A)
                 (A) (A) (A) (A) (A) (A) (A) (A) (A) (A) (A) (A)
                 (A) (A) (A) (A) (A) (A) (A) (A) (A) (A) (A) (A)
                 (A) (A) (A) (A) (A) (A) (A) (A) (A) (A) (A) (A)
                 (A) (A) (A) (A) (A) (A) (A) (A) (A) (A) (A) (A)
                 (A) (A) (A) (A) (A) (A) (A) (A) (A) (A) (A) (A)
                 (A) (A) (A) (A) (A) (A) (A) (A) (A) (A) (A) (A)
                 (A) (A) (A) (A) (A) (A) (A) (A) (A) (A) (A) (A)
                 (A) (A) (A) (A) (A) (A) (A) (A) (A) (A) (A) (A)
                 (A) (A) (A) (A) (A) (A) (A) (A) (A) (A) (A) (A)
                 (A) (A) (A) (A) (A) (A) (A) (A) (A) (A) (A) (A)
                 (A) (A) (A) (A) (A) (A) (A) (A) (A) (A) (A) (A)
                 (A) (A) (A) (A) (A) (A) (A) (A) (A) (A) (A) (A)
                 (A) (A) (A) (A) (A) (A) (A) (A) (A) (A) (A) (A)
                 (A) (A) (A) (A) (A) (A) (A) (A) (A) (A) (A) (A)
                 (A) (A) (A) (A) (A) (A) (A) (A) (A) (A) (A) (A)
                 (A) (A) (A) (A) (A) (A) (A) (A) (A) (A) (A) (A)
                 (A) (A) (A) (A) (A) (A) (A) (A) (A) (A) (A) (A)
                 (A) (A) (A) (A) (A) (A) (A) (A) (A) (A) (A) (A)
                 (A) (A) (A) (A) (A) (A) (A) (A) (A) (A) (A) (A)
                 (A) (A) (A) (A) (A) (A) (A) (A) (A) (A) (A) (A)
                 (A) (A) (A) (A) (A) (A) (A) (A) (A) (A) (A) (A)
                 (A) (A) (A) (A) (A) (A) (A) (A) (A) (A) (A) (A)
                 (A) (A) (A) (A) (A) (A) (A) (A) (A) (A) (A) (A)
                 (A) (A) (A) (A) (A) (A) (A) (A) (A) (A) (A) (A)
                 (A) (A) (A) (A) (A) (A) (A) (A) (A) (A) (A) (A)
                 (A) (A) (A) (A) (A) (A) (A) (A) (A) (A) (A) (A)
                 (A) (A) (A) (A) (A) (A) (A) (A) (A) (A) (A) (A)
                 (A) (A) (A) (A) (A) (A) (A) (A) (A) (A) (A) (A)
                 (A) (A) (A) (A) (A) (A) (A) (A) (A) (A) (A) (A)
     4 initial guesses have been made.
 Convergence on wavefunction:    0.001000000000000
 Iteration     1 Dimension     4 NMult     0 NNew      4
 CISAX will form     4 AO SS matrices at one time.
 Iteration     2 Dimension     6 NMult     4 NNew      2
 Iteration     3 Dimension     8 NMult     6 NNew      2
 Iteration     4 Dimension    10 NMult     8 NNew      2
 Iteration     5 Dimension    12 NMult    10 NNew      2
 Iteration     6 Dimension    14 NMult    12 NNew      2
 ***********************************************************************
 Excited states from <AA,BB:AA,BB> singles matrix:
 ***********************************************************************
 
 Ground to excited state transition densities written to RWF  633
 Ground to excited state transition electric dipole moments (Au):
       state          X           Y           Z        Dip. S.      Osc.
         1         6.5961      0.6803     -0.2848     44.0520      2.6713
 Ground to excited state transition velocity dipole moments (Au):
       state          X           Y           Z        Dip. S.      Osc.
         1        -0.5798     -0.0613      0.0254      0.3406      2.4963
 Ground to excited state transition magnetic dipole moments (Au):
       state          X           Y           Z
         1         0.0235      0.1668      0.7115
 Ground to excited state transition velocity quadrupole moments (Au):
       state          XX          YY          ZZ          XY          XZ          YZ
         1        -0.9689     -0.0075     -0.0139      0.0710     -0.0330      0.0005
 <0|del|b> * <b|rxdel|0> + <0|del|b> * <b|delr+rdel|0>
 Rotatory Strengths (R) in cgs (10**-40 erg-esu-cm/Gauss)
       state          XX          YY          ZZ    R(velocity)    E-M Angle
         1        29.5549      9.1436    -83.8480    -15.0498       90.78
 1/2[<0|r|b>*<b|rxdel|0> + (<0|rxdel|b>*<b|r|0>)*]
 Rotatory Strengths (R) in cgs (10**-40 erg-esu-cm/Gauss)
       state          XX          YY          ZZ     R(length)
         1      -109.6664    -80.2612    143.3131    -15.5382
  1/2[<0|del|b>*<b|r|0> + (<0|r|b>*<b|del|0>)*] (Au)
       state          X           Y           Z        Dip. S.   Osc.(frdel)
         1        -3.8245     -0.0417     -0.0072      3.8735      2.5823

 Excitation energies and oscillator strengths:
 
 Excited State   1:      Singlet-A      2.4752 eV  500.91 nm  f=2.6713  <S**2>=0.000
     148 ->149         0.69917
 This state for optimization and/or second-order correction.
 Total Energy, E(TD-HF/TD-DFT) =  -1557.50149595    
 Copying the excited state density for this state as the 1-particle RhoCI density.
 SavETr:  write IOETrn=   770 NScale= 10 NData=  16 NLR=1 NState=    1 LETran=      28.

 **********************************************************************

            Population analysis using the SCF density.

 **********************************************************************

 Orbital symmetries:
       Occupied  (A) (A) (A) (A) (A) (A) (A) (A) (A) (A) (A) (A)
                 (A) (A) (A) (A) (A) (A) (A) (A) (A) (A) (A) (A)
                 (A) (A) (A) (A) (A) (A) (A) (A) (A) (A) (A) (A)
                 (A) (A) (A) (A) (A) (A) (A) (A) (A) (A) (A) (A)
                 (A) (A) (A) (A) (A) (A) (A) (A) (A) (A) (A) (A)
                 (A) (A) (A) (A) (A) (A) (A) (A) (A) (A) (A) (A)
                 (A) (A) (A) (A) (A) (A) (A) (A) (A) (A) (A) (A)
                 (A) (A) (A) (A) (A) (A) (A) (A) (A) (A) (A) (A)
                 (A) (A) (A) (A) (A) (A) (A) (A) (A) (A) (A) (A)
                 (A) (A) (A) (A) (A) (A) (A) (A) (A) (A) (A) (A)
                 (A) (A) (A) (A) (A) (A) (A) (A) (A) (A) (A) (A)
                 (A) (A) (A) (A) (A) (A) (A) (A) (A) (A) (A) (A)
                 (A) (A) (A) (A)
       Virtual   (A) (A) (A) (A) (A) (A) (A) (A) (A) (A) (A) (A)
                 (A) (A) (A) (A) (A) (A) (A) (A) (A) (A) (A) (A)
                 (A) (A) (A) (A) (A) (A) (A) (A) (A) (A) (A) (A)
                 (A) (A) (A) (A) (A) (A) (A) (A) (A) (A) (A) (A)
                 (A) (A) (A) (A) (A) (A) (A) (A) (A) (A) (A) (A)
                 (A) (A) (A) (A) (A) (A) (A) (A) (A) (A) (A) (A)
                 (A) (A) (A) (A) (A) (A) (A) (A) (A) (A) (A) (A)
                 (A) (A) (A) (A) (A) (A) (A) (A) (A) (A) (A) (A)
                 (A) (A) (A) (A) (A) (A) (A) (A) (A) (A) (A) (A)
                 (A) (A) (A) (A) (A) (A) (A) (A) (A) (A) (A) (A)
                 (A) (A) (A) (A) (A) (A) (A) (A) (A) (A) (A) (A)
                 (A) (A) (A) (A) (A) (A) (A) (A) (A) (A) (A) (A)
                 (A) (A) (A) (A) (A) (A) (A) (A) (A) (A) (A) (A)
                 (A) (A) (A) (A) (A) (A) (A) (A) (A) (A) (A) (A)
                 (A) (A) (A) (A) (A) (A) (A) (A) (A) (A) (A) (A)
                 (A) (A) (A) (A) (A) (A) (A) (A) (A) (A) (A) (A)
                 (A) (A) (A) (A) (A) (A) (A) (A) (A) (A) (A) (A)
                 (A) (A) (A) (A) (A) (A) (A) (A) (A) (A) (A) (A)
                 (A) (A) (A) (A) (A) (A) (A) (A) (A) (A) (A) (A)
                 (A) (A) (A) (A) (A) (A) (A) (A) (A) (A) (A) (A)
                 (A) (A) (A) (A) (A) (A) (A) (A) (A) (A) (A) (A)
                 (A) (A) (A) (A) (A) (A) (A) (A) (A) (A) (A) (A)
                 (A) (A) (A) (A) (A) (A) (A) (A) (A) (A) (A) (A)
                 (A) (A) (A) (A) (A) (A) (A) (A) (A) (A) (A) (A)
                 (A) (A) (A) (A) (A) (A) (A) (A) (A) (A) (A) (A)
                 (A) (A) (A) (A) (A) (A) (A) (A) (A) (A) (A) (A)
                 (A) (A) (A) (A) (A) (A) (A) (A) (A) (A) (A) (A)
                 (A) (A) (A) (A) (A) (A) (A) (A) (A) (A) (A) (A)
                 (A) (A) (A) (A) (A) (A) (A) (A) (A) (A) (A) (A)
                 (A) (A) (A) (A) (A) (A) (A) (A) (A) (A) (A) (A)
                 (A) (A) (A) (A) (A) (A) (A) (A) (A) (A) (A) (A)
                 (A) (A) (A) (A) (A) (A) (A) (A) (A) (A) (A) (A)
                 (A) (A) (A) (A) (A) (A) (A) (A) (A) (A) (A) (A)
                 (A) (A) (A) (A) (A) (A) (A) (A) (A) (A) (A) (A)
                 (A) (A) (A) (A) (A) (A) (A) (A) (A) (A) (A) (A)
                 (A) (A) (A) (A) (A) (A) (A) (A) (A) (A) (A) (A)
                 (A) (A) (A) (A) (A) (A) (A) (A) (A) (A) (A) (A)
                 (A) (A) (A) (A) (A) (A) (A) (A) (A) (A) (A) (A)
                 (A) (A) (A) (A) (A) (A) (A) (A) (A) (A) (A) (A)
                 (A) (A) (A) (A) (A) (A) (A) (A) (A) (A) (A) (A)
                 (A) (A) (A) (A) (A) (A) (A) (A) (A) (A) (A) (A)
                 (A) (A) (A) (A) (A) (A) (A) (A) (A) (A) (A) (A)
                 (A) (A) (A) (A) (A) (A) (A) (A) (A) (A) (A) (A)
                 (A) (A) (A) (A) (A) (A) (A) (A) (A) (A) (A) (A)
                 (A) (A) (A) (A) (A) (A) (A) (A) (A) (A) (A) (A)
                 (A) (A) (A) (A) (A) (A) (A) (A) (A) (A) (A) (A)
                 (A) (A) (A) (A) (A) (A) (A) (A) (A) (A) (A) (A)
                 (A) (A) (A) (A) (A) (A) (A) (A) (A) (A) (A) (A)
                 (A) (A) (A) (A) (A) (A) (A) (A) (A) (A) (A) (A)
                 (A) (A) (A) (A) (A) (A) (A) (A) (A) (A) (A) (A)
                 (A) (A) (A) (A) (A) (A) (A) (A) (A) (A) (A) (A)
                 (A) (A) (A) (A) (A) (A) (A) (A) (A) (A) (A) (A)
                 (A) (A) (A) (A) (A) (A) (A) (A) (A) (A) (A) (A)
                 (A) (A) (A) (A) (A) (A) (A) (A) (A) (A) (A) (A)
                 (A) (A) (A) (A) (A) (A) (A) (A) (A) (A) (A) (A)
                 (A) (A) (A) (A) (A) (A) (A) (A) (A) (A) (A) (A)
                 (A) (A) (A) (A) (A) (A) (A) (A) (A) (A) (A) (A)
                 (A) (A) (A) (A) (A) (A) (A) (A) (A) (A) (A) (A)
                 (A) (A) (A) (A) (A) (A) (A) (A) (A) (A) (A) (A)
                 (A) (A) (A) (A) (A) (A) (A) (A) (A) (A) (A) (A)
                 (A) (A) (A) (A) (A) (A) (A) (A) (A) (A) (A) (A)
 The electronic state is 1-A.
 Alpha  occ. eigenvalues --  -10.21143 -10.20808 -10.20724 -10.20686 -10.20541
 Alpha  occ. eigenvalues --  -10.20491 -10.20451 -10.20164 -10.19942 -10.19894
 Alpha  occ. eigenvalues --  -10.19853 -10.19691 -10.19606 -10.19555 -10.19481
 Alpha  occ. eigenvalues --  -10.19443 -10.19419 -10.19031 -10.18950 -10.18941
 Alpha  occ. eigenvalues --  -10.18923 -10.18731 -10.18684 -10.18663 -10.18421
 Alpha  occ. eigenvalues --  -10.18366 -10.18350 -10.18305 -10.18291 -10.18270
 Alpha  occ. eigenvalues --  -10.18125 -10.18047 -10.17873 -10.17871 -10.17370
 Alpha  occ. eigenvalues --  -10.17330 -10.17016 -10.16673 -10.16439 -10.16326
 Alpha  occ. eigenvalues --   -0.84876  -0.84712  -0.83192  -0.82728  -0.81323
 Alpha  occ. eigenvalues --   -0.80589  -0.78818  -0.78527  -0.78479  -0.76984
 Alpha  occ. eigenvalues --   -0.76416  -0.75424  -0.73631  -0.71942  -0.71305
 Alpha  occ. eigenvalues --   -0.69092  -0.68484  -0.68062  -0.67939  -0.67738
 Alpha  occ. eigenvalues --   -0.67455  -0.66943  -0.66643  -0.65907  -0.65581
 Alpha  occ. eigenvalues --   -0.62030  -0.61156  -0.59193  -0.58929  -0.57245
 Alpha  occ. eigenvalues --   -0.56544  -0.55545  -0.54941  -0.54175  -0.53361
 Alpha  occ. eigenvalues --   -0.52316  -0.51488  -0.49776  -0.49534  -0.48197
 Alpha  occ. eigenvalues --   -0.47858  -0.47280  -0.46997  -0.46275  -0.45969
 Alpha  occ. eigenvalues --   -0.45092  -0.44800  -0.44445  -0.44250  -0.44114
 Alpha  occ. eigenvalues --   -0.43606  -0.42900  -0.42739  -0.42650  -0.42446
 Alpha  occ. eigenvalues --   -0.41975  -0.41373  -0.41160  -0.40868  -0.40680
 Alpha  occ. eigenvalues --   -0.40401  -0.40155  -0.40077  -0.39793  -0.39455
 Alpha  occ. eigenvalues --   -0.38901  -0.38654  -0.38493  -0.38159  -0.37862
 Alpha  occ. eigenvalues --   -0.37669  -0.37385  -0.37300  -0.37273  -0.36731
 Alpha  occ. eigenvalues --   -0.36409  -0.35991  -0.35821  -0.35503  -0.35172
 Alpha  occ. eigenvalues --   -0.34994  -0.34575  -0.34406  -0.33975  -0.33923
 Alpha  occ. eigenvalues --   -0.33656  -0.33217  -0.33083  -0.32851  -0.32791
 Alpha  occ. eigenvalues --   -0.31891  -0.31800  -0.31251  -0.30953  -0.30760
 Alpha  occ. eigenvalues --   -0.30593  -0.30522  -0.29392  -0.28799  -0.28079
 Alpha  occ. eigenvalues --   -0.27405  -0.26023  -0.25886  -0.23694  -0.22727
 Alpha  occ. eigenvalues --   -0.21010  -0.19133  -0.16978
 Alpha virt. eigenvalues --   -0.07288  -0.04742  -0.01611   0.01084   0.03215
 Alpha virt. eigenvalues --    0.04087   0.06087   0.06209   0.06883   0.07044
 Alpha virt. eigenvalues --    0.07499   0.07584   0.08147   0.08500   0.08653
 Alpha virt. eigenvalues --    0.09016   0.09369   0.09457   0.09562   0.10077
 Alpha virt. eigenvalues --    0.10538   0.10798   0.11010   0.11243   0.11567
 Alpha virt. eigenvalues --    0.11884   0.12471   0.12637   0.12701   0.13160
 Alpha virt. eigenvalues --    0.13455   0.13611   0.13652   0.14005   0.14930
 Alpha virt. eigenvalues --    0.14986   0.15089   0.15140   0.15200   0.15578
 Alpha virt. eigenvalues --    0.15931   0.16176   0.16563   0.16630   0.16849
 Alpha virt. eigenvalues --    0.17322   0.17665   0.17773   0.17968   0.18184
 Alpha virt. eigenvalues --    0.18379   0.18510   0.18761   0.19203   0.19310
 Alpha virt. eigenvalues --    0.19885   0.20035   0.20357   0.20483   0.20760
 Alpha virt. eigenvalues --    0.21339   0.21343   0.21497   0.21728   0.22080
 Alpha virt. eigenvalues --    0.22178   0.22356   0.23293   0.23486   0.23592
 Alpha virt. eigenvalues --    0.23779   0.23970   0.24502   0.25139   0.25399
 Alpha virt. eigenvalues --    0.25652   0.26109   0.26967   0.27382   0.27497
 Alpha virt. eigenvalues --    0.27950   0.28505   0.28659   0.29113   0.29643
 Alpha virt. eigenvalues --    0.30006   0.30643   0.31427   0.32461   0.33017
 Alpha virt. eigenvalues --    0.34090   0.35533   0.35806   0.36265   0.37998
 Alpha virt. eigenvalues --    0.38240   0.39391   0.40193   0.40606   0.41087
 Alpha virt. eigenvalues --    0.41704   0.42387   0.42671   0.43862   0.45685
 Alpha virt. eigenvalues --    0.46464   0.47372   0.48455   0.48947   0.49242
 Alpha virt. eigenvalues --    0.49863   0.50268   0.50753   0.51177   0.51460
 Alpha virt. eigenvalues --    0.51994   0.52302   0.52470   0.52884   0.53062
 Alpha virt. eigenvalues --    0.53079   0.53408   0.53813   0.54283   0.54323
 Alpha virt. eigenvalues --    0.54766   0.54893   0.55362   0.56032   0.56106
 Alpha virt. eigenvalues --    0.56593   0.57188   0.57354   0.57547   0.57659
 Alpha virt. eigenvalues --    0.58216   0.58429   0.58628   0.58789   0.59096
 Alpha virt. eigenvalues --    0.59246   0.60117   0.60204   0.60667   0.60913
 Alpha virt. eigenvalues --    0.61122   0.61476   0.61936   0.62060   0.62296
 Alpha virt. eigenvalues --    0.62795   0.63250   0.63408   0.63540   0.64166
 Alpha virt. eigenvalues --    0.64209   0.64419   0.65374   0.65569   0.65905
 Alpha virt. eigenvalues --    0.66336   0.66557   0.66867   0.66994   0.67480
 Alpha virt. eigenvalues --    0.68540   0.68955   0.69354   0.69538   0.69906
 Alpha virt. eigenvalues --    0.70061   0.70373   0.70738   0.70791   0.71342
 Alpha virt. eigenvalues --    0.71982   0.72511   0.72601   0.73445   0.73485
 Alpha virt. eigenvalues --    0.73880   0.74277   0.74368   0.74712   0.74861
 Alpha virt. eigenvalues --    0.75155   0.76176   0.76425   0.76605   0.77386
 Alpha virt. eigenvalues --    0.77687   0.77880   0.78529   0.78865   0.78930
 Alpha virt. eigenvalues --    0.78945   0.79217   0.79626   0.80083   0.80444
 Alpha virt. eigenvalues --    0.80748   0.81543   0.81881   0.81972   0.82079
 Alpha virt. eigenvalues --    0.82723   0.82840   0.83039   0.83529   0.83732
 Alpha virt. eigenvalues --    0.84017   0.84569   0.84739   0.84893   0.85412
 Alpha virt. eigenvalues --    0.85593   0.85741   0.86008   0.86177   0.86480
 Alpha virt. eigenvalues --    0.86623   0.87103   0.87261   0.87489   0.87550
 Alpha virt. eigenvalues --    0.87938   0.88960   0.89174   0.89524   0.90172
 Alpha virt. eigenvalues --    0.90533   0.90828   0.90831   0.90861   0.91234
 Alpha virt. eigenvalues --    0.91303   0.92105   0.92231   0.92457   0.92828
 Alpha virt. eigenvalues --    0.93070   0.93359   0.93704   0.93941   0.94300
 Alpha virt. eigenvalues --    0.94681   0.94973   0.95029   0.95315   0.95851
 Alpha virt. eigenvalues --    0.96484   0.96554   0.97184   0.97227   0.97604
 Alpha virt. eigenvalues --    0.98015   0.98117   0.98432   0.99062   0.99644
 Alpha virt. eigenvalues --    0.99835   1.00730   1.01789   1.02664   1.03112
 Alpha virt. eigenvalues --    1.03515   1.04118   1.04304   1.05373   1.05896
 Alpha virt. eigenvalues --    1.06174   1.06508   1.07345   1.07798   1.08531
 Alpha virt. eigenvalues --    1.09504   1.10125   1.10819   1.11447   1.11679
 Alpha virt. eigenvalues --    1.11871   1.12933   1.13303   1.14061   1.15407
 Alpha virt. eigenvalues --    1.16333   1.16502   1.18291   1.19355   1.19728
 Alpha virt. eigenvalues --    1.20678   1.21757   1.22208   1.22988   1.23449
 Alpha virt. eigenvalues --    1.24362   1.24936   1.26351   1.27310   1.27846
 Alpha virt. eigenvalues --    1.28728   1.29394   1.30010   1.30514   1.32033
 Alpha virt. eigenvalues --    1.32990   1.33397   1.33592   1.34036   1.34532
 Alpha virt. eigenvalues --    1.35297   1.36310   1.36406   1.37278   1.37770
 Alpha virt. eigenvalues --    1.38221   1.38377   1.39547   1.40495   1.41307
 Alpha virt. eigenvalues --    1.41883   1.42865   1.43142   1.43949   1.44832
 Alpha virt. eigenvalues --    1.45349   1.45688   1.45836   1.46591   1.46958
 Alpha virt. eigenvalues --    1.48769   1.49128   1.49653   1.50128   1.51711
 Alpha virt. eigenvalues --    1.51772   1.53440   1.53984   1.54259   1.55056
 Alpha virt. eigenvalues --    1.55485   1.57253   1.57804   1.58576   1.59398
 Alpha virt. eigenvalues --    1.61053   1.61951   1.62297   1.63575   1.63680
 Alpha virt. eigenvalues --    1.67011   1.67795   1.68814   1.69294   1.70162
 Alpha virt. eigenvalues --    1.70953   1.71334   1.71581   1.71851   1.72172
 Alpha virt. eigenvalues --    1.72746   1.73125   1.73584   1.74996   1.75106
 Alpha virt. eigenvalues --    1.75409   1.75641   1.76056   1.76464   1.76885
 Alpha virt. eigenvalues --    1.77360   1.77416   1.78080   1.78506   1.78695
 Alpha virt. eigenvalues --    1.79292   1.79465   1.80101   1.80417   1.80642
 Alpha virt. eigenvalues --    1.81278   1.82206   1.82328   1.83274   1.83687
 Alpha virt. eigenvalues --    1.83816   1.84393   1.84941   1.85349   1.85948
 Alpha virt. eigenvalues --    1.86505   1.86761   1.87526   1.87756   1.87987
 Alpha virt. eigenvalues --    1.88408   1.88835   1.89024   1.89556   1.89749
 Alpha virt. eigenvalues --    1.90413   1.91074   1.91291   1.91412   1.92661
 Alpha virt. eigenvalues --    1.92745   1.93203   1.93319   1.93521   1.94202
 Alpha virt. eigenvalues --    1.94329   1.94532   1.95153   1.95230   1.95838
 Alpha virt. eigenvalues --    1.96887   1.97177   1.98281   1.98646   1.99131
 Alpha virt. eigenvalues --    1.99581   2.00358   2.00930   2.01172   2.01257
 Alpha virt. eigenvalues --    2.01419   2.01888   2.02244   2.02589   2.02736
 Alpha virt. eigenvalues --    2.02885   2.03848   2.03941   2.04111   2.04243
 Alpha virt. eigenvalues --    2.04919   2.06340   2.06370   2.06818   2.06885
 Alpha virt. eigenvalues --    2.07171   2.07859   2.07911   2.08724   2.08809
 Alpha virt. eigenvalues --    2.08957   2.09630   2.10219   2.10916   2.11147
 Alpha virt. eigenvalues --    2.11572   2.11602   2.11998   2.12422   2.12865
 Alpha virt. eigenvalues --    2.13206   2.13417   2.13681   2.14318   2.14386
 Alpha virt. eigenvalues --    2.15267   2.15533   2.16270   2.16455   2.16942
 Alpha virt. eigenvalues --    2.17543   2.17902   2.18331   2.18365   2.18487
 Alpha virt. eigenvalues --    2.19153   2.19630   2.20634   2.21040   2.21613
 Alpha virt. eigenvalues --    2.21840   2.22278   2.22755   2.24587   2.24709
 Alpha virt. eigenvalues --    2.25081   2.26054   2.26130   2.27464   2.27755
 Alpha virt. eigenvalues --    2.28934   2.29457   2.29693   2.29970   2.30299
 Alpha virt. eigenvalues --    2.31590   2.31889   2.32575   2.32730   2.33107
 Alpha virt. eigenvalues --    2.33383   2.34109   2.34515   2.34814   2.34962
 Alpha virt. eigenvalues --    2.35615   2.35876   2.36674   2.37239   2.38021
 Alpha virt. eigenvalues --    2.38075   2.38423   2.38484   2.39462   2.39806
 Alpha virt. eigenvalues --    2.40962   2.41485   2.42005   2.43005   2.43487
 Alpha virt. eigenvalues --    2.44134   2.44436   2.44610   2.44827   2.45386
 Alpha virt. eigenvalues --    2.46454   2.46640   2.46716   2.47670   2.47735
 Alpha virt. eigenvalues --    2.48554   2.48934   2.49580   2.49905   2.50290
 Alpha virt. eigenvalues --    2.50785   2.50878   2.51369   2.52338   2.52374
 Alpha virt. eigenvalues --    2.53109   2.53680   2.53820   2.54183   2.54542
 Alpha virt. eigenvalues --    2.55433   2.56102   2.56637   2.56667   2.56872
 Alpha virt. eigenvalues --    2.57239   2.58027   2.58481   2.58733   2.58998
 Alpha virt. eigenvalues --    2.59688   2.59852   2.60195   2.61149   2.61980
 Alpha virt. eigenvalues --    2.62417   2.63063   2.63386   2.63483   2.63663
 Alpha virt. eigenvalues --    2.64278   2.64914   2.65246   2.65728   2.66140
 Alpha virt. eigenvalues --    2.66413   2.66937   2.67147   2.67607   2.67924
 Alpha virt. eigenvalues --    2.68236   2.68321   2.68752   2.69166   2.70303
 Alpha virt. eigenvalues --    2.70887   2.71455   2.72182   2.72576   2.73114
 Alpha virt. eigenvalues --    2.73600   2.73889   2.74849   2.75171   2.75415
 Alpha virt. eigenvalues --    2.76352   2.76523   2.77242   2.77695   2.79036
 Alpha virt. eigenvalues --    2.79746   2.80015   2.80397   2.80593   2.81016
 Alpha virt. eigenvalues --    2.81298   2.82002   2.82305   2.82662   2.82776
 Alpha virt. eigenvalues --    2.83331   2.83915   2.84152   2.84988   2.85813
 Alpha virt. eigenvalues --    2.86549   2.86845   2.87280   2.87875   2.89207
 Alpha virt. eigenvalues --    2.89381   2.89607   2.90116   2.90793   2.91839
 Alpha virt. eigenvalues --    2.92694   2.92963   2.93694   2.94225   2.94525
 Alpha virt. eigenvalues --    2.95992   2.97046   2.97995   2.98165   2.98642
 Alpha virt. eigenvalues --    2.99799   2.99947   3.00372   3.02452   3.03616
 Alpha virt. eigenvalues --    3.03799   3.04252   3.07579   3.09555   3.10661
 Alpha virt. eigenvalues --    3.12053   3.13188   3.13717   3.14103   3.14148
 Alpha virt. eigenvalues --    3.16549   3.17638   3.18063   3.18692   3.20772
 Alpha virt. eigenvalues --    3.21114   3.21270   3.21844   3.23456   3.23821
 Alpha virt. eigenvalues --    3.25825   3.27328   3.28824   3.29246   3.30095
 Alpha virt. eigenvalues --    3.31401   3.32270   3.32284   3.34817   3.35159
 Alpha virt. eigenvalues --    3.36186   3.36945   3.38049   3.39068   3.40329
 Alpha virt. eigenvalues --    3.41646   3.43444   3.43927   3.44149   3.46634
 Alpha virt. eigenvalues --    3.46937   3.47625   3.48774   3.48842   3.49279
 Alpha virt. eigenvalues --    3.50638   3.50767   3.51523   3.51792   3.52604
 Alpha virt. eigenvalues --    3.52871   3.56749   3.57486   3.58592   3.59010
 Alpha virt. eigenvalues --    3.61025   3.62610   3.63940   3.65770   3.69202
 Alpha virt. eigenvalues --    3.74241   3.90200   4.10451   4.11037   4.12076
 Alpha virt. eigenvalues --    4.13062   4.15535   4.18101   4.19199   4.21559
 Alpha virt. eigenvalues --    4.22200   4.23779   4.27759   4.30302   4.31632
 Alpha virt. eigenvalues --    4.33357   4.34080   4.35369   4.38581   4.39101
 Alpha virt. eigenvalues --    4.41188   4.45570   4.46547   4.47059   4.49372
 Alpha virt. eigenvalues --    4.50343   4.51541   4.52706   4.55043   4.57207
 Alpha virt. eigenvalues --    4.59927   4.61510   4.62888   4.63458   4.65474
 Alpha virt. eigenvalues --    4.69766   4.73223   4.73821   4.75085   4.76293
 Alpha virt. eigenvalues --    4.79542   4.83362
          Condensed to atoms (all electrons):
 Mulliken charges:
               1
     1  C    0.008905
     2  C   -0.005599
     3  C   -0.172479
     4  C   -0.168909
     5  C   -0.173208
     6  C   -0.197368
     7  C    0.060519
     8  C    0.075174
     9  C   -0.202545
    10  C   -0.195310
    11  C    0.068119
    12  C    0.005077
    13  C   -0.309663
    14  C   -0.294367
    15  C   -0.301805
    16  C   -0.278885
    17  C   -0.147464
    18  C   -0.132226
    19  C   -0.373976
    20  C   -0.354336
    21  C   -0.082268
    22  C   -0.103719
    23  C    0.137222
    24  C    0.131944
    25  C   -0.381174
    26  C   -0.378034
    27  C   -0.128835
    28  C   -0.144292
    29  C   -0.024260
    30  C   -0.100875
    31  C   -0.113818
    32  C   -0.057024
    33  C    0.096590
    34  C    0.090775
    35  C   -0.338280
    36  C   -0.373026
    37  C   -0.118314
    38  C   -0.099971
    39  C   -0.099274
    40  C   -0.088545
    41  H    0.077267
    42  H    0.089865
    43  H    0.075153
    44  H    0.078399
    45  H    0.043662
    46  H    0.112604
    47  H    0.090461
    48  H    0.086685
    49  H    0.128127
    50  H    0.089472
    51  H    0.115388
    52  H    0.104167
    53  H    0.098788
    54  H    0.096866
    55  H    0.105391
    56  H    0.087080
    57  H    0.089620
    58  H    0.090625
    59  H    0.102794
    60  H    0.080661
    61  H    0.109189
    62  H    0.092503
    63  H    0.088117
    64  H    0.102349
    65  H    0.066724
    66  H    0.076693
    67  H    0.116189
    68  H    0.098591
    69  H    0.113336
    70  H    0.108928
    71  H    0.129072
    72  H    0.097154
    73  H    0.053271
    74  H    0.078899
    75  H    0.105428
    76  H    0.109020
    77  H    0.123970
    78  H    0.113376
    79  H    0.125859
    80  H    0.095789
    81  H    0.074797
    82  H    0.086663
    83  H    0.068970
    84  H    0.082173
    85  H    0.081918
    86  H    0.070499
    87  H    0.093934
    88  H    0.123161
    89  H    0.072765
    90  H    0.106610
    91  H    0.149089
    92  H    0.100995
    93  H    0.074790
    94  H    0.069128
    95  H    0.083434
    96  H    0.079060
 Sum of Mulliken charges =  -0.00000
 Mulliken charges with hydrogens summed into heavy atoms:
               1
     1  C    0.008905
     2  C   -0.005599
     3  C   -0.005346
     4  C   -0.015357
     5  C   -0.016941
     6  C   -0.020222
     7  C    0.060519
     8  C    0.075174
     9  C    0.015054
    10  C    0.024245
    11  C    0.068119
    12  C    0.005077
    13  C   -0.008617
    14  C   -0.027041
    15  C   -0.009161
    16  C    0.004084
    17  C   -0.080740
    18  C   -0.055533
    19  C   -0.045860
    20  C   -0.019182
    21  C   -0.028997
    22  C   -0.024821
    23  C    0.137222
    24  C    0.131944
    25  C   -0.042756
    26  C   -0.043009
    27  C   -0.054038
    28  C   -0.057628
    29  C    0.044710
    30  C   -0.018701
    31  C   -0.031900
    32  C    0.013475
    33  C    0.096590
    34  C    0.090775
    35  C   -0.048420
    36  C   -0.016331
    37  C   -0.043524
    38  C   -0.030842
    39  C   -0.015839
    40  C   -0.009485
 Electronic spatial extent (au):  <R**2>=          94776.6780
 Charge=              0.0000 electrons
 Dipole moment (field-independent basis, Debye):
    X=              0.1918    Y=              0.1594    Z=              0.1645  Tot=              0.2988
 Quadrupole moment (field-independent basis, Debye-Ang):
   XX=           -237.9836   YY=           -232.1583   ZZ=           -256.4309
   XY=             -5.6067   XZ=              0.0262   YZ=             -1.7787
 Traceless Quadrupole moment (field-independent basis, Debye-Ang):
   XX=              4.2074   YY=             10.0326   ZZ=            -14.2400
   XY=             -5.6067   XZ=              0.0262   YZ=             -1.7787
 Octapole moment (field-independent basis, Debye-Ang**2):
  XXX=             88.2657  YYY=             10.1130  ZZZ=             -1.5039  XYY=             18.7045
  XXY=            -72.1733  XXZ=            -19.8912  XZZ=            -13.1238  YZZ=             -1.7392
  YYZ=             -4.2355  XYZ=             -4.1629
 Hexadecapole moment (field-independent basis, Debye-Ang**3):
 XXXX=        -126272.6460 YYYY=          -4358.1643 ZZZZ=          -1566.7047 XXXY=          -1022.2018
 XXXZ=            265.4626 YYYX=            -45.2566 YYYZ=              8.9568 ZZZX=             23.0556
 ZZZY=             -1.1380 XXYY=         -21031.0142 XXZZ=         -21624.6668 YYZZ=           -999.9211
 XXYZ=            177.3022 YYXZ=            -38.5848 ZZXY=            -82.6054
 N-N= 3.674460991923D+03 E-N=-1.094850849464D+04  KE= 1.540387411031D+03
 1\1\GINC-RYZEN-SSD1\SP\RB3LYP TD-FC\6-31G(d,p)\C40H56\PADAWAN\26-Jul-2
 019\0\\# td=(NStates=1) B3LYP/6-31G(d,p)\\TD\\0,1\C,0,12.1046548081,0.
 5068412846,-0.7421103299\C,0,-12.0446967838,-0.0557406157,0.922031382\
 C,0,13.4018896017,-0.4214718072,-0.5558515842\C,0,-12.9072172216,1.181
 5025418,1.2837990943\C,0,13.0411564298,-1.898585531,-0.5718789467\C,0,
 -13.3891535115,1.9378022923,0.0388042475\C,0,11.0314249364,-0.05693142
 86,0.2010976476\C,0,-11.0528929571,0.3840782901,-0.1213297678\C,0,12.2
 342478622,-2.27555985,0.6436183381\C,0,-12.2929891815,2.576027911,-0.8
 057389098\C,0,11.100409749,-1.23225528,0.8385704254\C,0,-11.0818929835
 ,1.5542410459,-0.7838872624\C,0,11.5944200297,0.5492560507,-2.25348382
 7\C,0,12.5451979332,1.9565097061,-0.3237438934\C,0,-12.8975473455,-1.1
 431914378,0.1171355435\C,0,-11.3930381718,-0.5804312167,2.1711152597\C
 ,0,9.8146995326,0.8429404076,0.3456565662\C,0,-9.915391346,-0.61520406
 25,-0.2938134691\C,0,10.226146791,-1.7869285046,1.7761802529\C,0,-10.0
 171846887,1.9356853076,-1.7345249174\C,0,8.5024564853,0.5095409103,0.3
 440026065\C,0,-8.5679597544,-0.3117710424,-0.1753038533\C,0,7.37176574
 48,1.3676355639,0.509743587\C,0,-7.4696358575,-1.3137198471,-0.3006304
 599\C,0,7.6629893486,2.7921018474,0.6694993869\C,0,-7.8850556938,-2.77
 36173728,-0.4251297906\C,0,6.1213260341,0.8162460136,0.2901611751\C,0,
 -6.1809067006,-0.8209929219,-0.3782199337\C,0,4.828323483,1.5803603679
 ,0.3705867177\C,0,-4.926512263,-1.6054865265,-0.4685882404\C,0,3.72411
 11227,0.8396115264,0.3596779171\C,0,-3.7195473399,-0.9698776205,-0.292
 8117189\C,0,2.2898322846,1.3575664643,0.3478392718\C,0,-2.4752565251,-
 1.779132972,-0.4334966298\C,0,2.095653937,2.8265620227,0.7917235457\C,
 0,-2.5463651819,-3.2825517817,-0.7058019303\C,0,1.1699085394,0.6233036
 72,0.1170466217\C,0,-1.303828556,-1.010019574,-0.2673654416\C,0,1.1593
 603082,-0.8691818654,-0.1642939491\C,0,-0.0057500354,-1.5661428541,-0.
 3376275188\H,0,13.9035404598,-0.0561331838,0.4655746004\H,0,14.1222592
 397,-0.2081991956,-1.3532488633\H,0,-12.239740339,1.8467070609,2.01419
 49843\H,0,-13.8169125489,0.8648759799,1.9166381019\H,0,14.1065612781,-
 2.524513269,-0.3982532711\H,0,12.7531011918,-2.3151354135,-1.480954218
 7\H,0,-14.0738807763,2.664419802,0.4020912467\H,0,-13.9321780016,1.202
 4899232,-0.6989439165\H,0,12.7101929831,-2.016274134,1.5379056726\H,0,
 11.7629737519,-3.3403777299,0.5378606417\H,0,-12.0266624583,3.41495921
 66,-0.366520135\H,0,-12.4409303069,2.9254960574,-1.7345873599\H,0,11.1
 978131518,-0.3883419115,-2.6936374964\H,0,12.4093178125,0.8648011414,-
 2.8877953535\H,0,10.8392114924,1.3339865104,-2.4213928588\H,0,12.60733
 16873,1.7285797599,0.8535226928\H,0,11.829861393,2.8728071916,-0.50182
 43394\H,0,13.549996856,2.3315934292,-0.8174640175\H,0,-13.5571949502,-
 0.4856725763,-0.5213582365\H,0,-13.420904263,-1.9850343076,0.732150435
 7\H,0,-12.1333109343,-1.6558139863,-0.4310189844\H,0,-10.5372462155,0.
 0643007907,2.6753171908\H,0,-10.9686933947,-1.5458355843,1.7988839046\
 H,0,-12.2290369677,-0.6804425122,2.8242809562\H,0,10.0802614327,1.9724
 421043,0.6101469226\H,0,-10.2429787426,-1.5990050105,-0.3166280408\H,0
 ,9.7839124687,-0.9600936041,2.3243861962\H,0,10.6960904231,-2.46901309
 92,2.484779908\H,0,9.5073628035,-2.5482646765,1.4318328049\H,0,-9.3288
 999253,1.0436766803,-2.0948819851\H,0,-9.4799928042,2.5942929513,-1.18
 2958342\H,0,-10.6539556606,2.2961146169,-2.5242023935\H,0,8.2789234831
 ,-0.7298537656,0.1196850181\H,0,-8.3961730125,0.843438538,-0.205304182
 9\H,0,8.453588591,3.0451995559,1.5097403565\H,0,6.7796198427,3.3121789
 221,0.8611286926\H,0,8.2386281005,3.2283214941,-0.2074739703\H,0,-8.74
 25652087,-2.9664036995,-1.1572224158\H,0,-8.3010710954,-3.2708202693,0
 .4907052098\H,0,-6.9762521778,-3.4265253038,-0.8616650517\H,0,6.079548
 8194,-0.2164568725,0.2055185352\H,0,-6.0352255072,0.2785597945,-0.1215
 72434\H,0,4.9594192992,2.5206105052,0.4855114579\H,0,-4.7415442547,-2.
 722455762,-0.7835905002\H,0,3.8191321799,-0.2423888088,0.1505146899\H,
 0,-3.5499026215,0.0125175817,-0.0817500417\H,0,2.950775777,2.938754271
 5,1.6418828436\H,0,1.1774149423,3.0798387157,1.1848582133\H,0,2.363383
 3971,3.642704744,-0.1876327329\H,0,-3.1066425339,-3.4387622321,-1.8100
 360144\H,0,-2.9466162674,-3.8357555685,0.0926039118\H,0,-1.4197729486,
 -3.5653968741,-0.8954617726\H,0,0.1616085617,1.123118227,0.168887534\H
 ,0,-1.4033414227,0.1920371909,0.086190893\H,0,2.160774622,-1.308669916
 7,-0.1191314773\H,0,0.0535658674,-2.5906541077,-0.5753483957\\Version=
 ES64L-G16RevA.03\State=1-A\HF=-1557.5924569\RMSD=7.961e-09\PG=C01 [X(C
 40H56)]\\@


 Time has a wonderful way of weeding out the trivial.
                                -- Richard Ben Sapir
 Job cpu time:       0 days  9 hours 32 minutes 29.3 seconds.
 Elapsed time:       0 days  2 hours 23 minutes 54.5 seconds.
 File lengths (MBytes):  RWF=   2884 Int=      0 D2E=      0 Chk=     79 Scr=      1
 Normal termination of Gaussian 16 at Fri Jul 26 17:57:58 2019.
