 Entering Gaussian System, Link 0=g16
 Input=Geometria-252-.com
 Output=Geometria-252-.log
 Initial command:
 /usr/local/g16/l1.exe "/home/padawan/israel-mol/b-caroten/spectra/abs/Gau-54827.inp" -scrdir="/home/padawan/israel-mol/b-caroten/spectra/abs/"
 Entering Link 1 = /usr/local/g16/l1.exe PID=     54829.
  
 Copyright (c) 1988,1990,1992,1993,1995,1998,2003,2009,2016,
            Gaussian, Inc.  All Rights Reserved.
  
 This is part of the Gaussian(R) 16 program.  It is based on
 the Gaussian(R) 09 system (copyright 2009, Gaussian, Inc.),
 the Gaussian(R) 03 system (copyright 2003, Gaussian, Inc.),
 the Gaussian(R) 98 system (copyright 1998, Gaussian, Inc.),
 the Gaussian(R) 94 system (copyright 1995, Gaussian, Inc.),
 the Gaussian 92(TM) system (copyright 1992, Gaussian, Inc.),
 the Gaussian 90(TM) system (copyright 1990, Gaussian, Inc.),
 the Gaussian 88(TM) system (copyright 1988, Gaussian, Inc.),
 the Gaussian 86(TM) system (copyright 1986, Carnegie Mellon
 University), and the Gaussian 82(TM) system (copyright 1983,
 Carnegie Mellon University). Gaussian is a federally registered
 trademark of Gaussian, Inc.
  
 This software contains proprietary and confidential information,
 including trade secrets, belonging to Gaussian, Inc.
  
 This software is provided under written license and may be
 used, copied, transmitted, or stored only in accord with that
 written license.
  
 The following legend is applicable only to US Government
 contracts under FAR:
  
                    RESTRICTED RIGHTS LEGEND
  
 Use, reproduction and disclosure by the US Government is
 subject to restrictions as set forth in subparagraphs (a)
 and (c) of the Commercial Computer Software - Restricted
 Rights clause in FAR 52.227-19.
  
 Gaussian, Inc.
 340 Quinnipiac St., Bldg. 40, Wallingford CT 06492
  
  
 ---------------------------------------------------------------
 Warning -- This program may not be used in any manner that
 competes with the business of Gaussian, Inc. or will provide
 assistance to any competitor of Gaussian, Inc.  The licensee
 of this program is prohibited from giving any competitor of
 Gaussian, Inc. access to this program.  By using this program,
 the user acknowledges that Gaussian, Inc. is engaged in the
 business of creating and licensing software in the field of
 computational chemistry and represents and warrants to the
 licensee that it is not a competitor of Gaussian, Inc. and that
 it will not use this program in any manner prohibited above.
 ---------------------------------------------------------------
  

 Cite this work as:
 Gaussian 16, Revision A.03,
 M. J. Frisch, G. W. Trucks, H. B. Schlegel, G. E. Scuseria, 
 M. A. Robb, J. R. Cheeseman, G. Scalmani, V. Barone, 
 G. A. Petersson, H. Nakatsuji, X. Li, M. Caricato, A. V. Marenich, 
 J. Bloino, B. G. Janesko, R. Gomperts, B. Mennucci, H. P. Hratchian, 
 J. V. Ortiz, A. F. Izmaylov, J. L. Sonnenberg, D. Williams-Young, 
 F. Ding, F. Lipparini, F. Egidi, J. Goings, B. Peng, A. Petrone, 
 T. Henderson, D. Ranasinghe, V. G. Zakrzewski, J. Gao, N. Rega, 
 G. Zheng, W. Liang, M. Hada, M. Ehara, K. Toyota, R. Fukuda, 
 J. Hasegawa, M. Ishida, T. Nakajima, Y. Honda, O. Kitao, H. Nakai, 
 T. Vreven, K. Throssell, J. A. Montgomery, Jr., J. E. Peralta, 
 F. Ogliaro, M. J. Bearpark, J. J. Heyd, E. N. Brothers, K. N. Kudin, 
 V. N. Staroverov, T. A. Keith, R. Kobayashi, J. Normand, 
 K. Raghavachari, A. P. Rendell, J. C. Burant, S. S. Iyengar, 
 J. Tomasi, M. Cossi, J. M. Millam, M. Klene, C. Adamo, R. Cammi, 
 J. W. Ochterski, R. L. Martin, K. Morokuma, O. Farkas, 
 J. B. Foresman, and D. J. Fox, Gaussian, Inc., Wallingford CT, 2016.
 
 ******************************************
 Gaussian 16:  ES64L-G16RevA.03 25-Dec-2016
                23-Jul-2019 
 ******************************************
 %nproc=4
 Will use up to    4 processors via shared memory.
 %Mem=2GB
 ---------------------------------
 # td=(NStates=1) B3LYP/6-31G(d,p)
 ---------------------------------
 1/38=1,172=1/1;
 2/12=2,17=6,18=5,40=1/2;
 3/5=1,6=6,7=101,11=9,25=1,30=1,74=-5/1,2,3,8;
 4//1;
 5/5=2,38=5/2;
 8/6=1,10=2,108=1/1;
 9/41=1,42=1,70=2/14;
 6/7=2,8=2,9=2,10=2/1;
 99/5=1,9=1/99;
 --
 TD
 --
 Symbolic Z-matrix:
 Charge =  0 Multiplicity = 1
 6                     12.11245   0.47142  -0.8943 
 6                    -12.16581  -0.09004   0.77439 
 6                     13.31286  -0.47102  -0.85837 
 6                    -12.9534   1.12886   1.31904 
 6                     12.90399  -1.99974  -0.80433 
 6                    -13.49614   1.90769   0.05583 
 6                     11.0049  -0.06737   0.03847 
 6                    -10.99453   0.35839  -0.15652 
 6                     12.14954  -2.22005   0.52882 
 6                    -12.2852   2.53265  -0.70591 
 6                     11.04458  -1.20724   0.77062 
 6                    -11.0217   1.51301  -0.8461 
 6                     11.46677   0.62366  -2.25646 
 6                     12.62675   1.83652  -0.28505 
 6                    -13.0042  -1.16941   0.06219 
 6                    -11.56247  -0.76723   2.09955 
 6                     9.87616   0.884     0.32312 
 6                    -9.9019   -0.61978  -0.43743 
 6                     10.25809  -1.74376   2.02333 
 6                    -9.91785   2.12043  -1.84853 
 6                     8.56265   0.46032   0.37781 
 6                    -8.63042  -0.3646   -0.3628 
 6                     7.45062   1.34259   0.6078 
 6                    -7.497    -1.30274  -0.54664 
 6                     7.79094   2.81656   0.78748 
 6                    -7.80378  -2.74376  -0.7645 
 6                     6.16808   0.81731   0.53788 
 6                    -6.22405  -0.88723  -0.23853 
 6                     4.97654   1.48033   0.37088 
 6                    -5.03658  -1.63608  -0.21495 
 6                     3.74097   0.84989   0.41043 
 6                    -3.75846  -1.15284  -0.15933 
 6                     2.39901   1.41472   0.51832 
 6                    -2.45336  -1.76485  -0.23263 
 6                     2.37029   2.88364   0.64532 
 6                    -2.55524  -3.25455  -0.45069 
 6                     1.27929   0.73706   0.18623 
 6                    -1.37087  -0.96707  -0.08832 
 6                     1.14875  -0.70015  -0.06654 
 6                     0.02827  -1.38587  -0.24891 
 1                     13.79884  -0.30507   0.03963 
 1                     14.11604  -0.3124   -1.78055 
 1                    -12.16457   1.78066   1.97276 
 1                    -13.86648   0.81387   2.03992 
 1                     13.6629  -2.5124   -0.90629 
 1                     12.04532  -2.21686  -1.70766 
 1                    -14.22731   2.59977   0.29413 
 1                    -14.19408   1.26655  -0.38377 
 1                     12.85504  -2.30472   1.42401 
 1                     11.5402  -3.24098   0.43395 
 1                    -12.06297   3.46199  -0.32434 
 1                    -12.72551   2.64299  -1.7368 
 1                     11.01404  -0.36095  -2.48579 
 1                     12.21896   1.08206  -3.02161 
 1                     10.54194   1.40243  -2.20046 
 1                     12.6681   1.60262   0.80431 
 1                     11.88828   2.7652   -0.65747 
 1                     13.3902   2.18432  -0.87493 
 1                    -13.21899  -0.68441  -0.98483 
 1                    -13.95976  -1.49421   0.66573 
 1                    -12.33794  -2.0163   -0.26947 
 1                    -10.98243   0.06141   2.4837 
 1                    -10.78588  -1.63578   2.03633 
 1                    -12.53072  -0.73863   2.81353 
 1                     9.97708   1.91723   0.43211 
 1                    -10.32735  -1.67874  -0.47519 
 1                     9.60815  -0.90599   2.35055 
 1                     10.99786  -2.01955   2.79922 
 1                     9.69044  -2.70647   1.68325 
 1                    -9.33671   1.24953  -2.11987 
 1                    -9.26711   2.79204  -1.47321 
 1                    -10.32342   2.63672  -2.78226 
 1                     8.3919   -0.44246   0.29802 
 1                    -8.31345   0.72811  -0.36616 
 1                     8.2761    2.90466   1.7782 
 1                     6.87739   3.4537    0.72097 
 1                     8.52144   3.09546  -0.13521 
 1                    -8.67364  -2.93298  -1.59181 
 1                    -8.207    -3.29316   0.32772 
 1                    -6.8142   -3.30793  -0.87161 
 1                     6.14696  -0.23425   0.4543 
 1                    -5.94426   0.06953  -0.00646 
 1                     5.09729   2.72605   0.59454 
 1                    -5.1204   -2.62366  -0.13229 
 1                     3.65982  -0.21398   0.30485 
 1                    -3.60327   0.05527  -0.17922 
 1                     2.73887   3.26394   1.58915 
 1                     1.36072   3.22765   0.37962 
 1                     2.99477   3.43925  -0.06023 
 1                    -3.48091  -3.69444  -1.142 
 1                    -2.52695  -3.67017   0.66891 
 1                    -1.58666  -3.73971  -0.80014 
 1                     0.32708   1.37599   0.5358 
 1                    -1.37765   0.06582  -0.04556 
 1                     2.00853  -1.14486  -0.176 
 1                     0.21645  -2.52953  -0.4086 
 
 Stoichiometry    C40H56
 Framework group  C1[X(C40H56)]
 Deg. of freedom   282
 Full point group                 C1      NOp   1
 Largest Abelian subgroup         C1      NOp   1
 Largest concise Abelian subgroup C1      NOp   1
                         Standard orientation:                         
 ---------------------------------------------------------------------
 Center     Atomic      Atomic             Coordinates (Angstroms)
 Number     Number       Type             X           Y           Z
 ---------------------------------------------------------------------
      1          6           0      -12.115788   -0.470611   -0.899039
      2          6           0       12.161572    0.086304    0.784121
      3          6           0      -13.315612    0.472824   -0.870373
      4          6           0       12.947958   -1.129410    1.337573
      5          6           0      -12.905783    2.001606   -0.826330
      6          6           0       13.491137   -1.917092    0.080044
      7          6           0      -11.008591    0.073734    0.030910
      8          6           0       10.990695   -0.367629   -0.144628
      9          6           0      -12.152185    2.230415    0.505872
     10          6           0       12.280353   -2.546389   -0.678374
     11          6           0      -11.048075    1.218539    0.755333
     12          6           0       11.017625   -1.526890   -0.826390
     13          6           0      -11.469189   -0.632455   -2.259664
     14          6           0      -12.631439   -1.831239   -0.280995
     15          6           0       13.001202    1.160303    0.065298
     16          6           0       11.557679    0.772798    2.104233
     17          6           0       -9.880681   -0.876436    0.322819
     18          6           0        9.898919    0.609336   -0.432943
     19          6           0      -10.262168    1.762980    2.004992
     20          6           0        9.914137   -2.140342   -1.825528
     21          6           0       -8.566942   -0.453243    0.375634
     22          6           0        8.627213    0.355483   -0.357558
     23          6           0       -7.455664   -1.334672    0.612411
     24          6           0        7.494548    1.293101   -0.548563
     25          6           0       -7.797083   -2.807177    0.801762
     26          6           0        7.802435    2.732426   -0.775908
     27          6           0       -6.172726   -0.810702    0.539911
     28          6           0        6.221098    0.880506   -0.238620
     29          6           0       -4.981493   -1.475612    0.378283
     30          6           0        5.034104    1.630269   -0.220990
     31          6           0       -3.745545   -0.845725    0.414520
     32          6           0        3.755625    1.148243   -0.163073
     33          6           0       -2.404037   -1.410687    0.527220
     34          6           0        2.450984    1.760598   -0.241478
     35          6           0       -2.376372   -2.878731    0.664141
     36          6           0        2.553995    3.248726   -0.469497
     37          6           0       -1.283621   -0.736001    0.191421
     38          6           0        1.367855    0.964507   -0.092612
     39          6           0       -1.151950    0.699387   -0.070939
     40          6           0       -0.030888    1.383134   -0.257076
     41          1           0      -13.802372    0.313248    0.028362
     42          1           0      -14.118202    0.308517   -1.792068
     43          1           0       12.158213   -1.776280    1.995075
     44          1           0       13.860699   -0.810166    2.057000
     45          1           0      -13.664275    2.514067   -0.932317
     46          1           0      -12.046292    2.212074   -1.730450
     47          1           0       14.221666   -2.608029    0.323558
     48          1           0       14.189826   -1.279380   -0.363340
     49          1           0      -12.858298    2.321575    1.399947
     50          1           0      -11.542107    3.250280    0.404586
     51          1           0       12.057226   -3.472992   -0.290714
     52          1           0       12.721363   -2.663956   -1.708164
     53          1           0      -11.015650    0.350295   -2.495276
     54          1           0      -12.221107   -1.095512   -3.022268
     55          1           0      -10.544916   -1.411431   -2.197716
     56          1           0      -12.673454   -1.589974    0.806730
     57          1           0      -11.893300   -2.762887   -0.646590
     58          1           0      -13.394679   -2.182512   -0.869092
     59          1           0       13.216461    0.668116   -0.978272
     60          1           0       13.956522    1.488534    0.667359
     61          1           0       12.335749    2.005368   -0.272568
     62          1           0       10.976814   -0.052857    2.493522
     63          1           0       10.781706    1.641412    2.034574
     64          1           0       12.525377    0.748380    2.819121
     65          1           0       -9.982365   -1.908835    0.438689
     66          1           0       10.325088    1.667739   -0.477525
     67          1           0       -9.613028    0.927007    2.338335
     68          1           0      -11.002339    2.044469    2.778444
     69          1           0       -9.693634    2.723003    1.658852
     70          1           0        9.333767   -1.270906   -2.103178
     71          1           0        9.262672   -2.808982   -1.446182
     72          1           0       10.320066   -2.663172   -2.755453
     73          1           0       -8.395544    0.448859    0.289897
     74          1           0        8.309539   -0.737012   -0.353790
     75          1           0       -8.283042   -2.888274    1.792684
     76          1           0       -6.883898   -3.445344    0.740240
     77          1           0       -8.527068   -3.091809   -0.119575
     78          1           0        8.673039    2.915496   -1.603811
     79          1           0        8.205200    3.288911    0.312891
     80          1           0        6.813303    3.296503   -0.887556
     81          1           0       -6.150849    0.240251    0.449269
     82          1           0        5.940503   -0.074485   -0.000323
     83          1           0       -5.103231   -2.719718    0.610248
     84          1           0        5.118508    2.618326   -0.144917
     85          1           0       -3.663612    0.217355    0.301831
     86          1           0        3.599655   -0.059871   -0.174939
     87          1           0       -2.745912   -3.252420    1.610234
     88          1           0       -1.366831   -3.225186    0.401526
     89          1           0       -3.000682   -3.438685   -0.038117
     90          1           0        3.480475    3.683343   -1.163061
     91          1           0        2.525147    3.671901    0.647253
     92          1           0        1.585999    3.732154   -0.822945
     93          1           0       -0.332087   -1.373188    0.546008
     94          1           0        1.373930   -0.068076   -0.042891
     95          1           0       -2.011356    1.143907   -0.184035
     96          1           0       -0.218198    2.525807   -0.424616
 ---------------------------------------------------------------------
 Rotational constants (GHZ):           0.2715393           0.0110334           0.0108034
 Standard basis: 6-31G(d,p) (6D, 7F)
 There are   880 symmetry adapted cartesian basis functions of A   symmetry.
 There are   880 symmetry adapted basis functions of A   symmetry.
   880 basis functions,  1512 primitive gaussians,   880 cartesian basis functions
   148 alpha electrons      148 beta electrons
       nuclear repulsion energy      3670.1425607775 Hartrees.
 NAtoms=   96 NActive=   96 NUniq=   96 SFac= 1.00D+00 NAtFMM=   60 NAOKFM=T Big=T
 Integral buffers will be    131072 words long.
 Regular integral format.
 Two-electron integral symmetry is turned on.
 One-electron integrals computed using PRISM.
 NBasis=   880 RedAO= T EigKep=  9.82D-04  NBF=   880
 NBsUse=   880 1.00D-06 EigRej= -1.00D+00 NBFU=   880
 ExpMin= 1.61D-01 ExpMax= 3.05D+03 ExpMxC= 4.57D+02 IAcc=3 IRadAn=         5 AccDes= 0.00D+00
 Harris functional with IExCor=  402 and IRadAn=       5 diagonalized for initial guess.
 HarFok:  IExCor=  402 AccDes= 0.00D+00 IRadAn=         5 IDoV= 1 UseB2=F ITyADJ=14
 ICtDFT=  3500011 ScaDFX=  1.000000  1.000000  1.000000  1.000000
 FoFCou: FMM=F IPFlag=           0 FMFlag=      100000 FMFlg1=        2001
         NFxFlg=           0 DoJE=T BraDBF=F KetDBF=T FulRan=T
         wScrn=  0.000000 ICntrl=       500 IOpCl=  0 I1Cent=   200000004 NGrid=           0
         NMat0=    1 NMatS0=      1 NMatT0=    0 NMatD0=    1 NMtDS0=    0 NMtDT0=    0
 Petite list used in FoFCou.
 Requested convergence on RMS density matrix=1.00D-08 within 128 cycles.
 Requested convergence on MAX density matrix=1.00D-06.
 Requested convergence on             energy=1.00D-06.
 No special actions if energy rises.
 Integral accuracy reduced to 1.0D-05 until final iterations.
 Initial convergence to 1.0D-05 achieved.  Increase integral accuracy.
 SCF Done:  E(RB3LYP) =  -1557.53703651     A.U. after   15 cycles
            NFock= 15  Conv=0.66D-08     -V/T= 2.0109
 DoSCS=F DFT=T ScalE2(SS,OS)=  1.000000  1.000000
 ExpMin= 1.61D-01 ExpMax= 3.05D+03 ExpMxC= 4.57D+02 IAcc=3 IRadAn=         5 AccDes= 0.00D+00
 HarFok:  IExCor=  205 AccDes= 0.00D+00 IRadAn=         5 IDoV=-2 UseB2=F ITyADJ=14
 ICtDFT= 12500011 ScaDFX=  1.000000  1.000000  1.000000  1.000000
 GSVD:  LWork=       -1920 too small for GESVD, short by        8600 words or        8600 for optimal perf.
 Range of M.O.s used for correlation:    41   880
 NBasis=   880 NAE=   148 NBE=   148 NFC=    40 NFV=     0
 NROrb=    840 NOA=   108 NOB=   108 NVA=   732 NVB=   732

 **** Warning!!: The smallest alpha delta epsilon is  0.88564421D-01

 Orbital symmetries:
       Occupied  (A) (A) (A) (A) (A) (A) (A) (A) (A) (A) (A) (A)
                 (A) (A) (A) (A) (A) (A) (A) (A) (A) (A) (A) (A)
                 (A) (A) (A) (A) (A) (A) (A) (A) (A) (A) (A) (A)
                 (A) (A) (A) (A) (A) (A) (A) (A) (A) (A) (A) (A)
                 (A) (A) (A) (A) (A) (A) (A) (A) (A) (A) (A) (A)
                 (A) (A) (A) (A) (A) (A) (A) (A) (A) (A) (A) (A)
                 (A) (A) (A) (A) (A) (A) (A) (A) (A) (A) (A) (A)
                 (A) (A) (A) (A) (A) (A) (A) (A) (A) (A) (A) (A)
                 (A) (A) (A) (A) (A) (A) (A) (A) (A) (A) (A) (A)
                 (A) (A) (A) (A) (A) (A) (A) (A) (A) (A) (A) (A)
                 (A) (A) (A) (A) (A) (A) (A) (A) (A) (A) (A) (A)
                 (A) (A) (A) (A) (A) (A) (A) (A) (A) (A) (A) (A)
                 (A) (A) (A) (A)
       Virtual   (A) (A) (A) (A) (A) (A) (A) (A) (A) (A) (A) (A)
                 (A) (A) (A) (A) (A) (A) (A) (A) (A) (A) (A) (A)
                 (A) (A) (A) (A) (A) (A) (A) (A) (A) (A) (A) (A)
                 (A) (A) (A) (A) (A) (A) (A) (A) (A) (A) (A) (A)
                 (A) (A) (A) (A) (A) (A) (A) (A) (A) (A) (A) (A)
                 (A) (A) (A) (A) (A) (A) (A) (A) (A) (A) (A) (A)
                 (A) (A) (A) (A) (A) (A) (A) (A) (A) (A) (A) (A)
                 (A) (A) (A) (A) (A) (A) (A) (A) (A) (A) (A) (A)
                 (A) (A) (A) (A) (A) (A) (A) (A) (A) (A) (A) (A)
                 (A) (A) (A) (A) (A) (A) (A) (A) (A) (A) (A) (A)
                 (A) (A) (A) (A) (A) (A) (A) (A) (A) (A) (A) (A)
                 (A) (A) (A) (A) (A) (A) (A) (A) (A) (A) (A) (A)
                 (A) (A) (A) (A) (A) (A) (A) (A) (A) (A) (A) (A)
                 (A) (A) (A) (A) (A) (A) (A) (A) (A) (A) (A) (A)
                 (A) (A) (A) (A) (A) (A) (A) (A) (A) (A) (A) (A)
                 (A) (A) (A) (A) (A) (A) (A) (A) (A) (A) (A) (A)
                 (A) (A) (A) (A) (A) (A) (A) (A) (A) (A) (A) (A)
                 (A) (A) (A) (A) (A) (A) (A) (A) (A) (A) (A) (A)
                 (A) (A) (A) (A) (A) (A) (A) (A) (A) (A) (A) (A)
                 (A) (A) (A) (A) (A) (A) (A) (A) (A) (A) (A) (A)
                 (A) (A) (A) (A) (A) (A) (A) (A) (A) (A) (A) (A)
                 (A) (A) (A) (A) (A) (A) (A) (A) (A) (A) (A) (A)
                 (A) (A) (A) (A) (A) (A) (A) (A) (A) (A) (A) (A)
                 (A) (A) (A) (A) (A) (A) (A) (A) (A) (A) (A) (A)
                 (A) (A) (A) (A) (A) (A) (A) (A) (A) (A) (A) (A)
                 (A) (A) (A) (A) (A) (A) (A) (A) (A) (A) (A) (A)
                 (A) (A) (A) (A) (A) (A) (A) (A) (A) (A) (A) (A)
                 (A) (A) (A) (A) (A) (A) (A) (A) (A) (A) (A) (A)
                 (A) (A) (A) (A) (A) (A) (A) (A) (A) (A) (A) (A)
                 (A) (A) (A) (A) (A) (A) (A) (A) (A) (A) (A) (A)
                 (A) (A) (A) (A) (A) (A) (A) (A) (A) (A) (A) (A)
                 (A) (A) (A) (A) (A) (A) (A) (A) (A) (A) (A) (A)
                 (A) (A) (A) (A) (A) (A) (A) (A) (A) (A) (A) (A)
                 (A) (A) (A) (A) (A) (A) (A) (A) (A) (A) (A) (A)
                 (A) (A) (A) (A) (A) (A) (A) (A) (A) (A) (A) (A)
                 (A) (A) (A) (A) (A) (A) (A) (A) (A) (A) (A) (A)
                 (A) (A) (A) (A) (A) (A) (A) (A) (A) (A) (A) (A)
                 (A) (A) (A) (A) (A) (A) (A) (A) (A) (A) (A) (A)
                 (A) (A) (A) (A) (A) (A) (A) (A) (A) (A) (A) (A)
                 (A) (A) (A) (A) (A) (A) (A) (A) (A) (A) (A) (A)
                 (A) (A) (A) (A) (A) (A) (A) (A) (A) (A) (A) (A)
                 (A) (A) (A) (A) (A) (A) (A) (A) (A) (A) (A) (A)
                 (A) (A) (A) (A) (A) (A) (A) (A) (A) (A) (A) (A)
                 (A) (A) (A) (A) (A) (A) (A) (A) (A) (A) (A) (A)
                 (A) (A) (A) (A) (A) (A) (A) (A) (A) (A) (A) (A)
                 (A) (A) (A) (A) (A) (A) (A) (A) (A) (A) (A) (A)
                 (A) (A) (A) (A) (A) (A) (A) (A) (A) (A) (A) (A)
                 (A) (A) (A) (A) (A) (A) (A) (A) (A) (A) (A) (A)
                 (A) (A) (A) (A) (A) (A) (A) (A) (A) (A) (A) (A)
                 (A) (A) (A) (A) (A) (A) (A) (A) (A) (A) (A) (A)
                 (A) (A) (A) (A) (A) (A) (A) (A) (A) (A) (A) (A)
                 (A) (A) (A) (A) (A) (A) (A) (A) (A) (A) (A) (A)
                 (A) (A) (A) (A) (A) (A) (A) (A) (A) (A) (A) (A)
                 (A) (A) (A) (A) (A) (A) (A) (A) (A) (A) (A) (A)
                 (A) (A) (A) (A) (A) (A) (A) (A) (A) (A) (A) (A)
                 (A) (A) (A) (A) (A) (A) (A) (A) (A) (A) (A) (A)
                 (A) (A) (A) (A) (A) (A) (A) (A) (A) (A) (A) (A)
                 (A) (A) (A) (A) (A) (A) (A) (A) (A) (A) (A) (A)
                 (A) (A) (A) (A) (A) (A) (A) (A) (A) (A) (A) (A)
                 (A) (A) (A) (A) (A) (A) (A) (A) (A) (A) (A) (A)
                 (A) (A) (A) (A) (A) (A) (A) (A) (A) (A) (A) (A)
     4 initial guesses have been made.
 Convergence on wavefunction:    0.001000000000000
 Iteration     1 Dimension     4 NMult     0 NNew      4
 CISAX will form     4 AO SS matrices at one time.
 Iteration     2 Dimension     6 NMult     4 NNew      2
 Iteration     3 Dimension     8 NMult     6 NNew      2
 Iteration     4 Dimension    10 NMult     8 NNew      2
 Iteration     5 Dimension    12 NMult    10 NNew      2
 Iteration     6 Dimension    14 NMult    12 NNew      2
 Iteration     7 Dimension    16 NMult    14 NNew      2
 ***********************************************************************
 Excited states from <AA,BB:AA,BB> singles matrix:
 ***********************************************************************
 
 Ground to excited state transition densities written to RWF  633
 Ground to excited state transition electric dipole moments (Au):
       state          X           Y           Z        Dip. S.      Osc.
         1         7.0326      0.6466     -0.3406     49.9916      2.8046
 Ground to excited state transition velocity dipole moments (Au):
       state          X           Y           Z        Dip. S.      Osc.
         1        -0.5760     -0.0544      0.0277      0.3355      2.6581
 Ground to excited state transition magnetic dipole moments (Au):
       state          X           Y           Z
         1        -0.0074     -0.1185      0.1689
 Ground to excited state transition velocity quadrupole moments (Au):
       state          XX          YY          ZZ          XY          XZ          YZ
         1         1.3438     -0.0593      0.0231     -0.0839     -0.0156      0.0051
 <0|del|b> * <b|rxdel|0> + <0|del|b> * <b|delr+rdel|0>
 Rotatory Strengths (R) in cgs (10**-40 erg-esu-cm/Gauss)
       state          XX          YY          ZZ    R(velocity)    E-M Angle
         1        33.4040     34.9941     61.0403     43.1461       82.60
 1/2[<0|r|b>*<b|rxdel|0> + (<0|rxdel|b>*<b|r|0>)*]
 Rotatory Strengths (R) in cgs (10**-40 erg-esu-cm/Gauss)
       state          XX          YY          ZZ     R(length)
         1        36.9590     54.1761     40.6710     43.9353
  1/2[<0|del|b>*<b|r|0> + (<0|r|b>*<b|del|0>)*] (Au)
       state          X           Y           Z        Dip. S.   Osc.(frdel)
         1        -4.0509     -0.0352     -0.0094      4.0956      2.7304

 Excitation energies and oscillator strengths:
 
 Excited State   1:      Singlet-A      2.2899 eV  541.45 nm  f=2.8046  <S**2>=0.000
     148 ->149         0.70685
 This state for optimization and/or second-order correction.
 Total Energy, E(TD-HF/TD-DFT) =  -1557.45288531    
 Copying the excited state density for this state as the 1-particle RhoCI density.
 SavETr:  write IOETrn=   770 NScale= 10 NData=  16 NLR=1 NState=    1 LETran=      28.

 **********************************************************************

            Population analysis using the SCF density.

 **********************************************************************

 Orbital symmetries:
       Occupied  (A) (A) (A) (A) (A) (A) (A) (A) (A) (A) (A) (A)
                 (A) (A) (A) (A) (A) (A) (A) (A) (A) (A) (A) (A)
                 (A) (A) (A) (A) (A) (A) (A) (A) (A) (A) (A) (A)
                 (A) (A) (A) (A) (A) (A) (A) (A) (A) (A) (A) (A)
                 (A) (A) (A) (A) (A) (A) (A) (A) (A) (A) (A) (A)
                 (A) (A) (A) (A) (A) (A) (A) (A) (A) (A) (A) (A)
                 (A) (A) (A) (A) (A) (A) (A) (A) (A) (A) (A) (A)
                 (A) (A) (A) (A) (A) (A) (A) (A) (A) (A) (A) (A)
                 (A) (A) (A) (A) (A) (A) (A) (A) (A) (A) (A) (A)
                 (A) (A) (A) (A) (A) (A) (A) (A) (A) (A) (A) (A)
                 (A) (A) (A) (A) (A) (A) (A) (A) (A) (A) (A) (A)
                 (A) (A) (A) (A) (A) (A) (A) (A) (A) (A) (A) (A)
                 (A) (A) (A) (A)
       Virtual   (A) (A) (A) (A) (A) (A) (A) (A) (A) (A) (A) (A)
                 (A) (A) (A) (A) (A) (A) (A) (A) (A) (A) (A) (A)
                 (A) (A) (A) (A) (A) (A) (A) (A) (A) (A) (A) (A)
                 (A) (A) (A) (A) (A) (A) (A) (A) (A) (A) (A) (A)
                 (A) (A) (A) (A) (A) (A) (A) (A) (A) (A) (A) (A)
                 (A) (A) (A) (A) (A) (A) (A) (A) (A) (A) (A) (A)
                 (A) (A) (A) (A) (A) (A) (A) (A) (A) (A) (A) (A)
                 (A) (A) (A) (A) (A) (A) (A) (A) (A) (A) (A) (A)
                 (A) (A) (A) (A) (A) (A) (A) (A) (A) (A) (A) (A)
                 (A) (A) (A) (A) (A) (A) (A) (A) (A) (A) (A) (A)
                 (A) (A) (A) (A) (A) (A) (A) (A) (A) (A) (A) (A)
                 (A) (A) (A) (A) (A) (A) (A) (A) (A) (A) (A) (A)
                 (A) (A) (A) (A) (A) (A) (A) (A) (A) (A) (A) (A)
                 (A) (A) (A) (A) (A) (A) (A) (A) (A) (A) (A) (A)
                 (A) (A) (A) (A) (A) (A) (A) (A) (A) (A) (A) (A)
                 (A) (A) (A) (A) (A) (A) (A) (A) (A) (A) (A) (A)
                 (A) (A) (A) (A) (A) (A) (A) (A) (A) (A) (A) (A)
                 (A) (A) (A) (A) (A) (A) (A) (A) (A) (A) (A) (A)
                 (A) (A) (A) (A) (A) (A) (A) (A) (A) (A) (A) (A)
                 (A) (A) (A) (A) (A) (A) (A) (A) (A) (A) (A) (A)
                 (A) (A) (A) (A) (A) (A) (A) (A) (A) (A) (A) (A)
                 (A) (A) (A) (A) (A) (A) (A) (A) (A) (A) (A) (A)
                 (A) (A) (A) (A) (A) (A) (A) (A) (A) (A) (A) (A)
                 (A) (A) (A) (A) (A) (A) (A) (A) (A) (A) (A) (A)
                 (A) (A) (A) (A) (A) (A) (A) (A) (A) (A) (A) (A)
                 (A) (A) (A) (A) (A) (A) (A) (A) (A) (A) (A) (A)
                 (A) (A) (A) (A) (A) (A) (A) (A) (A) (A) (A) (A)
                 (A) (A) (A) (A) (A) (A) (A) (A) (A) (A) (A) (A)
                 (A) (A) (A) (A) (A) (A) (A) (A) (A) (A) (A) (A)
                 (A) (A) (A) (A) (A) (A) (A) (A) (A) (A) (A) (A)
                 (A) (A) (A) (A) (A) (A) (A) (A) (A) (A) (A) (A)
                 (A) (A) (A) (A) (A) (A) (A) (A) (A) (A) (A) (A)
                 (A) (A) (A) (A) (A) (A) (A) (A) (A) (A) (A) (A)
                 (A) (A) (A) (A) (A) (A) (A) (A) (A) (A) (A) (A)
                 (A) (A) (A) (A) (A) (A) (A) (A) (A) (A) (A) (A)
                 (A) (A) (A) (A) (A) (A) (A) (A) (A) (A) (A) (A)
                 (A) (A) (A) (A) (A) (A) (A) (A) (A) (A) (A) (A)
                 (A) (A) (A) (A) (A) (A) (A) (A) (A) (A) (A) (A)
                 (A) (A) (A) (A) (A) (A) (A) (A) (A) (A) (A) (A)
                 (A) (A) (A) (A) (A) (A) (A) (A) (A) (A) (A) (A)
                 (A) (A) (A) (A) (A) (A) (A) (A) (A) (A) (A) (A)
                 (A) (A) (A) (A) (A) (A) (A) (A) (A) (A) (A) (A)
                 (A) (A) (A) (A) (A) (A) (A) (A) (A) (A) (A) (A)
                 (A) (A) (A) (A) (A) (A) (A) (A) (A) (A) (A) (A)
                 (A) (A) (A) (A) (A) (A) (A) (A) (A) (A) (A) (A)
                 (A) (A) (A) (A) (A) (A) (A) (A) (A) (A) (A) (A)
                 (A) (A) (A) (A) (A) (A) (A) (A) (A) (A) (A) (A)
                 (A) (A) (A) (A) (A) (A) (A) (A) (A) (A) (A) (A)
                 (A) (A) (A) (A) (A) (A) (A) (A) (A) (A) (A) (A)
                 (A) (A) (A) (A) (A) (A) (A) (A) (A) (A) (A) (A)
                 (A) (A) (A) (A) (A) (A) (A) (A) (A) (A) (A) (A)
                 (A) (A) (A) (A) (A) (A) (A) (A) (A) (A) (A) (A)
                 (A) (A) (A) (A) (A) (A) (A) (A) (A) (A) (A) (A)
                 (A) (A) (A) (A) (A) (A) (A) (A) (A) (A) (A) (A)
                 (A) (A) (A) (A) (A) (A) (A) (A) (A) (A) (A) (A)
                 (A) (A) (A) (A) (A) (A) (A) (A) (A) (A) (A) (A)
                 (A) (A) (A) (A) (A) (A) (A) (A) (A) (A) (A) (A)
                 (A) (A) (A) (A) (A) (A) (A) (A) (A) (A) (A) (A)
                 (A) (A) (A) (A) (A) (A) (A) (A) (A) (A) (A) (A)
                 (A) (A) (A) (A) (A) (A) (A) (A) (A) (A) (A) (A)
                 (A) (A) (A) (A) (A) (A) (A) (A) (A) (A) (A) (A)
 The electronic state is 1-A.
 Alpha  occ. eigenvalues --  -10.21285 -10.21278 -10.20740 -10.20483 -10.20306
 Alpha  occ. eigenvalues --  -10.20153 -10.20122 -10.20008 -10.19918 -10.19852
 Alpha  occ. eigenvalues --  -10.19820 -10.19748 -10.19578 -10.19501 -10.19469
 Alpha  occ. eigenvalues --  -10.19453 -10.19417 -10.19410 -10.19074 -10.18919
 Alpha  occ. eigenvalues --  -10.18879 -10.18838 -10.18810 -10.18759 -10.18662
 Alpha  occ. eigenvalues --  -10.18658 -10.18596 -10.18463 -10.18375 -10.18090
 Alpha  occ. eigenvalues --  -10.18070 -10.18047 -10.18029 -10.17991 -10.17877
 Alpha  occ. eigenvalues --  -10.17705 -10.17453 -10.17276 -10.16728 -10.16525
 Alpha  occ. eigenvalues --   -0.85003  -0.84095  -0.83770  -0.83279  -0.82391
 Alpha  occ. eigenvalues --   -0.81617  -0.79147  -0.78240  -0.77903  -0.77072
 Alpha  occ. eigenvalues --   -0.76151  -0.75052  -0.74582  -0.71737  -0.71556
 Alpha  occ. eigenvalues --   -0.70002  -0.68492  -0.68068  -0.67945  -0.67586
 Alpha  occ. eigenvalues --   -0.67246  -0.66778  -0.66559  -0.65856  -0.65334
 Alpha  occ. eigenvalues --   -0.62988  -0.62400  -0.60067  -0.59429  -0.57481
 Alpha  occ. eigenvalues --   -0.56833  -0.55326  -0.54896  -0.54206  -0.53360
 Alpha  occ. eigenvalues --   -0.52448  -0.51955  -0.50777  -0.49634  -0.48915
 Alpha  occ. eigenvalues --   -0.48154  -0.47487  -0.46852  -0.46206  -0.45883
 Alpha  occ. eigenvalues --   -0.45365  -0.44854  -0.44510  -0.44039  -0.43607
 Alpha  occ. eigenvalues --   -0.43136  -0.42754  -0.42689  -0.42040  -0.41927
 Alpha  occ. eigenvalues --   -0.41717  -0.41560  -0.41412  -0.41276  -0.40905
 Alpha  occ. eigenvalues --   -0.40790  -0.40285  -0.40149  -0.39724  -0.39470
 Alpha  occ. eigenvalues --   -0.39396  -0.39066  -0.38636  -0.38450  -0.38082
 Alpha  occ. eigenvalues --   -0.37919  -0.37612  -0.37401  -0.37227  -0.36650
 Alpha  occ. eigenvalues --   -0.36164  -0.35860  -0.35842  -0.35635  -0.34748
 Alpha  occ. eigenvalues --   -0.34490  -0.34243  -0.34065  -0.33771  -0.33719
 Alpha  occ. eigenvalues --   -0.33385  -0.32917  -0.32692  -0.32382  -0.32306
 Alpha  occ. eigenvalues --   -0.32142  -0.31552  -0.31292  -0.31058  -0.30998
 Alpha  occ. eigenvalues --   -0.30690  -0.29713  -0.29167  -0.28866  -0.28399
 Alpha  occ. eigenvalues --   -0.28128  -0.27795  -0.26872  -0.24588  -0.23384
 Alpha  occ. eigenvalues --   -0.21976  -0.18984  -0.16965
 Alpha virt. eigenvalues --   -0.08109  -0.05569  -0.01285   0.00926   0.02725
 Alpha virt. eigenvalues --    0.04018   0.05825   0.06224   0.06306   0.06587
 Alpha virt. eigenvalues --    0.07302   0.07586   0.08126   0.08309   0.08899
 Alpha virt. eigenvalues --    0.09322   0.09360   0.09777   0.09935   0.10241
 Alpha virt. eigenvalues --    0.10373   0.10614   0.11584   0.11639   0.11841
 Alpha virt. eigenvalues --    0.12077   0.12366   0.12464   0.12731   0.13037
 Alpha virt. eigenvalues --    0.13390   0.13603   0.14095   0.14456   0.14610
 Alpha virt. eigenvalues --    0.14771   0.14873   0.15497   0.15661   0.15697
 Alpha virt. eigenvalues --    0.15905   0.16056   0.16299   0.16515   0.16952
 Alpha virt. eigenvalues --    0.17069   0.17202   0.17765   0.17866   0.18196
 Alpha virt. eigenvalues --    0.18324   0.18547   0.18763   0.19265   0.19570
 Alpha virt. eigenvalues --    0.19763   0.20154   0.20315   0.20373   0.20767
 Alpha virt. eigenvalues --    0.20875   0.21246   0.21585   0.21696   0.21914
 Alpha virt. eigenvalues --    0.21988   0.22353   0.23078   0.23346   0.23568
 Alpha virt. eigenvalues --    0.23665   0.24037   0.24094   0.24353   0.24802
 Alpha virt. eigenvalues --    0.25474   0.25680   0.25897   0.26137   0.26307
 Alpha virt. eigenvalues --    0.26980   0.27191   0.27522   0.28041   0.28663
 Alpha virt. eigenvalues --    0.28780   0.29235   0.29472   0.30772   0.32392
 Alpha virt. eigenvalues --    0.34020   0.34968   0.35423   0.36520   0.37284
 Alpha virt. eigenvalues --    0.38530   0.39536   0.40004   0.40537   0.41950
 Alpha virt. eigenvalues --    0.42343   0.43068   0.44209   0.44403   0.45205
 Alpha virt. eigenvalues --    0.46195   0.47027   0.48113   0.48604   0.49904
 Alpha virt. eigenvalues --    0.50176   0.50474   0.51012   0.51236   0.51797
 Alpha virt. eigenvalues --    0.51916   0.52246   0.52439   0.52999   0.53386
 Alpha virt. eigenvalues --    0.53960   0.54153   0.54511   0.54952   0.55317
 Alpha virt. eigenvalues --    0.55498   0.55669   0.55738   0.55939   0.56334
 Alpha virt. eigenvalues --    0.56874   0.56953   0.57180   0.57348   0.57681
 Alpha virt. eigenvalues --    0.58117   0.58444   0.58827   0.59008   0.59459
 Alpha virt. eigenvalues --    0.59632   0.60250   0.60393   0.60518   0.60838
 Alpha virt. eigenvalues --    0.61109   0.61369   0.61535   0.61727   0.62653
 Alpha virt. eigenvalues --    0.62802   0.63134   0.63556   0.63686   0.63902
 Alpha virt. eigenvalues --    0.64307   0.64471   0.64745   0.65164   0.65254
 Alpha virt. eigenvalues --    0.65739   0.65868   0.66853   0.67325   0.67375
 Alpha virt. eigenvalues --    0.67896   0.68057   0.68836   0.68926   0.69632
 Alpha virt. eigenvalues --    0.69966   0.70466   0.70737   0.71055   0.71138
 Alpha virt. eigenvalues --    0.71298   0.72076   0.72668   0.73079   0.73665
 Alpha virt. eigenvalues --    0.73750   0.74365   0.74654   0.74895   0.74917
 Alpha virt. eigenvalues --    0.75927   0.76228   0.76491   0.76734   0.76997
 Alpha virt. eigenvalues --    0.77379   0.77522   0.77585   0.77855   0.78142
 Alpha virt. eigenvalues --    0.78423   0.78588   0.78830   0.78931   0.78994
 Alpha virt. eigenvalues --    0.79778   0.79967   0.80372   0.80863   0.81214
 Alpha virt. eigenvalues --    0.81672   0.82022   0.82459   0.82742   0.82846
 Alpha virt. eigenvalues --    0.83200   0.83724   0.84258   0.84644   0.85451
 Alpha virt. eigenvalues --    0.85535   0.85771   0.86049   0.86062   0.86524
 Alpha virt. eigenvalues --    0.86795   0.87114   0.87237   0.87574   0.88014
 Alpha virt. eigenvalues --    0.88270   0.88618   0.88775   0.89264   0.89604
 Alpha virt. eigenvalues --    0.89678   0.90107   0.90283   0.90364   0.90801
 Alpha virt. eigenvalues --    0.91256   0.91380   0.92145   0.92338   0.92539
 Alpha virt. eigenvalues --    0.92645   0.93128   0.93349   0.94111   0.94264
 Alpha virt. eigenvalues --    0.94830   0.95500   0.95702   0.95828   0.96055
 Alpha virt. eigenvalues --    0.96327   0.96976   0.97280   0.97965   0.98574
 Alpha virt. eigenvalues --    0.98641   0.98969   0.99552   0.99634   1.00778
 Alpha virt. eigenvalues --    1.00846   1.01513   1.02068   1.02251   1.03130
 Alpha virt. eigenvalues --    1.03772   1.04214   1.04357   1.04557   1.05142
 Alpha virt. eigenvalues --    1.05671   1.06445   1.06535   1.07761   1.08559
 Alpha virt. eigenvalues --    1.08933   1.10210   1.10872   1.11179   1.11574
 Alpha virt. eigenvalues --    1.12052   1.12251   1.12761   1.14148   1.14785
 Alpha virt. eigenvalues --    1.14949   1.16523   1.16727   1.17476   1.17748
 Alpha virt. eigenvalues --    1.19200   1.19426   1.19737   1.21158   1.22610
 Alpha virt. eigenvalues --    1.24052   1.24274   1.25942   1.26433   1.28290
 Alpha virt. eigenvalues --    1.28839   1.29170   1.29389   1.29663   1.31170
 Alpha virt. eigenvalues --    1.31662   1.32129   1.32957   1.33222   1.35063
 Alpha virt. eigenvalues --    1.35696   1.37443   1.37864   1.38432   1.38696
 Alpha virt. eigenvalues --    1.39364   1.39680   1.40256   1.40630   1.40921
 Alpha virt. eigenvalues --    1.41713   1.42759   1.43791   1.43840   1.44207
 Alpha virt. eigenvalues --    1.46011   1.46724   1.46835   1.47879   1.48350
 Alpha virt. eigenvalues --    1.48597   1.50135   1.51126   1.51846   1.53317
 Alpha virt. eigenvalues --    1.53514   1.53655   1.54755   1.56843   1.57192
 Alpha virt. eigenvalues --    1.57846   1.58750   1.59167   1.59348   1.59880
 Alpha virt. eigenvalues --    1.60345   1.61187   1.61545   1.63856   1.64022
 Alpha virt. eigenvalues --    1.65448   1.65814   1.66424   1.67282   1.68166
 Alpha virt. eigenvalues --    1.70599   1.71008   1.72113   1.72709   1.73194
 Alpha virt. eigenvalues --    1.73695   1.73786   1.74426   1.75640   1.75693
 Alpha virt. eigenvalues --    1.76220   1.76664   1.76959   1.77180   1.77592
 Alpha virt. eigenvalues --    1.78051   1.78503   1.78893   1.79040   1.79909
 Alpha virt. eigenvalues --    1.80376   1.80738   1.80820   1.81484   1.81682
 Alpha virt. eigenvalues --    1.82022   1.82441   1.83010   1.83235   1.83493
 Alpha virt. eigenvalues --    1.83953   1.84142   1.84450   1.84910   1.85558
 Alpha virt. eigenvalues --    1.85791   1.85949   1.86202   1.87018   1.87743
 Alpha virt. eigenvalues --    1.87938   1.88439   1.88755   1.88804   1.89176
 Alpha virt. eigenvalues --    1.89775   1.90588   1.90833   1.91106   1.91254
 Alpha virt. eigenvalues --    1.91676   1.92773   1.92905   1.93341   1.93675
 Alpha virt. eigenvalues --    1.93906   1.94718   1.94896   1.95017   1.95640
 Alpha virt. eigenvalues --    1.95729   1.96530   1.96614   1.97429   1.97598
 Alpha virt. eigenvalues --    1.98149   1.98353   1.98558   1.98591   1.99190
 Alpha virt. eigenvalues --    2.00136   2.00235   2.00531   2.01087   2.01385
 Alpha virt. eigenvalues --    2.01687   2.02170   2.02364   2.02469   2.02894
 Alpha virt. eigenvalues --    2.03667   2.03824   2.04195   2.04889   2.05182
 Alpha virt. eigenvalues --    2.06898   2.07125   2.07290   2.07508   2.08701
 Alpha virt. eigenvalues --    2.09291   2.09509   2.10179   2.10340   2.10508
 Alpha virt. eigenvalues --    2.10860   2.11428   2.12107   2.12672   2.13074
 Alpha virt. eigenvalues --    2.13268   2.13842   2.14328   2.14685   2.14726
 Alpha virt. eigenvalues --    2.15045   2.15226   2.15693   2.16016   2.16731
 Alpha virt. eigenvalues --    2.17377   2.17926   2.18107   2.18592   2.18942
 Alpha virt. eigenvalues --    2.19027   2.20631   2.21129   2.22037   2.22884
 Alpha virt. eigenvalues --    2.22985   2.23356   2.23830   2.24246   2.25776
 Alpha virt. eigenvalues --    2.26264   2.26797   2.28161   2.28508   2.28716
 Alpha virt. eigenvalues --    2.28936   2.29167   2.29707   2.30066   2.30438
 Alpha virt. eigenvalues --    2.30901   2.31069   2.31768   2.32005   2.32832
 Alpha virt. eigenvalues --    2.33462   2.33828   2.34865   2.35349   2.36154
 Alpha virt. eigenvalues --    2.36414   2.36625   2.37078   2.37273   2.37294
 Alpha virt. eigenvalues --    2.38183   2.38381   2.38551   2.39013   2.39447
 Alpha virt. eigenvalues --    2.40186   2.40968   2.41781   2.41858   2.42198
 Alpha virt. eigenvalues --    2.42909   2.43614   2.44445   2.44743   2.45415
 Alpha virt. eigenvalues --    2.45919   2.46545   2.47604   2.47913   2.48249
 Alpha virt. eigenvalues --    2.48941   2.49071   2.49475   2.49710   2.49742
 Alpha virt. eigenvalues --    2.50359   2.50810   2.51476   2.52247   2.52593
 Alpha virt. eigenvalues --    2.52804   2.53394   2.54523   2.55072   2.55140
 Alpha virt. eigenvalues --    2.55689   2.55740   2.56099   2.56383   2.56585
 Alpha virt. eigenvalues --    2.56760   2.57243   2.57684   2.58121   2.58709
 Alpha virt. eigenvalues --    2.58931   2.59455   2.59781   2.60111   2.60504
 Alpha virt. eigenvalues --    2.60661   2.61091   2.61169   2.61438   2.61640
 Alpha virt. eigenvalues --    2.62740   2.63811   2.64253   2.64500   2.64644
 Alpha virt. eigenvalues --    2.65331   2.65684   2.66054   2.67030   2.67089
 Alpha virt. eigenvalues --    2.67528   2.68408   2.68994   2.69326   2.69688
 Alpha virt. eigenvalues --    2.70580   2.70724   2.71672   2.72152   2.72866
 Alpha virt. eigenvalues --    2.73533   2.73918   2.74226   2.74933   2.75271
 Alpha virt. eigenvalues --    2.75286   2.75660   2.76511   2.76912   2.77550
 Alpha virt. eigenvalues --    2.77698   2.78400   2.78839   2.79141   2.79913
 Alpha virt. eigenvalues --    2.80320   2.80505   2.80853   2.81927   2.82084
 Alpha virt. eigenvalues --    2.82731   2.83222   2.84407   2.84564   2.85065
 Alpha virt. eigenvalues --    2.85870   2.86373   2.86741   2.87997   2.89083
 Alpha virt. eigenvalues --    2.90127   2.90596   2.91485   2.91863   2.92077
 Alpha virt. eigenvalues --    2.92532   2.93278   2.93590   2.94424   2.95742
 Alpha virt. eigenvalues --    2.96489   2.98441   2.98782   2.99397   3.00173
 Alpha virt. eigenvalues --    3.02695   3.04319   3.05575   3.05653   3.06326
 Alpha virt. eigenvalues --    3.07430   3.07640   3.08666   3.09423   3.09909
 Alpha virt. eigenvalues --    3.11629   3.12051   3.13462   3.14594   3.15167
 Alpha virt. eigenvalues --    3.17063   3.17800   3.17990   3.18684   3.20477
 Alpha virt. eigenvalues --    3.21239   3.22060   3.22607   3.23933   3.24150
 Alpha virt. eigenvalues --    3.24646   3.24685   3.25519   3.30272   3.31965
 Alpha virt. eigenvalues --    3.32134   3.32645   3.33097   3.33453   3.34032
 Alpha virt. eigenvalues --    3.34892   3.35314   3.35746   3.37611   3.39097
 Alpha virt. eigenvalues --    3.40575   3.41456   3.41556   3.41996   3.42366
 Alpha virt. eigenvalues --    3.42942   3.45419   3.46278   3.47012   3.47909
 Alpha virt. eigenvalues --    3.50473   3.51283   3.53362   3.54931   3.55681
 Alpha virt. eigenvalues --    3.56646   3.58610   3.61038   3.61967   3.63889
 Alpha virt. eigenvalues --    3.64142   3.64878   3.68660   3.75238   3.80723
 Alpha virt. eigenvalues --    3.95388   3.97703   4.11188   4.12507   4.13417
 Alpha virt. eigenvalues --    4.14645   4.15022   4.16127   4.18983   4.19185
 Alpha virt. eigenvalues --    4.22066   4.24861   4.28671   4.30647   4.31821
 Alpha virt. eigenvalues --    4.32984   4.35235   4.37004   4.38777   4.39574
 Alpha virt. eigenvalues --    4.41978   4.44366   4.46670   4.47825   4.48145
 Alpha virt. eigenvalues --    4.49355   4.50810   4.54501   4.55952   4.56363
 Alpha virt. eigenvalues --    4.57681   4.58792   4.61055   4.61649   4.67612
 Alpha virt. eigenvalues --    4.70256   4.71703   4.74028   4.76383   4.77259
 Alpha virt. eigenvalues --    4.79453   4.80755
          Condensed to atoms (all electrons):
 Mulliken charges:
               1
     1  C    0.012619
     2  C    0.009309
     3  C   -0.170751
     4  C   -0.174971
     5  C   -0.140662
     6  C   -0.196587
     7  C    0.039109
     8  C    0.061420
     9  C   -0.218019
    10  C   -0.215534
    11  C    0.049232
    12  C    0.037597
    13  C   -0.281692
    14  C   -0.291951
    15  C   -0.284093
    16  C   -0.298846
    17  C   -0.135445
    18  C   -0.139164
    19  C   -0.341357
    20  C   -0.370835
    21  C   -0.038948
    22  C   -0.074202
    23  C    0.103057
    24  C    0.110266
    25  C   -0.371616
    26  C   -0.353206
    27  C   -0.105830
    28  C   -0.088329
    29  C   -0.075218
    30  C   -0.075973
    31  C   -0.115067
    32  C   -0.122745
    33  C    0.120899
    34  C    0.169227
    35  C   -0.376517
    36  C   -0.376776
    37  C   -0.135110
    38  C   -0.127651
    39  C   -0.057306
    40  C   -0.101935
    41  H    0.102617
    42  H    0.058840
    43  H    0.077029
    44  H    0.066114
    45  H    0.089547
    46  H    0.059503
    47  H    0.085593
    48  H    0.107108
    49  H    0.093331
    50  H    0.079538
    51  H    0.117307
    52  H    0.096454
    53  H    0.109801
    54  H    0.083436
    55  H    0.084390
    56  H    0.114459
    57  H    0.060358
    58  H    0.117760
    59  H    0.090155
    60  H    0.093069
    61  H    0.099735
    62  H    0.105980
    63  H    0.095895
    64  H    0.080808
    65  H    0.083722
    66  H    0.078554
    67  H    0.115968
    68  H    0.114884
    69  H    0.106021
    70  H    0.121189
    71  H    0.129981
    72  H    0.095677
    73  H    0.045032
    74  H    0.083042
    75  H    0.130930
    76  H    0.102134
    77  H    0.105237
    78  H    0.105714
    79  H    0.081318
    80  H    0.106425
    81  H    0.074153
    82  H    0.072563
    83  H    0.055131
    84  H    0.070582
    85  H    0.075306
    86  H    0.049577
    87  H    0.117412
    88  H    0.098831
    89  H    0.122781
    90  H    0.111051
    91  H    0.118430
    92  H    0.110304
    93  H    0.067364
    94  H    0.089468
    95  H    0.074654
    96  H    0.061341
 Sum of Mulliken charges =  -0.00000
 Mulliken charges with hydrogens summed into heavy atoms:
               1
     1  C    0.012619
     2  C    0.009309
     3  C   -0.009293
     4  C   -0.031828
     5  C    0.008388
     6  C   -0.003887
     7  C    0.039109
     8  C    0.061420
     9  C   -0.045150
    10  C   -0.001773
    11  C    0.049232
    12  C    0.037597
    13  C   -0.004066
    14  C    0.000626
    15  C   -0.001134
    16  C   -0.016163
    17  C   -0.051723
    18  C   -0.060610
    19  C   -0.004485
    20  C   -0.023989
    21  C    0.006084
    22  C    0.008840
    23  C    0.103057
    24  C    0.110266
    25  C   -0.033314
    26  C   -0.059750
    27  C   -0.031677
    28  C   -0.015766
    29  C   -0.020087
    30  C   -0.005391
    31  C   -0.039761
    32  C   -0.073168
    33  C    0.120899
    34  C    0.169227
    35  C   -0.037494
    36  C   -0.036990
    37  C   -0.067746
    38  C   -0.038183
    39  C    0.017348
    40  C   -0.040594
 Electronic spatial extent (au):  <R**2>=          95022.8902
 Charge=             -0.0000 electrons
 Dipole moment (field-independent basis, Debye):
    X=             -1.9361    Y=              0.0825    Z=              0.2755  Tot=              1.9573
 Quadrupole moment (field-independent basis, Debye-Ang):
   XX=           -216.3997   YY=           -236.2606   ZZ=           -257.1760
   XY=             -4.4528   XZ=             -7.7172   YZ=             -0.0730
 Traceless Quadrupole moment (field-independent basis, Debye-Ang):
   XX=             20.2124   YY=              0.3515   ZZ=            -20.5639
   XY=             -4.4528   XZ=             -7.7172   YZ=             -0.0730
 Octapole moment (field-independent basis, Debye-Ang**2):
  XXX=           -260.4954  YYY=             -3.8124  ZZZ=              1.4711  XYY=              1.0317
  XXY=            -38.8253  XXZ=             20.9940  XZZ=            -22.2524  YZZ=             -6.7222
  YYZ=             -4.9492  XYZ=            -12.1217
 Hexadecapole moment (field-independent basis, Debye-Ang**3):
 XXXX=        -119384.4251 YYYY=          -4424.3532 ZZZZ=          -1680.4220 XXXY=          -1255.4431
 XXXZ=           -615.6637 YYYX=            -50.2247 YYYZ=              2.9129 ZZZX=           -110.4283
 ZZZY=              5.6462 XXYY=         -21537.1351 XXZZ=         -21868.6680 YYZZ=          -1018.3169
 XXYZ=            256.8159 YYXZ=            -81.6717 ZZXY=            -45.8747
 N-N= 3.670142560778D+03 E-N=-1.093976318352D+04  KE= 1.540723738547D+03
 1\1\GINC-RYZEN-SSD1\SP\RB3LYP TD-FC\6-31G(d,p)\C40H56\PADAWAN\23-Jul-2
 019\0\\# td=(NStates=1) B3LYP/6-31G(d,p)\\TD\\0,1\C,0,12.1124455872,0.
 4714177423,-0.8942955485\C,0,-12.165808895,-0.090044046,0.7743866176\C
 ,0,13.3128606988,-0.4710167617,-0.8583718362\C,0,-12.9534018401,1.1288
 572772,1.3190426187\C,0,12.9039927135,-1.999735646,-0.804332192\C,0,-1
 3.4961442105,1.907689281,0.0558259497\C,0,11.0049022841,-0.0673724727,
 0.0384713849\C,0,-10.9945271205,0.3583857209,-0.1565232871\C,0,12.1495
 393913,-2.2200542994,0.528816858\C,0,-12.2851984024,2.5326535736,-0.70
 59089268\C,0,11.0445841664,-1.2072427788,0.7706236308\C,0,-11.02169696
 39,1.5130069225,-0.846103484\C,0,11.4667672644,0.6236634914,-2.2564641
 25\C,0,12.626746088,1.8365177069,-0.285050024\C,0,-13.0041980106,-1.16
 94140601,0.0621900489\C,0,-11.5624651145,-0.7672298966,2.099548103\C,0
 ,9.8761556782,0.8840045141,0.3231243129\C,0,-9.9018999969,-0.619784520
 6,-0.4374278306\C,0,10.2580899853,-1.7437641881,2.0233349684\C,0,-9.91
 78547557,2.1204337825,-1.8485263175\C,0,8.562652505,0.4603159878,0.377
 8059868\C,0,-8.630416,-0.3645963249,-0.3628026032\C,0,7.4506236306,1.3
 425930596,0.6078033929\C,0,-7.4969985938,-1.302738749,-0.5466350604\C,
 0,7.7909421439,2.8165642936,0.7874811851\C,0,-7.803777566,-2.743764387
 5,-0.764503728\C,0,6.1680807096,0.8173061196,0.5378759466\C,0,-6.22405
 1015,-0.8872295456,-0.2385259643\C,0,4.9765383045,1.4803303649,0.37087
 67467\C,0,-5.0365832701,-1.6360795858,-0.2149528769\C,0,3.7409728089,0
 .8498925545,0.4104329926\C,0,-3.7584612313,-1.1528359163,-0.1593283705
 \C,0,2.3990132027,1.4147221799,0.5183163195\C,0,-2.4533643358,-1.76485
 15439,-0.2326265428\C,0,2.3702914007,2.8836377303,0.6453189052\C,0,-2.
 555236069,-3.2545489814,-0.4506864187\C,0,1.2792894774,0.7370550471,0.
 1862335404\C,0,-1.3708652596,-0.9670652785,-0.0883175369\C,0,1.1487492
 471,-0.7001549627,-0.0665441741\C,0,0.0282733669,-1.3858748273,-0.2489
 086469\H,0,13.7988399898,-0.3050680773,0.0396320061\H,0,14.1160386177,
 -0.3123996157,-1.7805515936\H,0,-12.1645728223,1.7806604562,1.97276084
 09\H,0,-13.8664775054,0.8138708794,2.0399204301\H,0,13.6628969117,-2.5
 124020579,-0.9062940752\H,0,12.0453204137,-2.2168555856,-1.707656889\H
 ,0,-14.2273061188,2.5997733373,0.2941304506\H,0,-14.1940841922,1.26654
 63288,-0.3837723993\H,0,12.8550374675,-2.3047229789,1.4240142834\H,0,1
 1.5402014746,-3.2409777899,0.4339502506\H,0,-12.0629660887,3.461993920
 1,-0.3243359166\H,0,-12.7255087648,2.6429878066,-1.736797581\H,0,11.01
 4044775,-0.3609491722,-2.4857867114\H,0,12.2189587766,1.0820628676,-3.
 0216087349\H,0,10.5419417655,1.402433355,-2.2004607656\H,0,12.66809776
 39,1.6026171636,0.8043077713\H,0,11.8882772346,2.7651964305,-0.6574699
 04\H,0,13.3902008764,2.1843187018,-0.8749297641\H,0,-13.2189911298,-0.
 6844124502,-0.9848345842\H,0,-13.9597581484,-1.4942052247,0.6657337941
 \H,0,-12.3379413973,-2.0163000349,-0.2694728298\H,0,-10.982430734,0.06
 14105017,2.4836980289\H,0,-10.7858751129,-1.6357845792,2.036327649\H,0
 ,-12.5307171357,-0.7386283307,2.8135298811\H,0,9.9770811147,1.91722658
 28,0.4321091188\H,0,-10.3273471794,-1.6787429843,-0.4751938974\H,0,9.6
 08154893,-0.9059881935,2.3505488125\H,0,10.9978606002,-2.0195481527,2.
 7992213521\H,0,9.6904411113,-2.706470497,1.6832479464\H,0,-9.336710706
 4,1.2495272653,-2.1198744843\H,0,-9.2671115161,2.7920427263,-1.4732073
 669\H,0,-10.3234226073,2.6367186773,-2.7822581991\H,0,8.3919047813,-0.
 4424550257,0.2980228519\H,0,-8.3134547407,0.7281070048,-0.3661602685\H
 ,0,8.2761008422,2.9046555015,1.7781972022\H,0,6.8773896197,3.453703074
 5,0.7209746772\H,0,8.5214363813,3.0954582078,-0.1352067436\H,0,-8.6736
 38316,-2.9329803571,-1.5918058742\H,0,-8.2070016885,-3.2931625036,0.32
 77189112\H,0,-6.8141959722,-3.3079334446,-0.8716060458\H,0,6.146955560
 1,-0.2342486517,0.4543034136\H,0,-5.9442564102,0.0695288914,-0.0064609
 229\H,0,5.0972930866,2.7260510492,0.594542361\H,0,-5.1204021405,-2.623
 655882,-0.1322853696\H,0,3.6598162483,-0.2139759675,0.3048501234\H,0,-
 3.603267958,0.0552718571,-0.1792197887\H,0,2.7388745869,3.2639367898,1
 .5891475701\H,0,1.3607232731,3.2276534971,0.3796176893\H,0,2.994766535
 5,3.4392543989,-0.0602299926\H,0,-3.4809099606,-3.6944377997,-1.141999
 2107\H,0,-2.5269543012,-3.6701690098,0.6689115426\H,0,-1.5866596373,-3
 .7397143058,-0.8001422406\H,0,0.3270751083,1.3759935146,0.5358042256\H
 ,0,-1.3776488535,0.0658245697,-0.0455622823\H,0,2.0085293974,-1.144863
 5361,-0.1759971639\H,0,0.216452156,-2.5295279951,-0.4086017211\\Versio
 n=ES64L-G16RevA.03\State=1-A\HF=-1557.5370365\RMSD=6.590e-09\PG=C01 [X
 (C40H56)]\\@


 IF YOU GIVE EVERYONE A PIECE OF YOUR MIND,
 PRETTY SOON IT WILL BE ALL GONE.
 Job cpu time:       0 days  6 hours 58 minutes 19.0 seconds.
 Elapsed time:       0 days  1 hours 45 minutes  8.4 seconds.
 File lengths (MBytes):  RWF=   2884 Int=      0 D2E=      0 Chk=     79 Scr=      1
 Normal termination of Gaussian 16 at Tue Jul 23 23:02:20 2019.
