 Entering Gaussian System, Link 0=g16
 Input=Geometria-101-.com
 Output=Geometria-101-.log
 Initial command:
 /usr/local/g16/l1.exe "/home/padawan/israel-mol/b-caroten/spectra/abs/Gau-76654.inp" -scrdir="/home/padawan/israel-mol/b-caroten/spectra/abs/"
 Entering Link 1 = /usr/local/g16/l1.exe PID=     76656.
  
 Copyright (c) 1988,1990,1992,1993,1995,1998,2003,2009,2016,
            Gaussian, Inc.  All Rights Reserved.
  
 This is part of the Gaussian(R) 16 program.  It is based on
 the Gaussian(R) 09 system (copyright 2009, Gaussian, Inc.),
 the Gaussian(R) 03 system (copyright 2003, Gaussian, Inc.),
 the Gaussian(R) 98 system (copyright 1998, Gaussian, Inc.),
 the Gaussian(R) 94 system (copyright 1995, Gaussian, Inc.),
 the Gaussian 92(TM) system (copyright 1992, Gaussian, Inc.),
 the Gaussian 90(TM) system (copyright 1990, Gaussian, Inc.),
 the Gaussian 88(TM) system (copyright 1988, Gaussian, Inc.),
 the Gaussian 86(TM) system (copyright 1986, Carnegie Mellon
 University), and the Gaussian 82(TM) system (copyright 1983,
 Carnegie Mellon University). Gaussian is a federally registered
 trademark of Gaussian, Inc.
  
 This software contains proprietary and confidential information,
 including trade secrets, belonging to Gaussian, Inc.
  
 This software is provided under written license and may be
 used, copied, transmitted, or stored only in accord with that
 written license.
  
 The following legend is applicable only to US Government
 contracts under FAR:
  
                    RESTRICTED RIGHTS LEGEND
  
 Use, reproduction and disclosure by the US Government is
 subject to restrictions as set forth in subparagraphs (a)
 and (c) of the Commercial Computer Software - Restricted
 Rights clause in FAR 52.227-19.
  
 Gaussian, Inc.
 340 Quinnipiac St., Bldg. 40, Wallingford CT 06492
  
  
 ---------------------------------------------------------------
 Warning -- This program may not be used in any manner that
 competes with the business of Gaussian, Inc. or will provide
 assistance to any competitor of Gaussian, Inc.  The licensee
 of this program is prohibited from giving any competitor of
 Gaussian, Inc. access to this program.  By using this program,
 the user acknowledges that Gaussian, Inc. is engaged in the
 business of creating and licensing software in the field of
 computational chemistry and represents and warrants to the
 licensee that it is not a competitor of Gaussian, Inc. and that
 it will not use this program in any manner prohibited above.
 ---------------------------------------------------------------
  

 Cite this work as:
 Gaussian 16, Revision A.03,
 M. J. Frisch, G. W. Trucks, H. B. Schlegel, G. E. Scuseria, 
 M. A. Robb, J. R. Cheeseman, G. Scalmani, V. Barone, 
 G. A. Petersson, H. Nakatsuji, X. Li, M. Caricato, A. V. Marenich, 
 J. Bloino, B. G. Janesko, R. Gomperts, B. Mennucci, H. P. Hratchian, 
 J. V. Ortiz, A. F. Izmaylov, J. L. Sonnenberg, D. Williams-Young, 
 F. Ding, F. Lipparini, F. Egidi, J. Goings, B. Peng, A. Petrone, 
 T. Henderson, D. Ranasinghe, V. G. Zakrzewski, J. Gao, N. Rega, 
 G. Zheng, W. Liang, M. Hada, M. Ehara, K. Toyota, R. Fukuda, 
 J. Hasegawa, M. Ishida, T. Nakajima, Y. Honda, O. Kitao, H. Nakai, 
 T. Vreven, K. Throssell, J. A. Montgomery, Jr., J. E. Peralta, 
 F. Ogliaro, M. J. Bearpark, J. J. Heyd, E. N. Brothers, K. N. Kudin, 
 V. N. Staroverov, T. A. Keith, R. Kobayashi, J. Normand, 
 K. Raghavachari, A. P. Rendell, J. C. Burant, S. S. Iyengar, 
 J. Tomasi, M. Cossi, J. M. Millam, M. Klene, C. Adamo, R. Cammi, 
 J. W. Ochterski, R. L. Martin, K. Morokuma, O. Farkas, 
 J. B. Foresman, and D. J. Fox, Gaussian, Inc., Wallingford CT, 2016.
 
 ******************************************
 Gaussian 16:  ES64L-G16RevA.03 25-Dec-2016
                27-Jul-2019 
 ******************************************
 %nproc=4
 Will use up to    4 processors via shared memory.
 %Mem=2GB
 ---------------------------------
 # td=(NStates=1) B3LYP/6-31G(d,p)
 ---------------------------------
 1/38=1,172=1/1;
 2/12=2,17=6,18=5,40=1/2;
 3/5=1,6=6,7=101,11=9,25=1,30=1,74=-5/1,2,3,8;
 4//1;
 5/5=2,38=5/2;
 8/6=1,10=2,108=1/1;
 9/41=1,42=1,70=2/14;
 6/7=2,8=2,9=2,10=2/1;
 99/5=1,9=1/99;
 --
 TD
 --
 Symbolic Z-matrix:
 Charge =  0 Multiplicity = 1
 6                     12.17828   0.45119  -0.52242 
 6                    -12.05879  -0.08314   0.95516 
 6                     13.35046  -0.36548  -0.37206 
 6                    -12.94215   1.13003   1.29819 
 6                     13.16664  -1.8473   -0.53495 
 6                    -13.39719   1.89896   0.12591 
 6                     11.01572  -0.02634   0.19925 
 6                    -10.97256   0.39032  -0.13515 
 6                     12.06907  -2.31603   0.59348 
 6                    -12.17111   2.58432  -0.50404 
 6                     10.9082  -1.32205   0.807 
 6                    -10.96747   1.58599  -0.73146 
 6                     11.86453   0.52646  -2.00203 
 6                     12.63247   1.91398  -0.2127 
 6                    -12.84414  -1.26988   0.30187 
 6                    -11.33672  -0.61648   2.31072 
 6                     9.80658   0.86349   0.38285 
 6                    -9.89073  -0.59658  -0.36696 
 6                     9.83365  -1.85066   1.72413 
 6                    -10.11343   2.04425  -1.82708 
 6                     8.55261   0.60659   0.21252 
 6                    -8.49012  -0.32584  -0.26219 
 6                     7.34372   1.46009   0.32507 
 6                    -7.44305  -1.24977  -0.39578 
 6                     7.60737   2.88673   0.80738 
 6                    -7.88489  -2.68337  -0.71376 
 6                     6.14845   0.90304   0.14024 
 6                    -6.18409  -0.8739   -0.20337 
 6                     4.89643   1.56449   0.3223 
 6                    -4.99033  -1.66864  -0.47619 
 6                     3.6831    0.91003   0.11008 
 6                    -3.73344  -1.05671  -0.31869 
 6                     2.30315   1.35177   0.06922 
 6                    -2.4971   -1.7961   -0.41848 
 6                     2.13039   2.86635   0.33182 
 6                    -2.58596  -3.29448  -0.61061 
 6                     1.22291   0.53743   0.26677 
 6                    -1.2623   -1.04599  -0.28704 
 6                     1.17298  -0.88595  -0.04767 
 6                     0.10282  -1.65889  -0.34434 
 1                     13.88254  -0.07458   0.64797 
 1                     14.24681  -0.18631  -1.19618 
 1                    -12.35595   1.669     1.95804 
 1                    -13.78342   0.73906   1.79174 
 1                     14.06504  -2.27389  -0.43176 
 1                     12.58983  -2.01591  -1.40853 
 1                    -14.20031   2.77363   0.30714 
 1                    -13.78976   1.08407  -0.59534 
 1                     12.8129  -2.36283   1.48165 
 1                     11.51808  -3.34486   0.55678 
 1                    -11.73437   3.57167  -0.06132 
 1                    -12.70645   2.84085  -1.46128 
 1                     11.59832  -0.51685  -2.74345 
 1                     12.67463   1.01761  -2.76468 
 1                     10.80383   1.00726  -2.07459 
 1                     12.85151   2.08948   0.87186 
 1                     11.80145   2.71507  -0.55903 
 1                     13.67638   2.24229  -0.6334 
 1                    -13.58548  -0.80769  -0.4333 
 1                    -13.69268  -1.57188   0.99754 
 1                    -12.29389  -2.18105  -0.22503 
 1                    -10.65067   0.20704   2.54432 
 1                    -10.90074  -1.61932   2.25614 
 1                    -12.18758  -0.90349   3.02082 
 1                     10.01028   1.88717   0.51987 
 1                    -10.27077  -1.63619  -0.50357 
 1                     9.29552  -1.07753   2.1556 
 1                     10.20384  -2.52525   2.3868 
 1                     9.24228  -2.5699    1.18088 
 1                    -9.35847   1.14448  -2.22883 
 1                    -9.3566    2.88193  -1.66165 
 1                    -10.66604   2.35213  -2.66521 
 1                     8.41818  -0.54602   0.04759 
 1                    -8.3242    0.74351  -0.07634 
 1                     7.93886   2.99838   1.70426 
 1                     6.57423   3.48649   0.56072 
 1                     8.25702   3.36157   0.15394 
 1                    -8.60921  -2.7028   -1.54678 
 1                    -8.43187  -3.07778   0.35095 
 1                    -7.0187   -3.05635  -0.80428 
 1                     6.23132  -0.16751  -0.22741 
 1                    -6.01701   0.22777   0.32098 
 1                     4.92842   2.67506   0.65721 
 1                    -5.40633  -2.58319  -0.74927 
 1                     3.65173  -0.00889  -0.35218 
 1                    -3.76      0.01754  -0.07099 
 1                     2.57208   3.17401   1.39676 
 1                     1.15219   3.14655   0.27827 
 1                     2.53866   3.51377  -0.44025 
 1                    -3.19523  -3.53045  -1.51282 
 1                    -3.1869   -3.65762   0.28233 
 1                    -1.56485  -3.58224  -0.88419 
 1                     0.33041   0.86108   0.34374 
 1                    -1.33988  -0.02654  -0.22459 
 1                     2.14482  -1.58015   0.01621 
 1                     0.24439  -2.69569  -0.54093 
 
 Stoichiometry    C40H56
 Framework group  C1[X(C40H56)]
 Deg. of freedom   282
 Full point group                 C1      NOp   1
 Largest Abelian subgroup         C1      NOp   1
 Largest concise Abelian subgroup C1      NOp   1
                         Standard orientation:                         
 ---------------------------------------------------------------------
 Center     Atomic      Atomic             Coordinates (Angstroms)
 Number     Number       Type             X           Y           Z
 ---------------------------------------------------------------------
      1          6           0       12.181453    0.450580   -0.511697
      2          6           0      -12.056694   -0.081355    0.948980
      3          6           0       13.353151   -0.367619   -0.365997
      4          6           0      -12.939653    1.130000    1.299384
      5          6           0       13.168690   -1.848264   -0.538595
      6          6           0      -13.393667    1.906748    0.131870
      7          6           0       11.018259   -0.031043    0.206211
      8          6           0      -10.969633    0.398637   -0.137639
      9          6           0       12.070265   -2.323769    0.586160
     10          6           0      -12.166893    2.595576   -0.492942
     11          6           0       10.909763   -1.330623    0.805479
     12          6           0      -10.963621    1.598154   -0.726174
     13          6           0       11.868558    0.535614   -1.990961
     14          6           0       12.636183    1.911105   -0.192243
     15          6           0      -12.842266   -1.263443    0.287567
     16          6           0      -11.335644   -0.623839    2.301444
     17          6           0        9.809449    0.858175    0.394916
     18          6           0       -9.888152   -0.587273   -0.375250
     19          6           0        9.834441   -1.864644    1.718562
     20          6           0      -10.108750    2.063085   -1.818326
     21          6           0        8.555451    0.603003    0.222228
     22          6           0       -8.487471   -0.317911   -0.267952
     23          6           0        7.346919    1.456356    0.339642
     24          6           0       -7.440781   -1.241473   -0.406954
     25          6           0        7.611001    2.879702    0.831355
     26          6           0       -7.883139   -2.672755   -0.734475
     27          6           0        6.151475    0.901108    0.150541
     28          6           0       -6.181738   -0.867476   -0.211415
     29          6           0        4.899680    1.561974    0.336203
     30          6           0       -4.988218   -1.661023   -0.488724
     31          6           0        3.686144    0.909505    0.119070
     32          6           0       -3.731116   -1.050742   -0.326565
     33          6           0        2.306440    1.352180    0.080313
     34          6           0       -2.495083   -1.790088   -0.430459
     35          6           0        2.134270    2.865109    0.352638
     36          6           0       -2.584571   -3.287144   -0.632367
     37          6           0        1.225691    0.537107    0.271976
     38          6           0       -1.259995   -1.041455   -0.293473
     39          6           0        1.175236   -0.884176   -0.051727
     40          6           0        0.104862   -1.654644   -0.353995
     41          1           0       13.884800   -0.083607    0.656200
     42          1           0       14.250045   -0.183548   -1.188441
     43          1           0      -12.353557    1.664389    1.963041
     44          1           0      -13.781387    0.736257    1.789916
     45          1           0       14.066821   -2.275956   -0.437680
     46          1           0       12.592289   -2.010911   -1.413572
     47          1           0      -14.196458    2.780622    0.318328
     48          1           0      -13.786234    1.096750   -0.594877
     49          1           0       12.813580   -2.376695    1.474416
     50          1           0       11.518789   -3.352061    0.542478
     51          1           0      -11.729922    3.579823   -0.043582
     52          1           0      -12.701575    2.858577   -1.448794
     53          1           0       11.602256   -0.502739   -2.739288
     54          1           0       12.679331    1.031296   -2.749964
     55          1           0       10.808136    1.017399   -2.060985
     56          1           0       12.854705    2.079454    0.893561
     57          1           0       11.805750    2.714842   -0.533823
     58          1           0       13.680490    2.241631   -0.610219
     59          1           0      -13.582966   -0.796126   -0.445001
     60          1           0      -13.691341   -1.569531    0.980785
     61          1           0      -12.292165   -2.171438   -0.244934
     62          1           0      -10.649316    0.197808    2.540768
     63          1           0      -10.900120   -1.626517    2.240598
     64          1           0      -12.187040   -0.915032    3.009197
     65          1           0       10.013581    1.880844    0.538688
     66          1           0      -10.268628   -1.625783   -0.518811
     67          1           0        9.296456   -1.094055    2.154747
     68          1           0       10.203935   -2.543697    2.377049
     69          1           0        9.243019   -2.580042    1.170331
     70          1           0       -9.354006    1.165569   -2.225481
     71          1           0       -9.351598    2.899306   -1.647036
     72          1           0      -10.660735    2.376675   -2.654738
     73          1           0        8.420544   -0.548442    0.049745
     74          1           0       -8.321124    0.750129   -0.075073
     75          1           0        7.942040    2.985368    1.729121
     76          1           0        6.578288    3.481555    0.588017
     77          1           0        8.261243    3.358455    0.181369
     78          1           0       -8.607012   -2.686420   -1.568007
     79          1           0       -8.430914   -3.073799    0.327350
     80          1           0       -7.017083   -3.045568   -0.826936
     81          1           0        6.234029   -0.167081   -0.224005
     82          1           0       -6.014416    0.230688    0.320171
     83          1           0        4.932024    2.670329    0.678328
     84          1           0       -5.404516   -2.573575   -0.767962
     85          1           0        3.654579   -0.006374   -0.349160
     86          1           0       -3.757292    0.021885   -0.071908
     87          1           0        2.575519    3.165634    1.419797
     88          1           0        1.156243    3.146133    0.300367
     89          1           0        2.543291    3.517330   -0.414983
     90          1           0       -3.193457   -3.516951   -1.536420
     91          1           0       -3.186187   -3.655769    0.257871
     92          1           0       -1.563449   -3.573622   -0.907242
     93          1           0        0.333299    0.860699    0.350545
     94          1           0       -1.337100   -0.022396   -0.224453
     95          1           0        2.146701   -1.579249    0.008188
     96          1           0        0.246037   -2.690218   -0.557239
 ---------------------------------------------------------------------
 Rotational constants (GHZ):           0.2746730           0.0111070           0.0108547
 Standard basis: 6-31G(d,p) (6D, 7F)
 There are   880 symmetry adapted cartesian basis functions of A   symmetry.
 There are   880 symmetry adapted basis functions of A   symmetry.
   880 basis functions,  1512 primitive gaussians,   880 cartesian basis functions
   148 alpha electrons      148 beta electrons
       nuclear repulsion energy      3674.9035397399 Hartrees.
 NAtoms=   96 NActive=   96 NUniq=   96 SFac= 1.00D+00 NAtFMM=   60 NAOKFM=T Big=T
 Integral buffers will be    131072 words long.
 Regular integral format.
 Two-electron integral symmetry is turned on.
 One-electron integrals computed using PRISM.
 NBasis=   880 RedAO= T EigKep=  9.74D-04  NBF=   880
 NBsUse=   880 1.00D-06 EigRej= -1.00D+00 NBFU=   880
 ExpMin= 1.61D-01 ExpMax= 3.05D+03 ExpMxC= 4.57D+02 IAcc=3 IRadAn=         5 AccDes= 0.00D+00
 Harris functional with IExCor=  402 and IRadAn=       5 diagonalized for initial guess.
 HarFok:  IExCor=  402 AccDes= 0.00D+00 IRadAn=         5 IDoV= 1 UseB2=F ITyADJ=14
 ICtDFT=  3500011 ScaDFX=  1.000000  1.000000  1.000000  1.000000
 FoFCou: FMM=F IPFlag=           0 FMFlag=      100000 FMFlg1=        2001
         NFxFlg=           0 DoJE=T BraDBF=F KetDBF=T FulRan=T
         wScrn=  0.000000 ICntrl=       500 IOpCl=  0 I1Cent=   200000004 NGrid=           0
         NMat0=    1 NMatS0=      1 NMatT0=    0 NMatD0=    1 NMtDS0=    0 NMtDT0=    0
 Petite list used in FoFCou.
 Requested convergence on RMS density matrix=1.00D-08 within 128 cycles.
 Requested convergence on MAX density matrix=1.00D-06.
 Requested convergence on             energy=1.00D-06.
 No special actions if energy rises.
 Integral accuracy reduced to 1.0D-05 until final iterations.
 Initial convergence to 1.0D-05 achieved.  Increase integral accuracy.
 SCF Done:  E(RB3LYP) =  -1557.52782207     A.U. after   15 cycles
            NFock= 15  Conv=0.67D-08     -V/T= 2.0107
 DoSCS=F DFT=T ScalE2(SS,OS)=  1.000000  1.000000
 ExpMin= 1.61D-01 ExpMax= 3.05D+03 ExpMxC= 4.57D+02 IAcc=3 IRadAn=         5 AccDes= 0.00D+00
 HarFok:  IExCor=  205 AccDes= 0.00D+00 IRadAn=         5 IDoV=-2 UseB2=F ITyADJ=14
 ICtDFT= 12500011 ScaDFX=  1.000000  1.000000  1.000000  1.000000
 GSVD:  LWork=       -1920 too small for GESVD, short by        8600 words or        8600 for optimal perf.
 Range of M.O.s used for correlation:    41   880
 NBasis=   880 NAE=   148 NBE=   148 NFC=    40 NFV=     0
 NROrb=    840 NOA=   108 NOB=   108 NVA=   732 NVB=   732

 **** Warning!!: The smallest alpha delta epsilon is  0.86686006D-01

 Orbital symmetries:
       Occupied  (A) (A) (A) (A) (A) (A) (A) (A) (A) (A) (A) (A)
                 (A) (A) (A) (A) (A) (A) (A) (A) (A) (A) (A) (A)
                 (A) (A) (A) (A) (A) (A) (A) (A) (A) (A) (A) (A)
                 (A) (A) (A) (A) (A) (A) (A) (A) (A) (A) (A) (A)
                 (A) (A) (A) (A) (A) (A) (A) (A) (A) (A) (A) (A)
                 (A) (A) (A) (A) (A) (A) (A) (A) (A) (A) (A) (A)
                 (A) (A) (A) (A) (A) (A) (A) (A) (A) (A) (A) (A)
                 (A) (A) (A) (A) (A) (A) (A) (A) (A) (A) (A) (A)
                 (A) (A) (A) (A) (A) (A) (A) (A) (A) (A) (A) (A)
                 (A) (A) (A) (A) (A) (A) (A) (A) (A) (A) (A) (A)
                 (A) (A) (A) (A) (A) (A) (A) (A) (A) (A) (A) (A)
                 (A) (A) (A) (A) (A) (A) (A) (A) (A) (A) (A) (A)
                 (A) (A) (A) (A)
       Virtual   (A) (A) (A) (A) (A) (A) (A) (A) (A) (A) (A) (A)
                 (A) (A) (A) (A) (A) (A) (A) (A) (A) (A) (A) (A)
                 (A) (A) (A) (A) (A) (A) (A) (A) (A) (A) (A) (A)
                 (A) (A) (A) (A) (A) (A) (A) (A) (A) (A) (A) (A)
                 (A) (A) (A) (A) (A) (A) (A) (A) (A) (A) (A) (A)
                 (A) (A) (A) (A) (A) (A) (A) (A) (A) (A) (A) (A)
                 (A) (A) (A) (A) (A) (A) (A) (A) (A) (A) (A) (A)
                 (A) (A) (A) (A) (A) (A) (A) (A) (A) (A) (A) (A)
                 (A) (A) (A) (A) (A) (A) (A) (A) (A) (A) (A) (A)
                 (A) (A) (A) (A) (A) (A) (A) (A) (A) (A) (A) (A)
                 (A) (A) (A) (A) (A) (A) (A) (A) (A) (A) (A) (A)
                 (A) (A) (A) (A) (A) (A) (A) (A) (A) (A) (A) (A)
                 (A) (A) (A) (A) (A) (A) (A) (A) (A) (A) (A) (A)
                 (A) (A) (A) (A) (A) (A) (A) (A) (A) (A) (A) (A)
                 (A) (A) (A) (A) (A) (A) (A) (A) (A) (A) (A) (A)
                 (A) (A) (A) (A) (A) (A) (A) (A) (A) (A) (A) (A)
                 (A) (A) (A) (A) (A) (A) (A) (A) (A) (A) (A) (A)
                 (A) (A) (A) (A) (A) (A) (A) (A) (A) (A) (A) (A)
                 (A) (A) (A) (A) (A) (A) (A) (A) (A) (A) (A) (A)
                 (A) (A) (A) (A) (A) (A) (A) (A) (A) (A) (A) (A)
                 (A) (A) (A) (A) (A) (A) (A) (A) (A) (A) (A) (A)
                 (A) (A) (A) (A) (A) (A) (A) (A) (A) (A) (A) (A)
                 (A) (A) (A) (A) (A) (A) (A) (A) (A) (A) (A) (A)
                 (A) (A) (A) (A) (A) (A) (A) (A) (A) (A) (A) (A)
                 (A) (A) (A) (A) (A) (A) (A) (A) (A) (A) (A) (A)
                 (A) (A) (A) (A) (A) (A) (A) (A) (A) (A) (A) (A)
                 (A) (A) (A) (A) (A) (A) (A) (A) (A) (A) (A) (A)
                 (A) (A) (A) (A) (A) (A) (A) (A) (A) (A) (A) (A)
                 (A) (A) (A) (A) (A) (A) (A) (A) (A) (A) (A) (A)
                 (A) (A) (A) (A) (A) (A) (A) (A) (A) (A) (A) (A)
                 (A) (A) (A) (A) (A) (A) (A) (A) (A) (A) (A) (A)
                 (A) (A) (A) (A) (A) (A) (A) (A) (A) (A) (A) (A)
                 (A) (A) (A) (A) (A) (A) (A) (A) (A) (A) (A) (A)
                 (A) (A) (A) (A) (A) (A) (A) (A) (A) (A) (A) (A)
                 (A) (A) (A) (A) (A) (A) (A) (A) (A) (A) (A) (A)
                 (A) (A) (A) (A) (A) (A) (A) (A) (A) (A) (A) (A)
                 (A) (A) (A) (A) (A) (A) (A) (A) (A) (A) (A) (A)
                 (A) (A) (A) (A) (A) (A) (A) (A) (A) (A) (A) (A)
                 (A) (A) (A) (A) (A) (A) (A) (A) (A) (A) (A) (A)
                 (A) (A) (A) (A) (A) (A) (A) (A) (A) (A) (A) (A)
                 (A) (A) (A) (A) (A) (A) (A) (A) (A) (A) (A) (A)
                 (A) (A) (A) (A) (A) (A) (A) (A) (A) (A) (A) (A)
                 (A) (A) (A) (A) (A) (A) (A) (A) (A) (A) (A) (A)
                 (A) (A) (A) (A) (A) (A) (A) (A) (A) (A) (A) (A)
                 (A) (A) (A) (A) (A) (A) (A) (A) (A) (A) (A) (A)
                 (A) (A) (A) (A) (A) (A) (A) (A) (A) (A) (A) (A)
                 (A) (A) (A) (A) (A) (A) (A) (A) (A) (A) (A) (A)
                 (A) (A) (A) (A) (A) (A) (A) (A) (A) (A) (A) (A)
                 (A) (A) (A) (A) (A) (A) (A) (A) (A) (A) (A) (A)
                 (A) (A) (A) (A) (A) (A) (A) (A) (A) (A) (A) (A)
                 (A) (A) (A) (A) (A) (A) (A) (A) (A) (A) (A) (A)
                 (A) (A) (A) (A) (A) (A) (A) (A) (A) (A) (A) (A)
                 (A) (A) (A) (A) (A) (A) (A) (A) (A) (A) (A) (A)
                 (A) (A) (A) (A) (A) (A) (A) (A) (A) (A) (A) (A)
                 (A) (A) (A) (A) (A) (A) (A) (A) (A) (A) (A) (A)
                 (A) (A) (A) (A) (A) (A) (A) (A) (A) (A) (A) (A)
                 (A) (A) (A) (A) (A) (A) (A) (A) (A) (A) (A) (A)
                 (A) (A) (A) (A) (A) (A) (A) (A) (A) (A) (A) (A)
                 (A) (A) (A) (A) (A) (A) (A) (A) (A) (A) (A) (A)
                 (A) (A) (A) (A) (A) (A) (A) (A) (A) (A) (A) (A)
                 (A) (A) (A) (A) (A) (A) (A) (A) (A) (A) (A) (A)
     4 initial guesses have been made.
 Convergence on wavefunction:    0.001000000000000
 Iteration     1 Dimension     4 NMult     0 NNew      4
 CISAX will form     4 AO SS matrices at one time.
 Iteration     2 Dimension     6 NMult     4 NNew      2
 Iteration     3 Dimension     8 NMult     6 NNew      2
 Iteration     4 Dimension    10 NMult     8 NNew      2
 Iteration     5 Dimension    12 NMult    10 NNew      2
 Iteration     6 Dimension    14 NMult    12 NNew      2
 ***********************************************************************
 Excited states from <AA,BB:AA,BB> singles matrix:
 ***********************************************************************
 
 Ground to excited state transition densities written to RWF  633
 Ground to excited state transition electric dipole moments (Au):
       state          X           Y           Z        Dip. S.      Osc.
         1         6.9283      0.5372      0.2947     48.3770      2.6633
 Ground to excited state transition velocity dipole moments (Au):
       state          X           Y           Z        Dip. S.      Osc.
         1        -0.5549     -0.0434     -0.0233      0.3103      2.5051
 Ground to excited state transition magnetic dipole moments (Au):
       state          X           Y           Z
         1         0.0415      0.2416     -0.8201
 Ground to excited state transition velocity quadrupole moments (Au):
       state          XX          YY          ZZ          XY          XZ          YZ
         1         1.2278      0.0095      0.0201     -0.1731     -0.0014     -0.0123
 <0|del|b> * <b|rxdel|0> + <0|del|b> * <b|delr+rdel|0>
 Rotatory Strengths (R) in cgs (10**-40 erg-esu-cm/Gauss)
       state          XX          YY          ZZ    R(velocity)    E-M Angle
         1        54.1179     -4.5811   -172.4418    -40.9683       91.72
 1/2[<0|r|b>*<b|rxdel|0> + (<0|rxdel|b>*<b|r|0>)*]
 Rotatory Strengths (R) in cgs (10**-40 erg-esu-cm/Gauss)
       state          XX          YY          ZZ     R(length)
         1      -203.1943    -91.7825    170.9207    -41.3520
  1/2[<0|del|b>*<b|r|0> + (<0|r|b>*<b|del|0>)*] (Au)
       state          X           Y           Z        Dip. S.   Osc.(frdel)
         1        -3.8443     -0.0233     -0.0069      3.8745      2.5830

 Excitation energies and oscillator strengths:
 
 Excited State   1:      Singlet-A      2.2471 eV  551.76 nm  f=2.6633  <S**2>=0.000
     148 ->149         0.70107
 This state for optimization and/or second-order correction.
 Total Energy, E(TD-HF/TD-DFT) =  -1557.44524327    
 Copying the excited state density for this state as the 1-particle RhoCI density.
 SavETr:  write IOETrn=   770 NScale= 10 NData=  16 NLR=1 NState=    1 LETran=      28.

 **********************************************************************

            Population analysis using the SCF density.

 **********************************************************************

 Orbital symmetries:
       Occupied  (A) (A) (A) (A) (A) (A) (A) (A) (A) (A) (A) (A)
                 (A) (A) (A) (A) (A) (A) (A) (A) (A) (A) (A) (A)
                 (A) (A) (A) (A) (A) (A) (A) (A) (A) (A) (A) (A)
                 (A) (A) (A) (A) (A) (A) (A) (A) (A) (A) (A) (A)
                 (A) (A) (A) (A) (A) (A) (A) (A) (A) (A) (A) (A)
                 (A) (A) (A) (A) (A) (A) (A) (A) (A) (A) (A) (A)
                 (A) (A) (A) (A) (A) (A) (A) (A) (A) (A) (A) (A)
                 (A) (A) (A) (A) (A) (A) (A) (A) (A) (A) (A) (A)
                 (A) (A) (A) (A) (A) (A) (A) (A) (A) (A) (A) (A)
                 (A) (A) (A) (A) (A) (A) (A) (A) (A) (A) (A) (A)
                 (A) (A) (A) (A) (A) (A) (A) (A) (A) (A) (A) (A)
                 (A) (A) (A) (A) (A) (A) (A) (A) (A) (A) (A) (A)
                 (A) (A) (A) (A)
       Virtual   (A) (A) (A) (A) (A) (A) (A) (A) (A) (A) (A) (A)
                 (A) (A) (A) (A) (A) (A) (A) (A) (A) (A) (A) (A)
                 (A) (A) (A) (A) (A) (A) (A) (A) (A) (A) (A) (A)
                 (A) (A) (A) (A) (A) (A) (A) (A) (A) (A) (A) (A)
                 (A) (A) (A) (A) (A) (A) (A) (A) (A) (A) (A) (A)
                 (A) (A) (A) (A) (A) (A) (A) (A) (A) (A) (A) (A)
                 (A) (A) (A) (A) (A) (A) (A) (A) (A) (A) (A) (A)
                 (A) (A) (A) (A) (A) (A) (A) (A) (A) (A) (A) (A)
                 (A) (A) (A) (A) (A) (A) (A) (A) (A) (A) (A) (A)
                 (A) (A) (A) (A) (A) (A) (A) (A) (A) (A) (A) (A)
                 (A) (A) (A) (A) (A) (A) (A) (A) (A) (A) (A) (A)
                 (A) (A) (A) (A) (A) (A) (A) (A) (A) (A) (A) (A)
                 (A) (A) (A) (A) (A) (A) (A) (A) (A) (A) (A) (A)
                 (A) (A) (A) (A) (A) (A) (A) (A) (A) (A) (A) (A)
                 (A) (A) (A) (A) (A) (A) (A) (A) (A) (A) (A) (A)
                 (A) (A) (A) (A) (A) (A) (A) (A) (A) (A) (A) (A)
                 (A) (A) (A) (A) (A) (A) (A) (A) (A) (A) (A) (A)
                 (A) (A) (A) (A) (A) (A) (A) (A) (A) (A) (A) (A)
                 (A) (A) (A) (A) (A) (A) (A) (A) (A) (A) (A) (A)
                 (A) (A) (A) (A) (A) (A) (A) (A) (A) (A) (A) (A)
                 (A) (A) (A) (A) (A) (A) (A) (A) (A) (A) (A) (A)
                 (A) (A) (A) (A) (A) (A) (A) (A) (A) (A) (A) (A)
                 (A) (A) (A) (A) (A) (A) (A) (A) (A) (A) (A) (A)
                 (A) (A) (A) (A) (A) (A) (A) (A) (A) (A) (A) (A)
                 (A) (A) (A) (A) (A) (A) (A) (A) (A) (A) (A) (A)
                 (A) (A) (A) (A) (A) (A) (A) (A) (A) (A) (A) (A)
                 (A) (A) (A) (A) (A) (A) (A) (A) (A) (A) (A) (A)
                 (A) (A) (A) (A) (A) (A) (A) (A) (A) (A) (A) (A)
                 (A) (A) (A) (A) (A) (A) (A) (A) (A) (A) (A) (A)
                 (A) (A) (A) (A) (A) (A) (A) (A) (A) (A) (A) (A)
                 (A) (A) (A) (A) (A) (A) (A) (A) (A) (A) (A) (A)
                 (A) (A) (A) (A) (A) (A) (A) (A) (A) (A) (A) (A)
                 (A) (A) (A) (A) (A) (A) (A) (A) (A) (A) (A) (A)
                 (A) (A) (A) (A) (A) (A) (A) (A) (A) (A) (A) (A)
                 (A) (A) (A) (A) (A) (A) (A) (A) (A) (A) (A) (A)
                 (A) (A) (A) (A) (A) (A) (A) (A) (A) (A) (A) (A)
                 (A) (A) (A) (A) (A) (A) (A) (A) (A) (A) (A) (A)
                 (A) (A) (A) (A) (A) (A) (A) (A) (A) (A) (A) (A)
                 (A) (A) (A) (A) (A) (A) (A) (A) (A) (A) (A) (A)
                 (A) (A) (A) (A) (A) (A) (A) (A) (A) (A) (A) (A)
                 (A) (A) (A) (A) (A) (A) (A) (A) (A) (A) (A) (A)
                 (A) (A) (A) (A) (A) (A) (A) (A) (A) (A) (A) (A)
                 (A) (A) (A) (A) (A) (A) (A) (A) (A) (A) (A) (A)
                 (A) (A) (A) (A) (A) (A) (A) (A) (A) (A) (A) (A)
                 (A) (A) (A) (A) (A) (A) (A) (A) (A) (A) (A) (A)
                 (A) (A) (A) (A) (A) (A) (A) (A) (A) (A) (A) (A)
                 (A) (A) (A) (A) (A) (A) (A) (A) (A) (A) (A) (A)
                 (A) (A) (A) (A) (A) (A) (A) (A) (A) (A) (A) (A)
                 (A) (A) (A) (A) (A) (A) (A) (A) (A) (A) (A) (A)
                 (A) (A) (A) (A) (A) (A) (A) (A) (A) (A) (A) (A)
                 (A) (A) (A) (A) (A) (A) (A) (A) (A) (A) (A) (A)
                 (A) (A) (A) (A) (A) (A) (A) (A) (A) (A) (A) (A)
                 (A) (A) (A) (A) (A) (A) (A) (A) (A) (A) (A) (A)
                 (A) (A) (A) (A) (A) (A) (A) (A) (A) (A) (A) (A)
                 (A) (A) (A) (A) (A) (A) (A) (A) (A) (A) (A) (A)
                 (A) (A) (A) (A) (A) (A) (A) (A) (A) (A) (A) (A)
                 (A) (A) (A) (A) (A) (A) (A) (A) (A) (A) (A) (A)
                 (A) (A) (A) (A) (A) (A) (A) (A) (A) (A) (A) (A)
                 (A) (A) (A) (A) (A) (A) (A) (A) (A) (A) (A) (A)
                 (A) (A) (A) (A) (A) (A) (A) (A) (A) (A) (A) (A)
                 (A) (A) (A) (A) (A) (A) (A) (A) (A) (A) (A) (A)
 The electronic state is 1-A.
 Alpha  occ. eigenvalues --  -10.21000 -10.20525 -10.20376 -10.20314 -10.20266
 Alpha  occ. eigenvalues --  -10.20167 -10.20003 -10.19891 -10.19708 -10.19703
 Alpha  occ. eigenvalues --  -10.19647 -10.19552 -10.19468 -10.19353 -10.19264
 Alpha  occ. eigenvalues --  -10.19202 -10.19155 -10.19137 -10.19132 -10.19071
 Alpha  occ. eigenvalues --  -10.19007 -10.18981 -10.18804 -10.18783 -10.18743
 Alpha  occ. eigenvalues --  -10.18635 -10.18615 -10.18428 -10.18339 -10.18272
 Alpha  occ. eigenvalues --  -10.18233 -10.18123 -10.18113 -10.17927 -10.17864
 Alpha  occ. eigenvalues --  -10.17737 -10.17370 -10.17039 -10.16716 -10.16234
 Alpha  occ. eigenvalues --   -0.86078  -0.84359  -0.83471  -0.83276  -0.82453
 Alpha  occ. eigenvalues --   -0.81124  -0.79086  -0.78368  -0.77908  -0.77230
 Alpha  occ. eigenvalues --   -0.76423  -0.75023  -0.74169  -0.72893  -0.71334
 Alpha  occ. eigenvalues --   -0.69848  -0.69411  -0.68757  -0.68712  -0.67706
 Alpha  occ. eigenvalues --   -0.67253  -0.66700  -0.66128  -0.66088  -0.65365
 Alpha  occ. eigenvalues --   -0.63392  -0.62260  -0.60312  -0.58380  -0.56637
 Alpha  occ. eigenvalues --   -0.56535  -0.56042  -0.54876  -0.54007  -0.53356
 Alpha  occ. eigenvalues --   -0.52146  -0.51049  -0.50579  -0.49650  -0.49088
 Alpha  occ. eigenvalues --   -0.47912  -0.47533  -0.47221  -0.46627  -0.46079
 Alpha  occ. eigenvalues --   -0.45986  -0.45447  -0.44895  -0.44361  -0.44137
 Alpha  occ. eigenvalues --   -0.43809  -0.43284  -0.43170  -0.42804  -0.42329
 Alpha  occ. eigenvalues --   -0.42158  -0.41992  -0.41652  -0.41409  -0.40842
 Alpha  occ. eigenvalues --   -0.40615  -0.40281  -0.40254  -0.39925  -0.39558
 Alpha  occ. eigenvalues --   -0.39481  -0.39144  -0.39012  -0.38484  -0.38269
 Alpha  occ. eigenvalues --   -0.37750  -0.37569  -0.37193  -0.36905  -0.36710
 Alpha  occ. eigenvalues --   -0.36412  -0.36046  -0.35546  -0.35301  -0.35103
 Alpha  occ. eigenvalues --   -0.35023  -0.34676  -0.34315  -0.34005  -0.33593
 Alpha  occ. eigenvalues --   -0.33505  -0.32915  -0.32499  -0.32343  -0.32221
 Alpha  occ. eigenvalues --   -0.31967  -0.31872  -0.31253  -0.30918  -0.30479
 Alpha  occ. eigenvalues --   -0.30256  -0.29651  -0.29477  -0.28658  -0.28365
 Alpha  occ. eigenvalues --   -0.27877  -0.27109  -0.25931  -0.24296  -0.22564
 Alpha  occ. eigenvalues --   -0.21068  -0.18853  -0.16623
 Alpha virt. eigenvalues --   -0.07955  -0.05242  -0.01607   0.00079   0.02381
 Alpha virt. eigenvalues --    0.03906   0.05967   0.06810   0.07153   0.07308
 Alpha virt. eigenvalues --    0.07609   0.07943   0.08562   0.08938   0.09020
 Alpha virt. eigenvalues --    0.09603   0.09796   0.10170   0.10389   0.10589
 Alpha virt. eigenvalues --    0.10932   0.11048   0.11091   0.11385   0.11676
 Alpha virt. eigenvalues --    0.11906   0.12066   0.12483   0.12644   0.13012
 Alpha virt. eigenvalues --    0.13124   0.13474   0.13545   0.13679   0.14538
 Alpha virt. eigenvalues --    0.15093   0.15212   0.15620   0.15917   0.16211
 Alpha virt. eigenvalues --    0.16464   0.16554   0.16884   0.17061   0.17194
 Alpha virt. eigenvalues --    0.17317   0.17322   0.17610   0.17838   0.18201
 Alpha virt. eigenvalues --    0.18308   0.18672   0.19012   0.19347   0.19532
 Alpha virt. eigenvalues --    0.19589   0.20099   0.20318   0.20452   0.20552
 Alpha virt. eigenvalues --    0.20964   0.21232   0.21430   0.21692   0.21857
 Alpha virt. eigenvalues --    0.22168   0.22365   0.22614   0.22684   0.22975
 Alpha virt. eigenvalues --    0.23597   0.23665   0.24682   0.24765   0.25411
 Alpha virt. eigenvalues --    0.25599   0.26122   0.26494   0.26611   0.26966
 Alpha virt. eigenvalues --    0.27482   0.28486   0.28907   0.29182   0.30388
 Alpha virt. eigenvalues --    0.30529   0.30891   0.31327   0.31937   0.33483
 Alpha virt. eigenvalues --    0.34234   0.34693   0.35553   0.36105   0.36988
 Alpha virt. eigenvalues --    0.37233   0.39362   0.39446   0.40087   0.40690
 Alpha virt. eigenvalues --    0.41427   0.42143   0.43756   0.44847   0.46088
 Alpha virt. eigenvalues --    0.46610   0.47602   0.47726   0.48831   0.49640
 Alpha virt. eigenvalues --    0.50602   0.51017   0.51272   0.51674   0.51926
 Alpha virt. eigenvalues --    0.51985   0.52471   0.52795   0.53067   0.53311
 Alpha virt. eigenvalues --    0.53511   0.53631   0.54067   0.54331   0.54824
 Alpha virt. eigenvalues --    0.54961   0.55307   0.55553   0.55647   0.56028
 Alpha virt. eigenvalues --    0.56503   0.56812   0.57572   0.57793   0.57854
 Alpha virt. eigenvalues --    0.57947   0.58199   0.58829   0.59042   0.59234
 Alpha virt. eigenvalues --    0.59365   0.59960   0.60605   0.60678   0.61288
 Alpha virt. eigenvalues --    0.61621   0.61983   0.62068   0.62274   0.62360
 Alpha virt. eigenvalues --    0.62885   0.63320   0.63519   0.63751   0.63833
 Alpha virt. eigenvalues --    0.64510   0.64613   0.64851   0.65463   0.65619
 Alpha virt. eigenvalues --    0.65838   0.66438   0.66887   0.67364   0.67826
 Alpha virt. eigenvalues --    0.67928   0.68461   0.68797   0.69214   0.69620
 Alpha virt. eigenvalues --    0.69868   0.70291   0.70798   0.71252   0.71441
 Alpha virt. eigenvalues --    0.72071   0.72552   0.72635   0.73361   0.73387
 Alpha virt. eigenvalues --    0.73794   0.74078   0.74336   0.74988   0.75149
 Alpha virt. eigenvalues --    0.75396   0.75687   0.76314   0.76715   0.77077
 Alpha virt. eigenvalues --    0.77325   0.77487   0.78079   0.78224   0.78255
 Alpha virt. eigenvalues --    0.78527   0.78596   0.79456   0.80072   0.80218
 Alpha virt. eigenvalues --    0.80347   0.80820   0.81239   0.81256   0.82260
 Alpha virt. eigenvalues --    0.83183   0.83239   0.83282   0.83321   0.83609
 Alpha virt. eigenvalues --    0.84268   0.84381   0.84680   0.85022   0.85197
 Alpha virt. eigenvalues --    0.85302   0.85633   0.85739   0.86056   0.86364
 Alpha virt. eigenvalues --    0.87176   0.87403   0.87820   0.87893   0.88363
 Alpha virt. eigenvalues --    0.88655   0.88680   0.88971   0.89217   0.89532
 Alpha virt. eigenvalues --    0.89758   0.90556   0.90745   0.91246   0.91450
 Alpha virt. eigenvalues --    0.91875   0.91937   0.92419   0.92531   0.92936
 Alpha virt. eigenvalues --    0.93447   0.93569   0.93783   0.93906   0.93961
 Alpha virt. eigenvalues --    0.94461   0.94763   0.95050   0.96263   0.96560
 Alpha virt. eigenvalues --    0.96595   0.96916   0.97112   0.97465   0.97588
 Alpha virt. eigenvalues --    0.98797   0.99015   0.99614   0.99944   1.00012
 Alpha virt. eigenvalues --    1.00660   1.00873   1.01667   1.02036   1.03084
 Alpha virt. eigenvalues --    1.04087   1.04415   1.04877   1.05364   1.05808
 Alpha virt. eigenvalues --    1.06085   1.07309   1.07613   1.07747   1.08145
 Alpha virt. eigenvalues --    1.09000   1.09215   1.09877   1.10028   1.12468
 Alpha virt. eigenvalues --    1.12648   1.12779   1.13141   1.14197   1.15102
 Alpha virt. eigenvalues --    1.15630   1.16558   1.17409   1.17932   1.18666
 Alpha virt. eigenvalues --    1.19184   1.20986   1.21849   1.22612   1.24035
 Alpha virt. eigenvalues --    1.25171   1.25915   1.27342   1.27720   1.28265
 Alpha virt. eigenvalues --    1.29453   1.29650   1.31120   1.31308   1.31522
 Alpha virt. eigenvalues --    1.31693   1.32082   1.32291   1.33131   1.34268
 Alpha virt. eigenvalues --    1.35236   1.35438   1.36573   1.37083   1.37497
 Alpha virt. eigenvalues --    1.38456   1.39081   1.40008   1.40331   1.40772
 Alpha virt. eigenvalues --    1.41160   1.42037   1.42817   1.43546   1.44197
 Alpha virt. eigenvalues --    1.46110   1.46336   1.46776   1.47548   1.48671
 Alpha virt. eigenvalues --    1.48843   1.49428   1.50235   1.50749   1.51041
 Alpha virt. eigenvalues --    1.52443   1.52984   1.53955   1.54536   1.54616
 Alpha virt. eigenvalues --    1.55799   1.56036   1.56799   1.57407   1.57668
 Alpha virt. eigenvalues --    1.57933   1.60392   1.60467   1.63737   1.64112
 Alpha virt. eigenvalues --    1.64449   1.65145   1.67836   1.67999   1.69291
 Alpha virt. eigenvalues --    1.69901   1.71835   1.71957   1.72748   1.73249
 Alpha virt. eigenvalues --    1.73636   1.73928   1.74587   1.74629   1.75659
 Alpha virt. eigenvalues --    1.75788   1.76090   1.77074   1.77175   1.78078
 Alpha virt. eigenvalues --    1.78184   1.78494   1.79080   1.79462   1.79633
 Alpha virt. eigenvalues --    1.80012   1.80317   1.80668   1.81217   1.81414
 Alpha virt. eigenvalues --    1.81803   1.82074   1.82943   1.83996   1.84423
 Alpha virt. eigenvalues --    1.84620   1.85026   1.85402   1.85676   1.86078
 Alpha virt. eigenvalues --    1.86378   1.87062   1.87175   1.87344   1.87965
 Alpha virt. eigenvalues --    1.88196   1.88561   1.88950   1.89283   1.89849
 Alpha virt. eigenvalues --    1.90550   1.91269   1.91369   1.92351   1.92488
 Alpha virt. eigenvalues --    1.93058   1.93315   1.93630   1.94454   1.94654
 Alpha virt. eigenvalues --    1.95063   1.95556   1.95990   1.96048   1.96508
 Alpha virt. eigenvalues --    1.96908   1.97056   1.97566   1.98454   1.99570
 Alpha virt. eigenvalues --    1.99789   1.99828   2.00364   2.00758   2.00844
 Alpha virt. eigenvalues --    2.01312   2.01701   2.01961   2.02147   2.02651
 Alpha virt. eigenvalues --    2.03038   2.03695   2.04105   2.04861   2.05134
 Alpha virt. eigenvalues --    2.05158   2.05374   2.05612   2.05992   2.06739
 Alpha virt. eigenvalues --    2.06915   2.07191   2.07294   2.08134   2.08625
 Alpha virt. eigenvalues --    2.09241   2.09860   2.10040   2.10542   2.11231
 Alpha virt. eigenvalues --    2.11718   2.12487   2.12979   2.13385   2.13818
 Alpha virt. eigenvalues --    2.14293   2.14606   2.15255   2.15355   2.15905
 Alpha virt. eigenvalues --    2.16183   2.16741   2.17488   2.17943   2.19294
 Alpha virt. eigenvalues --    2.19435   2.19947   2.20590   2.20838   2.21437
 Alpha virt. eigenvalues --    2.22113   2.22318   2.22518   2.22879   2.23271
 Alpha virt. eigenvalues --    2.23726   2.24170   2.24388   2.25013   2.25186
 Alpha virt. eigenvalues --    2.25378   2.26030   2.26831   2.27524   2.27914
 Alpha virt. eigenvalues --    2.28590   2.29099   2.29313   2.29649   2.30416
 Alpha virt. eigenvalues --    2.31340   2.32143   2.32306   2.32822   2.33033
 Alpha virt. eigenvalues --    2.33580   2.34160   2.34516   2.34726   2.34996
 Alpha virt. eigenvalues --    2.35622   2.35762   2.36458   2.36772   2.37474
 Alpha virt. eigenvalues --    2.38546   2.38869   2.39065   2.39708   2.39790
 Alpha virt. eigenvalues --    2.40987   2.41479   2.41987   2.42446   2.42590
 Alpha virt. eigenvalues --    2.43096   2.43629   2.44057   2.44782   2.44952
 Alpha virt. eigenvalues --    2.45582   2.46162   2.46590   2.47421   2.48322
 Alpha virt. eigenvalues --    2.49296   2.49584   2.49653   2.50548   2.51081
 Alpha virt. eigenvalues --    2.51365   2.52409   2.52608   2.52977   2.53381
 Alpha virt. eigenvalues --    2.54036   2.54417   2.54895   2.54919   2.55172
 Alpha virt. eigenvalues --    2.55550   2.56254   2.56987   2.57543   2.57882
 Alpha virt. eigenvalues --    2.58659   2.59062   2.59185   2.59587   2.60198
 Alpha virt. eigenvalues --    2.60462   2.60672   2.61152   2.61188   2.61812
 Alpha virt. eigenvalues --    2.62176   2.62533   2.62786   2.63300   2.64438
 Alpha virt. eigenvalues --    2.64641   2.64731   2.64835   2.65488   2.66156
 Alpha virt. eigenvalues --    2.66468   2.66811   2.67522   2.67826   2.68091
 Alpha virt. eigenvalues --    2.68867   2.69017   2.69282   2.69766   2.70190
 Alpha virt. eigenvalues --    2.70750   2.70996   2.71378   2.72019   2.72638
 Alpha virt. eigenvalues --    2.73012   2.73442   2.73575   2.74439   2.75155
 Alpha virt. eigenvalues --    2.75325   2.75770   2.76734   2.76869   2.77402
 Alpha virt. eigenvalues --    2.77677   2.77848   2.78838   2.79061   2.80204
 Alpha virt. eigenvalues --    2.80521   2.81416   2.82261   2.82476   2.83876
 Alpha virt. eigenvalues --    2.84388   2.84926   2.85534   2.86368   2.86935
 Alpha virt. eigenvalues --    2.87427   2.87815   2.88487   2.89169   2.89914
 Alpha virt. eigenvalues --    2.90076   2.91518   2.92038   2.93133   2.93541
 Alpha virt. eigenvalues --    2.93847   2.94701   2.95367   2.95907   2.96213
 Alpha virt. eigenvalues --    2.96892   2.97835   2.98447   2.98830   3.00889
 Alpha virt. eigenvalues --    3.02714   3.03790   3.04552   3.05026   3.05220
 Alpha virt. eigenvalues --    3.05983   3.07840   3.09240   3.10149   3.10807
 Alpha virt. eigenvalues --    3.11880   3.12330   3.13295   3.13589   3.13778
 Alpha virt. eigenvalues --    3.15296   3.16919   3.17801   3.18196   3.21552
 Alpha virt. eigenvalues --    3.22636   3.22795   3.24042   3.24936   3.26019
 Alpha virt. eigenvalues --    3.32127   3.32186   3.32870   3.33749   3.33906
 Alpha virt. eigenvalues --    3.35234   3.35882   3.36001   3.36950   3.37367
 Alpha virt. eigenvalues --    3.37975   3.38779   3.39285   3.39848   3.40730
 Alpha virt. eigenvalues --    3.41024   3.41254   3.41470   3.41892   3.44394
 Alpha virt. eigenvalues --    3.45910   3.48572   3.49113   3.50599   3.52301
 Alpha virt. eigenvalues --    3.53027   3.53206   3.54140   3.54768   3.54861
 Alpha virt. eigenvalues --    3.56245   3.59122   3.62206   3.62255   3.62358
 Alpha virt. eigenvalues --    3.64349   3.64394   3.66167   3.72564   3.74949
 Alpha virt. eigenvalues --    3.84625   3.85964   4.09713   4.12347   4.13968
 Alpha virt. eigenvalues --    4.15053   4.15628   4.16404   4.18055   4.19315
 Alpha virt. eigenvalues --    4.21656   4.24403   4.28427   4.30148   4.32110
 Alpha virt. eigenvalues --    4.34908   4.36884   4.38480   4.40205   4.41630
 Alpha virt. eigenvalues --    4.42671   4.47062   4.47516   4.47700   4.48587
 Alpha virt. eigenvalues --    4.50621   4.51567   4.52305   4.55542   4.57330
 Alpha virt. eigenvalues --    4.59255   4.59606   4.63675   4.65393   4.67890
 Alpha virt. eigenvalues --    4.70792   4.71897   4.72771   4.76197   4.78798
 Alpha virt. eigenvalues --    4.79745   4.81357
          Condensed to atoms (all electrons):
 Mulliken charges:
               1
     1  C    0.017838
     2  C   -0.005713
     3  C   -0.155585
     4  C   -0.152734
     5  C   -0.181918
     6  C   -0.186413
     7  C    0.069177
     8  C    0.059378
     9  C   -0.237637
    10  C   -0.217533
    11  C    0.062742
    12  C    0.071640
    13  C   -0.263463
    14  C   -0.297533
    15  C   -0.310211
    16  C   -0.298936
    17  C   -0.147328
    18  C   -0.146366
    19  C   -0.363210
    20  C   -0.365613
    21  C   -0.079226
    22  C   -0.090249
    23  C    0.104629
    24  C    0.093602
    25  C   -0.361979
    26  C   -0.320797
    27  C   -0.097498
    28  C   -0.120154
    29  C   -0.092721
    30  C   -0.078217
    31  C   -0.100193
    32  C   -0.121786
    33  C    0.056508
    34  C    0.088707
    35  C   -0.358634
    36  C   -0.362938
    37  C   -0.058559
    38  C   -0.118741
    39  C   -0.102796
    40  C   -0.090087
    41  H    0.066064
    42  H    0.063686
    43  H    0.101675
    44  H    0.086463
    45  H    0.100804
    46  H    0.117548
    47  H    0.075104
    48  H    0.093759
    49  H    0.092987
    50  H    0.076191
    51  H    0.091821
    52  H    0.095522
    53  H    0.050152
    54  H    0.087713
    55  H    0.096980
    56  H    0.099908
    57  H    0.084195
    58  H    0.098952
    59  H    0.091074
    60  H    0.089690
    61  H    0.101825
    62  H    0.112462
    63  H    0.105575
    64  H    0.089927
    65  H    0.063812
    66  H    0.072217
    67  H    0.133322
    68  H    0.119501
    69  H    0.118120
    70  H    0.085529
    71  H    0.102558
    72  H    0.119067
    73  H    0.061331
    74  H    0.079306
    75  H    0.138767
    76  H    0.077848
    77  H    0.129508
    78  H    0.125745
    79  H    0.094531
    80  H    0.098841
    81  H    0.082445
    82  H    0.056879
    83  H    0.086735
    84  H    0.080684
    85  H    0.085335
    86  H    0.088347
    87  H    0.103003
    88  H    0.107520
    89  H    0.112826
    90  H    0.121563
    91  H    0.128316
    92  H    0.110508
    93  H    0.065744
    94  H    0.084152
    95  H    0.066015
    96  H    0.090394
 Sum of Mulliken charges =  -0.00000
 Mulliken charges with hydrogens summed into heavy atoms:
               1
     1  C    0.017838
     2  C   -0.005713
     3  C   -0.025834
     4  C    0.035404
     5  C    0.036435
     6  C   -0.017550
     7  C    0.069177
     8  C    0.059378
     9  C   -0.068460
    10  C   -0.030190
    11  C    0.062742
    12  C    0.071640
    13  C   -0.028619
    14  C   -0.014479
    15  C   -0.027622
    16  C    0.009028
    17  C   -0.083516
    18  C   -0.074149
    19  C    0.007734
    20  C   -0.058458
    21  C   -0.017895
    22  C   -0.010943
    23  C    0.104629
    24  C    0.093602
    25  C   -0.015855
    26  C   -0.001680
    27  C   -0.015053
    28  C   -0.063275
    29  C   -0.005986
    30  C    0.002467
    31  C   -0.014858
    32  C   -0.033439
    33  C    0.056508
    34  C    0.088707
    35  C   -0.035285
    36  C   -0.002551
    37  C    0.007185
    38  C   -0.034589
    39  C   -0.036781
    40  C    0.000308
 Electronic spatial extent (au):  <R**2>=          94543.9558
 Charge=             -0.0000 electrons
 Dipole moment (field-independent basis, Debye):
    X=              0.1550    Y=             -0.2067    Z=              0.3717  Tot=              0.4527
 Quadrupole moment (field-independent basis, Debye-Ang):
   XX=           -220.9424   YY=           -235.1898   ZZ=           -256.1226
   XY=              2.0569   XZ=              4.0730   YZ=              2.5290
 Traceless Quadrupole moment (field-independent basis, Debye-Ang):
   XX=             16.4759   YY=              2.2285   ZZ=            -18.7043
   XY=              2.0569   XZ=              4.0730   YZ=              2.5290
 Octapole moment (field-independent basis, Debye-Ang**2):
  XXX=             42.2109  YYY=              0.7721  ZZZ=              3.9053  XYY=              2.5507
  XXY=            -21.3261  XXZ=             54.7268  XZZ=             -0.2437  YZZ=             -1.0553
  YYZ=              1.1081  XYZ=             -1.8468
 Hexadecapole moment (field-independent basis, Debye-Ang**3):
 XXXX=        -120077.1849 YYYY=          -4495.1633 ZZZZ=          -1502.8972 XXXY=             -7.9888
 XXXZ=            255.1806 YYYX=              5.0596 YYYZ=             12.1893 ZZZX=             57.5551
 ZZZY=              1.8276 XXYY=         -21306.3446 XXZZ=         -21800.5709 YYZZ=           -991.4959
 XXYZ=            -31.2002 YYXZ=            106.3542 ZZXY=            -10.2673
 N-N= 3.674903539740D+03 E-N=-1.094955081260D+04  KE= 1.541095895088D+03
 1\1\GINC-RYZEN-SSD1\SP\RB3LYP TD-FC\6-31G(d,p)\C40H56\PADAWAN\27-Jul-2
 019\0\\# td=(NStates=1) B3LYP/6-31G(d,p)\\TD\\0,1\C,0,12.1782821708,0.
 4511857191,-0.5224183607\C,0,-12.0587881929,-0.0831433559,0.9551646954
 \C,0,13.3504644591,-0.3654762076,-0.3720632053\C,0,-12.942150715,1.130
 0273942,1.2981905335\C,0,13.1666389781,-1.8473004024,-0.5349452533\C,0
 ,-13.3971943155,1.8989584079,0.1259129584\C,0,11.0157233662,-0.0263383
 693,0.1992474625\C,0,-10.9725649243,0.3903189142,-0.1351511499\C,0,12.
 0690713445,-2.3160338974,0.5934833246\C,0,-12.1711069933,2.5843187401,
 -0.5040387398\C,0,10.9082005281,-1.3220542599,0.8069972681\C,0,-10.967
 4715414,1.5859942212,-0.7314620199\C,0,11.8645270404,0.5264637715,-2.0
 020286815\C,0,12.6324666601,1.9139754526,-0.2127027893\C,0,-12.8441420
 05,-1.2698841071,0.3018740173\C,0,-11.3367225403,-0.6164848221,2.31071
 92201\C,0,9.8065787205,0.8634924628,0.3828502855\C,0,-9.8907288798,-0.
 5965822003,-0.3669607839\C,0,9.8336475411,-1.8506648782,1.7241250474\C
 ,0,-10.1134343136,2.0442461637,-1.8270841733\C,0,8.5526115009,0.606590
 6153,0.2125194581\C,0,-8.4901219706,-0.3258424495,-0.2621925422\C,0,7.
 3437229405,1.4600948098,0.3250651191\C,0,-7.4430531992,-1.2497734524,-
 0.3957799749\C,0,7.6073737871,2.8867313103,0.8073831753\C,0,-7.8848856
 768,-2.6833683479,-0.7137586535\C,0,6.1484487464,0.9030446935,0.140236
 1826\C,0,-6.1840870186,-0.8738982124,-0.2033724489\C,0,4.8964302937,1.
 5644887808,0.3223018892\C,0,-4.9903286447,-1.6686428421,-0.4761890005\
 C,0,3.6830970213,0.9100285681,0.1100829576\C,0,-3.7334387291,-1.056706
 3033,-0.3186943071\C,0,2.3031536168,1.3517658843,0.06922141\C,0,-2.497
 0987093,-1.7961046692,-0.4184751276\C,0,2.1303874103,2.8663460011,0.33
 18175551\C,0,-2.5859591413,-3.2944829748,-0.6106124113\C,0,1.222913839
 9,0.5374250841,0.2667715942\C,0,-1.2623044035,-1.0459931713,-0.2870374
 088\C,0,1.1729816704,-0.8859535426,-0.0476722869\C,0,0.1028208217,-1.6
 58892129,-0.3443381898\H,0,13.8825383596,-0.074575028,0.6479728402\H,0
 ,14.246811695,-0.1863070064,-1.1961831567\H,0,-12.3559519602,1.6689992
 901,1.9580393687\H,0,-13.7834191995,0.7390633986,1.7917356117\H,0,14.0
 650371257,-2.2738882065,-0.4317566215\H,0,12.5898348652,-2.0159054905,
 -1.408526976\H,0,-14.2003134195,2.7736307231,0.3071417518\H,0,-13.7897
 637602,1.084068081,-0.5953435565\H,0,12.8129032541,-2.3628287895,1.481
 650047\H,0,11.5180792624,-3.3448581779,0.5567825339\H,0,-11.7343732294
 ,3.5716748882,-0.061319615\H,0,-12.7064468586,2.8408475926,-1.46128002
 92\H,0,11.5983232028,-0.5168547628,-2.7434524779\H,0,12.6746343441,1.0
 176064219,-2.7646830423\H,0,10.8038279541,1.0072638381,-2.0745881783\H
 ,0,12.8515061047,2.0894758495,0.871864527\H,0,11.8014485518,2.71507141
 8,-0.55903006\H,0,13.6763794942,2.2422944993,-0.6333956107\H,0,-13.585
 4777785,-0.8076947785,-0.4332994306\H,0,-13.6926814407,-1.5718829925,0
 .9975369744\H,0,-12.2938869919,-2.1810465096,-0.2250283853\H,0,-10.650
 6675577,0.2070350641,2.5443240915\H,0,-10.9007365991,-1.619322933,2.25
 61396302\H,0,-12.1875828223,-0.9034948174,3.0208206102\H,0,10.01028443
 5,1.8871735775,0.5198678947\H,0,-10.2707715219,-1.6361887289,-0.503566
 7347\H,0,9.2955236299,-1.0775253472,2.1555993175\H,0,10.2038411982,-2.
 5252487228,2.38680011\H,0,9.2422762948,-2.5698968397,1.1808777094\H,0,
 -9.3584728826,1.1444767603,-2.2288253794\H,0,-9.3566004649,2.881931715
 2,-1.6616462108\H,0,-10.6660368687,2.3521302184,-2.6652064939\H,0,8.41
 81774085,-0.5460153817,0.0475878084\H,0,-8.3241958148,0.743508545,-0.0
 763412866\H,0,7.9388571178,2.9983848744,1.7042598085\H,0,6.5742293036,
 3.4864863528,0.5607186516\H,0,8.2570199397,3.3615748195,0.1539421713\H
 ,0,-8.6092118734,-2.7027973388,-1.5467813717\H,0,-8.4318741757,-3.0777
 809654,0.3509512344\H,0,-7.0186964222,-3.0563482861,-0.8042793131\H,0,
 6.2313239969,-0.167511978,-0.2274147582\H,0,-6.017013686,0.227774716,0
 .3209818214\H,0,4.9284161989,2.6750559497,0.6572086277\H,0,-5.40633073
 34,-2.5831918356,-0.7492670678\H,0,3.6517254392,-0.0088854584,-0.35217
 55792\H,0,-3.7600036316,0.0175380837,-0.0709889656\H,0,2.5720779072,3.
 1740077969,1.3967583311\H,0,1.15219242,3.1465453863,0.2782675543\H,0,2
 .5386609249,3.5137718507,-0.4402479944\H,0,-3.1952313927,-3.530451401,
 -1.5128162924\H,0,-3.1869002958,-3.6576177547,0.2823328847\H,0,-1.5648
 47456,-3.5822385583,-0.8841906455\H,0,0.3304054413,0.8610820234,0.3437
 350187\H,0,-1.3398750761,-0.0265446673,-0.2245901851\H,0,2.1448230268,
 -1.5801470644,0.016212057\H,0,0.2443949503,-2.6956946118,-0.5409349544
 \\Version=ES64L-G16RevA.03\State=1-A\HF=-1557.5278221\RMSD=6.727e-09\P
 G=C01 [X(C40H56)]\\@


 THE WORLD IS MADE UP OF THE WILLS, THE WON'TS, AND THE CANT'S:
 THE WILLS DO EVERYTHING,
 THE WON'TS DO NOTHING,
 THE CAN'TS CAN'T DO ANYTHING.

                               -- FROM WALT DISNEY'S "BLACK HOLE"
 Job cpu time:       0 days 10 hours  9 minutes 55.1 seconds.
 Elapsed time:       0 days  2 hours 33 minutes 26.6 seconds.
 File lengths (MBytes):  RWF=   2884 Int=      0 D2E=      0 Chk=     79 Scr=      1
 Normal termination of Gaussian 16 at Sat Jul 27 08:51:54 2019.
