 Entering Gaussian System, Link 0=g16
 Input=Geometria-262-.com
 Output=Geometria-262-.log
 Initial command:
 /usr/local/g16/l1.exe "/home/padawan/israel-mol/b-caroten/spectra/abs/Gau-91701.inp" -scrdir="/home/padawan/israel-mol/b-caroten/spectra/abs/"
 Entering Link 1 = /usr/local/g16/l1.exe PID=     91704.
  
 Copyright (c) 1988,1990,1992,1993,1995,1998,2003,2009,2016,
            Gaussian, Inc.  All Rights Reserved.
  
 This is part of the Gaussian(R) 16 program.  It is based on
 the Gaussian(R) 09 system (copyright 2009, Gaussian, Inc.),
 the Gaussian(R) 03 system (copyright 2003, Gaussian, Inc.),
 the Gaussian(R) 98 system (copyright 1998, Gaussian, Inc.),
 the Gaussian(R) 94 system (copyright 1995, Gaussian, Inc.),
 the Gaussian 92(TM) system (copyright 1992, Gaussian, Inc.),
 the Gaussian 90(TM) system (copyright 1990, Gaussian, Inc.),
 the Gaussian 88(TM) system (copyright 1988, Gaussian, Inc.),
 the Gaussian 86(TM) system (copyright 1986, Carnegie Mellon
 University), and the Gaussian 82(TM) system (copyright 1983,
 Carnegie Mellon University). Gaussian is a federally registered
 trademark of Gaussian, Inc.
  
 This software contains proprietary and confidential information,
 including trade secrets, belonging to Gaussian, Inc.
  
 This software is provided under written license and may be
 used, copied, transmitted, or stored only in accord with that
 written license.
  
 The following legend is applicable only to US Government
 contracts under FAR:
  
                    RESTRICTED RIGHTS LEGEND
  
 Use, reproduction and disclosure by the US Government is
 subject to restrictions as set forth in subparagraphs (a)
 and (c) of the Commercial Computer Software - Restricted
 Rights clause in FAR 52.227-19.
  
 Gaussian, Inc.
 340 Quinnipiac St., Bldg. 40, Wallingford CT 06492
  
  
 ---------------------------------------------------------------
 Warning -- This program may not be used in any manner that
 competes with the business of Gaussian, Inc. or will provide
 assistance to any competitor of Gaussian, Inc.  The licensee
 of this program is prohibited from giving any competitor of
 Gaussian, Inc. access to this program.  By using this program,
 the user acknowledges that Gaussian, Inc. is engaged in the
 business of creating and licensing software in the field of
 computational chemistry and represents and warrants to the
 licensee that it is not a competitor of Gaussian, Inc. and that
 it will not use this program in any manner prohibited above.
 ---------------------------------------------------------------
  

 Cite this work as:
 Gaussian 16, Revision A.03,
 M. J. Frisch, G. W. Trucks, H. B. Schlegel, G. E. Scuseria, 
 M. A. Robb, J. R. Cheeseman, G. Scalmani, V. Barone, 
 G. A. Petersson, H. Nakatsuji, X. Li, M. Caricato, A. V. Marenich, 
 J. Bloino, B. G. Janesko, R. Gomperts, B. Mennucci, H. P. Hratchian, 
 J. V. Ortiz, A. F. Izmaylov, J. L. Sonnenberg, D. Williams-Young, 
 F. Ding, F. Lipparini, F. Egidi, J. Goings, B. Peng, A. Petrone, 
 T. Henderson, D. Ranasinghe, V. G. Zakrzewski, J. Gao, N. Rega, 
 G. Zheng, W. Liang, M. Hada, M. Ehara, K. Toyota, R. Fukuda, 
 J. Hasegawa, M. Ishida, T. Nakajima, Y. Honda, O. Kitao, H. Nakai, 
 T. Vreven, K. Throssell, J. A. Montgomery, Jr., J. E. Peralta, 
 F. Ogliaro, M. J. Bearpark, J. J. Heyd, E. N. Brothers, K. N. Kudin, 
 V. N. Staroverov, T. A. Keith, R. Kobayashi, J. Normand, 
 K. Raghavachari, A. P. Rendell, J. C. Burant, S. S. Iyengar, 
 J. Tomasi, M. Cossi, J. M. Millam, M. Klene, C. Adamo, R. Cammi, 
 J. W. Ochterski, R. L. Martin, K. Morokuma, O. Farkas, 
 J. B. Foresman, and D. J. Fox, Gaussian, Inc., Wallingford CT, 2016.
 
 ******************************************
 Gaussian 16:  ES64L-G16RevA.03 25-Dec-2016
                29-Jul-2019 
 ******************************************
 %nproc=4
 Will use up to    4 processors via shared memory.
 %Mem=2GB
 ---------------------------------
 # td=(NStates=1) B3LYP/6-31G(d,p)
 ---------------------------------
 1/38=1,172=1/1;
 2/12=2,17=6,18=5,40=1/2;
 3/5=1,6=6,7=101,11=9,25=1,30=1,74=-5/1,2,3,8;
 4//1;
 5/5=2,38=5/2;
 8/6=1,10=2,108=1/1;
 9/41=1,42=1,70=2/14;
 6/7=2,8=2,9=2,10=2/1;
 99/5=1,9=1/99;
 --
 TD
 --
 Symbolic Z-matrix:
 Charge =  0 Multiplicity = 1
 6                     12.0964   0.48637  -0.91702 
 6                    -12.14723  -0.06794   0.79511 
 6                     13.39162  -0.31047  -0.85683 
 6                    -13.05019   1.11625   1.20947 
 6                     13.17187  -1.85231  -0.82956 
 6                    -13.41665   1.92753   0.01093 
 6                     11.04671  -0.12816   0.06928 
 6                    -11.04786   0.3501   -0.23923 
 6                     12.4067  -2.1647    0.49018 
 6                    -12.20371   2.69822  -0.6704 
 6                     11.18134  -1.28576   0.7324 
 6                    -11.06149   1.54992  -0.86975 
 6                     11.50801   0.51414  -2.30034 
 6                     12.59476   1.94201  -0.56402 
 6                    -12.99263  -1.16677   0.03405 
 6                    -11.48876  -0.7546    2.01318 
 6                     9.90984   0.95294   0.41759 
 6                    -9.93982  -0.64204  -0.49676 
 6                     10.14003  -1.73939   1.7974 
 6                    -10.07094   1.97432  -1.9318 
 6                     8.56334   0.42402   0.40157 
 6                    -8.66485  -0.31888  -0.30689 
 6                     7.48744   1.35309   0.45545 
 6                    -7.56657  -1.23222  -0.41587 
 6                     7.71682   2.78792   0.81385 
 6                    -7.87652  -2.76458  -0.59816 
 6                     6.21749   0.76008   0.48888 
 6                    -6.22693  -0.81218  -0.27028 
 6                     4.9519    1.42548   0.60718 
 6                    -5.05555  -1.59701  -0.32946 
 6                     3.73618   0.70262   0.54081 
 6                    -3.85615  -1.00996  -0.1948 
 6                     2.4365    1.26933   0.5295 
 6                    -2.54164  -1.64316  -0.26015 
 6                     2.29578   2.78542   0.76165 
 6                    -2.51726  -3.19666  -0.3737 
 6                     1.29449   0.61341   0.36035 
 6                    -1.38191  -0.92378   0.01296 
 6                     1.08174  -0.88479   0.20775 
 6                    -0.05259  -1.42924  -0.07835 
 1                     13.96728  -0.00271  -0.01246 
 1                     13.8606  -0.05017  -1.65355 
 1                    -12.53859   1.57754   1.90327 
 1                    -14.05205   0.78611   1.62349 
 1                     14.14641  -2.26617  -0.7044 
 1                     12.67021  -1.93844  -1.72281 
 1                    -14.2015   2.58544   0.21502 
 1                    -13.82718   1.44857  -0.88359 
 1                     13.15249  -2.15065   1.18318 
 1                     12.16091  -3.29696   0.6224 
 1                    -11.88167   3.49737  -0.03079 
 1                    -12.30783   3.15151  -1.67685 
 1                     11.1812  -0.47926  -2.59985 
 1                     12.38761   0.76715  -3.19464 
 1                     10.86255   1.25519  -2.30673 
 1                     12.82664   1.83217   0.49282 
 1                     11.64908   2.70047  -0.72567 
 1                     13.42949   2.26633  -1.0442 
 1                    -12.98728  -0.66805  -0.87761 
 1                    -13.84098  -1.68968   0.61484 
 1                    -12.3527  -2.06229  -0.50935 
 1                    -10.71584  -0.20092   2.38409 
 1                    -10.92432  -1.76109   1.91919 
 1                    -12.50335  -0.90284   2.62236 
 1                     10.13851   1.90752   0.71456 
 1                    -10.17334  -1.66938  -0.80106 
 1                     9.40379  -0.96309   1.87501 
 1                     10.65265  -1.9586    2.85283 
 1                     9.68905  -2.73964   1.5853 
 1                    -9.44428   1.26889  -2.54482 
 1                    -9.29393   2.65906  -1.57255 
 1                    -10.5236   2.54247  -2.66999 
 1                     8.192    -0.58114   0.21913 
 1                    -8.53231   0.65104  -0.00203 
 1                     7.99404   3.00221   1.75834 
 1                     6.74756   3.35854   0.73058 
 1                     8.39011   3.10747  -0.16218 
 1                    -8.25325  -3.01923  -1.6308 
 1                    -8.65172  -3.07819   0.04828 
 1                    -7.07153  -3.34522  -0.60651 
 1                     5.93345  -0.16026   0.04802 
 1                    -6.19027   0.35136  -0.0787 
 1                     4.8586    2.48678   0.75583 
 1                    -5.15278  -2.56321  -0.72883 
 1                     3.81357  -0.28733   0.17569 
 1                    -3.81165   0.10758  -0.10263 
 1                     2.78472   3.11221   1.73982 
 1                     1.12463   3.04011   0.91419 
 1                     2.51661   3.37854  -0.10512 
 1                    -2.86536  -3.47725  -1.46135 
 1                    -3.32566  -3.68015   0.40117 
 1                    -1.5092   -3.46449  -0.35907 
 1                     0.39891   1.23868   0.2301 
 1                    -1.55794   0.17914   0.09323 
 1                     1.99415  -1.49813   0.20836 
 1                    -0.04427  -2.50068  -0.08477 
 
 Stoichiometry    C40H56
 Framework group  C1[X(C40H56)]
 Deg. of freedom   282
 Full point group                 C1      NOp   1
 Largest Abelian subgroup         C1      NOp   1
 Largest concise Abelian subgroup C1      NOp   1
                         Standard orientation:                         
 ---------------------------------------------------------------------
 Center     Atomic      Atomic             Coordinates (Angstroms)
 Number     Number       Type             X           Y           Z
 ---------------------------------------------------------------------
      1          6           0      -12.099908    0.499173    0.911938
      2          6           0       12.142722   -0.079428   -0.806317
      3          6           0      -13.395079   -0.298623    0.864920
      4          6           0       13.045313    1.098271   -1.239558
      5          6           0      -13.175192   -1.840681    0.861442
      6          6           0       13.412422    1.928087   -0.053975
      7          6           0      -11.050755   -0.130488   -0.065357
      8          6           0       11.043951    0.354516    0.222090
      9          6           0      -12.410797   -2.173437   -0.453771
     10          6           0       12.199828    2.709143    0.616060
     11          6           0      -11.185677   -1.298251   -0.710350
     12          6           0       11.057846    1.563971    0.833905
     13          6           0      -11.510668    0.548458    2.294299
     14          6           0      -12.598630    1.949114    0.536704
     15          6           0       12.988700   -1.166243   -0.028820
     16          6           0       11.483573   -0.784960   -2.013182
     17          6           0       -9.914211    0.945182   -0.431098
     18          6           0        9.936171   -0.633611    0.495667
     19          6           0      -10.144977   -1.768258   -1.768828
     20          6           0       10.067906    2.004706    1.889862
     21          6           0       -8.567651    0.416697   -0.407698
     22          6           0        8.661048   -0.313557    0.301585
     23          6           0       -7.491873    1.344919   -0.476648
     24          6           0        7.562923   -1.225196    0.425403
     25          6           0       -7.721625    2.773993   -0.857130
     26          6           0        7.873148   -2.754510    0.631250
     27          6           0       -6.221882    0.751574   -0.501659
     28          6           0        6.223157   -0.807588    0.274137
     29          6           0       -4.956432    1.415178   -0.631047
     30          6           0        5.051886   -1.591506    0.346213
     31          6           0       -3.740606    0.693539   -0.554215
     32          6           0        3.852351   -1.006731    0.203197
     33          6           0       -2.440970    1.260474   -0.552501
     34          6           0        2.537947   -1.638958    0.279171
     35          6           0       -2.300553    2.772793   -0.808234
     36          6           0        2.513792   -3.190515    0.416823
     37          6           0       -1.298795    0.607366   -0.373902
     38          6           0        1.377970   -0.924009   -0.004355
     39          6           0       -1.085802   -0.888273   -0.198209
     40          6           0        0.048766   -1.428111    0.095609
     41          1           0      -13.971287   -0.004050    0.016233
     42          1           0      -13.863600   -0.026039    1.657792
     43          1           0       12.533239    1.548699   -1.940118
     44          1           0       14.046946    0.761841   -1.649021
     45          1           0      -14.149763   -2.256518    0.743318
     46          1           0      -12.672978   -1.912893    1.755605
     47          1           0       14.197088    2.582824   -0.268732
     48          1           0       13.823551    1.463104    0.847619
     49          1           0      -13.157016   -2.170207   -1.146443
     50          1           0      -12.164983   -3.307594   -0.568556
     51          1           0       11.877312    3.498242   -0.035672
     52          1           0       12.304517    3.178002    1.615298
     53          1           0      -11.183574   -0.440149    2.608983
     54          1           0      -12.389738    0.815231    3.185105
     55          1           0      -10.865281    1.289573    2.288796
     56          1           0      -12.831149    1.822872   -0.518156
     57          1           0      -11.652928    2.710079    0.685984
     58          1           0      -13.433099    2.280768    1.012308
     59          1           0       12.983861   -0.653436    0.874997
     60          1           0       13.836745   -1.698024   -0.601951
     61          1           0       12.349200   -2.053283    0.528797
     62          1           0       10.710376   -0.237169   -2.392160
     63          1           0       10.919294   -1.789920   -1.903236
     64          1           0       12.497810   -0.942547   -2.620615
     65          1           0      -10.143157    1.895013   -0.742695
     66          1           0       10.169979   -1.656091    0.815718
     67          1           0       -9.408869   -0.993188   -1.858925
     68          1           0      -10.658221   -2.003861   -2.820408
     69          1           0       -9.693769   -2.765056   -1.541508
     70          1           0        9.441695    1.308814    2.514131
     71          1           0        9.290610    2.683719    1.520503
     72          1           0       10.520965    2.584281    2.618862
     73          1           0       -8.196100   -0.585479   -0.209921
     74          1           0        8.528220    0.651505   -0.018198
     75          1           0       -7.999445    2.973572   -1.804652
     76          1           0       -6.752363    3.345926   -0.783312
     77          1           0       -8.394345    3.108584    0.114242
     78          1           0        8.250530   -2.993077    1.667487
     79          1           0        8.647974   -3.078046   -0.010722
     80          1           0        7.068219   -3.335025    0.649105
     81          1           0       -5.937487   -0.161791   -0.046750
     82          1           0        6.186262    0.352835    0.064549
     83          1           0       -4.863334    2.474045   -0.796201
     84          1           0        5.149459   -2.551389    0.760456
     85          1           0       -3.817671   -0.290636   -0.173734
     86          1           0        3.807679    0.109239    0.093728
     87          1           0       -2.790122    3.084327   -1.791057
     88          1           0       -1.129518    3.025199   -0.965429
     89          1           0       -2.520904    3.379269    0.049370
     90          1           0        2.862585   -3.454158    1.508483
     91          1           0        3.321766   -3.685892   -0.350953
     92          1           0        1.505750   -3.458626    0.406971
     93          1           0       -0.403199    1.234660   -0.253923
     94          1           0        1.553840    0.177546   -0.101834
     95          1           0       -1.998146   -1.501627   -0.188739
     96          1           0        0.040557   -2.499319    0.118654
 ---------------------------------------------------------------------
 Rotational constants (GHZ):           0.2787023           0.0109629           0.0107434
 Standard basis: 6-31G(d,p) (6D, 7F)
 There are   880 symmetry adapted cartesian basis functions of A   symmetry.
 There are   880 symmetry adapted basis functions of A   symmetry.
   880 basis functions,  1512 primitive gaussians,   880 cartesian basis functions
   148 alpha electrons      148 beta electrons
       nuclear repulsion energy      3673.3542060310 Hartrees.
 NAtoms=   96 NActive=   96 NUniq=   96 SFac= 1.00D+00 NAtFMM=   60 NAOKFM=T Big=T
 Integral buffers will be    131072 words long.
 Regular integral format.
 Two-electron integral symmetry is turned on.
 One-electron integrals computed using PRISM.
 NBasis=   880 RedAO= T EigKep=  9.35D-04  NBF=   880
 NBsUse=   880 1.00D-06 EigRej= -1.00D+00 NBFU=   880
 ExpMin= 1.61D-01 ExpMax= 3.05D+03 ExpMxC= 4.57D+02 IAcc=3 IRadAn=         5 AccDes= 0.00D+00
 Harris functional with IExCor=  402 and IRadAn=       5 diagonalized for initial guess.
 HarFok:  IExCor=  402 AccDes= 0.00D+00 IRadAn=         5 IDoV= 1 UseB2=F ITyADJ=14
 ICtDFT=  3500011 ScaDFX=  1.000000  1.000000  1.000000  1.000000
 FoFCou: FMM=F IPFlag=           0 FMFlag=      100000 FMFlg1=        2001
         NFxFlg=           0 DoJE=T BraDBF=F KetDBF=T FulRan=T
         wScrn=  0.000000 ICntrl=       500 IOpCl=  0 I1Cent=   200000004 NGrid=           0
         NMat0=    1 NMatS0=      1 NMatT0=    0 NMatD0=    1 NMtDS0=    0 NMtDT0=    0
 Petite list used in FoFCou.
 Requested convergence on RMS density matrix=1.00D-08 within 128 cycles.
 Requested convergence on MAX density matrix=1.00D-06.
 Requested convergence on             energy=1.00D-06.
 No special actions if energy rises.
 Integral accuracy reduced to 1.0D-05 until final iterations.
 Initial convergence to 1.0D-05 achieved.  Increase integral accuracy.
