 Entering Gaussian System, Link 0=g16
 Input=chla-01200.gjf
 Output=chla-01200.log
 Initial command:
 /usr/local/g16/l1.exe "/home/padawan/israel-mol/w-tuning/chla/tuning/logs/Gau-17304.inp" -scrdir="/home/padawan/israel-mol/w-tuning/chla/tuning/logs/"
 Entering Link 1 = /usr/local/g16/l1.exe PID=     17306.
  
 Copyright (c) 1988,1990,1992,1993,1995,1998,2003,2009,2016,
            Gaussian, Inc.  All Rights Reserved.
  
 This is part of the Gaussian(R) 16 program.  It is based on
 the Gaussian(R) 09 system (copyright 2009, Gaussian, Inc.),
 the Gaussian(R) 03 system (copyright 2003, Gaussian, Inc.),
 the Gaussian(R) 98 system (copyright 1998, Gaussian, Inc.),
 the Gaussian(R) 94 system (copyright 1995, Gaussian, Inc.),
 the Gaussian 92(TM) system (copyright 1992, Gaussian, Inc.),
 the Gaussian 90(TM) system (copyright 1990, Gaussian, Inc.),
 the Gaussian 88(TM) system (copyright 1988, Gaussian, Inc.),
 the Gaussian 86(TM) system (copyright 1986, Carnegie Mellon
 University), and the Gaussian 82(TM) system (copyright 1983,
 Carnegie Mellon University). Gaussian is a federally registered
 trademark of Gaussian, Inc.
  
 This software contains proprietary and confidential information,
 including trade secrets, belonging to Gaussian, Inc.
  
 This software is provided under written license and may be
 used, copied, transmitted, or stored only in accord with that
 written license.
  
 The following legend is applicable only to US Government
 contracts under FAR:
  
                    RESTRICTED RIGHTS LEGEND
  
 Use, reproduction and disclosure by the US Government is
 subject to restrictions as set forth in subparagraphs (a)
 and (c) of the Commercial Computer Software - Restricted
 Rights clause in FAR 52.227-19.
  
 Gaussian, Inc.
 340 Quinnipiac St., Bldg. 40, Wallingford CT 06492
  
  
 ---------------------------------------------------------------
 Warning -- This program may not be used in any manner that
 competes with the business of Gaussian, Inc. or will provide
 assistance to any competitor of Gaussian, Inc.  The licensee
 of this program is prohibited from giving any competitor of
 Gaussian, Inc. access to this program.  By using this program,
 the user acknowledges that Gaussian, Inc. is engaged in the
 business of creating and licensing software in the field of
 computational chemistry and represents and warrants to the
 licensee that it is not a competitor of Gaussian, Inc. and that
 it will not use this program in any manner prohibited above.
 ---------------------------------------------------------------
  

 Cite this work as:
 Gaussian 16, Revision A.03,
 M. J. Frisch, G. W. Trucks, H. B. Schlegel, G. E. Scuseria, 
 M. A. Robb, J. R. Cheeseman, G. Scalmani, V. Barone, 
 G. A. Petersson, H. Nakatsuji, X. Li, M. Caricato, A. V. Marenich, 
 J. Bloino, B. G. Janesko, R. Gomperts, B. Mennucci, H. P. Hratchian, 
 J. V. Ortiz, A. F. Izmaylov, J. L. Sonnenberg, D. Williams-Young, 
 F. Ding, F. Lipparini, F. Egidi, J. Goings, B. Peng, A. Petrone, 
 T. Henderson, D. Ranasinghe, V. G. Zakrzewski, J. Gao, N. Rega, 
 G. Zheng, W. Liang, M. Hada, M. Ehara, K. Toyota, R. Fukuda, 
 J. Hasegawa, M. Ishida, T. Nakajima, Y. Honda, O. Kitao, H. Nakai, 
 T. Vreven, K. Throssell, J. A. Montgomery, Jr., J. E. Peralta, 
 F. Ogliaro, M. J. Bearpark, J. J. Heyd, E. N. Brothers, K. N. Kudin, 
 V. N. Staroverov, T. A. Keith, R. Kobayashi, J. Normand, 
 K. Raghavachari, A. P. Rendell, J. C. Burant, S. S. Iyengar, 
 J. Tomasi, M. Cossi, J. M. Millam, M. Klene, C. Adamo, R. Cammi, 
 J. W. Ochterski, R. L. Martin, K. Morokuma, O. Farkas, 
 J. B. Foresman, and D. J. Fox, Gaussian, Inc., Wallingford CT, 2016.
 
 ******************************************
 Gaussian 16:  ES64L-G16RevA.03 25-Dec-2016
                 8-Dec-2019 
 ******************************************
 %nproc=30
 Will use up to   30 processors via shared memory.
 %Mem=30GB
 %OldChk=cla-s0-01100.chk
 %Chk=cla-s0-01200.chk
 Copying data from "cla-s0-01100.chk" to current chk file "cla-s0-01200.chk"
 IOpt=  2 FromEx=T IUOpen= 4 IOptOp= 5 NList=   0 IFRang= 0 IUIn= 4 IUOut= 2.
 ----------------------------------------------------------------------
 # wB97XD/Def2TZVP Geom=Checkpoint iop(3/107=0120000000,3/108=012000000
 0)
 ----------------------------------------------------------------------
 1/29=2,38=1,172=1/1;
 2/12=2,40=1/2;
 3/5=44,7=101,11=2,14=-4,25=1,30=1,74=-58,107=120000000,108=120000000/1,2,3;
 4//1;
 5/5=2,38=5/2;
 6/7=2,8=2,9=2,10=2,28=1/1;
 99/5=1,9=1/99;
 ------
 cla-s0
 ------
 Structure from the checkpoint file:  "cla-s0-01200.chk"
 Charge =  0 Multiplicity = 1
 Redundant internal coordinates found in file.  (old form).
 Mg,0,-8.9985091643,0.3992017787,0.1246913442
 C,0,-6.5408676917,-1.9661707028,0.4527059107
 C,0,-6.7563511543,2.7928687202,0.9789892439
 C,0,-11.414124977,2.7299162589,-0.2599340831
 C,0,-11.2819947996,-2.1011862073,-0.5753320173
 N,0,-6.9285613705,0.3939341577,0.6184009556
 C,0,-6.0978519039,-0.7020621469,0.6782498645
 C,0,-4.6837278458,-0.2982234417,1.0202924857
 C,0,-4.8438075822,1.1823060414,1.4113195078
 C,0,-6.2595123935,1.4991441848,0.9691144522
 C,0,-4.6532600284,1.429447262,2.9069403582
 C,0,-3.7156391535,-0.5208560187,-0.1444774536
 C,0,-2.2709451805,-0.2989133575,0.2702884209
 C,0,-1.2957465549,-0.4591607411,-0.8693863022
 O,0,-1.594471401,-0.6324635868,-2.0201114008
 O,0,-0.0345083662,-0.3733789757,-0.4344771932
 N,0,-9.0657704011,2.4038672531,0.3108255851
 C,0,-8.0516147412,3.2149549613,0.6629458717
 C,0,-8.5010066776,4.6002189171,0.6792720264
 C,0,-9.8124349307,4.5852227637,0.3170337345
 C,0,-10.1757128018,3.1892448476,0.0985687527
 C,0,-7.6539860583,5.7622121528,1.0696247048
 C,0,-10.7408036028,5.7030060494,0.1864001016
 C,0,-10.4370304338,6.9118836752,-0.2745639526
 N,0,-11.0030411827,0.3230087585,-0.3409937459
 C,0,-11.8184288981,1.3861199376,-0.4627472811
 C,0,-13.1462026939,0.9672122393,-0.8147570329
 C,0,-13.1120411915,-0.3993023752,-0.893076385
 C,0,-11.7604997813,-0.7941202835,-0.598514766
 C,0,-14.3051137514,1.8793650639,-1.0484356372
 C,0,-14.227472907,-1.3212917718,-1.2697707575
 C,0,-14.2635244086,-1.6167772464,-2.7706647854
 N,0,-8.9700843253,-1.5923710758,-0.0531026096
 C,0,-9.9781396183,-2.5071855668,-0.3155402115
 C,0,-9.4585057629,-3.8441817682,-0.2670452179
 C,0,-8.1147969,-3.6895595348,0.029184164
 C,0,-7.8781721147,-2.3063950211,0.1467418671
 C,0,-10.2204258027,-5.1069755692,-0.4756388557
 C,0,-6.8671383539,-4.3977149478,0.2763809744
 O,0,-6.6262937986,-5.5753651617,0.3131681947
 C,0,-5.7734905482,-3.2733421554,0.4951544597
 C,0,-5.0326326953,-3.530042124,1.7862177796
 O,0,-5.4270273093,-3.2296606336,2.8801564078
 O,0,-3.8718030406,-4.1515935647,1.561086289
 C,0,-3.1354952796,-4.5267149895,2.7214313763
 C,0,0.9915139517,-0.5049277459,-1.4355374658
 C,0,2.3087897128,-0.4508514426,-0.744967357
 C,0,3.3193864834,0.3761874754,-1.0033024238
 C,0,3.2951823148,1.4523095358,-2.0519790717
 C,0,4.6114195078,0.2544952644,-0.2391691147
 C,0,5.8083169688,-0.1294003348,-1.1123018768
 C,0,7.0808737859,-0.313918616,-0.2944553729
 C,0,8.3536651265,-0.5501162063,-1.1122591143
 C,0,8.2620032554,-1.8249314397,-1.9476479331
 C,0,9.5709477613,-0.5620972175,-0.1832290079
 C,0,10.9247257391,-0.601713296,-0.8829634741
 C,0,12.0888013567,-0.4984063553,0.0960009614
 C,0,13.4770173449,-0.4088157399,-0.5439760464
 C,0,13.8148283117,-1.6608946335,-1.3499186207
 C,0,14.5276884778,-0.1258970326,0.5332475947
 C,0,15.9366099739,0.1421084609,0.0160620946
 C,0,16.8878779328,0.5822609392,1.1230098467
 C,0,18.352949165,0.7207505401,0.703883799
 C,0,18.5460855863,1.7715335701,-0.3864536186
 C,0,19.2249537564,1.0401777805,1.9147720938
 H,0,-6.0542490972,3.564714203,1.265591729
 H,0,-12.1835872953,3.4777752539,-0.4042503435
 H,0,-12.0017844444,-2.8844957201,-0.7833615112
 H,0,-4.3403252111,-0.8814170641,1.8798365741
 H,0,-4.143092826,1.8121378425,0.8570055462
 H,0,-3.6343890646,1.1754527715,3.2058293523
 H,0,-4.8354717666,2.4735662262,3.1641369736
 H,0,-5.341025426,0.8106038246,3.4866904469
 H,0,-3.8187586059,-1.5359850385,-0.5287225988
 H,0,-3.9761662406,0.1439107483,-0.971248368
 H,0,-2.12002395,0.7013913131,0.6869323508
 H,0,-1.9825851002,-0.995729556,1.0617768502
 H,0,-7.0203178216,6.0928940927,0.2421992612
 H,0,-8.2723226582,6.6073452515,1.37193788
 H,0,-6.9965205509,5.50684756,1.9021548143
 H,0,-11.7662203023,5.5087719751,0.4869597587
 H,0,-11.1868231782,7.6903165297,-0.3318206752
 H,0,-9.4441090662,7.1567598363,-0.6303987628
 H,0,-14.116310529,2.556556736,-1.8850260427
 H,0,-15.2098647048,1.3180140484,-1.2800213126
 H,0,-14.5137539749,2.4956429261,-0.1705691754
 H,0,-14.1383255395,-2.2587348818,-0.7156972268
 H,0,-15.1802347748,-0.8840109393,-0.963532896
 H,0,-15.0839767165,-2.2925894614,-3.0182660068
 H,0,-14.3946146055,-0.6955495716,-3.3409700839
 H,0,-13.3294596407,-2.0771325668,-3.097488291
 H,0,-10.7693597152,-5.0877410241,-1.4194510417
 H,0,-9.5457757921,-5.961036873,-0.4848997869
 H,0,-10.9490025336,-5.2589027917,0.3242976516
 H,0,-5.0691400313,-3.3777394759,-0.3324302881
 H,0,-2.8718498132,-3.6477432997,3.3103899075
 H,0,-3.721382512,-5.2053820189,3.3405782542
 H,0,-2.2406189596,-5.0229952295,2.3560272385
 H,0,0.8515220031,-1.4629715024,-1.9426363588
 H,0,0.8609557518,0.2774982909,-2.1815516064
 H,0,2.4374811387,-1.1937081792,0.0371766888
 H,0,2.2901743447,1.7030875602,-2.385012248
 H,0,3.76130263,2.3620972219,-1.6660690186
 H,0,3.8700795929,1.1500875951,-2.9309674624
 H,0,4.8262524036,1.2122017176,0.2495964783
 H,0,4.4974914066,-0.4864673804,0.5559357771
 H,0,5.5634669356,-1.0483367388,-1.6512732985
 H,0,5.9789452168,0.6416867456,-1.8702710881
 H,0,7.2277130631,0.576439588,0.3266222738
 H,0,6.945510267,-1.1504866604,0.4018180414
 H,0,8.4686748691,0.2984908464,-1.7990738788
 H,0,7.4149512309,-1.7975039723,-2.6338208598
 H,0,9.1583010353,-1.9770099473,-2.5494846807
 H,0,8.1408100353,-2.698099755,-1.2993629052
 H,0,9.5324532183,0.3305415189,0.4504567064
 H,0,9.489888669,-1.4194398655,0.4962941166
 H,0,11.0123938671,-1.5235835142,-1.4612696191
 H,0,10.9836328136,0.2228165318,-1.6031890172
 H,0,11.9392325221,0.3867285586,0.7237074734
 H,0,12.0665563559,-1.3589798537,0.7759316812
 H,0,13.4702056466,0.446103255,-1.2325905941
 H,0,13.8325126615,-2.5404541175,-0.6990681529
 H,0,13.0839565598,-1.8425950087,-2.1384814507
 H,0,14.7911644729,-1.5792146152,-1.8285766745
 H,0,14.2011348212,0.7422801597,1.1161221497
 H,0,14.5532776802,-0.9688953078,1.2346289107
 H,0,16.3416393663,-0.7561943073,-0.45967758
 H,0,15.8873490339,0.9089808512,-0.7632271304
 H,0,16.5459741873,1.5392346088,1.5363506496
 H,0,16.8277977157,-0.1406276063,1.944047334
 H,0,18.6754242526,-0.2470153636,0.3014482102
 H,0,18.184847115,2.7468799858,-0.0466367795
 H,0,19.6023615429,1.8785869978,-0.6415342203
 H,0,18.0097193016,1.5156438815,-1.3010645263
 H,0,19.1194913836,0.2801172204,2.6917693237
 H,0,20.2800854962,1.0973692041,1.6396509327
 H,0,18.9416449061,2.0032161687,2.3493401882
 Recover connectivity data from disk.
                           ----------------------------
                           !    Current Parameters    !
                           ! (Angstroms and Degrees)  !
 --------------------------                            --------------------------
 ! Name  Definition              Value                                          !
 --------------------------------------------------------------------------------
 ! R1    R(1,6)                  2.128                                          !
 ! R2    R(1,17)                 2.0144                                         !
 ! R3    R(1,25)                 2.0593                                         !
 ! R4    R(1,33)                 1.9997                                         !
 ! R5    R(2,7)                  1.3583                                         !
 ! R6    R(2,37)                 1.4134                                         !
 ! R7    R(2,41)                 1.5164                                         !
 ! R8    R(3,10)                 1.3859                                         !
 ! R9    R(3,18)                 1.3985                                         !
 ! R10   R(3,66)                 1.0821                                         !
 ! R11   R(4,21)                 1.3686                                         !
 ! R12   R(4,26)                 1.4179                                         !
 ! R13   R(4,67)                 1.0827                                         !
 ! R14   R(5,29)                 1.3921                                         !
 ! R15   R(5,34)                 1.3901                                         !
 ! R16   R(5,68)                 1.0839                                         !
 ! R17   R(6,7)                  1.3765                                         !
 ! R18   R(6,10)                 1.3387                                         !
 ! R19   R(7,8)                  1.5099                                         !
 ! R20   R(8,9)                  1.5396                                         !
 ! R21   R(8,12)                 1.5308                                         !
 ! R22   R(8,69)                 1.094                                          !
 ! R23   R(9,10)                 1.5166                                         !
 ! R24   R(9,11)                 1.5278                                         !
 ! R25   R(9,70)                 1.0931                                         !
 ! R26   R(11,71)                1.0918                                         !
 ! R27   R(11,72)                1.0907                                         !
 ! R28   R(11,73)                1.0918                                         !
 ! R29   R(12,13)                1.5194                                         !
 ! R30   R(12,74)                1.0903                                         !
 ! R31   R(12,75)                1.0924                                         !
 ! R32   R(13,14)                1.5085                                         !
 ! R33   R(13,76)                1.0941                                         !
 ! R34   R(13,77)                1.0932                                         !
 ! R35   R(14,15)                1.2014                                         !
 ! R36   R(14,16)                1.3369                                         !
 ! R37   R(16,46)                1.4395                                         !
 ! R38   R(17,18)                1.3455                                         !
 ! R39   R(17,21)                1.3762                                         !
 ! R40   R(18,19)                1.4564                                         !
 ! R41   R(19,20)                1.3606                                         !
 ! R42   R(19,22)                1.49                                           !
 ! R43   R(20,21)                1.4589                                         !
 ! R44   R(20,23)                1.4589                                         !
 ! R45   R(22,78)                1.0934                                         !
 ! R46   R(22,79)                1.0899                                         !
 ! R47   R(22,80)                1.0911                                         !
 ! R48   R(23,24)                1.329                                          !
 ! R49   R(23,81)                1.0861                                         !
 ! R50   R(24,82)                1.0823                                         !
 ! R51   R(24,83)                1.0828                                         !
 ! R52   R(25,26)                1.3453                                         !
 ! R53   R(25,29)                1.3741                                         !
 ! R54   R(26,27)                1.4361                                         !
 ! R55   R(27,28)                1.3692                                         !
 ! R56   R(27,30)                1.4932                                         !
 ! R57   R(28,29)                1.4385                                         !
 ! R58   R(28,31)                1.4954                                         !
 ! R59   R(30,84)                1.0928                                         !
 ! R60   R(30,85)                1.0896                                         !
 ! R61   R(30,86)                1.0927                                         !
 ! R62   R(31,32)                1.5301                                         !
 ! R63   R(31,87)                1.0926                                         !
 ! R64   R(31,88)                1.0921                                         !
 ! R65   R(32,89)                1.0914                                         !
 ! R66   R(32,90)                1.0914                                         !
 ! R67   R(32,91)                1.0914                                         !
 ! R68   R(33,34)                1.3863                                         !
 ! R69   R(33,37)                1.3199                                         !
 ! R70   R(34,35)                1.4352                                         !
 ! R71   R(35,36)                1.3846                                         !
 ! R72   R(35,38)                1.4895                                         !
 ! R73   R(36,37)                1.4082                                         !
 ! R74   R(36,39)                1.4558                                         !
 ! R75   R(38,92)                1.092                                          !
 ! R76   R(38,93)                1.0884                                         !
 ! R77   R(38,94)                1.0926                                         !
 ! R78   R(39,40)                1.2026                                         !
 ! R79   R(39,41)                1.5837                                         !
 ! R80   R(41,42)                1.5105                                         !
 ! R81   R(41,95)                1.0917                                         !
 ! R82   R(42,43)                1.201                                          !
 ! R83   R(42,44)                1.3359                                         !
 ! R84   R(44,45)                1.4245                                         !
 ! R85   R(45,96)                1.0904                                         !
 ! R86   R(45,97)                1.0896                                         !
 ! R87   R(45,98)                1.0866                                         !
 ! R88   R(46,47)                1.4883                                         !
 ! R89   R(46,99)                1.093                                          !
 ! R90   R(46,100)               1.0889                                         !
 ! R91   R(47,48)                1.3312                                         !
 ! R92   R(47,101)               1.0863                                         !
 ! R93   R(48,49)                1.5028                                         !
 ! R94   R(48,50)                1.506                                          !
 ! R95   R(49,102)               1.088                                          !
 ! R96   R(49,103)               1.0927                                         !
 ! R97   R(49,104)               1.0929                                         !
 ! R98   R(50,51)                1.5305                                         !
 ! R99   R(50,105)               1.0965                                         !
 ! R100  R(50,106)               1.0928                                         !
 ! R101  R(51,52)                1.5239                                         !
 ! R102  R(51,107)               1.0931                                         !
 ! R103  R(51,108)               1.0946                                         !
 ! R104  R(52,53)                1.5312                                         !
 ! R105  R(52,109)               1.0955                                         !
 ! R106  R(52,110)               1.0968                                         !
 ! R107  R(53,54)                1.5269                                         !
 ! R108  R(53,55)                1.5313                                         !
 ! R109  R(53,111)               1.0978                                         !
 ! R110  R(54,112)               1.0905                                         !
 ! R111  R(54,113)               1.0903                                         !
 ! R112  R(54,114)               1.0943                                         !
 ! R113  R(55,56)                1.5244                                         !
 ! R114  R(55,115)               1.0954                                         !
 ! R115  R(55,116)               1.097                                          !
 ! R116  R(56,57)                1.5245                                         !
 ! R117  R(56,117)               1.0918                                         !
 ! R118  R(56,118)               1.0964                                         !
 ! R119  R(57,58)                1.5313                                         !
 ! R120  R(57,119)               1.0954                                         !
 ! R121  R(57,120)               1.097                                          !
 ! R122  R(58,59)                1.5269                                         !
 ! R123  R(58,60)                1.5311                                         !
 ! R124  R(58,121)               1.0978                                         !
 ! R125  R(59,122)               1.0943                                         !
 ! R126  R(59,123)               1.0904                                         !
 ! R127  R(59,124)               1.0904                                         !
 ! R128  R(60,61)                1.5246                                         !
 ! R129  R(60,125)               1.0955                                         !
 ! R130  R(60,126)               1.0969                                         !
 ! R131  R(61,62)                1.5245                                         !
 ! R132  R(61,127)               1.0942                                         !
 ! R133  R(61,128)               1.0944                                         !
 ! R134  R(62,63)                1.5301                                         !
 ! R135  R(62,129)               1.0971                                         !
 ! R136  R(62,130)               1.0956                                         !
 ! R137  R(63,64)                1.5265                                         !
 ! R138  R(63,65)                1.526                                          !
 ! R139  R(63,131)               1.0966                                         !
 ! R140  R(64,132)               1.0942                                         !
 ! R141  R(64,133)               1.0919                                         !
 ! R142  R(64,134)               1.0907                                         !
 ! R143  R(65,135)               1.092                                          !
 ! R144  R(65,136)               1.0919                                         !
 ! R145  R(65,137)               1.0939                                         !
 ! A1    A(6,1,17)              90.7738                                         !
 ! A2    A(6,1,33)              90.2484                                         !
 ! A3    A(17,1,25)             91.4448                                         !
 ! A4    A(25,1,33)             87.5287                                         !
 ! A5    A(7,2,37)             124.6481                                         !
 ! A6    A(7,2,41)             129.2377                                         !
 ! A7    A(37,2,41)            106.1032                                         !
 ! A8    A(10,3,18)            127.7471                                         !
 ! A9    A(10,3,66)            115.7951                                         !
 ! A10   A(18,3,66)            116.4578                                         !
 ! A11   A(21,4,26)            127.8472                                         !
 ! A12   A(21,4,67)            116.4984                                         !
 ! A13   A(26,4,67)            115.6541                                         !
 ! A14   A(29,5,34)            126.8516                                         !
 ! A15   A(29,5,68)            116.555                                          !
 ! A16   A(34,5,68)            116.5933                                         !
 ! A17   A(1,6,7)              126.803                                          !
 ! A18   A(1,6,10)             123.0161                                         !
 ! A19   A(7,6,10)             110.1412                                         !
 ! A20   A(2,7,6)              122.4742                                         !
 ! A21   A(2,7,8)              126.297                                          !
 ! A22   A(6,7,8)              111.2287                                         !
 ! A23   A(7,8,9)              102.5533                                         !
 ! A24   A(7,8,12)             112.3967                                         !
 ! A25   A(7,8,69)             109.2315                                         !
 ! A26   A(9,8,12)             113.5057                                         !
 ! A27   A(9,8,69)             110.2249                                         !
 ! A28   A(12,8,69)            108.7702                                         !
 ! A29   A(8,9,10)             102.9377                                         !
 ! A30   A(8,9,11)             113.0292                                         !
 ! A31   A(8,9,70)             111.0151                                         !
 ! A32   A(10,9,11)            111.5954                                         !
 ! A33   A(10,9,70)            109.2772                                         !
 ! A34   A(11,9,70)            108.8595                                         !
 ! A35   A(3,10,6)             126.3974                                         !
 ! A36   A(3,10,9)             121.8424                                         !
 ! A37   A(6,10,9)             111.7423                                         !
 ! A38   A(9,11,71)            110.2889                                         !
 ! A39   A(9,11,72)            111.3994                                         !
 ! A40   A(9,11,73)            110.4596                                         !
 ! A41   A(71,11,72)           108.3048                                         !
 ! A42   A(71,11,73)           108.0973                                         !
 ! A43   A(72,11,73)           108.1891                                         !
 ! A44   A(8,12,13)            111.8615                                         !
 ! A45   A(8,12,74)            110.105                                          !
 ! A46   A(8,12,75)            109.6661                                         !
 ! A47   A(13,12,74)           108.7926                                         !
 ! A48   A(13,12,75)           110.1504                                         !
 ! A49   A(74,12,75)           106.099                                          !
 ! A50   A(12,13,14)           113.1378                                         !
 ! A51   A(12,13,76)           111.6346                                         !
 ! A52   A(12,13,77)           110.8143                                         !
 ! A53   A(14,13,76)           107.1972                                         !
 ! A54   A(14,13,77)           107.9838                                         !
 ! A55   A(76,13,77)           105.7042                                         !
 ! A56   A(13,14,15)           125.3243                                         !
 ! A57   A(13,14,16)           110.9346                                         !
 ! A58   A(15,14,16)           123.7395                                         !
 ! A59   A(14,16,46)           116.1257                                         !
 ! A60   A(1,17,18)            126.7922                                         !
 ! A61   A(1,17,21)            125.4939                                         !
 ! A62   A(18,17,21)           107.7139                                         !
 ! A63   A(3,18,17)            125.1214                                         !
 ! A64   A(3,18,19)            124.7727                                         !
 ! A65   A(17,18,19)           110.1039                                         !
 ! A66   A(18,19,20)           106.4952                                         !
 ! A67   A(18,19,22)           124.701                                          !
 ! A68   A(20,19,22)           128.7753                                         !
 ! A69   A(19,20,21)           106.8828                                         !
 ! A70   A(19,20,23)           128.9571                                         !
 ! A71   A(21,20,23)           124.1434                                         !
 ! A72   A(4,21,17)            125.3571                                         !
 ! A73   A(4,21,20)            125.8501                                         !
 ! A74   A(17,21,20)           108.7928                                         !
 ! A75   A(19,22,78)           111.5344                                         !
 ! A76   A(19,22,79)           110.7853                                         !
 ! A77   A(19,22,80)           111.0948                                         !
 ! A78   A(78,22,79)           107.7082                                         !
 ! A79   A(78,22,80)           107.3958                                         !
 ! A80   A(79,22,80)           108.1601                                         !
 ! A81   A(20,23,24)           125.6303                                         !
 ! A82   A(20,23,81)           116.0406                                         !
 ! A83   A(24,23,81)           118.3258                                         !
 ! A84   A(23,24,82)           120.9461                                         !
 ! A85   A(23,24,83)           121.9583                                         !
 ! A86   A(82,24,83)           117.0789                                         !
 ! A87   A(1,25,26)            125.5345                                         !
 ! A88   A(1,25,29)            127.5209                                         !
 ! A89   A(26,25,29)           106.9414                                         !
 ! A90   A(4,26,25)            124.2753                                         !
 ! A91   A(4,26,27)            125.1106                                         !
 ! A92   A(25,26,27)           110.6127                                         !
 ! A93   A(26,27,28)           106.3845                                         !
 ! A94   A(26,27,30)           125.2921                                         !
 ! A95   A(28,27,30)           128.3224                                         !
 ! A96   A(27,28,29)           106.5981                                         !
 ! A97   A(27,28,31)           127.6732                                         !
 ! A98   A(29,28,31)           125.6747                                         !
 ! A99   A(5,29,25)            124.8026                                         !
 ! A100  A(5,29,28)            125.7365                                         !
 ! A101  A(25,29,28)           109.4609                                         !
 ! A102  A(27,30,84)           111.3627                                         !
 ! A103  A(27,30,85)           111.2837                                         !
 ! A104  A(27,30,86)           111.5303                                         !
 ! A105  A(84,30,85)           107.4579                                         !
 ! A106  A(84,30,86)           107.3698                                         !
 ! A107  A(85,30,86)           107.6236                                         !
 ! A108  A(28,31,32)           112.5651                                         !
 ! A109  A(28,31,87)           109.9014                                         !
 ! A110  A(28,31,88)           109.465                                          !
 ! A111  A(32,31,87)           109.4913                                         !
 ! A112  A(32,31,88)           109.3788                                         !
 ! A113  A(87,31,88)           105.8143                                         !
 ! A114  A(31,32,89)           111.089                                          !
 ! A115  A(31,32,90)           110.6341                                         !
 ! A116  A(31,32,91)           110.7942                                         !
 ! A117  A(89,32,90)           108.2903                                         !
 ! A118  A(89,32,91)           108.3149                                         !
 ! A119  A(90,32,91)           107.599                                          !
 ! A120  A(1,33,34)            131.5821                                         !
 ! A121  A(1,33,37)            122.4853                                         !
 ! A122  A(34,33,37)           105.8567                                         !
 ! A123  A(5,34,33)            121.6463                                         !
 ! A124  A(5,34,35)            128.1686                                         !
 ! A125  A(33,34,35)           110.1848                                         !
 ! A126  A(34,35,36)           104.7472                                         !
 ! A127  A(34,35,38)           126.857                                          !
 ! A128  A(36,35,38)           128.3916                                         !
 ! A129  A(35,36,37)           106.8949                                         !
 ! A130  A(35,36,39)           144.4613                                         !
 ! A131  A(37,36,39)           108.6399                                         !
 ! A132  A(2,37,33)            133.259                                          !
 ! A133  A(2,37,36)            114.4245                                         !
 ! A134  A(33,37,36)           112.3163                                         !
 ! A135  A(35,38,92)           111.299                                          !
 ! A136  A(35,38,93)           110.4487                                         !
 ! A137  A(35,38,94)           110.8822                                         !
 ! A138  A(92,38,93)           108.5452                                         !
 ! A139  A(92,38,94)           107.4591                                         !
 ! A140  A(93,38,94)           108.086                                          !
 ! A141  A(36,39,40)           130.7833                                         !
 ! A142  A(36,39,41)           105.6607                                         !
 ! A143  A(40,39,41)           123.5533                                         !
 ! A144  A(2,41,39)            104.9919                                         !
 ! A145  A(2,41,42)            114.7485                                         !
 ! A146  A(2,41,95)            112.8117                                         !
 ! A147  A(39,41,42)           109.6406                                         !
 ! A148  A(39,41,95)           105.8379                                         !
 ! A149  A(42,41,95)           108.3748                                         !
 ! A150  A(41,42,43)           125.0959                                         !
 ! A151  A(41,42,44)           111.1759                                         !
 ! A152  A(43,42,44)           123.726                                          !
 ! A153  A(42,44,45)           115.7473                                         !
 ! A154  A(44,45,96)           110.6506                                         !
 ! A155  A(44,45,97)           110.4229                                         !
 ! A156  A(44,45,98)           105.7858                                         !
 ! A157  A(96,45,97)           108.9766                                         !
 ! A158  A(96,45,98)           110.5296                                         !
 ! A159  A(97,45,98)           110.4543                                         !
 ! A160  A(16,46,47)           107.7499                                         !
 ! A161  A(16,46,99)           108.1473                                         !
 ! A162  A(16,46,100)          108.9841                                         !
 ! A163  A(47,46,99)           111.1304                                         !
 ! A164  A(47,46,100)          113.4465                                         !
 ! A165  A(99,46,100)          107.2541                                         !
 ! A166  A(46,47,48)           127.1904                                         !
 ! A167  A(46,47,101)          114.461                                          !
 ! A168  A(48,47,101)          118.3352                                         !
 ! A169  A(47,48,49)           124.6171                                         !
 ! A170  A(47,48,50)           120.1749                                         !
 ! A171  A(49,48,50)           115.1982                                         !
 ! A172  A(48,49,102)          113.1735                                         !
 ! A173  A(48,49,103)          110.0542                                         !
 ! A174  A(48,49,104)          110.7776                                         !
 ! A175  A(102,49,103)         108.0731                                         !
 ! A176  A(102,49,104)         107.6644                                         !
 ! A177  A(103,49,104)         106.8521                                         !
 ! A178  A(48,50,51)           113.6869                                         !
 ! A179  A(48,50,105)          108.8863                                         !
 ! A180  A(48,50,106)          109.5433                                         !
 ! A181  A(51,50,105)          108.6734                                         !
 ! A182  A(51,50,106)          109.0593                                         !
 ! A183  A(105,50,106)         106.7579                                         !
 ! A184  A(50,51,52)           112.1637                                         !
 ! A185  A(50,51,107)          108.4809                                         !
 ! A186  A(50,51,108)          109.8922                                         !
 ! A187  A(52,51,107)          110.4796                                         !
 ! A188  A(52,51,108)          109.0713                                         !
 ! A189  A(107,51,108)         106.5998                                         !
 ! A190  A(51,52,53)           115.2249                                         !
 ! A191  A(51,52,109)          108.5295                                         !
 ! A192  A(51,52,110)          109.268                                          !
 ! A193  A(53,52,109)          108.467                                          !
 ! A194  A(53,52,110)          108.9041                                         !
 ! A195  A(109,52,110)         106.0548                                         !
 ! A196  A(52,53,54)           111.7833                                         !
 ! A197  A(52,53,55)           109.7517                                         !
 ! A198  A(52,53,111)          107.5775                                         !
 ! A199  A(54,53,55)           111.9074                                         !
 ! A200  A(54,53,111)          108.0229                                         !
 ! A201  A(55,53,111)          107.5979                                         !
 ! A202  A(53,54,112)          111.7099                                         !
 ! A203  A(53,54,113)          111.6612                                         !
 ! A204  A(53,54,114)          110.4098                                         !
 ! A205  A(112,54,113)         107.1423                                         !
 ! A206  A(112,54,114)         107.8688                                         !
 ! A207  A(113,54,114)         107.8653                                         !
 ! A208  A(53,55,56)           115.3187                                         !
 ! A209  A(53,55,115)          108.4609                                         !
 ! A210  A(53,55,116)          108.8555                                         !
 ! A211  A(56,55,115)          108.5377                                         !
 ! A212  A(56,55,116)          109.2472                                         !
 ! A213  A(115,55,116)         106.0182                                         !
 ! A214  A(55,56,57)           112.4314                                         !
 ! A215  A(55,56,117)          109.657                                          !
 ! A216  A(55,56,118)          109.2506                                         !
 ! A217  A(57,56,117)          109.6363                                         !
 ! A218  A(57,56,118)          109.2597                                         !
 ! A219  A(117,56,118)         106.4236                                         !
 ! A220  A(56,57,58)           115.3299                                         !
 ! A221  A(56,57,119)          108.5711                                         !
 ! A222  A(56,57,120)          109.2306                                         !
 ! A223  A(58,57,119)          108.4221                                         !
 ! A224  A(58,57,120)          108.8644                                         !
 ! A225  A(119,57,120)         106.0193                                         !
 ! A226  A(57,58,59)           111.9133                                         !
 ! A227  A(57,58,60)           109.8083                                         !
 ! A228  A(57,58,121)          107.5841                                         !
 ! A229  A(59,58,60)           111.7811                                         !
 ! A230  A(59,58,121)          107.9919                                         !
 ! A231  A(60,58,121)          107.5585                                         !
 ! A232  A(58,59,122)          110.41                                           !
 ! A233  A(58,59,123)          111.7198                                         !
 ! A234  A(58,59,124)          111.6153                                         !
 ! A235  A(122,59,123)         107.879                                          !
 ! A236  A(122,59,124)         107.8673                                         !
 ! A237  A(123,59,124)         107.1679                                         !
 ! A238  A(58,60,61)           115.3383                                         !
 ! A239  A(58,60,125)          108.4344                                         !
 ! A240  A(58,60,126)          108.8964                                         !
 ! A241  A(61,60,125)          108.4606                                         !
 ! A242  A(61,60,126)          109.2957                                         !
 ! A243  A(125,60,126)         106.0092                                         !
 ! A244  A(60,61,62)           112.4015                                         !
 ! A245  A(60,61,127)          110.1967                                         !
 ! A246  A(60,61,128)          108.852                                          !
 ! A247  A(62,61,127)          108.769                                          !
 ! A248  A(62,61,128)          110.048                                          !
 ! A249  A(127,61,128)         106.3987                                         !
 ! A250  A(61,62,63)           115.1322                                         !
 ! A251  A(61,62,129)          109.3275                                         !
 ! A252  A(61,62,130)          108.629                                          !
 ! A253  A(63,62,129)          108.8236                                         !
 ! A254  A(63,62,130)          108.5121                                         !
 ! A255  A(129,62,130)         106.0289                                         !
 ! A256  A(62,63,64)           112.2774                                         !
 ! A257  A(62,63,65)           110.4096                                         !
 ! A258  A(62,63,131)          107.5907                                         !
 ! A259  A(64,63,65)           110.5108                                         !
 ! A260  A(64,63,131)          107.9479                                         !
 ! A261  A(65,63,131)          107.9326                                         !
 ! A262  A(63,64,132)          110.4866                                         !
 ! A263  A(63,64,133)          110.9001                                         !
 ! A264  A(63,64,134)          112.0382                                         !
 ! A265  A(132,64,133)         107.7297                                         !
 ! A266  A(132,64,134)         107.8901                                         !
 ! A267  A(133,64,134)         107.6269                                         !
 ! A268  A(63,65,135)          111.3285                                         !
 ! A269  A(63,65,136)          111.2977                                         !
 ! A270  A(63,65,137)          110.5808                                         !
 ! A271  A(135,65,136)         108.0021                                         !
 ! A272  A(135,65,137)         107.7629                                         !
 ! A273  A(136,65,137)         107.7136                                         !
 ! A274  L(6,1,25,33,-1)       177.7772                                         !
 ! A275  L(17,1,33,25,-1)      178.9735                                         !
 ! A276  L(6,1,25,33,-2)       179.4616                                         !
 ! A277  L(17,1,33,25,-2)      180.4424                                         !
 ! D1    D(17,1,6,7)          -178.5931                                         !
 ! D2    D(17,1,6,10)            3.9307                                         !
 ! D3    D(33,1,6,7)             1.8588                                         !
 ! D4    D(33,1,6,10)         -175.6174                                         !
 ! D5    D(7,6,25,26)         -176.8426                                         !
 ! D6    D(7,6,25,29)            2.7956                                         !
 ! D7    D(10,6,25,26)           6.1315                                         !
 ! D8    D(10,6,25,29)        -174.2303                                         !
 ! D9    D(6,1,17,18)           -1.4498                                         !
 ! D10   D(6,1,17,21)          178.6906                                         !
 ! D11   D(25,1,17,18)         177.9946                                         !
 ! D12   D(25,1,17,21)          -1.865                                          !
 ! D13   D(18,17,33,34)        174.8211                                         !
 ! D14   D(18,17,33,37)         -1.2187                                         !
 ! D15   D(21,17,33,34)         -4.6916                                         !
 ! D16   D(21,17,33,37)        179.2686                                         !
 ! D17   D(17,1,25,26)           2.1485                                         !
 ! D18   D(17,1,25,29)        -178.5795                                         !
 ! D19   D(33,1,25,26)        -178.2939                                         !
 ! D20   D(33,1,25,29)           0.9781                                         !
 ! D21   D(6,1,33,34)          176.6249                                         !
 ! D22   D(6,1,33,37)            0.2656                                         !
 ! D23   D(25,1,33,34)          -2.8367                                         !
 ! D24   D(25,1,33,37)        -179.196                                          !
 ! D25   D(37,2,7,6)            -0.5192                                         !
 ! D26   D(37,2,7,8)           179.3689                                         !
 ! D27   D(41,2,7,6)          -179.1435                                         !
 ! D28   D(41,2,7,8)             0.7445                                         !
 ! D29   D(7,2,37,33)            3.3141                                         !
 ! D30   D(7,2,37,36)         -176.5445                                         !
 ! D31   D(41,2,37,33)        -177.7949                                         !
 ! D32   D(41,2,37,36)           2.3465                                         !
 ! D33   D(7,2,41,39)          174.9303                                         !
 ! D34   D(7,2,41,42)           54.4926                                         !
 ! D35   D(7,2,41,95)          -70.2892                                         !
 ! D36   D(37,2,41,39)          -3.8918                                         !
 ! D37   D(37,2,41,42)        -124.3295                                         !
 ! D38   D(37,2,41,95)         110.8887                                         !
 ! D39   D(18,3,10,6)            1.7394                                         !
 ! D40   D(18,3,10,9)         -176.5931                                         !
 ! D41   D(66,3,10,6)         -178.2259                                         !
 ! D42   D(66,3,10,9)            3.4416                                         !
 ! D43   D(10,3,18,17)           1.373                                          !
 ! D44   D(10,3,18,19)        -179.1973                                         !
 ! D45   D(66,3,18,17)        -178.662                                          !
 ! D46   D(66,3,18,19)           0.7677                                         !
 ! D47   D(26,4,21,17)           1.1355                                         !
 ! D48   D(26,4,21,20)        -178.9394                                         !
 ! D49   D(67,4,21,17)        -179.104                                          !
 ! D50   D(67,4,21,20)           0.8211                                         !
 ! D51   D(21,4,26,25)          -0.8046                                         !
 ! D52   D(21,4,26,27)         178.7258                                         !
 ! D53   D(67,4,26,25)         179.4331                                         !
 ! D54   D(67,4,26,27)          -1.0365                                         !
 ! D55   D(34,5,29,25)          -1.104                                          !
 ! D56   D(34,5,29,28)         178.8685                                         !
 ! D57   D(68,5,29,25)         179.0019                                         !
 ! D58   D(68,5,29,28)          -1.0256                                         !
 ! D59   D(29,5,34,33)          -0.709                                          !
 ! D60   D(29,5,34,35)         179.0996                                         !
 ! D61   D(68,5,34,33)         179.185                                          !
 ! D62   D(68,5,34,35)          -1.0064                                         !
 ! D63   D(1,6,7,2)             -1.9344                                         !
 ! D64   D(1,6,7,8)            178.1624                                         !
 ! D65   D(10,6,7,2)           175.8116                                         !
 ! D66   D(10,6,7,8)            -4.0916                                         !
 ! D67   D(1,6,10,3)            -4.6755                                         !
 ! D68   D(1,6,10,9)           173.7995                                         !
 ! D69   D(7,6,10,3)           177.4767                                         !
 ! D70   D(7,6,10,9)            -4.0482                                         !
 ! D71   D(2,7,8,9)           -169.896                                          !
 ! D72   D(2,7,8,12)            67.8476                                         !
 ! D73   D(2,7,8,69)           -52.9735                                         !
 ! D74   D(6,7,8,9)             10.0026                                         !
 ! D75   D(6,7,8,12)          -112.2537                                         !
 ! D76   D(6,7,8,69)           126.9252                                         !
 ! D77   D(7,8,9,10)           -11.2369                                         !
 ! D78   D(7,8,9,11)           109.293                                          !
 ! D79   D(7,8,9,70)          -128.0528                                         !
 ! D80   D(12,8,9,10)          110.2643                                         !
 ! D81   D(12,8,9,11)         -129.2058                                         !
 ! D82   D(12,8,9,70)           -6.5516                                         !
 ! D83   D(69,8,9,10)         -127.447                                          !
 ! D84   D(69,8,9,11)           -6.917                                          !
 ! D85   D(69,8,9,70)          115.7371                                         !
 ! D86   D(7,8,12,13)         -171.9266                                         !
 ! D87   D(7,8,12,74)          -50.8293                                         !
 ! D88   D(7,8,12,75)           65.5558                                         !
 ! D89   D(9,8,12,13)           72.2507                                         !
 ! D90   D(9,8,12,74)         -166.652                                          !
 ! D91   D(9,8,12,75)          -50.2669                                         !
 ! D92   D(69,8,12,13)         -50.8406                                         !
 ! D93   D(69,8,12,74)          70.2566                                         !
 ! D94   D(69,8,12,75)        -173.3583                                         !
 ! D95   D(8,9,10,3)          -171.3983                                         !
 ! D96   D(8,9,10,6)            10.0466                                         !
 ! D97   D(11,9,10,3)           67.0932                                         !
 ! D98   D(11,9,10,6)         -111.4618                                         !
 ! D99   D(70,9,10,3)          -53.3539                                         !
 ! D100  D(70,9,10,6)          128.091                                          !
 ! D101  D(8,9,11,71)           63.3735                                         !
 ! D102  D(8,9,11,72)         -176.3273                                         !
 ! D103  D(8,9,11,73)          -56.0593                                         !
 ! D104  D(10,9,11,71)         178.8351                                         !
 ! D105  D(10,9,11,72)         -60.8657                                         !
 ! D106  D(10,9,11,73)          59.4023                                         !
 ! D107  D(70,9,11,71)         -60.4734                                         !
 ! D108  D(70,9,11,72)          59.8259                                         !
 ! D109  D(70,9,11,73)        -179.9062                                         !
 ! D110  D(8,12,13,14)        -177.7916                                         !
 ! D111  D(8,12,13,76)         -56.7691                                         !
 ! D112  D(8,12,13,77)          60.7659                                         !
 ! D113  D(74,12,13,14)         60.3542                                         !
 ! D114  D(74,12,13,76)       -178.6233                                         !
 ! D115  D(74,12,13,77)        -61.0883                                         !
 ! D116  D(75,12,13,14)        -55.5506                                         !
 ! D117  D(75,12,13,76)         65.4719                                         !
 ! D118  D(75,12,13,77)       -176.9931                                         !
 ! D119  D(12,13,14,15)          5.994                                          !
 ! D120  D(12,13,14,16)       -174.4596                                         !
 ! D121  D(76,13,14,15)       -117.5071                                         !
 ! D122  D(76,13,14,16)         62.0393                                         !
 ! D123  D(77,13,14,15)        129.0174                                         !
 ! D124  D(77,13,14,16)        -51.4362                                         !
 ! D125  D(13,14,16,46)       -179.7085                                         !
 ! D126  D(15,14,16,46)         -0.1535                                         !
 ! D127  D(14,16,46,47)       -177.175                                          !
 ! D128  D(14,16,46,99)        -56.9603                                         !
 ! D129  D(14,16,46,100)        59.3254                                         !
 ! D130  D(1,17,18,3)           -0.7082                                         !
 ! D131  D(1,17,18,19)         179.7906                                         !
 ! D132  D(21,17,18,3)         179.1718                                         !
 ! D133  D(21,17,18,19)         -0.3293                                         !
 ! D134  D(1,17,21,4)            0.6979                                         !
 ! D135  D(1,17,21,20)        -179.2379                                         !
 ! D136  D(18,17,21,4)        -179.1841                                         !
 ! D137  D(18,17,21,20)          0.8801                                         !
 ! D138  D(3,18,19,20)        -179.8849                                         !
 ! D139  D(3,18,19,22)          -1.6801                                         !
 ! D140  D(17,18,19,20)         -0.3816                                         !
 ! D141  D(17,18,19,22)        177.8232                                         !
 ! D142  D(18,19,20,21)          0.8853                                         !
 ! D143  D(18,19,20,23)        179.4277                                         !
 ! D144  D(22,19,20,21)       -177.2215                                         !
 ! D145  D(22,19,20,23)          1.3208                                         !
 ! D146  D(18,19,22,78)         81.8351                                         !
 ! D147  D(18,19,22,79)       -158.1956                                         !
 ! D148  D(18,19,22,80)        -37.9478                                         !
 ! D149  D(20,19,22,78)       -100.373                                          !
 ! D150  D(20,19,22,79)         19.5963                                         !
 ! D151  D(20,19,22,80)        139.8441                                         !
 ! D152  D(19,20,21,4)         178.9404                                         !
 ! D153  D(19,20,21,17)         -1.1241                                         !
 ! D154  D(23,20,21,4)           0.31                                           !
 ! D155  D(23,20,21,17)       -179.7545                                         !
 ! D156  D(19,20,23,24)         37.0753                                         !
 ! D157  D(19,20,23,81)       -143.5909                                         !
 ! D158  D(21,20,23,24)       -144.6101                                         !
 ! D159  D(21,20,23,81)         34.7237                                         !
 ! D160  D(20,23,24,82)       -179.5148                                         !
 ! D161  D(20,23,24,83)          2.013                                          !
 ! D162  D(81,23,24,82)          1.1652                                         !
 ! D163  D(81,23,24,83)       -177.307                                          !
 ! D164  D(1,25,26,4)           -1.2712                                         !
 ! D165  D(1,25,26,27)         179.1392                                         !
 ! D166  D(29,25,26,4)         179.3324                                         !
 ! D167  D(29,25,26,27)         -0.2572                                         !
 ! D168  D(1,25,29,5)            0.5517                                         !
 ! D169  D(1,25,29,28)        -179.4247                                         !
 ! D170  D(26,25,29,5)         179.9324                                         !
 ! D171  D(26,25,29,28)         -0.0439                                         !
 ! D172  D(4,26,27,28)        -179.1156                                         !
 ! D173  D(4,26,27,30)           1.2262                                         !
 ! D174  D(25,26,27,28)          0.4699                                         !
 ! D175  D(25,26,27,30)       -179.1884                                         !
 ! D176  D(26,27,28,29)         -0.4694                                         !
 ! D177  D(26,27,28,31)       -177.8966                                         !
 ! D178  D(30,27,28,29)        179.175                                          !
 ! D179  D(30,27,28,31)          1.7479                                         !
 ! D180  D(26,27,30,84)         61.448                                          !
 ! D181  D(26,27,30,85)       -178.6784                                         !
 ! D182  D(26,27,30,86)        -58.4808                                         !
 ! D183  D(28,27,30,84)       -118.1341                                         !
 ! D184  D(28,27,30,85)          1.7396                                         !
 ! D185  D(28,27,30,86)        121.9372                                         !
 ! D186  D(27,28,29,5)        -179.6402                                         !
 ! D187  D(27,28,29,25)          0.3359                                         !
 ! D188  D(31,28,29,5)          -2.147                                          !
 ! D189  D(31,28,29,25)        177.829                                          !
 ! D190  D(27,28,31,32)         91.0767                                         !
 ! D191  D(27,28,31,87)       -146.5989                                         !
 ! D192  D(27,28,31,88)        -30.7915                                         !
 ! D193  D(29,28,31,32)        -85.8876                                         !
 ! D194  D(29,28,31,87)         36.4367                                         !
 ! D195  D(29,28,31,88)        152.2441                                         !
 ! D196  D(28,31,32,89)        179.8715                                         !
 ! D197  D(28,31,32,90)        -59.8214                                         !
 ! D198  D(28,31,32,91)         59.4263                                         !
 ! D199  D(87,31,32,89)         57.3162                                         !
 ! D200  D(87,31,32,90)        177.6233                                         !
 ! D201  D(87,31,32,91)        -63.129                                          !
 ! D202  D(88,31,32,89)        -58.2114                                         !
 ! D203  D(88,31,32,90)         62.0957                                         !
 ! D204  D(88,31,32,91)       -178.6566                                         !
 ! D205  D(1,33,34,5)            3.1467                                         !
 ! D206  D(1,33,34,35)        -176.693                                          !
 ! D207  D(37,33,34,5)         179.9547                                         !
 ! D208  D(37,33,34,35)          0.115                                          !
 ! D209  D(1,33,37,2)           -2.7728                                         !
 ! D210  D(1,33,37,36)         177.088                                          !
 ! D211  D(34,33,37,2)        -179.9425                                         !
 ! D212  D(34,33,37,36)         -0.0817                                         !
 ! D213  D(5,34,35,36)        -179.9307                                         !
 ! D214  D(5,34,35,38)          -0.6328                                         !
 ! D215  D(33,34,35,36)         -0.1043                                         !
 ! D216  D(33,34,35,38)        179.1936                                         !
 ! D217  D(34,35,36,37)          0.0524                                         !
 ! D218  D(34,35,36,39)        179.1783                                         !
 ! D219  D(38,35,36,37)       -179.2308                                         !
 ! D220  D(38,35,36,39)         -0.1049                                         !
 ! D221  D(34,35,38,92)         53.3033                                         !
 ! D222  D(34,35,38,93)        173.9467                                         !
 ! D223  D(34,35,38,94)        -66.2605                                         !
 ! D224  D(36,35,38,92)       -127.563                                          !
 ! D225  D(36,35,38,93)         -6.9196                                         !
 ! D226  D(36,35,38,94)        112.8732                                         !
 ! D227  D(35,36,37,2)         179.9061                                         !
 ! D228  D(35,36,37,33)          0.0174                                         !
 ! D229  D(39,36,37,2)           0.4423                                         !
 ! D230  D(39,36,37,33)       -179.4464                                         !
 ! D231  D(35,36,39,40)         -1.4209                                         !
 ! D232  D(35,36,39,41)        177.9814                                         !
 ! D233  D(37,36,39,40)        177.6964                                         !
 ! D234  D(37,36,39,41)         -2.9013                                         !
 ! D235  D(36,39,41,2)           4.1681                                         !
 ! D236  D(36,39,41,42)        127.9292                                         !
 ! D237  D(36,39,41,95)       -115.3813                                         !
 ! D238  D(40,39,41,2)        -176.3749                                         !
 ! D239  D(40,39,41,42)        -52.6138                                         !
 ! D240  D(40,39,41,95)         64.0757                                         !
 ! D241  D(2,41,42,43)          36.5421                                         !
 ! D242  D(2,41,42,44)        -143.9772                                         !
 ! D243  D(39,41,42,43)        -81.2946                                         !
 ! D244  D(39,41,42,44)         98.1861                                         !
 ! D245  D(95,41,42,43)        163.625                                          !
 ! D246  D(95,41,42,44)        -16.8943                                         !
 ! D247  D(41,42,44,45)       -175.7265                                         !
 ! D248  D(43,42,44,45)          3.7627                                         !
 ! D249  D(42,44,45,96)        -60.9563                                         !
 ! D250  D(42,44,45,97)         59.7843                                         !
 ! D251  D(42,44,45,98)        179.3077                                         !
 ! D252  D(16,46,47,48)       -124.985                                          !
 ! D253  D(16,46,47,101)        56.3796                                         !
 ! D254  D(99,46,47,48)        116.7003                                         !
 ! D255  D(99,46,47,101)       -61.9351                                         !
 ! D256  D(100,46,47,48)        -4.2455                                         !
 ! D257  D(100,46,47,101)      177.1191                                         !
 ! D258  D(46,47,48,49)          1.3568                                         !
 ! D259  D(46,47,48,50)       -177.4453                                         !
 ! D260  D(101,47,48,49)       179.9456                                         !
 ! D261  D(101,47,48,50)         1.1434                                         !
 ! D262  D(47,48,49,102)        17.3378                                         !
 ! D263  D(47,48,49,103)       138.3684                                         !
 ! D264  D(47,48,49,104)      -103.6892                                         !
 ! D265  D(50,48,49,102)      -163.8066                                         !
 ! D266  D(50,48,49,103)       -42.7761                                         !
 ! D267  D(50,48,49,104)        75.1663                                         !
 ! D268  D(47,48,50,51)        115.969                                          !
 ! D269  D(47,48,50,105)      -122.7253                                         !
 ! D270  D(47,48,50,106)        -6.3146                                         !
 ! D271  D(49,48,50,51)        -62.9416                                         !
 ! D272  D(49,48,50,105)        58.3641                                         !
 ! D273  D(49,48,50,106)       174.7749                                         !
 ! D274  D(48,50,51,52)       -177.0186                                         !
 ! D275  D(48,50,51,107)       -54.71                                           !
 ! D276  D(48,50,51,108)        61.4748                                         !
 ! D277  D(105,50,51,52)        61.557                                          !
 ! D278  D(105,50,51,107)     -176.1345                                         !
 ! D279  D(105,50,51,108)      -59.9497                                         !
 ! D280  D(106,50,51,52)       -54.4681                                         !
 ! D281  D(106,50,51,107)       67.8405                                         !
 ! D282  D(106,50,51,108)     -175.9747                                         !
 ! D283  D(50,51,52,53)       -173.6689                                         !
 ! D284  D(50,51,52,109)       -51.8532                                         !
 ! D285  D(50,51,52,110)        63.3701                                         !
 ! D286  D(107,51,52,53)        65.1656                                         !
 ! D287  D(107,51,52,109)     -173.0187                                         !
 ! D288  D(107,51,52,110)      -57.7954                                         !
 ! D289  D(108,51,52,53)       -51.6929                                         !
 ! D290  D(108,51,52,109)       70.1228                                         !
 ! D291  D(108,51,52,110)     -174.6539                                         !
 ! D292  D(51,52,53,54)        -61.5018                                         !
 ! D293  D(51,52,53,55)        173.7192                                         !
 ! D294  D(51,52,53,111)        56.9296                                         !
 ! D295  D(109,52,53,54)       176.6489                                         !
 ! D296  D(109,52,53,55)        51.8699                                         !
 ! D297  D(109,52,53,111)      -64.9198                                         !
 ! D298  D(110,52,53,54)        61.6526                                         !
 ! D299  D(110,52,53,55)       -63.1264                                         !
 ! D300  D(110,52,53,111)     -179.916                                          !
 ! D301  D(52,53,54,112)        58.5006                                         !
 ! D302  D(52,53,54,113)       178.4665                                         !
 ! D303  D(52,53,54,114)       -61.5347                                         !
 ! D304  D(55,53,54,112)      -177.9285                                         !
 ! D305  D(55,53,54,113)       -57.9627                                         !
 ! D306  D(55,53,54,114)        62.0362                                         !
 ! D307  D(111,53,54,112)      -59.6652                                         !
 ! D308  D(111,53,54,113)       60.3006                                         !
 ! D309  D(111,53,54,114)     -179.7005                                         !
 ! D310  D(52,53,55,56)       -172.1649                                         !
 ! D311  D(52,53,55,115)       -50.245                                          !
 ! D312  D(52,53,55,116)        64.6791                                         !
 ! D313  D(54,53,55,56)         63.1279                                         !
 ! D314  D(54,53,55,115)      -174.9523                                         !
 ! D315  D(54,53,55,116)       -60.0281                                         !
 ! D316  D(111,53,55,56)       -55.388                                          !
 ! D317  D(111,53,55,115)       66.5318                                         !
 ! D318  D(111,53,55,116)     -178.544                                          !
 ! D319  D(53,55,56,57)        175.3862                                         !
 ! D320  D(53,55,56,117)       -62.3707                                         !
 ! D321  D(53,55,56,118)        53.9095                                         !
 ! D322  D(115,55,56,57)        53.5077                                         !
 ! D323  D(115,55,56,117)      175.7508                                         !
 ! D324  D(115,55,56,118)      -67.969                                          !
 ! D325  D(116,55,56,57)       -61.6657                                         !
 ! D326  D(116,55,56,117)       60.5775                                         !
 ! D327  D(116,55,56,118)      176.8576                                         !
 ! D328  D(55,56,57,58)       -174.9016                                         !
 ! D329  D(55,56,57,119)       -53.0404                                         !
 ! D330  D(55,56,57,120)        62.1435                                         !
 ! D331  D(117,56,57,58)        62.8436                                         !
 ! D332  D(117,56,57,119)     -175.2952                                         !
 ! D333  D(117,56,57,120)      -60.1113                                         !
 ! D334  D(118,56,57,58)       -53.4301                                         !
 ! D335  D(118,56,57,119)       68.4311                                         !
 ! D336  D(118,56,57,120)     -176.385                                          !
 ! D337  D(56,57,58,59)        -62.6501                                         !
 ! D338  D(56,57,58,60)        172.5995                                         !
 ! D339  D(56,57,58,121)        55.8227                                         !
 ! D340  D(119,57,58,59)       175.4086                                         !
 ! D341  D(119,57,58,60)        50.6582                                         !
 ! D342  D(119,57,58,121)      -66.1186                                         !
 ! D343  D(120,57,58,59)        60.4991                                         !
 ! D344  D(120,57,58,60)       -64.2513                                         !
 ! D345  D(120,57,58,121)      178.9719                                         !
 ! D346  D(57,58,59,122)       -61.7842                                         !
 ! D347  D(57,58,59,123)        58.2708                                         !
 ! D348  D(57,58,59,124)       178.2446                                         !
 ! D349  D(60,58,59,122)        61.8637                                         !
 ! D350  D(60,58,59,123)      -178.0813                                         !
 ! D351  D(60,58,59,124)       -58.1075                                         !
 ! D352  D(121,58,59,122)      179.9855                                         !
 ! D353  D(121,58,59,123)      -59.9595                                         !
 ! D354  D(121,58,59,124)       60.0143                                         !
 ! D355  D(57,58,60,61)       -173.4947                                         !
 ! D356  D(57,58,60,125)       -51.6821                                         !
 ! D357  D(57,58,60,126)        63.2389                                         !
 ! D358  D(59,58,60,61)         61.6786                                         !
 ! D359  D(59,58,60,125)      -176.5088                                         !
 ! D360  D(59,58,60,126)       -61.5878                                         !
 ! D361  D(121,58,60,61)       -56.7018                                         !
 ! D362  D(121,58,60,125)       65.1108                                         !
 ! D363  D(121,58,60,126)     -179.9682                                         !
 ! D364  D(58,60,61,62)        172.9717                                         !
 ! D365  D(58,60,61,127)       -65.5315                                         !
 ! D366  D(58,60,61,128)        50.794                                          !
 ! D367  D(125,60,61,62)        51.1732                                         !
 ! D368  D(125,60,61,127)      172.6699                                         !
 ! D369  D(125,60,61,128)      -71.0045                                         !
 ! D370  D(126,60,61,62)       -63.9734                                         !
 ! D371  D(126,60,61,127)       57.5234                                         !
 ! D372  D(126,60,61,128)      173.8489                                         !
 ! D373  D(60,61,62,63)        173.6163                                         !
 ! D374  D(60,61,62,129)       -63.549                                          !
 ! D375  D(60,61,62,130)        51.7299                                         !
 ! D376  D(127,61,62,63)        51.3081                                         !
 ! D377  D(127,61,62,129)      174.1428                                         !
 ! D378  D(127,61,62,130)      -70.5783                                         !
 ! D379  D(128,61,62,63)       -64.8862                                         !
 ! D380  D(128,61,62,129)       57.9485                                         !
 ! D381  D(128,61,62,130)      173.2274                                         !
 ! D382  D(61,62,63,64)         61.328                                          !
 ! D383  D(61,62,63,65)       -174.862                                          !
 ! D384  D(61,62,63,131)       -57.3068                                         !
 ! D385  D(129,62,63,64)       -61.7754                                         !
 ! D386  D(129,62,63,65)        62.0346                                         !
 ! D387  D(129,62,63,131)      179.5898                                         !
 ! D388  D(130,62,63,64)      -176.7226                                         !
 ! D389  D(130,62,63,65)       -52.9126                                         !
 ! D390  D(130,62,63,131)       64.6426                                         !
 ! D391  D(62,63,64,132)        58.4804                                         !
 ! D392  D(62,63,64,133)       177.864                                          !
 ! D393  D(62,63,64,134)       -61.8526                                         !
 ! D394  D(65,63,64,132)       -65.2731                                         !
 ! D395  D(65,63,64,133)        54.1105                                         !
 ! D396  D(65,63,64,134)       174.3939                                         !
 ! D397  D(131,63,64,132)      176.9047                                         !
 ! D398  D(131,63,64,133)      -63.7117                                         !
 ! D399  D(131,63,64,134)       56.5717                                         !
 ! D400  D(62,63,65,135)        56.8663                                         !
 ! D401  D(62,63,65,136)       177.4175                                         !
 ! D402  D(62,63,65,137)       -62.8992                                         !
 ! D403  D(64,63,65,135)      -178.3097                                         !
 ! D404  D(64,63,65,136)       -57.7585                                         !
 ! D405  D(64,63,65,137)        61.9248                                         !
 ! D406  D(131,63,65,135)      -60.4781                                         !
 ! D407  D(131,63,65,136)       60.0731                                         !
 ! D408  D(131,63,65,137)      179.7564                                         !
 --------------------------------------------------------------------------------
 Stoichiometry    C55H72MgN4O5
 Framework group  C1[X(C55H72MgN4O5)]
 Deg. of freedom   405
 Full point group                 C1      NOp   1
 Largest Abelian subgroup         C1      NOp   1
 Largest concise Abelian subgroup C1      NOp   1
                         Standard orientation:                         
 ---------------------------------------------------------------------
 Center     Atomic      Atomic             Coordinates (Angstroms)
[...]
  Beta virt. eigenvalues --    4.78982   4.79216   4.79849   4.80291   4.80672
  Beta virt. eigenvalues --    4.81497   4.81650   4.82209   4.82571   4.83282
  Beta virt. eigenvalues --    4.83451   4.85362   4.85910   4.85959   4.86330
  Beta virt. eigenvalues --    4.86756   4.87162   4.87298   4.87478   4.88192
  Beta virt. eigenvalues --    4.88806   4.89771   4.90262   4.90464   4.90612
  Beta virt. eigenvalues --    4.91992   4.92343   4.93543   4.93915   4.94191
  Beta virt. eigenvalues --    4.94673   4.95181   4.95546   4.96065   4.96780
  Beta virt. eigenvalues --    4.97068   4.97602   4.98063   4.98272   4.99081
  Beta virt. eigenvalues --    4.99268   4.99605   4.99858   5.00563   5.00780
  Beta virt. eigenvalues --    5.01703   5.03271   5.03463   5.03624   5.04986
  Beta virt. eigenvalues --    5.05445   5.06390   5.06406   5.07298   5.07587
  Beta virt. eigenvalues --    5.08374   5.09398   5.09517   5.10041   5.10140
  Beta virt. eigenvalues --    5.11657   5.12310   5.12991   5.14260   5.15416
  Beta virt. eigenvalues --    5.16082   5.17411   5.17511   5.18011   5.19879
  Beta virt. eigenvalues --    5.20906   5.21083   5.22242   5.22931   5.23976
  Beta virt. eigenvalues --    5.26033   5.27876   5.28365   5.28581   5.29132
  Beta virt. eigenvalues --    5.30050   5.30662   5.31302   5.31633   5.31812
  Beta virt. eigenvalues --    5.32561   5.33512   5.33653   5.34146   5.35564
  Beta virt. eigenvalues --    5.35732   5.36058   5.36891   5.37587   5.38546
  Beta virt. eigenvalues --    5.39324   5.39964   5.40884   5.41154   5.41662
  Beta virt. eigenvalues --    5.42975   5.43559   5.44802   5.46636   5.48404
  Beta virt. eigenvalues --    5.49518   5.50570   5.51497   5.51874   5.52952
  Beta virt. eigenvalues --    5.53284   5.53468   5.53882   5.55275   5.56603
  Beta virt. eigenvalues --    5.57613   5.58514   5.60000   5.60474   5.61359
  Beta virt. eigenvalues --    5.62325   5.63199   5.64091   5.66063   5.66869
  Beta virt. eigenvalues --    5.67564   5.71946   5.72570   5.73253   5.75565
  Beta virt. eigenvalues --    5.76018   5.77986   5.78465   5.80073   5.80754
  Beta virt. eigenvalues --    5.81370   5.82355   5.83106   5.84117   5.86054
  Beta virt. eigenvalues --    5.89109   5.91303   5.92822   5.93301   5.96816
  Beta virt. eigenvalues --    5.99269   5.99525   6.01061   6.03376   6.04631
  Beta virt. eigenvalues --    6.07801   6.11563   6.12666   6.13617   6.14342
  Beta virt. eigenvalues --    6.15498   6.15652   6.16817   6.18574   6.20648
  Beta virt. eigenvalues --    6.24084   6.24907   6.27600   6.32683   6.35594
  Beta virt. eigenvalues --    6.35873   6.36368   6.39671   6.40734   6.44663
  Beta virt. eigenvalues --    6.48998   6.49523   6.53767   6.54886   6.56775
  Beta virt. eigenvalues --    6.58479   6.61025   6.67744   6.69125   6.70155
  Beta virt. eigenvalues --    6.73987   6.74914   6.79289   6.79812   6.82227
  Beta virt. eigenvalues --    6.83720   6.84585   6.90429   6.94605   6.96243
  Beta virt. eigenvalues --    6.97164   7.01299   7.02129   7.03276   7.03963
  Beta virt. eigenvalues --    7.08091   7.12557   7.18217   7.18506   7.26622
  Beta virt. eigenvalues --    7.27194   7.28689   7.31762   7.34790   7.44188
  Beta virt. eigenvalues --    7.46001   7.56032   7.57809  22.41823  22.43693
  Beta virt. eigenvalues --   22.45584  22.46861  22.47271  22.49246  22.50671
  Beta virt. eigenvalues --   22.51221  22.51476  22.52085  22.54630  22.59683
  Beta virt. eigenvalues --   22.60258  22.60545  22.62845  22.62944  22.63830
  Beta virt. eigenvalues --   22.64036  22.64250  22.65938  22.66860  22.67598
  Beta virt. eigenvalues --   22.68992  22.72013  22.72900  22.77114  22.77322
  Beta virt. eigenvalues --   22.77706  22.80519  22.93227  22.95470  22.96924
  Beta virt. eigenvalues --   22.99708  23.01680  23.04334  23.09959  23.12989
  Beta virt. eigenvalues --   23.16085  23.21155  23.21463  23.22938  23.36902
  Beta virt. eigenvalues --   23.39914  23.44441  23.48307  23.53230  23.55492
  Beta virt. eigenvalues --   23.58588  23.64727  23.66298  23.69529  23.81302
  Beta virt. eigenvalues --   23.86729  23.95393  24.11630  32.87766  32.90472
  Beta virt. eigenvalues --   32.94223  33.09235  44.08644  44.20620  44.21583
  Beta virt. eigenvalues --   44.38697  44.42393
          Condensed to atoms (all electrons):
          Atomic-Atomic Spin Densities.
 Mulliken charges and spin densities:
               1          2
     1  Mg   0.778653  -0.002952
     2  C   -0.195529   0.042890
     3  C   -0.564081   0.049715
     4  C   -0.374714   0.048051
     5  C   -0.387155   0.271514
     6  N   -0.481738   0.096337
     7  C    0.301172  -0.005976
     8  C   -0.006206  -0.002052
     9  C    0.095868   0.000175
    10  C    0.226854   0.027822
    11  C   -0.380285   0.000662
    12  C   -0.296975   0.001540
    13  C   -0.204210   0.000053
    14  C    0.377019   0.000056
    15  O   -0.385304   0.000013
    16  O   -0.286601  -0.000006
    17  N   -0.427593  -0.044526
    18  C    0.315398   0.080606
    19  C   -0.024842   0.076306
    20  C   -0.004110   0.047284
    21  C    0.252610   0.060925
    22  C   -0.420595  -0.004594
    23  C   -0.164863  -0.018106
    24  C   -0.303876   0.037483
    25  N   -0.445287   0.101937
    26  C    0.215929   0.015534
    27  C   -0.005134  -0.055492
    28  C   -0.065768   0.037564
    29  C    0.349983  -0.102435
    30  C   -0.383541   0.004371
    31  C   -0.272089  -0.002178
    32  C   -0.305146   0.001970
    33  N   -0.450054  -0.002218
    34  C    0.232462  -0.065469
    35  C   -0.122891   0.201817
    36  C   -0.089781   0.002078
    37  C    0.191879   0.024932
    38  C   -0.421175  -0.010685
    39  C    0.178109   0.020048
    40  O   -0.402871   0.046794
    41  C    0.041704   0.003738
    42  C    0.351436   0.000317
    43  O   -0.389126   0.001368
    44  O   -0.286240  -0.000128
    45  C   -0.184354   0.000053
    46  C   -0.012800   0.000010
    47  C   -0.151664  -0.000002
    48  C    0.034651   0.000005
    49  C   -0.358719  -0.000000
    50  C   -0.160999  -0.000000
    51  C   -0.250186  -0.000000
    52  C   -0.175422   0.000000
    53  C    0.049555  -0.000000
    54  C   -0.390526   0.000000
    55  C   -0.180473   0.000000
    56  C   -0.220941  -0.000000
    57  C   -0.181137   0.000000
    58  C    0.054937  -0.000000
    59  C   -0.390806   0.000000
    60  C   -0.179435   0.000000
    61  C   -0.223953  -0.000000
    62  C   -0.183962   0.000000
    63  C    0.012705  -0.000000
    64  C   -0.359037  -0.000000
    65  C   -0.319870  -0.000000
    66  H    0.095202  -0.001949
    67  H    0.110754  -0.001436
    68  H    0.114175  -0.010697
    69  H    0.107919   0.000038
    70  H    0.052336   0.000716
    71  H    0.092509   0.001623
    72  H    0.107052   0.000450
    73  H    0.136129  -0.000139
    74  H    0.128351  -0.000355
    75  H    0.124307   0.000102
    76  H    0.119660   0.000313
    77  H    0.120271  -0.000033
    78  H    0.117808   0.005951
    79  H    0.133752   0.000173
    80  H    0.109105   0.001642
    81  H    0.100374   0.001807
    82  H    0.098388  -0.001601
    83  H    0.130194  -0.001298
    84  H    0.122916  -0.002505
    85  H    0.098262  -0.000084
    86  H    0.118726  -0.002074
    87  H    0.097690   0.002350
    88  H    0.085161   0.000254
    89  H    0.083319  -0.000077
    90  H    0.101948   0.000108
    91  H    0.123393  -0.000236
    92  H    0.104526   0.008341
    93  H    0.142294   0.000331
    94  H    0.108620   0.010781
    95  H    0.079817   0.000348
    96  H    0.114333  -0.000018
    97  H    0.129498   0.000016
    98  H    0.112242   0.000007
    99  H    0.113541  -0.000001
   100  H    0.090758  -0.000000
   101  H    0.103865   0.000000
   102  H    0.122460   0.000000
   103  H    0.114792   0.000000
   104  H    0.131729   0.000000
   105  H    0.102207   0.000000
   106  H    0.096562  -0.000000
   107  H    0.110766   0.000000
   108  H    0.096210  -0.000000
   109  H    0.084561   0.000000
   110  H    0.090742  -0.000000
   111  H    0.049632   0.000000
   112  H    0.123916  -0.000000
   113  H    0.115017  -0.000000
   114  H    0.102189  -0.000000
   115  H    0.085177   0.000000
   116  H    0.086816  -0.000000
   117  H    0.098484   0.000000
   118  H    0.082242  -0.000000
   119  H    0.085121  -0.000000
   120  H    0.086232   0.000000
   121  H    0.049844   0.000000
   122  H    0.100744   0.000000
   123  H    0.120069  -0.000000
   124  H    0.118224  -0.000000
   125  H    0.086004   0.000000
   126  H    0.087378  -0.000000
   127  H    0.091269   0.000000
   128  H    0.094794   0.000000
   129  H    0.087837  -0.000000
   130  H    0.085331  -0.000000
   131  H    0.053430  -0.000000
   132  H    0.100324   0.000000
   133  H    0.107953   0.000000
   134  H    0.119997  -0.000000
   135  H    0.106575   0.000000
   136  H    0.108121   0.000000
   137  H    0.099200   0.000000
 Sum of Mulliken charges =  -1.00000   1.00000
 Mulliken charges and spin densities with hydrogens summed into heavy atoms:
               1          2
     1  Mg   0.778653  -0.002952
     2  C   -0.195529   0.042890
     3  C   -0.468879   0.047766
     4  C   -0.263960   0.046615
     5  C   -0.272980   0.260818
     6  N   -0.481738   0.096337
     7  C    0.301172  -0.005976
     8  C    0.101714  -0.002013
     9  C    0.148205   0.000891
    10  C    0.226854   0.027822
    11  C   -0.044596   0.002596
    12  C   -0.044318   0.001287
    13  C    0.035720   0.000333
    14  C    0.377019   0.000056
    15  O   -0.385304   0.000013
    16  O   -0.286601  -0.000006
    17  N   -0.427593  -0.044526
    18  C    0.315398   0.080606
    19  C   -0.024842   0.076306
    20  C   -0.004110   0.047284
    21  C    0.252610   0.060925
    22  C   -0.059930   0.003172
    23  C   -0.064489  -0.016299
    24  C   -0.075294   0.034585
    25  N   -0.445287   0.101937
    26  C    0.215929   0.015534
    27  C   -0.005134  -0.055492
    28  C   -0.065768   0.037564
    29  C    0.349983  -0.102435
    30  C   -0.043637  -0.000292
    31  C   -0.089238   0.000427
    32  C    0.003515   0.001764
    33  N   -0.450054  -0.002218
    34  C    0.232462  -0.065469
    35  C   -0.122891   0.201817
    36  C   -0.089781   0.002078
    37  C    0.191879   0.024932
    38  C   -0.065736   0.008768
    39  C    0.178109   0.020048
    40  O   -0.402871   0.046794
    41  C    0.121521   0.004086
    42  C    0.351436   0.000317
    43  O   -0.389126   0.001368
    44  O   -0.286240  -0.000128
    45  C    0.171719   0.000058
    46  C    0.191499   0.000009
    47  C   -0.047799  -0.000002
    48  C    0.034651   0.000005
    49  C    0.010262   0.000000
    50  C    0.037770   0.000000
    51  C   -0.043210   0.000000
    52  C   -0.000118   0.000000
    53  C    0.099187  -0.000000
    54  C   -0.049404   0.000000
    55  C   -0.008480   0.000000
    56  C   -0.040215  -0.000000
    57  C   -0.009784   0.000000
    58  C    0.104781  -0.000000
    59  C   -0.051768   0.000000
    60  C   -0.006053   0.000000
    61  C   -0.037890  -0.000000
    62  C   -0.010794   0.000000
    63  C    0.066135  -0.000000
    64  C   -0.030764  -0.000000
    65  C   -0.005974  -0.000000
 Electronic spatial extent (au):  <R**2>=         178689.4590
 Charge=             -1.0000 electrons
 Dipole moment (field-independent basis, Debye):
    X=             34.5639    Y=              3.6236    Z=             -0.5329  Tot=             34.7575
 Quadrupole moment (field-independent basis, Debye-Ang):
   XX=           -649.1912   YY=           -471.7301   ZZ=           -415.4107
   XY=             -4.3927   XZ=              2.3733   YZ=             -1.1464
 Traceless Quadrupole moment (field-independent basis, Debye-Ang):
   XX=           -137.0806   YY=             40.3806   ZZ=             96.7000
   XY=             -4.3927   XZ=              2.3733   YZ=             -1.1464
 Octapole moment (field-independent basis, Debye-Ang**2):
  XXX=           1935.9089  YYY=             39.2477  ZZZ=             -1.0642  XYY=            516.8333
  XXY=           -140.0023  XXZ=            -35.8361  XZZ=            101.9218  YZZ=            -16.5407
  YYZ=            -12.2966  XYZ=            -37.6537
 Hexadecapole moment (field-independent basis, Debye-Ang**3):
 XXXX=        -251908.0867 YYYY=         -19025.4009 ZZZZ=          -4071.9012 XXXY=            465.1870
 XXXZ=          -1490.0391 YYYX=            176.7769 YYYZ=           -168.0544 ZZZX=           -103.3668
 ZZZY=            -82.8919 XXYY=         -44079.2663 XXZZ=         -39984.8543 YYZZ=          -3517.5849
 XXYZ=           -163.8749 YYXZ=            203.6252 ZZXY=             48.2471
 N-N= 8.808290959957D+03 E-N=-2.449725526085D+04  KE= 2.922200324072D+03

 Test job not archived.
 1\1\GINC-RYZEN-SSD3\SP\UwB97XD\def2TZVP\C55H72Mg1N4O5(1-,2)\PADAWAN\09
 -Dec-2019\0\\# wB97XD/Def2TZVP Geom=Checkpoint iop(3/107=0120000000,3/
 108=0120000000)\\cla-s0-Anion\\-1,2\Mg,0,-8.9985091643,0.3992017787,0.
 1246913442\C,0,-6.5408676917,-1.9661707028,0.4527059107\C,0,-6.7563511
 543,2.7928687202,0.9789892439\C,0,-11.414124977,2.7299162589,-0.259934
 0831\C,0,-11.2819947996,-2.1011862073,-0.5753320173\N,0,-6.9285613705,
 0.3939341577,0.6184009556\C,0,-6.0978519039,-0.7020621469,0.6782498645
 \C,0,-4.6837278458,-0.2982234417,1.0202924857\C,0,-4.8438075822,1.1823
 060414,1.4113195078\C,0,-6.2595123935,1.4991441848,0.9691144522\C,0,-4
 .6532600284,1.429447262,2.9069403582\C,0,-3.7156391535,-0.5208560187,-
 0.1444774536\C,0,-2.2709451805,-0.2989133575,0.2702884209\C,0,-1.29574
 65549,-0.4591607411,-0.8693863022\O,0,-1.594471401,-0.6324635868,-2.02
 01114008\O,0,-0.0345083662,-0.3733789757,-0.4344771932\N,0,-9.06577040
 11,2.4038672531,0.3108255851\C,0,-8.0516147412,3.2149549613,0.66294587
 17\C,0,-8.5010066776,4.6002189171,0.6792720264\C,0,-9.8124349307,4.585
 2227637,0.3170337345\C,0,-10.1757128018,3.1892448476,0.0985687527\C,0,
 -7.6539860583,5.7622121528,1.0696247048\C,0,-10.7408036028,5.703006049
 4,0.1864001016\C,0,-10.4370304338,6.9118836752,-0.2745639526\N,0,-11.0
 030411827,0.3230087585,-0.3409937459\C,0,-11.8184288981,1.3861199376,-
 0.4627472811\C,0,-13.1462026939,0.9672122393,-0.8147570329\C,0,-13.112
 0411915,-0.3993023752,-0.893076385\C,0,-11.7604997813,-0.7941202835,-0
 .598514766\C,0,-14.3051137514,1.8793650639,-1.0484356372\C,0,-14.22747
 2907,-1.3212917718,-1.2697707575\C,0,-14.2635244086,-1.6167772464,-2.7
 706647854\N,0,-8.9700843253,-1.5923710758,-0.0531026096\C,0,-9.9781396
 183,-2.5071855668,-0.3155402115\C,0,-9.4585057629,-3.8441817682,-0.267
 0452179\C,0,-8.1147969,-3.6895595348,0.029184164\C,0,-7.8781721147,-2.
 3063950211,0.1467418671\C,0,-10.2204258027,-5.1069755692,-0.4756388557
 \C,0,-6.8671383539,-4.3977149478,0.2763809744\O,0,-6.6262937986,-5.575
 3651617,0.3131681947\C,0,-5.7734905482,-3.2733421554,0.4951544597\C,0,
 -5.0326326953,-3.530042124,1.7862177796\O,0,-5.4270273093,-3.229660633
 6,2.8801564078\O,0,-3.8718030406,-4.1515935647,1.561086289\C,0,-3.1354
 952796,-4.5267149895,2.7214313763\C,0,0.9915139517,-0.5049277459,-1.43
 55374658\C,0,2.3087897128,-0.4508514426,-0.744967357\C,0,3.3193864834,
 0.3761874754,-1.0033024238\C,0,3.2951823148,1.4523095358,-2.0519790717
 \C,0,4.6114195078,0.2544952644,-0.2391691147\C,0,5.8083169688,-0.12940
 03348,-1.1123018768\C,0,7.0808737859,-0.313918616,-0.2944553729\C,0,8.
 3536651265,-0.5501162063,-1.1122591143\C,0,8.2620032554,-1.8249314397,
 -1.9476479331\C,0,9.5709477613,-0.5620972175,-0.1832290079\C,0,10.9247
 257391,-0.601713296,-0.8829634741\C,0,12.0888013567,-0.4984063553,0.09
 60009614\C,0,13.4770173449,-0.4088157399,-0.5439760464\C,0,13.81482831
 17,-1.6608946335,-1.3499186207\C,0,14.5276884778,-0.1258970326,0.53324
 75947\C,0,15.9366099739,0.1421084609,0.0160620946\C,0,16.8878779328,0.
 5822609392,1.1230098467\C,0,18.352949165,0.7207505401,0.703883799\C,0,
 18.5460855863,1.7715335701,-0.3864536186\C,0,19.2249537564,1.040177780
 5,1.9147720938\H,0,-6.0542490972,3.564714203,1.265591729\H,0,-12.18358
 72953,3.4777752539,-0.4042503435\H,0,-12.0017844444,-2.8844957201,-0.7
 833615112\H,0,-4.3403252111,-0.8814170641,1.8798365741\H,0,-4.14309282
 6,1.8121378425,0.8570055462\H,0,-3.6343890646,1.1754527715,3.205829352
 3\H,0,-4.8354717666,2.4735662262,3.1641369736\H,0,-5.341025426,0.81060
 38246,3.4866904469\H,0,-3.8187586059,-1.5359850385,-0.5287225988\H,0,-
 3.9761662406,0.1439107483,-0.971248368\H,0,-2.12002395,0.7013913131,0.
 6869323508\H,0,-1.9825851002,-0.995729556,1.0617768502\H,0,-7.02031782
 16,6.0928940927,0.2421992612\H,0,-8.2723226582,6.6073452515,1.37193788
 \H,0,-6.9965205509,5.50684756,1.9021548143\H,0,-11.7662203023,5.508771
 9751,0.4869597587\H,0,-11.1868231782,7.6903165297,-0.3318206752\H,0,-9
 .4441090662,7.1567598363,-0.6303987628\H,0,-14.116310529,2.556556736,-
 1.8850260427\H,0,-15.2098647048,1.3180140484,-1.2800213126\H,0,-14.513
 7539749,2.4956429261,-0.1705691754\H,0,-14.1383255395,-2.2587348818,-0
 .7156972268\H,0,-15.1802347748,-0.8840109393,-0.963532896\H,0,-15.0839
 767165,-2.2925894614,-3.0182660068\H,0,-14.3946146055,-0.6955495716,-3
 .3409700839\H,0,-13.3294596407,-2.0771325668,-3.097488291\H,0,-10.7693
 597152,-5.0877410241,-1.4194510417\H,0,-9.5457757921,-5.961036873,-0.4
 848997869\H,0,-10.9490025336,-5.2589027917,0.3242976516\H,0,-5.0691400
 313,-3.3777394759,-0.3324302881\H,0,-2.8718498132,-3.6477432997,3.3103
 899075\H,0,-3.721382512,-5.2053820189,3.3405782542\H,0,-2.2406189596,-
 5.0229952295,2.3560272385\H,0,0.8515220031,-1.4629715024,-1.9426363588
 \H,0,0.8609557518,0.2774982909,-2.1815516064\H,0,2.4374811387,-1.19370
 81792,0.0371766888\H,0,2.2901743447,1.7030875602,-2.385012248\H,0,3.76
 130263,2.3620972219,-1.6660690186\H,0,3.8700795929,1.1500875951,-2.930
 9674624\H,0,4.8262524036,1.2122017176,0.2495964783\H,0,4.4974914066,-0
 .4864673804,0.5559357771\H,0,5.5634669356,-1.0483367388,-1.6512732985\
 H,0,5.9789452168,0.6416867456,-1.8702710881\H,0,7.2277130631,0.5764395
 88,0.3266222738\H,0,6.945510267,-1.1504866604,0.4018180414\H,0,8.46867
 48691,0.2984908464,-1.7990738788\H,0,7.4149512309,-1.7975039723,-2.633
 8208598\H,0,9.1583010353,-1.9770099473,-2.5494846807\H,0,8.1408100353,
 -2.698099755,-1.2993629052\H,0,9.5324532183,0.3305415189,0.4504567064\
 H,0,9.489888669,-1.4194398655,0.4962941166\H,0,11.0123938671,-1.523583
 5142,-1.4612696191\H,0,10.9836328136,0.2228165318,-1.6031890172\H,0,11
 .9392325221,0.3867285586,0.7237074734\H,0,12.0665563559,-1.3589798537,
 0.7759316812\H,0,13.4702056466,0.446103255,-1.2325905941\H,0,13.832512
 6615,-2.5404541175,-0.6990681529\H,0,13.0839565598,-1.8425950087,-2.13
 84814507\H,0,14.7911644729,-1.5792146152,-1.8285766745\H,0,14.20113482
 12,0.7422801597,1.1161221497\H,0,14.5532776802,-0.9688953078,1.2346289
 107\H,0,16.3416393663,-0.7561943073,-0.45967758\H,0,15.8873490339,0.90
 89808512,-0.7632271304\H,0,16.5459741873,1.5392346088,1.5363506496\H,0
 ,16.8277977157,-0.1406276063,1.944047334\H,0,18.6754242526,-0.24701536
 36,0.3014482102\H,0,18.184847115,2.7468799858,-0.0466367795\H,0,19.602
 3615429,1.8785869978,-0.6415342203\H,0,18.0097193016,1.5156438815,-1.3
 010645263\H,0,19.1194913836,0.2801172204,2.6917693237\H,0,20.280085496
 2,1.0973692041,1.6396509327\H,0,18.9416449061,2.0032161687,2.349340188
 2\\Version=ES64L-G16RevA.03\State=2-A\HF=-2935.0572215\S2=0.805287\S2-
 1=0.\S2A=0.751318\RMSD=4.560e-09\Dipole=13.6096398,1.3169259,-0.197552
 4\Quadrupole=-101.9625918,30.0673103,71.8952816,-2.2102729,1.6154841,-
 0.903787\PG=C01 [X(C55H72Mg1N4O5)]\\@


 HE THAT IS UNAWARE OF HIS IGNORANCE WILL BE MISLED BY HIS KNOWLEDGE.

                                        -- WHATLEY
 Job cpu time:       5 days 17 hours 52 minutes  3.3 seconds.
 Elapsed time:       0 days  4 hours 37 minutes 32.8 seconds.
 File lengths (MBytes):  RWF=   5499 Int=      0 D2E=      0 Chk=    497 Scr=      1
 Normal termination of Gaussian 16 at Mon Dec  9 06:02:17 2019.
