 Entering Gaussian System, Link 0=g16
 Input=Geometria-96-.com
 Output=Geometria-96-.log
 Initial command:
 /usr/local/g16/l1.exe "/home/padawan/israel-mol/zeaxanthin/spectra/abs/Gau-24740.inp" -scrdir="/home/padawan/israel-mol/zeaxanthin/spectra/abs/"
 Entering Link 1 = /usr/local/g16/l1.exe PID=     24742.
  
 Copyright (c) 1988,1990,1992,1993,1995,1998,2003,2009,2016,
            Gaussian, Inc.  All Rights Reserved.
  
 This is part of the Gaussian(R) 16 program.  It is based on
 the Gaussian(R) 09 system (copyright 2009, Gaussian, Inc.),
 the Gaussian(R) 03 system (copyright 2003, Gaussian, Inc.),
 the Gaussian(R) 98 system (copyright 1998, Gaussian, Inc.),
 the Gaussian(R) 94 system (copyright 1995, Gaussian, Inc.),
 the Gaussian 92(TM) system (copyright 1992, Gaussian, Inc.),
 the Gaussian 90(TM) system (copyright 1990, Gaussian, Inc.),
 the Gaussian 88(TM) system (copyright 1988, Gaussian, Inc.),
 the Gaussian 86(TM) system (copyright 1986, Carnegie Mellon
 University), and the Gaussian 82(TM) system (copyright 1983,
 Carnegie Mellon University). Gaussian is a federally registered
 trademark of Gaussian, Inc.
  
 This software contains proprietary and confidential information,
 including trade secrets, belonging to Gaussian, Inc.
  
 This software is provided under written license and may be
 used, copied, transmitted, or stored only in accord with that
 written license.
  
 The following legend is applicable only to US Government
 contracts under FAR:
  
                    RESTRICTED RIGHTS LEGEND
  
 Use, reproduction and disclosure by the US Government is
 subject to restrictions as set forth in subparagraphs (a)
 and (c) of the Commercial Computer Software - Restricted
 Rights clause in FAR 52.227-19.
  
 Gaussian, Inc.
 340 Quinnipiac St., Bldg. 40, Wallingford CT 06492
  
  
 ---------------------------------------------------------------
 Warning -- This program may not be used in any manner that
 competes with the business of Gaussian, Inc. or will provide
 assistance to any competitor of Gaussian, Inc.  The licensee
 of this program is prohibited from giving any competitor of
 Gaussian, Inc. access to this program.  By using this program,
 the user acknowledges that Gaussian, Inc. is engaged in the
 business of creating and licensing software in the field of
 computational chemistry and represents and warrants to the
 licensee that it is not a competitor of Gaussian, Inc. and that
 it will not use this program in any manner prohibited above.
 ---------------------------------------------------------------
  

 Cite this work as:
 Gaussian 16, Revision A.03,
 M. J. Frisch, G. W. Trucks, H. B. Schlegel, G. E. Scuseria, 
 M. A. Robb, J. R. Cheeseman, G. Scalmani, V. Barone, 
 G. A. Petersson, H. Nakatsuji, X. Li, M. Caricato, A. V. Marenich, 
 J. Bloino, B. G. Janesko, R. Gomperts, B. Mennucci, H. P. Hratchian, 
 J. V. Ortiz, A. F. Izmaylov, J. L. Sonnenberg, D. Williams-Young, 
 F. Ding, F. Lipparini, F. Egidi, J. Goings, B. Peng, A. Petrone, 
 T. Henderson, D. Ranasinghe, V. G. Zakrzewski, J. Gao, N. Rega, 
 G. Zheng, W. Liang, M. Hada, M. Ehara, K. Toyota, R. Fukuda, 
 J. Hasegawa, M. Ishida, T. Nakajima, Y. Honda, O. Kitao, H. Nakai, 
 T. Vreven, K. Throssell, J. A. Montgomery, Jr., J. E. Peralta, 
 F. Ogliaro, M. J. Bearpark, J. J. Heyd, E. N. Brothers, K. N. Kudin, 
 V. N. Staroverov, T. A. Keith, R. Kobayashi, J. Normand, 
 K. Raghavachari, A. P. Rendell, J. C. Burant, S. S. Iyengar, 
 J. Tomasi, M. Cossi, J. M. Millam, M. Klene, C. Adamo, R. Cammi, 
 J. W. Ochterski, R. L. Martin, K. Morokuma, O. Farkas, 
 J. B. Foresman, and D. J. Fox, Gaussian, Inc., Wallingford CT, 2016.
 
 ******************************************
 Gaussian 16:  ES64L-G16RevA.03 25-Dec-2016
                29-Jun-2019 
 ******************************************
 %nproc=4
 Will use up to    4 processors via shared memory.
 %Mem=2GB
 -------------------------------------
 # td=(NStates=1) CAM-B3LYP/6-31G(d,p)
 -------------------------------------
 1/38=1,172=1/1;
 2/12=2,17=6,18=5,40=1/2;
 3/5=1,6=6,7=101,11=9,25=1,30=1,74=-40/1,2,3,8;
 4//1;
 5/5=2,38=5/2;
 8/6=1,10=2,108=1/1;
 9/41=1,42=1,70=2/14;
 6/7=2,8=2,9=2,10=2/1;
 99/5=1,9=1/99;
 --
 TD
 --
 Symbolic Z-matrix:
 Charge =  0 Multiplicity = 1
 8                     14.53712  -2.43168  -0.54662 
 8                    -14.92093   1.8479    0.47969 
 6                     11.45749  -1.16503   1.17976 
 6                    -12.24159  -0.87997   0.84495 
 6                     12.94279  -1.43135   1.01972 
 6                    -13.72798  -0.28191   0.68735 
 6                     13.21692  -1.92824  -0.31039 
 6                    -13.60822   1.29872   0.60542 
 6                     10.88784  -0.32634  -0.04416 
 6                    -11.3101  -0.27074  -0.16879 
 6                     12.97767  -0.86698  -1.39125 
 6                    -12.86524   1.72718  -0.58063 
 6                     11.61631  -0.24241  -1.1555 
 6                    -11.55259   0.90748  -0.81826 
 6                     11.2754  -0.02775   2.38477 
 6                     10.57164  -2.29392   1.46885 
 6                    -11.70409  -0.67993   2.18481 
 6                    -12.56784  -2.40611   0.53219 
 6                     9.60832   0.31577   0.09874 
 6                    -10.1258  -1.09206  -0.37738 
 6                     11.31179   0.47942  -2.4288 
 6                    -10.5678   1.51194  -1.77878 
 6                     9.24864   1.63419  -0.14402 
 6                    -8.84722  -0.58715  -0.26069 
 6                     8.00111   2.24533   0.19126 
 6                    -7.55769  -1.32374  -0.56056 
 6                     8.14347   3.63608   0.67005 
 6                    -7.5198   -2.8723   -0.81832 
 6                     6.89935   1.57959  -0.11447 
 6                    -6.36824  -0.6216   -0.27667 
 6                     5.57925   2.1019    0.12358 
 6                    -5.00906  -1.11811  -0.45765 
 6                     4.50475   1.27237  -0.07675 
 6                    -3.957    -0.41093  -0.14514 
 6                     3.06158   1.67589   0.26661 
 6                    -2.53854  -0.75671  -0.39962 
 6                     2.89129   3.07609   0.77328 
 6                    -2.25076  -2.24103  -0.95312 
 6                     2.1348    0.78799  -0.17431 
 6                    -1.70122   0.12417  -0.0462 
 6                     0.70875   0.8973    0.04604 
 6                    -0.19268  -0.01372  -0.24404 
 1                     13.54736  -0.46129   1.14097 
 1                     13.21619  -2.40676   1.62335 
 1                    -14.23018  -0.56431   1.51956 
 1                    -14.27824  -0.46465  -0.31296 
 1                     12.544   -2.74183  -0.45287 
 1                    -13.0499   1.749     1.4524 
 1                     13.6341   0.02786  -1.4509 
 1                     12.84907  -1.48248  -2.31506 
 1                    -13.3664   1.71815  -1.89183 
 1                    -12.76564   2.94044  -0.45943 
 1                     11.94017  -0.31676   3.27588 
 1                     10.20372   0.19642   2.57465 
 1                     11.79427   0.90557   2.15649 
 1                     10.89763  -3.10701   0.66701 
 1                     10.89791  -2.82709   2.48991 
 1                     9.54998  -2.06116   1.64106 
 1                    -11.97173   0.47585   2.49325 
 1                    -10.57394  -1.01474   2.51499 
 1                    -12.21871  -1.09667   3.0107 
 1                    -13.56811  -2.66231   1.07384 
 1                    -11.59135  -3.03398   0.73688 
 1                    -12.79899  -2.60375  -0.54952 
 1                     8.57907  -0.06887   0.43932 
 1                    -10.22669  -2.02227  -0.89729 
 1                     10.25514   1.06151  -2.37542 
 1                     12.08039   1.25706  -2.68489 
 1                     11.4474  -0.09338  -3.27052 
 1                    -10.94887   1.91158  -2.50537 
 1                    -9.80161   0.66461  -1.98492 
 1                    -9.95908   2.40377  -1.40415 
 1                     14.61033  -3.31189   0.01666 
 1                    -15.54294   1.78817   1.36697 
 1                     10.14336   2.2076   -0.51262 
 1                    -8.81176   0.3573    0.23891 
 1                     8.70674   4.1998   -0.15027 
 1                     7.07597   4.10611   0.79732 
 1                     8.61077   4.05153   1.69405 
 1                    -7.94884  -3.60436  -0.15144 
 1                    -8.11514  -2.93724  -1.86398 
 1                    -6.42915  -3.26162  -0.98426 
 1                     7.01072   0.58765  -0.44361 
 1                    -6.5214    0.42185   0.40873 
 1                     5.37146   3.02797   0.39376 
 1                    -5.03735  -2.02348  -1.11076 
 1                     4.5909    0.39066  -0.42819 
 1                    -4.09076   0.63711   0.27522 
 1                     3.27759   3.11946   1.61725 
 1                     1.80395   3.313     0.75648 
 1                     3.61386   3.65463   0.18439 
 1                    -2.44853  -2.79358   0.03376 
 1                    -3.01444  -2.52348  -1.7433 
 1                    -1.20871  -2.44806  -1.56305 
 1                     2.41442  -0.15168  -0.63085 
 1                    -1.86745   1.23531   0.15989 
 1                     0.31431   1.78847   0.18018 
 1                     0.01544  -1.09131  -0.53957 
 
 Stoichiometry    C40H56O2
 Framework group  C1[X(C40H56O2)]
 Deg. of freedom   288
 Full point group                 C1      NOp   1
 Largest Abelian subgroup         C1      NOp   1
 Largest concise Abelian subgroup C1      NOp   1
                         Standard orientation:                         
 ---------------------------------------------------------------------
 Center     Atomic      Atomic             Coordinates (Angstroms)
 Number     Number       Type             X           Y           Z
 ---------------------------------------------------------------------
      1          8           0       14.536012   -2.451856   -0.448086
      2          8           0      -14.922895    1.859843    0.404511
      3          6           0       11.455606   -1.121007    1.227890
      4          6           0      -12.243383   -0.851863    0.873969
      5          6           0       12.940999   -1.393018    1.078603
      6          6           0      -13.729777   -0.260405    0.693255
      7          6           0       13.215670   -1.939981   -0.231594
      8          6           0      -13.610173    1.316001    0.551464
      9          6           0       10.886306   -0.329428   -0.027173
     10          6           0      -11.311589   -0.281411   -0.161817
     11          6           0       12.976693   -0.920522   -1.352030
     12          6           0      -12.866803    1.699247   -0.649718
     13          6           0       11.615171   -0.287637   -1.140640
     14          6           0      -11.553975    0.871284   -0.855611
     15          6           0       11.272947    0.061143    2.388817
     16          6           0       10.569776   -2.238232    1.559276
     17          6           0      -11.706395   -0.601065    2.205466
     18          6           0      -12.569342   -2.388807    0.619213
     19          6           0        9.606660    0.317479    0.090797
     20          6           0      -10.127126   -1.109909   -0.338668
     21          6           0       11.311041    0.385334   -2.440512
     22          6           0      -10.568904    1.438997   -1.838013
     23          6           0        9.246929    1.625688   -0.201933
     24          6           0       -8.848636   -0.600772   -0.240758
     25          6           0        7.999199    2.248958    0.109474
     26          6           0       -7.558920   -1.348040   -0.512007
     27          6           0        8.141236    3.656887    0.535200
     28          6           0       -7.520763   -2.905260   -0.710817
     29          6           0        6.897625    1.571952   -0.171181
     30          6           0       -6.369650   -0.635485   -0.254531
     31          6           0        5.577382    2.102750    0.046405
     32          6           0       -5.010352   -1.138335   -0.416051
     33          6           0        4.503055    1.266085   -0.122697
     34          6           0       -3.958485   -0.419670   -0.130221
     35          6           0        3.059709    1.682154    0.204588
     36          6           0       -2.539890   -0.774679   -0.370884
     37          6           0        2.889076    3.100546    0.657711
     38          6           0       -2.251743   -2.278894   -0.867566
     39          6           0        2.133194    0.778046   -0.202656
     40          6           0       -1.702802    0.119084   -0.050836
     41          6           0        0.707046    0.895464    0.012871
     42          6           0       -0.194171   -0.026027   -0.242764
     43          1           0       13.545416   -0.418983    1.163179
     44          1           0       13.214282   -2.344795    1.718906
     45          1           0      -14.232249   -0.511084    1.535400
     46          1           0      -14.279655   -0.481033   -0.299600
     47          1           0       12.542890   -2.758477   -0.343354
     48          1           0      -13.052210    1.798159    1.380954
     49          1           0       13.633046   -0.028508   -1.445351
     50          1           0       12.848494   -1.570647   -2.251872
     51          1           0      -13.367489    1.640416   -1.959814
     52          1           0      -12.767382    2.916240   -0.574607
     53          1           0       11.937429   -0.193767    3.290493
     54          1           0       10.201171    0.292222    2.569667
     55          1           0       11.791796    0.985199    2.125485
     56          1           0       10.896152   -3.081118    0.788986
     57          1           0       10.895738   -2.732236    2.599951
     58          1           0        9.548031   -1.999232    1.722168
     59          1           0      -11.974280    0.565555    2.469744
     60          1           0      -10.576327   -0.922962    2.548518
     61          1           0      -12.221270   -0.986237    3.046393
     62          1           0      -13.569780   -2.624401    1.169839
     63          1           0      -11.592861   -3.008334    0.847932
     64          1           0      -12.800078   -2.627378   -0.454302
     65          1           0        8.577333   -0.054091    0.445356
     66          1           0      -10.227719   -2.059180   -0.822952
     67          1           0       10.254300    0.968889   -2.409640
     68          1           0       12.079639    1.152793   -2.725645
     69          1           0       11.447018   -0.218974   -3.259852
     70          1           0      -10.949751    1.810737   -2.579385
     71          1           0       -9.802539    0.584549   -2.011588
     72          1           0       -9.960420    2.344473   -1.497276
     73          1           0       14.609111   -3.310052    0.148216
     74          1           0      -15.545227    1.833747    1.293202
     75          1           0       10.141713    2.184821   -0.591702
     76          1           0       -8.813468    0.361957    0.222659
     77          1           0        8.704740    4.189148   -0.305713
     78          1           0        7.073632    4.131266    0.644158
     79          1           0        8.608106    4.110943    1.542873
     80          1           0       -7.949962   -3.611546   -0.016797
     81          1           0       -8.115708   -3.009906   -1.753475
     82          1           0       -6.430007   -3.300459   -0.861467
     83          1           0        7.009234    0.568257   -0.462407
     84          1           0       -6.523182    0.433198    0.390732
     85          1           0        5.369387    3.038377    0.281185
     86          1           0       -5.038297   -2.067837   -1.034352
     87          1           0        4.589431    0.371682   -0.440399
     88          1           0       -4.092520    0.643543    0.250029
     89          1           0        3.275060    3.175952    1.499565
     90          1           0        1.801713    3.336513    0.631541
     91          1           0        3.611792    3.656425    0.047554
     92          1           0       -2.449807   -2.793625    0.139492
     93          1           0       -3.015103   -2.591219   -1.646738
     94          1           0       -1.209444   -2.508787   -1.468830
     95          1           0        2.413082   -0.178233   -0.623121
     96          1           0       -1.869227    1.237223    0.112886
     97          1           0        0.312456    1.791029    0.112965
     98          1           0        0.014181   -1.114023   -0.497123
 ---------------------------------------------------------------------
 Rotational constants (GHZ):           0.2446115           0.0093047           0.0091428
 Standard basis: 6-31G(d,p) (6D, 7F)
 There are   910 symmetry adapted cartesian basis functions of A   symmetry.
 There are   910 symmetry adapted basis functions of A   symmetry.
   910 basis functions,  1568 primitive gaussians,   910 cartesian basis functions
   156 alpha electrons      156 beta electrons
       nuclear repulsion energy      3974.5174504627 Hartrees.
 NAtoms=   98 NActive=   98 NUniq=   98 SFac= 1.00D+00 NAtFMM=   60 NAOKFM=T Big=T
 Integral buffers will be    131072 words long.
 Raffenetti 1 integral format.
 Two-electron integral symmetry is turned on.
 One-electron integrals computed using PRISM.
 NBasis=   910 RedAO= T EigKep=  9.41D-04  NBF=   910
 NBsUse=   910 1.00D-06 EigRej= -1.00D+00 NBFU=   910
 ExpMin= 1.61D-01 ExpMax= 5.48D+03 ExpMxC= 8.25D+02 IAcc=3 IRadAn=         5 AccDes= 0.00D+00
 Harris functional with IExCor=20419 and IRadAn=       5 diagonalized for initial guess.
 HarFok:  IExCor=20419 AccDes= 0.00D+00 IRadAn=         5 IDoV= 1 UseB2=F ITyADJ=14
 ICtDFT=  3500011 ScaDFX=  1.000000  1.000000  1.000000  1.000000
 FoFCou: FMM=F IPFlag=           0 FMFlag=      100000 FMFlg1=        2001
         NFxFlg=           0 DoJE=T BraDBF=F KetDBF=T FulRan=T
         wScrn=  0.000000 ICntrl=       500 IOpCl=  0 I1Cent=   200000004 NGrid=           0
         NMat0=    1 NMatS0=      1 NMatT0=    0 NMatD0=    1 NMtDS0=    0 NMtDT0=    0
 Petite list used in FoFCou.
 Requested convergence on RMS density matrix=1.00D-08 within 128 cycles.
 Requested convergence on MAX density matrix=1.00D-06.
 Requested convergence on             energy=1.00D-06.
 No special actions if energy rises.
 Integral accuracy reduced to 1.0D-05 until final iterations.
 Initial convergence to 1.0D-05 achieved.  Increase integral accuracy.
 SCF Done:  E(RCAM-B3LYP) =  -1706.86379255     A.U. after   14 cycles
            NFock= 14  Conv=0.32D-08     -V/T= 2.0101
 DoSCS=F DFT=T ScalE2(SS,OS)=  1.000000  1.000000
 ExpMin= 1.61D-01 ExpMax= 5.48D+03 ExpMxC= 8.25D+02 IAcc=3 IRadAn=         5 AccDes= 0.00D+00
 HarFok:  IExCor=  205 AccDes= 0.00D+00 IRadAn=         5 IDoV=-2 UseB2=F ITyADJ=14
 ICtDFT= 12500011 ScaDFX=  1.000000  1.000000  1.000000  1.000000
 GSVD:  LWork=       -2100 too small for GESVD, short by        9450 words or        9450 for optimal perf.
 Range of M.O.s used for correlation:    43   910
 NBasis=   910 NAE=   156 NBE=   156 NFC=    42 NFV=     0
 NROrb=    868 NOA=   114 NOB=   114 NVA=   754 NVB=   754
 Orbital symmetries:
       Occupied  (A) (A) (A) (A) (A) (A) (A) (A) (A) (A) (A) (A)
                 (A) (A) (A) (A) (A) (A) (A) (A) (A) (A) (A) (A)
                 (A) (A) (A) (A) (A) (A) (A) (A) (A) (A) (A) (A)
                 (A) (A) (A) (A) (A) (A) (A) (A) (A) (A) (A) (A)
                 (A) (A) (A) (A) (A) (A) (A) (A) (A) (A) (A) (A)
                 (A) (A) (A) (A) (A) (A) (A) (A) (A) (A) (A) (A)
                 (A) (A) (A) (A) (A) (A) (A) (A) (A) (A) (A) (A)
                 (A) (A) (A) (A) (A) (A) (A) (A) (A) (A) (A) (A)
                 (A) (A) (A) (A) (A) (A) (A) (A) (A) (A) (A) (A)
                 (A) (A) (A) (A) (A) (A) (A) (A) (A) (A) (A) (A)
                 (A) (A) (A) (A) (A) (A) (A) (A) (A) (A) (A) (A)
                 (A) (A) (A) (A) (A) (A) (A) (A) (A) (A) (A) (A)
                 (A) (A) (A) (A) (A) (A) (A) (A) (A) (A) (A) (A)
       Virtual   (A) (A) (A) (A) (A) (A) (A) (A) (A) (A) (A) (A)
                 (A) (A) (A) (A) (A) (A) (A) (A) (A) (A) (A) (A)
                 (A) (A) (A) (A) (A) (A) (A) (A) (A) (A) (A) (A)
                 (A) (A) (A) (A) (A) (A) (A) (A) (A) (A) (A) (A)
                 (A) (A) (A) (A) (A) (A) (A) (A) (A) (A) (A) (A)
                 (A) (A) (A) (A) (A) (A) (A) (A) (A) (A) (A) (A)
                 (A) (A) (A) (A) (A) (A) (A) (A) (A) (A) (A) (A)
                 (A) (A) (A) (A) (A) (A) (A) (A) (A) (A) (A) (A)
                 (A) (A) (A) (A) (A) (A) (A) (A) (A) (A) (A) (A)
                 (A) (A) (A) (A) (A) (A) (A) (A) (A) (A) (A) (A)
                 (A) (A) (A) (A) (A) (A) (A) (A) (A) (A) (A) (A)
                 (A) (A) (A) (A) (A) (A) (A) (A) (A) (A) (A) (A)
                 (A) (A) (A) (A) (A) (A) (A) (A) (A) (A) (A) (A)
                 (A) (A) (A) (A) (A) (A) (A) (A) (A) (A) (A) (A)
                 (A) (A) (A) (A) (A) (A) (A) (A) (A) (A) (A) (A)
                 (A) (A) (A) (A) (A) (A) (A) (A) (A) (A) (A) (A)
                 (A) (A) (A) (A) (A) (A) (A) (A) (A) (A) (A) (A)
                 (A) (A) (A) (A) (A) (A) (A) (A) (A) (A) (A) (A)
                 (A) (A) (A) (A) (A) (A) (A) (A) (A) (A) (A) (A)
                 (A) (A) (A) (A) (A) (A) (A) (A) (A) (A) (A) (A)
                 (A) (A) (A) (A) (A) (A) (A) (A) (A) (A) (A) (A)
                 (A) (A) (A) (A) (A) (A) (A) (A) (A) (A) (A) (A)
                 (A) (A) (A) (A) (A) (A) (A) (A) (A) (A) (A) (A)
                 (A) (A) (A) (A) (A) (A) (A) (A) (A) (A) (A) (A)
                 (A) (A) (A) (A) (A) (A) (A) (A) (A) (A) (A) (A)
                 (A) (A) (A) (A) (A) (A) (A) (A) (A) (A) (A) (A)
                 (A) (A) (A) (A) (A) (A) (A) (A) (A) (A) (A) (A)
                 (A) (A) (A) (A) (A) (A) (A) (A) (A) (A) (A) (A)
                 (A) (A) (A) (A) (A) (A) (A) (A) (A) (A) (A) (A)
                 (A) (A) (A) (A) (A) (A) (A) (A) (A) (A) (A) (A)
                 (A) (A) (A) (A) (A) (A) (A) (A) (A) (A) (A) (A)
                 (A) (A) (A) (A) (A) (A) (A) (A) (A) (A) (A) (A)
                 (A) (A) (A) (A) (A) (A) (A) (A) (A) (A) (A) (A)
                 (A) (A) (A) (A) (A) (A) (A) (A) (A) (A) (A) (A)
                 (A) (A) (A) (A) (A) (A) (A) (A) (A) (A) (A) (A)
                 (A) (A) (A) (A) (A) (A) (A) (A) (A) (A) (A) (A)
                 (A) (A) (A) (A) (A) (A) (A) (A) (A) (A) (A) (A)
                 (A) (A) (A) (A) (A) (A) (A) (A) (A) (A) (A) (A)
                 (A) (A) (A) (A) (A) (A) (A) (A) (A) (A) (A) (A)
                 (A) (A) (A) (A) (A) (A) (A) (A) (A) (A) (A) (A)
                 (A) (A) (A) (A) (A) (A) (A) (A) (A) (A) (A) (A)
                 (A) (A) (A) (A) (A) (A) (A) (A) (A) (A) (A) (A)
                 (A) (A) (A) (A) (A) (A) (A) (A) (A) (A) (A) (A)
                 (A) (A) (A) (A) (A) (A) (A) (A) (A) (A) (A) (A)
                 (A) (A) (A) (A) (A) (A) (A) (A) (A) (A) (A) (A)
                 (A) (A) (A) (A) (A) (A) (A) (A) (A) (A) (A) (A)
                 (A) (A) (A) (A) (A) (A) (A) (A) (A) (A) (A) (A)
                 (A) (A) (A) (A) (A) (A) (A) (A) (A) (A) (A) (A)
                 (A) (A) (A) (A) (A) (A) (A) (A) (A) (A) (A) (A)
                 (A) (A) (A) (A) (A) (A) (A) (A) (A) (A) (A) (A)
                 (A) (A) (A) (A) (A) (A) (A) (A) (A) (A) (A) (A)
                 (A) (A) (A) (A) (A) (A) (A) (A) (A) (A) (A) (A)
                 (A) (A) (A) (A) (A) (A) (A) (A) (A) (A) (A) (A)
                 (A) (A) (A) (A) (A) (A) (A) (A) (A) (A) (A) (A)
                 (A) (A) (A) (A) (A) (A) (A) (A) (A) (A) (A) (A)
                 (A) (A) (A) (A) (A) (A) (A) (A) (A) (A) (A) (A)
                 (A) (A) (A) (A) (A) (A) (A) (A) (A) (A) (A) (A)
                 (A) (A) (A) (A) (A) (A) (A) (A) (A) (A) (A) (A)
                 (A) (A) (A) (A) (A) (A) (A) (A) (A) (A) (A) (A)
                 (A) (A) (A) (A) (A) (A) (A) (A) (A) (A) (A) (A)
                 (A) (A) (A) (A) (A) (A) (A) (A) (A) (A) (A) (A)
                 (A) (A) (A) (A) (A) (A) (A) (A) (A) (A) (A) (A)
                 (A) (A) (A) (A) (A) (A) (A) (A) (A) (A)
     4 initial guesses have been made.
 Convergence on wavefunction:    0.001000000000000
 Iteration     1 Dimension     4 NMult     0 NNew      4
 CISAX will form     4 AO SS matrices at one time.
 Iteration     2 Dimension     6 NMult     4 NNew      2
 Iteration     3 Dimension     8 NMult     6 NNew      2
 Iteration     4 Dimension    10 NMult     8 NNew      2
 Iteration     5 Dimension    12 NMult    10 NNew      2
 Iteration     6 Dimension    14 NMult    12 NNew      2
 ***********************************************************************
 Excited states from <AA,BB:AA,BB> singles matrix:
 ***********************************************************************
 
 Ground to excited state transition densities written to RWF  633
 Ground to excited state transition electric dipole moments (Au):
       state          X           Y           Z        Dip. S.      Osc.
         1        -6.6314     -0.9382     -0.3341     44.9678      3.6429
 Ground to excited state transition velocity dipole moments (Au):
       state          X           Y           Z        Dip. S.      Osc.
         1         0.7732      0.1089      0.0413      0.6113      3.3539
 Ground to excited state transition magnetic dipole moments (Au):
       state          X           Y           Z
         1         0.0854     -0.1163     -1.0081
 Ground to excited state transition velocity quadrupole moments (Au):
       state          XX          YY          ZZ          XY          XZ          YZ
         1         0.2189      0.1880      0.0547      0.0648     -0.3137      0.0358
 <0|del|b> * <b|rxdel|0> + <0|del|b> * <b|delr+rdel|0>
 Rotatory Strengths (R) in cgs (10**-40 erg-esu-cm/Gauss)
       state          XX          YY          ZZ    R(velocity)    E-M Angle
         1       -50.7009    143.8977    -24.4723     22.9082       89.15
 1/2[<0|r|b>*<b|rxdel|0> + (<0|rxdel|b>*<b|r|0>)*]
 Rotatory Strengths (R) in cgs (10**-40 erg-esu-cm/Gauss)
       state          XX          YY          ZZ     R(length)
         1       400.7004    -77.1312   -238.2055     28.4546
  1/2[<0|del|b>*<b|r|0> + (<0|r|b>*<b|del|0>)*] (Au)
       state          X           Y           Z        Dip. S.   Osc.(frdel)
         1        -5.1272     -0.1021     -0.0138      5.2431      3.4954

 Excitation energies and oscillator strengths:
 
 Excited State   1:      Singlet-A      3.3067 eV  374.95 nm  f=3.6429  <S**2>=0.000
     155 ->158        -0.24659
     156 ->157         0.64368
 This state for optimization and/or second-order correction.
 Total Energy, E(TD-HF/TD-DFT) =  -1706.74227417    
 Copying the excited state density for this state as the 1-particle RhoCI density.
 SavETr:  write IOETrn=   770 NScale= 10 NData=  16 NLR=1 NState=    1 LETran=      28.

 **********************************************************************

            Population analysis using the SCF density.

 **********************************************************************

 Orbital symmetries:
       Occupied  (A) (A) (A) (A) (A) (A) (A) (A) (A) (A) (A) (A)
                 (A) (A) (A) (A) (A) (A) (A) (A) (A) (A) (A) (A)
                 (A) (A) (A) (A) (A) (A) (A) (A) (A) (A) (A) (A)
                 (A) (A) (A) (A) (A) (A) (A) (A) (A) (A) (A) (A)
                 (A) (A) (A) (A) (A) (A) (A) (A) (A) (A) (A) (A)
                 (A) (A) (A) (A) (A) (A) (A) (A) (A) (A) (A) (A)
                 (A) (A) (A) (A) (A) (A) (A) (A) (A) (A) (A) (A)
                 (A) (A) (A) (A) (A) (A) (A) (A) (A) (A) (A) (A)
                 (A) (A) (A) (A) (A) (A) (A) (A) (A) (A) (A) (A)
                 (A) (A) (A) (A) (A) (A) (A) (A) (A) (A) (A) (A)
                 (A) (A) (A) (A) (A) (A) (A) (A) (A) (A) (A) (A)
                 (A) (A) (A) (A) (A) (A) (A) (A) (A) (A) (A) (A)
                 (A) (A) (A) (A) (A) (A) (A) (A) (A) (A) (A) (A)
       Virtual   (A) (A) (A) (A) (A) (A) (A) (A) (A) (A) (A) (A)
                 (A) (A) (A) (A) (A) (A) (A) (A) (A) (A) (A) (A)
                 (A) (A) (A) (A) (A) (A) (A) (A) (A) (A) (A) (A)
                 (A) (A) (A) (A) (A) (A) (A) (A) (A) (A) (A) (A)
                 (A) (A) (A) (A) (A) (A) (A) (A) (A) (A) (A) (A)
                 (A) (A) (A) (A) (A) (A) (A) (A) (A) (A) (A) (A)
                 (A) (A) (A) (A) (A) (A) (A) (A) (A) (A) (A) (A)
                 (A) (A) (A) (A) (A) (A) (A) (A) (A) (A) (A) (A)
                 (A) (A) (A) (A) (A) (A) (A) (A) (A) (A) (A) (A)
                 (A) (A) (A) (A) (A) (A) (A) (A) (A) (A) (A) (A)
                 (A) (A) (A) (A) (A) (A) (A) (A) (A) (A) (A) (A)
                 (A) (A) (A) (A) (A) (A) (A) (A) (A) (A) (A) (A)
                 (A) (A) (A) (A) (A) (A) (A) (A) (A) (A) (A) (A)
                 (A) (A) (A) (A) (A) (A) (A) (A) (A) (A) (A) (A)
                 (A) (A) (A) (A) (A) (A) (A) (A) (A) (A) (A) (A)
                 (A) (A) (A) (A) (A) (A) (A) (A) (A) (A) (A) (A)
                 (A) (A) (A) (A) (A) (A) (A) (A) (A) (A) (A) (A)
                 (A) (A) (A) (A) (A) (A) (A) (A) (A) (A) (A) (A)
                 (A) (A) (A) (A) (A) (A) (A) (A) (A) (A) (A) (A)
                 (A) (A) (A) (A) (A) (A) (A) (A) (A) (A) (A) (A)
                 (A) (A) (A) (A) (A) (A) (A) (A) (A) (A) (A) (A)
                 (A) (A) (A) (A) (A) (A) (A) (A) (A) (A) (A) (A)
                 (A) (A) (A) (A) (A) (A) (A) (A) (A) (A) (A) (A)
                 (A) (A) (A) (A) (A) (A) (A) (A) (A) (A) (A) (A)
                 (A) (A) (A) (A) (A) (A) (A) (A) (A) (A) (A) (A)
                 (A) (A) (A) (A) (A) (A) (A) (A) (A) (A) (A) (A)
                 (A) (A) (A) (A) (A) (A) (A) (A) (A) (A) (A) (A)
                 (A) (A) (A) (A) (A) (A) (A) (A) (A) (A) (A) (A)
                 (A) (A) (A) (A) (A) (A) (A) (A) (A) (A) (A) (A)
                 (A) (A) (A) (A) (A) (A) (A) (A) (A) (A) (A) (A)
                 (A) (A) (A) (A) (A) (A) (A) (A) (A) (A) (A) (A)
                 (A) (A) (A) (A) (A) (A) (A) (A) (A) (A) (A) (A)
                 (A) (A) (A) (A) (A) (A) (A) (A) (A) (A) (A) (A)
                 (A) (A) (A) (A) (A) (A) (A) (A) (A) (A) (A) (A)
                 (A) (A) (A) (A) (A) (A) (A) (A) (A) (A) (A) (A)
                 (A) (A) (A) (A) (A) (A) (A) (A) (A) (A) (A) (A)
                 (A) (A) (A) (A) (A) (A) (A) (A) (A) (A) (A) (A)
                 (A) (A) (A) (A) (A) (A) (A) (A) (A) (A) (A) (A)
                 (A) (A) (A) (A) (A) (A) (A) (A) (A) (A) (A) (A)
                 (A) (A) (A) (A) (A) (A) (A) (A) (A) (A) (A) (A)
                 (A) (A) (A) (A) (A) (A) (A) (A) (A) (A) (A) (A)
                 (A) (A) (A) (A) (A) (A) (A) (A) (A) (A) (A) (A)
                 (A) (A) (A) (A) (A) (A) (A) (A) (A) (A) (A) (A)
                 (A) (A) (A) (A) (A) (A) (A) (A) (A) (A) (A) (A)
                 (A) (A) (A) (A) (A) (A) (A) (A) (A) (A) (A) (A)
                 (A) (A) (A) (A) (A) (A) (A) (A) (A) (A) (A) (A)
                 (A) (A) (A) (A) (A) (A) (A) (A) (A) (A) (A) (A)
                 (A) (A) (A) (A) (A) (A) (A) (A) (A) (A) (A) (A)
                 (A) (A) (A) (A) (A) (A) (A) (A) (A) (A) (A) (A)
                 (A) (A) (A) (A) (A) (A) (A) (A) (A) (A) (A) (A)
                 (A) (A) (A) (A) (A) (A) (A) (A) (A) (A) (A) (A)
                 (A) (A) (A) (A) (A) (A) (A) (A) (A) (A) (A) (A)
                 (A) (A) (A) (A) (A) (A) (A) (A) (A) (A) (A) (A)
                 (A) (A) (A) (A) (A) (A) (A) (A) (A) (A) (A) (A)
                 (A) (A) (A) (A) (A) (A) (A) (A) (A) (A) (A) (A)
                 (A) (A) (A) (A) (A) (A) (A) (A) (A) (A) (A) (A)
                 (A) (A) (A) (A) (A) (A) (A) (A) (A) (A) (A) (A)
                 (A) (A) (A) (A) (A) (A) (A) (A) (A) (A) (A) (A)
                 (A) (A) (A) (A) (A) (A) (A) (A) (A) (A) (A) (A)
                 (A) (A) (A) (A) (A) (A) (A) (A) (A) (A) (A) (A)
                 (A) (A) (A) (A) (A) (A) (A) (A) (A) (A) (A) (A)
                 (A) (A) (A) (A) (A) (A) (A) (A) (A) (A) (A) (A)
                 (A) (A) (A) (A) (A) (A) (A) (A) (A) (A)
 The electronic state is 1-A.
 Alpha  occ. eigenvalues --  -19.21346 -19.21344 -10.30453 -10.29237 -10.29010
 Alpha  occ. eigenvalues --  -10.28808 -10.28663 -10.28092 -10.28036 -10.28007
 Alpha  occ. eigenvalues --  -10.27724 -10.27360 -10.27340 -10.27293 -10.26966
 Alpha  occ. eigenvalues --  -10.26614 -10.26600 -10.26473 -10.26229 -10.26228
 Alpha  occ. eigenvalues --  -10.26190 -10.26142 -10.26126 -10.26106 -10.26057
 Alpha  occ. eigenvalues --  -10.26053 -10.25987 -10.25902 -10.25809 -10.25733
 Alpha  occ. eigenvalues --  -10.25447 -10.25392 -10.25369 -10.25328 -10.25169
 Alpha  occ. eigenvalues --  -10.25058 -10.25041 -10.24934 -10.24818 -10.24610
 Alpha  occ. eigenvalues --  -10.24530 -10.23094  -1.07763  -1.06803  -0.93942
 Alpha  occ. eigenvalues --   -0.93072  -0.92508  -0.91940  -0.90731  -0.88965
 Alpha  occ. eigenvalues --   -0.87356  -0.87076  -0.86189  -0.85470  -0.84736
 Alpha  occ. eigenvalues --   -0.83226  -0.82327  -0.80194  -0.79701  -0.78518
 Alpha  occ. eigenvalues --   -0.76608  -0.76185  -0.76002  -0.75590  -0.75394
 Alpha  occ. eigenvalues --   -0.75235  -0.74744  -0.74329  -0.73546  -0.70077
 Alpha  occ. eigenvalues --   -0.68459  -0.66826  -0.65494  -0.64574  -0.63782
 Alpha  occ. eigenvalues --   -0.63029  -0.62882  -0.61924  -0.61368  -0.59784
 Alpha  occ. eigenvalues --   -0.59174  -0.58960  -0.57770  -0.57406  -0.56228
 Alpha  occ. eigenvalues --   -0.55987  -0.55094  -0.54744  -0.54045  -0.53805
 Alpha  occ. eigenvalues --   -0.52669  -0.52434  -0.52119  -0.51771  -0.50757
 Alpha  occ. eigenvalues --   -0.50400  -0.50056  -0.49601  -0.49458  -0.49133
 Alpha  occ. eigenvalues --   -0.48604  -0.48331  -0.48258  -0.48165  -0.47573
 Alpha  occ. eigenvalues --   -0.47310  -0.47203  -0.46782  -0.46642  -0.46506
 Alpha  occ. eigenvalues --   -0.45887  -0.45525  -0.45210  -0.45172  -0.44672
 Alpha  occ. eigenvalues --   -0.44381  -0.44031  -0.43618  -0.43457  -0.43428
 Alpha  occ. eigenvalues --   -0.43194  -0.43016  -0.42852  -0.42325  -0.42075
 Alpha  occ. eigenvalues --   -0.41839  -0.41565  -0.41357  -0.40755  -0.40395
 Alpha  occ. eigenvalues --   -0.39965  -0.39934  -0.39529  -0.39296  -0.38911
 Alpha  occ. eigenvalues --   -0.38718  -0.38238  -0.38179  -0.37587  -0.37283
 Alpha  occ. eigenvalues --   -0.37006  -0.36457  -0.36245  -0.36025  -0.35597
 Alpha  occ. eigenvalues --   -0.34948  -0.34216  -0.32928  -0.31905  -0.31711
 Alpha  occ. eigenvalues --   -0.30290  -0.29566  -0.27956  -0.26727  -0.24002
 Alpha  occ. eigenvalues --   -0.22069
 Alpha virt. eigenvalues --   -0.02632  -0.00117   0.03455   0.06117   0.07485
 Alpha virt. eigenvalues --    0.09314   0.09439   0.09969   0.10436   0.10901
 Alpha virt. eigenvalues --    0.11784   0.12693   0.12709   0.12872   0.13146
 Alpha virt. eigenvalues --    0.13545   0.13682   0.13820   0.14602   0.15003
 Alpha virt. eigenvalues --    0.15134   0.15631   0.15740   0.15824   0.15983
 Alpha virt. eigenvalues --    0.16647   0.17052   0.17387   0.17511   0.18032
 Alpha virt. eigenvalues --    0.18072   0.18493   0.18686   0.18824   0.19023
 Alpha virt. eigenvalues --    0.19616   0.19816   0.19946   0.20272   0.20532
 Alpha virt. eigenvalues --    0.20901   0.21037   0.21232   0.21764   0.21816
 Alpha virt. eigenvalues --    0.21834   0.22117   0.22779   0.22823   0.22960
 Alpha virt. eigenvalues --    0.23255   0.23311   0.23589   0.24203   0.24351
 Alpha virt. eigenvalues --    0.24705   0.24971   0.25029   0.25154   0.25407
 Alpha virt. eigenvalues --    0.25623   0.25744   0.26398   0.26913   0.27276
 Alpha virt. eigenvalues --    0.27674   0.27830   0.28358   0.28952   0.29160
 Alpha virt. eigenvalues --    0.29438   0.29516   0.30021   0.30275   0.30517
 Alpha virt. eigenvalues --    0.30841   0.31684   0.32031   0.32286   0.32847
 Alpha virt. eigenvalues --    0.33394   0.33932   0.34512   0.34668   0.35014
 Alpha virt. eigenvalues --    0.35449   0.35836   0.36286   0.37311   0.37752
 Alpha virt. eigenvalues --    0.39329   0.40043   0.40677   0.41122   0.42104
 Alpha virt. eigenvalues --    0.42526   0.43816   0.44464   0.44929   0.45677
 Alpha virt. eigenvalues --    0.45964   0.46202   0.46897   0.48491   0.49155
 Alpha virt. eigenvalues --    0.50327   0.50672   0.52342   0.53005   0.53797
 Alpha virt. eigenvalues --    0.55046   0.55407   0.55624   0.55942   0.56282
 Alpha virt. eigenvalues --    0.56860   0.57251   0.57520   0.57827   0.58080
 Alpha virt. eigenvalues --    0.59017   0.59300   0.59354   0.59646   0.60142
 Alpha virt. eigenvalues --    0.60269   0.60750   0.60915   0.61329   0.61788
 Alpha virt. eigenvalues --    0.61835   0.62195   0.62366   0.62917   0.63600
 Alpha virt. eigenvalues --    0.63971   0.64457   0.64764   0.64942   0.65400
 Alpha virt. eigenvalues --    0.65831   0.66140   0.66251   0.66429   0.66471
 Alpha virt. eigenvalues --    0.66950   0.67206   0.67520   0.67909   0.68193
 Alpha virt. eigenvalues --    0.68486   0.69046   0.69226   0.70078   0.70198
 Alpha virt. eigenvalues --    0.70489   0.70594   0.71331   0.71661   0.71992
 Alpha virt. eigenvalues --    0.72445   0.72965   0.73249   0.73679   0.74066
 Alpha virt. eigenvalues --    0.74226   0.74981   0.75419   0.75582   0.75680
 Alpha virt. eigenvalues --    0.76374   0.76532   0.76833   0.76957   0.77408
 Alpha virt. eigenvalues --    0.77564   0.77898   0.78379   0.78737   0.79067
 Alpha virt. eigenvalues --    0.79288   0.79928   0.80186   0.80747   0.80921
 Alpha virt. eigenvalues --    0.81162   0.81341   0.81809   0.81989   0.82316
 Alpha virt. eigenvalues --    0.82706   0.82937   0.83519   0.83563   0.84008
 Alpha virt. eigenvalues --    0.84136   0.84292   0.85082   0.85306   0.85486
 Alpha virt. eigenvalues --    0.85799   0.85884   0.86795   0.87213   0.87311
 Alpha virt. eigenvalues --    0.87394   0.87482   0.87610   0.88501   0.88857
 Alpha virt. eigenvalues --    0.88951   0.89110   0.89415   0.89547   0.90096
 Alpha virt. eigenvalues --    0.90358   0.90518   0.90608   0.91498   0.91597
 Alpha virt. eigenvalues --    0.92081   0.92177   0.92350   0.92804   0.92996
 Alpha virt. eigenvalues --    0.93060   0.93371   0.93615   0.93821   0.94278
 Alpha virt. eigenvalues --    0.94514   0.94611   0.94727   0.95435   0.95513
 Alpha virt. eigenvalues --    0.95820   0.95989   0.96652   0.96808   0.97136
 Alpha virt. eigenvalues --    0.97318   0.97606   0.97990   0.98316   0.99010
 Alpha virt. eigenvalues --    0.99187   0.99469   0.99753   1.00115   1.00967
 Alpha virt. eigenvalues --    1.01215   1.01400   1.01806   1.02024   1.02080
 Alpha virt. eigenvalues --    1.02184   1.03183   1.03621   1.04302   1.04784
 Alpha virt. eigenvalues --    1.05005   1.05711   1.06217   1.06335   1.06654
 Alpha virt. eigenvalues --    1.07127   1.07455   1.08071   1.08313   1.09347
 Alpha virt. eigenvalues --    1.10941   1.11302   1.11708   1.11764   1.12113
 Alpha virt. eigenvalues --    1.13010   1.13170   1.13507   1.14041   1.14347
 Alpha virt. eigenvalues --    1.14725   1.15466   1.15897   1.16502   1.16727
 Alpha virt. eigenvalues --    1.17252   1.18440   1.18823   1.19103   1.20342
 Alpha virt. eigenvalues --    1.20961   1.22119   1.23184   1.23639   1.24424
 Alpha virt. eigenvalues --    1.24813   1.27206   1.27624   1.28322   1.29062
 Alpha virt. eigenvalues --    1.29946   1.30921   1.31557   1.32466   1.33157
 Alpha virt. eigenvalues --    1.33667   1.33978   1.34936   1.35169   1.35760
 Alpha virt. eigenvalues --    1.38775   1.39264   1.39424   1.39572   1.39812
 Alpha virt. eigenvalues --    1.40195   1.40919   1.41990   1.42189   1.42805
 Alpha virt. eigenvalues --    1.43339   1.44322   1.44672   1.45009   1.45346
 Alpha virt. eigenvalues --    1.46095   1.47033   1.48475   1.50009   1.50895
 Alpha virt. eigenvalues --    1.51742   1.52381   1.52751   1.53304   1.53812
 Alpha virt. eigenvalues --    1.54078   1.54819   1.55302   1.55730   1.55923
 Alpha virt. eigenvalues --    1.56564   1.57585   1.57925   1.59132   1.59275
 Alpha virt. eigenvalues --    1.59850   1.60319   1.60444   1.61096   1.61351
 Alpha virt. eigenvalues --    1.63278   1.63421   1.63485   1.64456   1.64781
 Alpha virt. eigenvalues --    1.66507   1.67292   1.67812   1.67854   1.70384
 Alpha virt. eigenvalues --    1.71898   1.73769   1.74194   1.74852   1.75564
 Alpha virt. eigenvalues --    1.76121   1.76254   1.76547   1.76906   1.78234
 Alpha virt. eigenvalues --    1.78547   1.79440   1.79688   1.80870   1.81945
 Alpha virt. eigenvalues --    1.82091   1.82245   1.82352   1.83178   1.83527
 Alpha virt. eigenvalues --    1.83604   1.83691   1.84410   1.84587   1.85978
 Alpha virt. eigenvalues --    1.86280   1.86743   1.87502   1.87790   1.88570
 Alpha virt. eigenvalues --    1.88662   1.89248   1.89740   1.90132   1.91045
 Alpha virt. eigenvalues --    1.91195   1.91740   1.92232   1.92721   1.92954
 Alpha virt. eigenvalues --    1.93223   1.93260   1.93650   1.94615   1.95224
 Alpha virt. eigenvalues --    1.95462   1.95891   1.96246   1.96348   1.96631
 Alpha virt. eigenvalues --    1.97304   1.97402   1.98244   1.98420   1.98970
 Alpha virt. eigenvalues --    1.99502   2.00043   2.00131   2.00233   2.00669
 Alpha virt. eigenvalues --    2.00961   2.01757   2.02349   2.02776   2.03157
 Alpha virt. eigenvalues --    2.03494   2.03734   2.03831   2.04158   2.04405
 Alpha virt. eigenvalues --    2.05133   2.05251   2.05439   2.06030   2.07014
 Alpha virt. eigenvalues --    2.07541   2.08012   2.08042   2.08801   2.08852
 Alpha virt. eigenvalues --    2.09000   2.09216   2.10283   2.10746   2.11051
 Alpha virt. eigenvalues --    2.11173   2.11395   2.12082   2.12534   2.13042
 Alpha virt. eigenvalues --    2.13605   2.14130   2.14764   2.14947   2.15033
 Alpha virt. eigenvalues --    2.16141   2.16580   2.16698   2.16912   2.17165
 Alpha virt. eigenvalues --    2.17919   2.18153   2.18759   2.19110   2.19238
 Alpha virt. eigenvalues --    2.19522   2.20125   2.20285   2.20643   2.20813
 Alpha virt. eigenvalues --    2.20883   2.21695   2.21992   2.22805   2.23203
 Alpha virt. eigenvalues --    2.23494   2.23892   2.24652   2.24831   2.25080
 Alpha virt. eigenvalues --    2.25783   2.26801   2.26939   2.27401   2.28260
 Alpha virt. eigenvalues --    2.28693   2.29571   2.30204   2.30752   2.31852
 Alpha virt. eigenvalues --    2.31950   2.32554   2.32724   2.33396   2.34143
 Alpha virt. eigenvalues --    2.34320   2.34777   2.34885   2.35110   2.35350
 Alpha virt. eigenvalues --    2.35980   2.36321   2.36826   2.37229   2.37926
 Alpha virt. eigenvalues --    2.38303   2.38884   2.39084   2.39447   2.40240
 Alpha virt. eigenvalues --    2.40370   2.40660   2.41393   2.41765   2.42481
 Alpha virt. eigenvalues --    2.42699   2.43009   2.43489   2.44159   2.44976
 Alpha virt. eigenvalues --    2.45198   2.45836   2.46831   2.47167   2.47671
 Alpha virt. eigenvalues --    2.48399   2.48863   2.49212   2.50106   2.50406
 Alpha virt. eigenvalues --    2.50639   2.51096   2.51634   2.51860   2.52026
 Alpha virt. eigenvalues --    2.52910   2.54133   2.54391   2.55243   2.55867
 Alpha virt. eigenvalues --    2.56159   2.56706   2.57465   2.57675   2.57739
 Alpha virt. eigenvalues --    2.58149   2.58231   2.58829   2.59064   2.59770
 Alpha virt. eigenvalues --    2.60359   2.60846   2.61135   2.61508   2.62129
 Alpha virt. eigenvalues --    2.63081   2.63181   2.63895   2.64124   2.64416
 Alpha virt. eigenvalues --    2.64596   2.65441   2.65560   2.66355   2.66426
 Alpha virt. eigenvalues --    2.66652   2.67158   2.67551   2.67929   2.68354
 Alpha virt. eigenvalues --    2.68811   2.69163   2.69213   2.69902   2.70755
 Alpha virt. eigenvalues --    2.71304   2.71517   2.71997   2.72522   2.72690
 Alpha virt. eigenvalues --    2.72983   2.73401   2.73743   2.73982   2.74797
 Alpha virt. eigenvalues --    2.75088   2.75563   2.76116   2.76591   2.76847
 Alpha virt. eigenvalues --    2.77793   2.77990   2.78059   2.78372   2.79018
 Alpha virt. eigenvalues --    2.80007   2.80508   2.80761   2.81095   2.81797
 Alpha virt. eigenvalues --    2.82818   2.82968   2.83271   2.83443   2.84113
 Alpha virt. eigenvalues --    2.84342   2.84583   2.85755   2.85812   2.86588
 Alpha virt. eigenvalues --    2.87760   2.88150   2.88772   2.89306   2.90177
 Alpha virt. eigenvalues --    2.90657   2.91171   2.91510   2.91859   2.92200
 Alpha virt. eigenvalues --    2.92362   2.92801   2.93928   2.95772   2.95942
 Alpha virt. eigenvalues --    2.96144   2.96685   2.97569   2.98413   2.98529
 Alpha virt. eigenvalues --    2.99331   2.99885   3.00242   3.01588   3.01959
 Alpha virt. eigenvalues --    3.03194   3.03646   3.04642   3.05070   3.05628
 Alpha virt. eigenvalues --    3.05951   3.06495   3.07128   3.08559   3.08889
 Alpha virt. eigenvalues --    3.09344   3.09983   3.11421   3.12165   3.14483
 Alpha virt. eigenvalues --    3.14879   3.16277   3.16546   3.18181   3.18750
 Alpha virt. eigenvalues --    3.18873   3.19750   3.20444   3.21556   3.22419
 Alpha virt. eigenvalues --    3.24983   3.26106   3.27680   3.29440   3.31187
 Alpha virt. eigenvalues --    3.31314   3.32385   3.32733   3.34276   3.34332
 Alpha virt. eigenvalues --    3.36465   3.36981   3.37384   3.37543   3.38586
 Alpha virt. eigenvalues --    3.39468   3.41228   3.41716   3.42118   3.42972
 Alpha virt. eigenvalues --    3.43799   3.44351   3.44841   3.45070   3.45221
 Alpha virt. eigenvalues --    3.46557   3.48077   3.48434   3.49236   3.49918
 Alpha virt. eigenvalues --    3.50180   3.50528   3.51352   3.51692   3.56448
 Alpha virt. eigenvalues --    3.57425   3.59071   3.59167   3.60471   3.61888
 Alpha virt. eigenvalues --    3.62449   3.63159   3.66440   3.67159   3.68840
 Alpha virt. eigenvalues --    3.69864   3.70532   3.83486   3.88683   3.94758
 Alpha virt. eigenvalues --    3.97878   4.08196   4.09870   4.14795   4.17981
 Alpha virt. eigenvalues --    4.19592   4.21828   4.22635   4.24564   4.25536
 Alpha virt. eigenvalues --    4.26998   4.28582   4.30357   4.31527   4.36717
 Alpha virt. eigenvalues --    4.39524   4.41508   4.43352   4.45442   4.45793
 Alpha virt. eigenvalues --    4.46559   4.48632   4.50213   4.53268   4.54113
 Alpha virt. eigenvalues --    4.55420   4.56539   4.57552   4.59737   4.60698
 Alpha virt. eigenvalues --    4.63167   4.64281   4.65696   4.68653   4.69816
 Alpha virt. eigenvalues --    4.72854   4.74820   4.77525   4.80505   4.82155
 Alpha virt. eigenvalues --    4.83925   4.85988   4.88754   4.89999
          Condensed to atoms (all electrons):
 Mulliken charges:
               1
     1  O   -0.571170
     2  O   -0.578453
     3  C    0.005551
     4  C   -0.009158
     5  C   -0.169426
     6  C   -0.186941
     7  C    0.165291
     8  C    0.163830
     9  C    0.080700
    10  C    0.043762
    11  C   -0.213946
    12  C   -0.176116
    13  C    0.038688
    14  C    0.071985
    15  C   -0.318984
    16  C   -0.288675
    17  C   -0.294308
    18  C   -0.300798
    19  C   -0.138895
    20  C   -0.147289
    21  C   -0.358830
    22  C   -0.336797
    23  C   -0.119497
    24  C   -0.092441
    25  C    0.102408
    26  C    0.066027
    27  C   -0.369643
    28  C   -0.351926
    29  C   -0.103633
    30  C   -0.118560
    31  C   -0.071161
    32  C   -0.089029
    33  C   -0.079199
    34  C   -0.105013
    35  C    0.076732
    36  C    0.111184
    37  C   -0.356676
    38  C   -0.355802
    39  C   -0.130367
    40  C   -0.138207
    41  C   -0.070279
    42  C   -0.092817
    43  H    0.104171
    44  H    0.065671
    45  H    0.088474
    46  H    0.114204
    47  H    0.076121
    48  H    0.090666
    49  H    0.123278
    50  H    0.115746
    51  H    0.050339
    52  H    0.093966
    53  H    0.084090
    54  H    0.110924
    55  H    0.103952
    56  H    0.084154
    57  H    0.079849
    58  H    0.126251
    59  H    0.070123
    60  H    0.102247
    61  H    0.108680
    62  H    0.093070
    63  H    0.086000
    64  H    0.104764
    65  H    0.071317
    66  H    0.096318
    67  H    0.096230
    68  H    0.100569
    69  H    0.119701
    70  H    0.106431
    71  H    0.112671
    72  H    0.094276
    73  H    0.296447
    74  H    0.303433
    75  H    0.080701
    76  H    0.098069
    77  H    0.120383
    78  H    0.092344
    79  H    0.115582
    80  H    0.137797
    81  H    0.097142
    82  H    0.099983
    83  H    0.093523
    84  H    0.070336
    85  H    0.060726
    86  H    0.088609
    87  H    0.056974
    88  H    0.088595
    89  H    0.141255
    90  H    0.110867
    91  H    0.124269
    92  H    0.136186
    93  H    0.119375
    94  H    0.106930
    95  H    0.083234
    96  H    0.080777
    97  H    0.065405
    98  H    0.064683
 Sum of Mulliken charges =  -0.00000
 Mulliken charges with hydrogens summed into heavy atoms:
               1
     1  O   -0.274723
     2  O   -0.275021
     3  C    0.005551
     4  C   -0.009158
     5  C    0.000417
     6  C    0.015737
     7  C    0.241412
     8  C    0.254495
     9  C    0.080700
    10  C    0.043762
    11  C    0.025078
    12  C   -0.031811
    13  C    0.038688
    14  C    0.071985
    15  C   -0.020017
    16  C    0.001579
    17  C   -0.013258
    18  C   -0.016964
    19  C   -0.067579
    20  C   -0.050972
    21  C   -0.042330
    22  C   -0.023420
    23  C   -0.038795
    24  C    0.005628
    25  C    0.102408
    26  C    0.066027
    27  C   -0.041334
    28  C   -0.017005
    29  C   -0.010109
    30  C   -0.048224
    31  C   -0.010435
    32  C   -0.000420
    33  C   -0.022225
    34  C   -0.016418
    35  C    0.076732
    36  C    0.111184
    37  C    0.019715
    38  C    0.006688
    39  C   -0.047133
    40  C   -0.057430
    41  C   -0.004874
    42  C   -0.028134
 Electronic spatial extent (au):  <R**2>=         110747.0800
 Charge=              0.0000 electrons
 Dipole moment (field-independent basis, Debye):
    X=             -0.3466    Y=             -0.8551    Z=              2.1062  Tot=              2.2994
 Quadrupole moment (field-independent basis, Debye-Ang):
   XX=           -288.8886   YY=           -243.0251   ZZ=           -261.0021
   XY=              7.2858   XZ=            -13.8305   YZ=              4.7404
 Traceless Quadrupole moment (field-independent basis, Debye-Ang):
   XX=            -24.5833   YY=             21.2801   ZZ=              3.3032
   XY=              7.2858   XZ=            -13.8305   YZ=              4.7404
 Octapole moment (field-independent basis, Debye-Ang**2):
  XXX=           -425.0771  YYY=            -11.9143  ZZZ=             -0.6963  XYY=            113.4127
  XXY=           -143.2926  XXZ=            519.2632  XZZ=            -50.6662  YZZ=              2.4024
  YYZ=             14.3155  XYZ=            -81.7540
 Hexadecapole moment (field-independent basis, Debye-Ang**3):
 XXXX=        -155875.3719 YYYY=          -4441.7173 ZZZZ=          -1971.5718 XXXY=            863.9365
 XXXZ=          -3729.2732 YYYX=           -472.8947 YYYZ=             36.1444 ZZZX=           -277.5247
 ZZZY=             29.4299 XXYY=         -23826.9644 XXZZ=         -23981.5825 YYZZ=          -1084.5390
 XXYZ=             29.4754 YYXZ=            153.9143 ZZXY=           -173.0882
 N-N= 3.974517450463D+03 E-N=-1.190381456045D+04  KE= 1.689724554936D+03
 1\1\GINC-PADAWAN\SP\RCAM-B3LYP TD-FC\6-31G(d,p)\C40H56O2\PADAWAN\29-Ju
 n-2019\0\\# td=(NStates=1) CAM-B3LYP/6-31G(d,p)\\TD\\0,1\O,0,14.537121
 9312,-2.4316806392,-0.5466235154\O,0,-14.9209286899,1.8478966457,0.479
 6870627\C,0,11.4574890429,-1.1650271368,1.1797613371\C,0,-12.241591791
 2,-0.8799705571,0.844950017\C,0,12.9427930113,-1.4313461727,1.01971954
 4\C,0,-13.7279754065,-0.2819143514,0.6873476308\C,0,13.2169236864,-1.9
 282383509,-0.3103859276\C,0,-13.6082231623,1.2987226703,0.6054223262\C
 ,0,10.8878373097,-0.3263368498,-0.0441586619\C,0,-11.3100981108,-0.270
 7381028,-0.1687876328\C,0,12.9776719862,-0.8669774548,-1.391249998\C,0
 ,-12.8652372837,1.7271806951,-0.5806251045\C,0,11.6163063776,-0.242414
 6146,-1.1555040664\C,0,-11.5525888489,0.9074770707,-0.8182613651\C,0,1
 1.2753982668,-0.0277519333,2.3847689179\C,0,10.5716366047,-2.293919873
 1,1.4688450045\C,0,-11.7040926033,-0.679929821,2.1848070607\C,0,-12.56
 78374857,-2.4061060536,0.5321851225\C,0,9.6083156576,0.3157726142,0.09
 87365537\C,0,-10.1258039474,-1.0920632913,-0.3773764186\C,0,11.3117939
 444,0.4794224071,-2.4287970867\C,0,-10.5677992189,1.5119415782,-1.7787
 771847\C,0,9.2486448315,1.6341868566,-0.144019776\C,0,-8.8472152065,-0
 .5871522722,-0.2606871147\C,0,8.0011060966,2.2453342733,0.1912647955\C
 ,0,-7.5576909111,-1.3237367068,-0.5605613881\C,0,8.1434748285,3.636081
 8131,0.6700483708\C,0,-7.5198030863,-2.8722969778,-0.8183220072\C,0,6.
 8993453415,1.5795879527,-0.1144714531\C,0,-6.3682386269,-0.6215976349,
 -0.2766706731\C,0,5.5792484768,2.1018978967,0.1235772737\C,0,-5.009062
 0282,-1.1181116873,-0.4576479388\C,0,4.5047544064,1.2723726512,-0.0767
 533043\C,0,-3.9570011201,-0.4109272988,-0.1451418442\C,0,3.0615787629,
 1.6758881867,0.2666083258\C,0,-2.5385376178,-0.7567100011,-0.399617621
 8\C,0,2.8912894099,3.0760870576,0.773280037\C,0,-2.2507605701,-2.24103
 14052,-0.9531163516\C,0,2.1348030553,0.7879859625,-0.1743065557\C,0,-1
 .7012214451,0.1241721231,-0.0461964466\C,0,0.7087480438,0.8973044983,0
 .046040484\C,0,-0.1926781368,-0.0137234774,-0.2440420442\H,0,13.547364
 0084,-0.4612895641,1.1409689349\H,0,13.2161868547,-2.4067612572,1.6233
 524672\H,0,-14.2301757946,-0.5643065877,1.5195591619\H,0,-14.278239190
 9,-0.4646533883,-0.3129629163\H,0,12.543999602,-2.741828926,-0.4528733
 523\H,0,-13.049900451,1.7489994179,1.4524047135\H,0,13.6341043424,0.02
 78600659,-1.4509009741\H,0,12.8490663996,-1.4824804751,-2.3150621822\H
 ,0,-13.3664021842,1.7181531363,-1.8918271157\H,0,-12.7656351705,2.9404
 361076,-0.4594328263\H,0,11.9401726373,-0.3167624023,3.2758822492\H,0,
 10.2037162366,0.1964201319,2.5746463456\H,0,11.7942686969,0.9055702899
 ,2.1564947845\H,0,10.8976287659,-3.1070112812,0.6670120872\H,0,10.8979
 107081,-2.8270876259,2.4899089149\H,0,9.5499809991,-2.0611571088,1.641
 0590489\H,0,-11.9717340734,0.4758531563,2.4932532183\H,0,-10.573941903
 2,-1.0147386289,2.5149875028\H,0,-12.2187130303,-1.0966705721,3.010703
 6664\H,0,-13.5681065917,-2.6623074827,1.0738418932\H,0,-11.5913521832,
 -3.0339754255,0.7368787439\H,0,-12.798990257,-2.6037506831,-0.54952342
 63\H,0,8.579069731,-0.0688652066,0.4393181158\H,0,-10.2266924012,-2.02
 22659506,-0.8972893619\H,0,10.2551379328,1.0615062485,-2.3754222452\H,
 0,12.0803864736,1.2570599969,-2.6848882028\H,0,11.4473989749,-0.093379
 8251,-3.2705241824\H,0,-10.9488658936,1.9115843874,-2.5053720302\H,0,-
 9.8016056996,0.6646070977,-1.9849230983\H,0,-9.9590776628,2.4037689899
 ,-1.4041540114\H,0,14.6103275858,-3.3118900941,0.0166635594\H,0,-15.54
 29437294,1.7881737314,1.3669749025\H,0,10.143359818,2.2076040643,-0.51
 26205771\H,0,-8.8117578728,0.3572978278,0.2389090779\H,0,8.7067435364,
 4.1997998329,-0.1502713301\H,0,7.0759709861,4.1061060195,0.7973155646\
 H,0,8.6107657866,4.0515280397,1.6940524232\H,0,-7.9488419142,-3.604357
 3648,-0.1514409831\H,0,-8.1151372697,-2.9372427384,-1.8639827283\H,0,-
 6.4291517642,-3.2616198141,-0.9842552175\H,0,7.0107227353,0.5876525082
 ,-0.4436077528\H,0,-6.5214024022,0.4218520251,0.4087284958\H,0,5.37145
 65297,3.0279679447,0.3937616312\H,0,-5.0373475548,-2.0234836555,-1.110
 7584758\H,0,4.5909021892,0.3906573116,-0.4281912301\H,0,-4.0907645805,
 0.6371088278,0.275220318\H,0,3.2775855436,3.1194559875,1.6172479258\H,
 0,1.8039470477,3.3129999709,0.7564780558\H,0,3.6138554075,3.6546332972
 ,0.1843879428\H,0,-2.4485269897,-2.7935765048,0.033760332\H,0,-3.01444
 09521,-2.5234834684,-1.7432982968\H,0,-1.2087076698,-2.4480649816,-1.5
 630493409\H,0,2.4144185999,-0.1516838195,-0.6308509891\H,0,-1.86744614
 56,1.2353134492,0.1598893759\H,0,0.3143071777,1.7884715531,0.180183813
 4\H,0,0.0154443144,-1.091309081,-0.5395715412\\Version=ES64L-G16RevA.0
 3\State=1-A\HF=-1706.8637925\RMSD=3.235e-09\PG=C01 [X(C40H56O2)]\\@


 LEARN FROM YESTERDAY,
 LIVE FOR TODAY,
 LOOK TO TOMORROW,
 REST THIS AFTERNOON.

           -- SNOOPY
 Job cpu time:       0 days  5 hours 53 minutes 47.7 seconds.
 Elapsed time:       0 days  1 hours 28 minutes 56.4 seconds.
 File lengths (MBytes):  RWF=   3127 Int=      0 D2E=      0 Chk=     84 Scr=      1
 Normal termination of Gaussian 16 at Sat Jun 29 11:28:47 2019.
