 Entering Gaussian System, Link 0=g16
 Input=Geometria-110-.com
 Output=Geometria-110-.log
 Initial command:
 /usr/local/g16/l1.exe "/home/padawan/israel-mol/zeaxanthin/spectra/abs/Gau-27310.inp" -scrdir="/home/padawan/israel-mol/zeaxanthin/spectra/abs/"
 Entering Link 1 = /usr/local/g16/l1.exe PID=     27312.
  
 Copyright (c) 1988,1990,1992,1993,1995,1998,2003,2009,2016,
            Gaussian, Inc.  All Rights Reserved.
  
 This is part of the Gaussian(R) 16 program.  It is based on
 the Gaussian(R) 09 system (copyright 2009, Gaussian, Inc.),
 the Gaussian(R) 03 system (copyright 2003, Gaussian, Inc.),
 the Gaussian(R) 98 system (copyright 1998, Gaussian, Inc.),
 the Gaussian(R) 94 system (copyright 1995, Gaussian, Inc.),
 the Gaussian 92(TM) system (copyright 1992, Gaussian, Inc.),
 the Gaussian 90(TM) system (copyright 1990, Gaussian, Inc.),
 the Gaussian 88(TM) system (copyright 1988, Gaussian, Inc.),
 the Gaussian 86(TM) system (copyright 1986, Carnegie Mellon
 University), and the Gaussian 82(TM) system (copyright 1983,
 Carnegie Mellon University). Gaussian is a federally registered
 trademark of Gaussian, Inc.
  
 This software contains proprietary and confidential information,
 including trade secrets, belonging to Gaussian, Inc.
  
 This software is provided under written license and may be
 used, copied, transmitted, or stored only in accord with that
 written license.
  
 The following legend is applicable only to US Government
 contracts under FAR:
  
                    RESTRICTED RIGHTS LEGEND
  
 Use, reproduction and disclosure by the US Government is
 subject to restrictions as set forth in subparagraphs (a)
 and (c) of the Commercial Computer Software - Restricted
 Rights clause in FAR 52.227-19.
  
 Gaussian, Inc.
 340 Quinnipiac St., Bldg. 40, Wallingford CT 06492
  
  
 ---------------------------------------------------------------
 Warning -- This program may not be used in any manner that
 competes with the business of Gaussian, Inc. or will provide
 assistance to any competitor of Gaussian, Inc.  The licensee
 of this program is prohibited from giving any competitor of
 Gaussian, Inc. access to this program.  By using this program,
 the user acknowledges that Gaussian, Inc. is engaged in the
 business of creating and licensing software in the field of
 computational chemistry and represents and warrants to the
 licensee that it is not a competitor of Gaussian, Inc. and that
 it will not use this program in any manner prohibited above.
 ---------------------------------------------------------------
  

 Cite this work as:
 Gaussian 16, Revision A.03,
 M. J. Frisch, G. W. Trucks, H. B. Schlegel, G. E. Scuseria, 
 M. A. Robb, J. R. Cheeseman, G. Scalmani, V. Barone, 
 G. A. Petersson, H. Nakatsuji, X. Li, M. Caricato, A. V. Marenich, 
 J. Bloino, B. G. Janesko, R. Gomperts, B. Mennucci, H. P. Hratchian, 
 J. V. Ortiz, A. F. Izmaylov, J. L. Sonnenberg, D. Williams-Young, 
 F. Ding, F. Lipparini, F. Egidi, J. Goings, B. Peng, A. Petrone, 
 T. Henderson, D. Ranasinghe, V. G. Zakrzewski, J. Gao, N. Rega, 
 G. Zheng, W. Liang, M. Hada, M. Ehara, K. Toyota, R. Fukuda, 
 J. Hasegawa, M. Ishida, T. Nakajima, Y. Honda, O. Kitao, H. Nakai, 
 T. Vreven, K. Throssell, J. A. Montgomery, Jr., J. E. Peralta, 
 F. Ogliaro, M. J. Bearpark, J. J. Heyd, E. N. Brothers, K. N. Kudin, 
 V. N. Staroverov, T. A. Keith, R. Kobayashi, J. Normand, 
 K. Raghavachari, A. P. Rendell, J. C. Burant, S. S. Iyengar, 
 J. Tomasi, M. Cossi, J. M. Millam, M. Klene, C. Adamo, R. Cammi, 
 J. W. Ochterski, R. L. Martin, K. Morokuma, O. Farkas, 
 J. B. Foresman, and D. J. Fox, Gaussian, Inc., Wallingford CT, 2016.
 
 ******************************************
 Gaussian 16:  ES64L-G16RevA.03 25-Dec-2016
                29-Jun-2019 
 ******************************************
 %nproc=4
 Will use up to    4 processors via shared memory.
 %Mem=2GB
 -------------------------------------
 # td=(NStates=1) CAM-B3LYP/6-31G(d,p)
 -------------------------------------
 1/38=1,172=1/1;
 2/12=2,17=6,18=5,40=1/2;
 3/5=1,6=6,7=101,11=9,25=1,30=1,74=-40/1,2,3,8;
 4//1;
 5/5=2,38=5/2;
 8/6=1,10=2,108=1/1;
 9/41=1,42=1,70=2/14;
 6/7=2,8=2,9=2,10=2/1;
 99/5=1,9=1/99;
 --
 TD
 --
 Symbolic Z-matrix:
 Charge =  0 Multiplicity = 1
 8                     14.75966  -2.20163  -0.37478 
 8                    -14.70324   1.85982   0.85582 
 6                     11.38557  -1.08093   1.1883 
 6                    -12.17261  -0.9357    0.80516 
 6                     12.89678  -1.46692   1.04798 
 6                    -13.52689  -0.13457   0.95142 
 6                     13.29287  -1.90237  -0.22766 
 6                    -13.48205   1.3081    0.78184 
 6                     10.93393  -0.28419  -0.05982 
 6                    -11.28768  -0.23268  -0.31463 
 6                     12.92489  -0.936    -1.37566 
 6                    -12.90468   1.62256  -0.53637 
 6                     11.64582  -0.20546  -1.18726 
 6                    -11.64978   0.89278  -0.99236 
 6                     11.17203  -0.32524   2.45287 
 6                     10.60389  -2.36795   1.31341 
 6                    -11.48582  -0.91687   2.20255 
 6                    -12.58934  -2.26328   0.46104 
 6                     9.56676   0.35506   0.1432 
 6                    -10.11336  -0.93729  -0.59225 
 6                     11.12733   0.53599  -2.44531 
 6                    -10.90383   1.58994  -2.15759 
 6                     9.38204   1.6792   -0.13662 
 6                    -8.77126  -0.51935  -0.50068 
 6                     8.03088   2.29509   0.09725 
 6                    -7.51907  -1.28225  -0.59878 
 6                     8.10585   3.81887   0.37635 
 6                    -7.6455   -2.81954  -0.93399 
 6                     6.88918   1.53486   0.0469 
 6                    -6.36241  -0.56181  -0.37503 
 6                     5.5114    2.15625   0.10496 
 6                    -5.0231   -1.04874  -0.45381 
 6                     4.42319   1.24075   0.06782 
 6                    -3.91808  -0.42389  -0.07505 
 6                     3.0398    1.56601   0.14896 
 6                    -2.56292  -0.81122  -0.28154 
 6                     2.73567   3.08125   0.43467 
 6                    -2.27613  -2.17902  -0.73463 
 6                     2.12137   0.55732  -0.02372 
 6                    -1.61009   0.1253   -0.02007 
 6                     0.74179   0.78571   0.11863 
 6                    -0.26015  -0.18569  -0.11906 
 1                     13.37028  -0.54165   1.15218 
 1                     13.08668  -2.11135   1.93383 
 1                    -13.88972  -0.60942   1.92709 
 1                    -14.34121  -0.81328   0.46928 
 1                     12.51347  -2.87358  -0.26226 
 1                    -12.5941   1.46056   1.50548 
 1                     13.64146  -0.2173   -1.25178 
 1                     13.0025  -1.60306  -2.18593 
 1                    -13.76088   1.60497  -1.25571 
 1                    -12.45267   2.7223   -0.54335 
 1                     11.72272  -0.90308   3.28686 
 1                     10.06132  -0.24636   2.83432 
 1                     11.69857   0.71814   2.61322 
 1                     10.75212  -3.01538   0.4854 
 1                     10.94461  -3.06411   2.19733 
 1                     9.49123  -2.32168   1.31315 
 1                    -11.41584   0.2009    2.57402 
 1                    -10.43425  -1.43775   2.24755 
 1                    -11.99024  -1.41343   2.97003 
 1                    -13.22684  -2.73587   1.10718 
 1                    -11.82159  -3.05303   0.24447 
 1                    -13.06016  -2.06098  -0.64183 
 1                     8.74733  -0.25984   0.64421 
 1                    -10.19982  -2.02026  -0.73896 
 1                     10.13273   0.80616  -2.24121 
 1                     11.40326   1.48593  -2.44747 
 1                     11.15069  -0.15466  -3.3027 
 1                    -11.60602   2.04918  -2.88489 
 1                    -10.1624   0.86096  -2.61486 
 1                    -10.36699   2.41666  -1.91072 
 1                     14.81591  -2.87386   0.15991 
 1                    -15.02477   1.84862   1.86496 
 1                     10.22634   2.25316  -0.70084 
 1                    -8.68453   0.49808  -0.31042 
 1                     8.85177   4.07564  -0.3438 
 1                     7.33315   4.49087  -0.01579 
 1                     8.41356   3.80891   1.42369 
 1                    -8.32384  -3.22351  -0.1075 
 1                    -8.23259  -2.80196  -1.95294 
 1                    -6.60679  -3.28017  -1.12186 
 1                     6.96551   0.48001  -0.3514 
 1                    -6.54041   0.4114    0.36171 
 1                     5.17384   3.21001   0.38587 
 1                    -5.03097  -2.20734  -0.81452 
 1                     4.75834   0.23709  -0.32686 
 1                    -4.05337   0.73187   0.04868 
 1                     3.21793   3.69835   1.26623 
 1                     1.70052   3.17786   0.70378 
 1                     2.88704   3.85253  -0.19569 
 1                    -2.58788  -3.16142   0.03893 
 1                    -2.97735  -2.28383  -1.63295 
 1                    -1.29391  -2.36575  -0.90278 
 1                     2.66994  -0.41808  -0.21028 
 1                    -2.09135   1.11977   0.19739 
 1                     0.51211   1.73108   0.52558 
 1                     0.16046  -1.11454  -0.53909 
 
 Stoichiometry    C40H56O2
 Framework group  C1[X(C40H56O2)]
 Deg. of freedom   288
 Full point group                 C1      NOp   1
 Largest Abelian subgroup         C1      NOp   1
 Largest concise Abelian subgroup C1      NOp   1
                         Standard orientation:                         
 ---------------------------------------------------------------------
 Center     Atomic      Atomic             Coordinates (Angstroms)
 Number     Number       Type             X           Y           Z
 ---------------------------------------------------------------------
      1          8           0       14.761463   -2.179492   -0.441889
      2          8           0      -14.703726    1.825425    0.912946
      3          6           0       11.387519   -1.102759    1.152108
      4          6           0      -12.171012   -0.965835    0.787473
      5          6           0       12.898928   -1.483766    1.000786
      6          6           0      -13.525797   -0.169869    0.955522
      7          6           0       13.294537   -1.885328   -0.286071
      8          6           0      -13.482168    1.276787    0.823773
      9          6           0       10.934476   -0.273941   -0.074428
     10          6           0      -11.287323   -0.233034   -0.314056
     11          6           0       12.925085   -0.889502   -1.408127
     12          6           0      -12.905880    1.626127   -0.486101
     13          6           0       11.645583   -0.165140   -1.199855
     14          6           0      -11.650714    0.909517   -0.961833
     15          6           0       11.174208   -0.380634    2.436171
     16          6           0       10.606895   -2.393221    1.243930
     17          6           0      -11.483340   -0.983103    2.184454
     18          6           0      -12.586947   -2.284271    0.408942
     19          6           0        9.566950    0.358706    0.146120
     20          6           0      -10.112652   -0.929209   -0.610766
     21          6           0       11.125722    0.608617   -2.437724
     22          6           0      -10.906043    1.637554   -2.108851
     23          6           0        9.381041    1.689585   -0.098790
     24          6           0       -8.770807   -0.512767   -0.509109
     25          6           0        8.029564    2.298083    0.151969
     26          6           0       -7.518100   -1.271869   -0.627936
     27          6           0        8.103555    3.814085    0.470860
     28          6           0       -7.643573   -2.799944   -1.003245
     29          6           0        6.888415    1.538551    0.082430
     30          6           0       -6.361846   -0.556640   -0.386105
     31          6           0        5.510198    2.157136    0.157597
     32          6           0       -5.022222   -1.040301   -0.478443
     33          6           0        4.422656    1.242075    0.097158
     34          6           0       -3.917430   -0.424727   -0.084130
     35          6           0        3.039071    1.564020    0.187644
     36          6           0       -2.562110   -0.805457   -0.301528
     37          6           0        2.733979    3.071016    0.513150
     38          6           0       -2.274573   -2.160691   -0.790491
     39          6           0        2.121303    0.559494   -0.010838
     40          6           0       -1.609828    0.124628   -0.016204
     41          6           0        0.741641    0.783004    0.138300
     42          6           0       -0.259718   -0.182616   -0.124141
     43          1           0       13.371789   -0.561175    1.128902
     44          1           0       13.089889   -2.151042    1.869329
     45          1           0      -13.887649   -0.670406    1.918634
     46          1           0      -14.339909   -0.836342    0.456257
     47          1           0       12.515849   -2.855909   -0.345634
     48          1           0      -12.593876    1.410919    1.550610
     49          1           0       13.641185   -0.173739   -1.265902
     50          1           0       13.002689   -1.535038   -2.235647
     51          1           0      -13.762526    1.626729   -1.205128
     52          1           0      -12.454713    2.726027   -0.464541
     53          1           0       11.725873   -0.979702    3.254400
     54          1           0       10.063686   -0.312642    2.820251
     55          1           0       11.700058    0.658597    2.623487
     56          1           0       10.755093   -3.018621    0.399151
     57          1           0       10.948705   -3.112043    2.109093
     58          1           0        9.494196   -2.347830    1.245567
     59          1           0      -11.413970    0.124602    2.585047
     60          1           0      -10.431343   -1.504164    2.215141
     61          1           0      -11.986891   -1.499994    2.938971
     62          1           0      -13.223677   -2.774128    1.042868
     63          1           0      -11.818731   -3.067474    0.171278
     64          1           0      -13.058622   -2.053501   -0.687957
     65          1           0        8.748303   -0.269748    0.631349
     66          1           0      -10.198379   -2.008027   -0.785757
     67          1           0       10.131048    0.872576   -2.225999
     68          1           0       11.400931    1.558507   -2.415167
     69          1           0       11.149063   -0.059304   -3.312931
     70          1           0      -11.609045    2.115148   -2.823438
     71          1           0      -10.164350    0.921380   -2.585527
     72          1           0      -10.369670    2.457939   -1.840744
     73          1           0       14.818559   -2.865457    0.074961
     74          1           0      -15.024607    1.787537    1.921644
     75          1           0       10.224544    2.278786   -0.648299
     76          1           0       -8.684726    0.499392   -0.292302
     77          1           0        8.848817    4.090214   -0.242775
     78          1           0        7.330090    4.495534    0.096948
     79          1           0        8.411937    3.776926    1.517385
     80          1           0       -8.321082   -3.225957   -0.187198
     81          1           0       -8.231331   -2.756123   -2.021019
     82          1           0       -6.604638   -3.254686   -1.203759
     83          1           0        6.965287    0.494558   -0.343426
     84          1           0       -6.540121    0.396794    0.375999
     85          1           0        5.172012    3.202903    0.466238
     86          1           0       -5.029435   -2.189054   -0.869386
     87          1           0        4.758319    0.249365   -0.323897
     88          1           0       -4.053523    0.727286    0.069930
     89          1           0        3.216296    3.666495    1.360304
     90          1           0        1.698921    3.159736    0.785347
     91          1           0        2.884359    3.858672   -0.096872
     92          1           0       -2.585080   -3.163274   -0.042743
     93          1           0       -2.976281   -2.242474   -1.690808
     94          1           0       -1.292312   -2.342189   -0.964083
     95          1           0        2.670498   -0.410260   -0.223231
     96          1           0       -2.091701    1.112683    0.227545
     97          1           0        0.511498    1.717199    0.570026
     98          1           0        0.161333   -1.099814   -0.568629
 ---------------------------------------------------------------------
 Rotational constants (GHZ):           0.2430356           0.0093342           0.0091792
 Standard basis: 6-31G(d,p) (6D, 7F)
 There are   910 symmetry adapted cartesian basis functions of A   symmetry.
 There are   910 symmetry adapted basis functions of A   symmetry.
   910 basis functions,  1568 primitive gaussians,   910 cartesian basis functions
   156 alpha electrons      156 beta electrons
       nuclear repulsion energy      3977.9891202053 Hartrees.
 NAtoms=   98 NActive=   98 NUniq=   98 SFac= 1.00D+00 NAtFMM=   60 NAOKFM=T Big=T
 Integral buffers will be    131072 words long.
 Raffenetti 1 integral format.
 Two-electron integral symmetry is turned on.
 One-electron integrals computed using PRISM.
 NBasis=   910 RedAO= T EigKep=  9.06D-04  NBF=   910
 NBsUse=   910 1.00D-06 EigRej= -1.00D+00 NBFU=   910
 ExpMin= 1.61D-01 ExpMax= 5.48D+03 ExpMxC= 8.25D+02 IAcc=3 IRadAn=         5 AccDes= 0.00D+00
 Harris functional with IExCor=20419 and IRadAn=       5 diagonalized for initial guess.
 HarFok:  IExCor=20419 AccDes= 0.00D+00 IRadAn=         5 IDoV= 1 UseB2=F ITyADJ=14
 ICtDFT=  3500011 ScaDFX=  1.000000  1.000000  1.000000  1.000000
 FoFCou: FMM=F IPFlag=           0 FMFlag=      100000 FMFlg1=        2001
         NFxFlg=           0 DoJE=T BraDBF=F KetDBF=T FulRan=T
         wScrn=  0.000000 ICntrl=       500 IOpCl=  0 I1Cent=   200000004 NGrid=           0
         NMat0=    1 NMatS0=      1 NMatT0=    0 NMatD0=    1 NMtDS0=    0 NMtDT0=    0
 Petite list used in FoFCou.
 Requested convergence on RMS density matrix=1.00D-08 within 128 cycles.
 Requested convergence on MAX density matrix=1.00D-06.
 Requested convergence on             energy=1.00D-06.
 No special actions if energy rises.
 Integral accuracy reduced to 1.0D-05 until final iterations.
 Initial convergence to 1.0D-05 achieved.  Increase integral accuracy.
 SCF Done:  E(RCAM-B3LYP) =  -1706.93696354     A.U. after   14 cycles
            NFock= 14  Conv=0.89D-08     -V/T= 2.0100
 DoSCS=F DFT=T ScalE2(SS,OS)=  1.000000  1.000000
 ExpMin= 1.61D-01 ExpMax= 5.48D+03 ExpMxC= 8.25D+02 IAcc=3 IRadAn=         5 AccDes= 0.00D+00
 HarFok:  IExCor=  205 AccDes= 0.00D+00 IRadAn=         5 IDoV=-2 UseB2=F ITyADJ=14
 ICtDFT= 12500011 ScaDFX=  1.000000  1.000000  1.000000  1.000000
 GSVD:  LWork=       -2100 too small for GESVD, short by        9450 words or        9450 for optimal perf.
 Range of M.O.s used for correlation:    43   910
 NBasis=   910 NAE=   156 NBE=   156 NFC=    42 NFV=     0
 NROrb=    868 NOA=   114 NOB=   114 NVA=   754 NVB=   754
 Orbital symmetries:
       Occupied  (A) (A) (A) (A) (A) (A) (A) (A) (A) (A) (A) (A)
                 (A) (A) (A) (A) (A) (A) (A) (A) (A) (A) (A) (A)
                 (A) (A) (A) (A) (A) (A) (A) (A) (A) (A) (A) (A)
                 (A) (A) (A) (A) (A) (A) (A) (A) (A) (A) (A) (A)
                 (A) (A) (A) (A) (A) (A) (A) (A) (A) (A) (A) (A)
                 (A) (A) (A) (A) (A) (A) (A) (A) (A) (A) (A) (A)
                 (A) (A) (A) (A) (A) (A) (A) (A) (A) (A) (A) (A)
                 (A) (A) (A) (A) (A) (A) (A) (A) (A) (A) (A) (A)
                 (A) (A) (A) (A) (A) (A) (A) (A) (A) (A) (A) (A)
                 (A) (A) (A) (A) (A) (A) (A) (A) (A) (A) (A) (A)
                 (A) (A) (A) (A) (A) (A) (A) (A) (A) (A) (A) (A)
                 (A) (A) (A) (A) (A) (A) (A) (A) (A) (A) (A) (A)
                 (A) (A) (A) (A) (A) (A) (A) (A) (A) (A) (A) (A)
       Virtual   (A) (A) (A) (A) (A) (A) (A) (A) (A) (A) (A) (A)
                 (A) (A) (A) (A) (A) (A) (A) (A) (A) (A) (A) (A)
                 (A) (A) (A) (A) (A) (A) (A) (A) (A) (A) (A) (A)
                 (A) (A) (A) (A) (A) (A) (A) (A) (A) (A) (A) (A)
                 (A) (A) (A) (A) (A) (A) (A) (A) (A) (A) (A) (A)
                 (A) (A) (A) (A) (A) (A) (A) (A) (A) (A) (A) (A)
                 (A) (A) (A) (A) (A) (A) (A) (A) (A) (A) (A) (A)
                 (A) (A) (A) (A) (A) (A) (A) (A) (A) (A) (A) (A)
                 (A) (A) (A) (A) (A) (A) (A) (A) (A) (A) (A) (A)
                 (A) (A) (A) (A) (A) (A) (A) (A) (A) (A) (A) (A)
                 (A) (A) (A) (A) (A) (A) (A) (A) (A) (A) (A) (A)
                 (A) (A) (A) (A) (A) (A) (A) (A) (A) (A) (A) (A)
                 (A) (A) (A) (A) (A) (A) (A) (A) (A) (A) (A) (A)
                 (A) (A) (A) (A) (A) (A) (A) (A) (A) (A) (A) (A)
                 (A) (A) (A) (A) (A) (A) (A) (A) (A) (A) (A) (A)
                 (A) (A) (A) (A) (A) (A) (A) (A) (A) (A) (A) (A)
                 (A) (A) (A) (A) (A) (A) (A) (A) (A) (A) (A) (A)
                 (A) (A) (A) (A) (A) (A) (A) (A) (A) (A) (A) (A)
                 (A) (A) (A) (A) (A) (A) (A) (A) (A) (A) (A) (A)
                 (A) (A) (A) (A) (A) (A) (A) (A) (A) (A) (A) (A)
                 (A) (A) (A) (A) (A) (A) (A) (A) (A) (A) (A) (A)
                 (A) (A) (A) (A) (A) (A) (A) (A) (A) (A) (A) (A)
                 (A) (A) (A) (A) (A) (A) (A) (A) (A) (A) (A) (A)
                 (A) (A) (A) (A) (A) (A) (A) (A) (A) (A) (A) (A)
                 (A) (A) (A) (A) (A) (A) (A) (A) (A) (A) (A) (A)
                 (A) (A) (A) (A) (A) (A) (A) (A) (A) (A) (A) (A)
                 (A) (A) (A) (A) (A) (A) (A) (A) (A) (A) (A) (A)
                 (A) (A) (A) (A) (A) (A) (A) (A) (A) (A) (A) (A)
                 (A) (A) (A) (A) (A) (A) (A) (A) (A) (A) (A) (A)
                 (A) (A) (A) (A) (A) (A) (A) (A) (A) (A) (A) (A)
                 (A) (A) (A) (A) (A) (A) (A) (A) (A) (A) (A) (A)
                 (A) (A) (A) (A) (A) (A) (A) (A) (A) (A) (A) (A)
                 (A) (A) (A) (A) (A) (A) (A) (A) (A) (A) (A) (A)
                 (A) (A) (A) (A) (A) (A) (A) (A) (A) (A) (A) (A)
                 (A) (A) (A) (A) (A) (A) (A) (A) (A) (A) (A) (A)
                 (A) (A) (A) (A) (A) (A) (A) (A) (A) (A) (A) (A)
                 (A) (A) (A) (A) (A) (A) (A) (A) (A) (A) (A) (A)
                 (A) (A) (A) (A) (A) (A) (A) (A) (A) (A) (A) (A)
                 (A) (A) (A) (A) (A) (A) (A) (A) (A) (A) (A) (A)
                 (A) (A) (A) (A) (A) (A) (A) (A) (A) (A) (A) (A)
                 (A) (A) (A) (A) (A) (A) (A) (A) (A) (A) (A) (A)
                 (A) (A) (A) (A) (A) (A) (A) (A) (A) (A) (A) (A)
                 (A) (A) (A) (A) (A) (A) (A) (A) (A) (A) (A) (A)
                 (A) (A) (A) (A) (A) (A) (A) (A) (A) (A) (A) (A)
                 (A) (A) (A) (A) (A) (A) (A) (A) (A) (A) (A) (A)
                 (A) (A) (A) (A) (A) (A) (A) (A) (A) (A) (A) (A)
                 (A) (A) (A) (A) (A) (A) (A) (A) (A) (A) (A) (A)
                 (A) (A) (A) (A) (A) (A) (A) (A) (A) (A) (A) (A)
                 (A) (A) (A) (A) (A) (A) (A) (A) (A) (A) (A) (A)
                 (A) (A) (A) (A) (A) (A) (A) (A) (A) (A) (A) (A)
                 (A) (A) (A) (A) (A) (A) (A) (A) (A) (A) (A) (A)
                 (A) (A) (A) (A) (A) (A) (A) (A) (A) (A) (A) (A)
                 (A) (A) (A) (A) (A) (A) (A) (A) (A) (A) (A) (A)
                 (A) (A) (A) (A) (A) (A) (A) (A) (A) (A) (A) (A)
                 (A) (A) (A) (A) (A) (A) (A) (A) (A) (A) (A) (A)
                 (A) (A) (A) (A) (A) (A) (A) (A) (A) (A) (A) (A)
                 (A) (A) (A) (A) (A) (A) (A) (A) (A) (A) (A) (A)
                 (A) (A) (A) (A) (A) (A) (A) (A) (A) (A) (A) (A)
                 (A) (A) (A) (A) (A) (A) (A) (A) (A) (A) (A) (A)
                 (A) (A) (A) (A) (A) (A) (A) (A) (A) (A) (A) (A)
                 (A) (A) (A) (A) (A) (A) (A) (A) (A) (A) (A) (A)
                 (A) (A) (A) (A) (A) (A) (A) (A) (A) (A) (A) (A)
                 (A) (A) (A) (A) (A) (A) (A) (A) (A) (A)
     4 initial guesses have been made.
 Convergence on wavefunction:    0.001000000000000
 Iteration     1 Dimension     4 NMult     0 NNew      4
 CISAX will form     4 AO SS matrices at one time.
 Iteration     2 Dimension     6 NMult     4 NNew      2
 Iteration     3 Dimension     8 NMult     6 NNew      2
 Iteration     4 Dimension    10 NMult     8 NNew      2
 Iteration     5 Dimension    12 NMult    10 NNew      2
 Iteration     6 Dimension    14 NMult    12 NNew      2
 ***********************************************************************
 Excited states from <AA,BB:AA,BB> singles matrix:
 ***********************************************************************
 
 Ground to excited state transition densities written to RWF  633
 Ground to excited state transition electric dipole moments (Au):
       state          X           Y           Z        Dip. S.      Osc.
         1         7.7186      1.3807      0.3570     61.6103      3.7228
 Ground to excited state transition velocity dipole moments (Au):
       state          X           Y           Z        Dip. S.      Osc.
         1        -0.6712     -0.1180     -0.0307      0.4654      3.4234
 Ground to excited state transition magnetic dipole moments (Au):
       state          X           Y           Z
         1         0.0236     -0.0358      0.4551
 Ground to excited state transition velocity quadrupole moments (Au):
       state          XX          YY          ZZ          XY          XZ          YZ
         1         1.0341     -0.2250      0.0158     -0.2898      0.3246     -0.0012
 <0|del|b> * <b|rxdel|0> + <0|del|b> * <b|delr+rdel|0>
 Rotatory Strengths (R) in cgs (10**-40 erg-esu-cm/Gauss)
       state          XX          YY          ZZ    R(velocity)    E-M Angle
         1       146.1668   -148.0839   -197.7919    -66.5697       94.71
 1/2[<0|r|b>*<b|rxdel|0> + (<0|rxdel|b>*<b|r|0>)*]
 Rotatory Strengths (R) in cgs (10**-40 erg-esu-cm/Gauss)
       state          XX          YY          ZZ     R(length)
         1      -128.7703     34.9893   -114.8771    -69.5527
  1/2[<0|del|b>*<b|r|0> + (<0|r|b>*<b|del|0>)*] (Au)
       state          X           Y           Z        Dip. S.   Osc.(frdel)
         1        -5.1809     -0.1630     -0.0110      5.3549      3.5699

 Excitation energies and oscillator strengths:
 
 Excited State   1:      Singlet-A      2.4663 eV  502.70 nm  f=3.7228  <S**2>=0.000
     155 ->158         0.15915
     156 ->157         0.68686
 This state for optimization and/or second-order correction.
 Total Energy, E(TD-HF/TD-DFT) =  -1706.84632703    
 Copying the excited state density for this state as the 1-particle RhoCI density.
 SavETr:  write IOETrn=   770 NScale= 10 NData=  16 NLR=1 NState=    1 LETran=      28.

 **********************************************************************

            Population analysis using the SCF density.

 **********************************************************************

 Orbital symmetries:
       Occupied  (A) (A) (A) (A) (A) (A) (A) (A) (A) (A) (A) (A)
                 (A) (A) (A) (A) (A) (A) (A) (A) (A) (A) (A) (A)
                 (A) (A) (A) (A) (A) (A) (A) (A) (A) (A) (A) (A)
                 (A) (A) (A) (A) (A) (A) (A) (A) (A) (A) (A) (A)
                 (A) (A) (A) (A) (A) (A) (A) (A) (A) (A) (A) (A)
                 (A) (A) (A) (A) (A) (A) (A) (A) (A) (A) (A) (A)
                 (A) (A) (A) (A) (A) (A) (A) (A) (A) (A) (A) (A)
                 (A) (A) (A) (A) (A) (A) (A) (A) (A) (A) (A) (A)
                 (A) (A) (A) (A) (A) (A) (A) (A) (A) (A) (A) (A)
                 (A) (A) (A) (A) (A) (A) (A) (A) (A) (A) (A) (A)
                 (A) (A) (A) (A) (A) (A) (A) (A) (A) (A) (A) (A)
                 (A) (A) (A) (A) (A) (A) (A) (A) (A) (A) (A) (A)
                 (A) (A) (A) (A) (A) (A) (A) (A) (A) (A) (A) (A)
       Virtual   (A) (A) (A) (A) (A) (A) (A) (A) (A) (A) (A) (A)
                 (A) (A) (A) (A) (A) (A) (A) (A) (A) (A) (A) (A)
                 (A) (A) (A) (A) (A) (A) (A) (A) (A) (A) (A) (A)
                 (A) (A) (A) (A) (A) (A) (A) (A) (A) (A) (A) (A)
                 (A) (A) (A) (A) (A) (A) (A) (A) (A) (A) (A) (A)
                 (A) (A) (A) (A) (A) (A) (A) (A) (A) (A) (A) (A)
                 (A) (A) (A) (A) (A) (A) (A) (A) (A) (A) (A) (A)
                 (A) (A) (A) (A) (A) (A) (A) (A) (A) (A) (A) (A)
                 (A) (A) (A) (A) (A) (A) (A) (A) (A) (A) (A) (A)
                 (A) (A) (A) (A) (A) (A) (A) (A) (A) (A) (A) (A)
                 (A) (A) (A) (A) (A) (A) (A) (A) (A) (A) (A) (A)
                 (A) (A) (A) (A) (A) (A) (A) (A) (A) (A) (A) (A)
                 (A) (A) (A) (A) (A) (A) (A) (A) (A) (A) (A) (A)
                 (A) (A) (A) (A) (A) (A) (A) (A) (A) (A) (A) (A)
                 (A) (A) (A) (A) (A) (A) (A) (A) (A) (A) (A) (A)
                 (A) (A) (A) (A) (A) (A) (A) (A) (A) (A) (A) (A)
                 (A) (A) (A) (A) (A) (A) (A) (A) (A) (A) (A) (A)
                 (A) (A) (A) (A) (A) (A) (A) (A) (A) (A) (A) (A)
                 (A) (A) (A) (A) (A) (A) (A) (A) (A) (A) (A) (A)
                 (A) (A) (A) (A) (A) (A) (A) (A) (A) (A) (A) (A)
                 (A) (A) (A) (A) (A) (A) (A) (A) (A) (A) (A) (A)
                 (A) (A) (A) (A) (A) (A) (A) (A) (A) (A) (A) (A)
                 (A) (A) (A) (A) (A) (A) (A) (A) (A) (A) (A) (A)
                 (A) (A) (A) (A) (A) (A) (A) (A) (A) (A) (A) (A)
                 (A) (A) (A) (A) (A) (A) (A) (A) (A) (A) (A) (A)
                 (A) (A) (A) (A) (A) (A) (A) (A) (A) (A) (A) (A)
                 (A) (A) (A) (A) (A) (A) (A) (A) (A) (A) (A) (A)
                 (A) (A) (A) (A) (A) (A) (A) (A) (A) (A) (A) (A)
                 (A) (A) (A) (A) (A) (A) (A) (A) (A) (A) (A) (A)
                 (A) (A) (A) (A) (A) (A) (A) (A) (A) (A) (A) (A)
                 (A) (A) (A) (A) (A) (A) (A) (A) (A) (A) (A) (A)
                 (A) (A) (A) (A) (A) (A) (A) (A) (A) (A) (A) (A)
                 (A) (A) (A) (A) (A) (A) (A) (A) (A) (A) (A) (A)
                 (A) (A) (A) (A) (A) (A) (A) (A) (A) (A) (A) (A)
                 (A) (A) (A) (A) (A) (A) (A) (A) (A) (A) (A) (A)
                 (A) (A) (A) (A) (A) (A) (A) (A) (A) (A) (A) (A)
                 (A) (A) (A) (A) (A) (A) (A) (A) (A) (A) (A) (A)
                 (A) (A) (A) (A) (A) (A) (A) (A) (A) (A) (A) (A)
                 (A) (A) (A) (A) (A) (A) (A) (A) (A) (A) (A) (A)
                 (A) (A) (A) (A) (A) (A) (A) (A) (A) (A) (A) (A)
                 (A) (A) (A) (A) (A) (A) (A) (A) (A) (A) (A) (A)
                 (A) (A) (A) (A) (A) (A) (A) (A) (A) (A) (A) (A)
                 (A) (A) (A) (A) (A) (A) (A) (A) (A) (A) (A) (A)
                 (A) (A) (A) (A) (A) (A) (A) (A) (A) (A) (A) (A)
                 (A) (A) (A) (A) (A) (A) (A) (A) (A) (A) (A) (A)
                 (A) (A) (A) (A) (A) (A) (A) (A) (A) (A) (A) (A)
                 (A) (A) (A) (A) (A) (A) (A) (A) (A) (A) (A) (A)
                 (A) (A) (A) (A) (A) (A) (A) (A) (A) (A) (A) (A)
                 (A) (A) (A) (A) (A) (A) (A) (A) (A) (A) (A) (A)
                 (A) (A) (A) (A) (A) (A) (A) (A) (A) (A) (A) (A)
                 (A) (A) (A) (A) (A) (A) (A) (A) (A) (A) (A) (A)
                 (A) (A) (A) (A) (A) (A) (A) (A) (A) (A) (A) (A)
                 (A) (A) (A) (A) (A) (A) (A) (A) (A) (A) (A) (A)
                 (A) (A) (A) (A) (A) (A) (A) (A) (A) (A) (A) (A)
                 (A) (A) (A) (A) (A) (A) (A) (A) (A) (A) (A) (A)
                 (A) (A) (A) (A) (A) (A) (A) (A) (A) (A) (A) (A)
                 (A) (A) (A) (A) (A) (A) (A) (A) (A) (A) (A) (A)
                 (A) (A) (A) (A) (A) (A) (A) (A) (A) (A) (A) (A)
                 (A) (A) (A) (A) (A) (A) (A) (A) (A) (A) (A) (A)
                 (A) (A) (A) (A) (A) (A) (A) (A) (A) (A) (A) (A)
                 (A) (A) (A) (A) (A) (A) (A) (A) (A) (A) (A) (A)
                 (A) (A) (A) (A) (A) (A) (A) (A) (A) (A) (A) (A)
                 (A) (A) (A) (A) (A) (A) (A) (A) (A) (A)
 The electronic state is 1-A.
 Alpha  occ. eigenvalues --  -19.23203 -19.20976 -10.31175 -10.30289 -10.28153
 Alpha  occ. eigenvalues --  -10.28135 -10.27899 -10.27684 -10.27589 -10.27575
 Alpha  occ. eigenvalues --  -10.27422 -10.27247 -10.27228 -10.27104 -10.26984
 Alpha  occ. eigenvalues --  -10.26802 -10.26764 -10.26664 -10.26590 -10.26510
 Alpha  occ. eigenvalues --  -10.26463 -10.26433 -10.26318 -10.26113 -10.26105
 Alpha  occ. eigenvalues --  -10.26031 -10.25990 -10.25955 -10.25774 -10.25678
 Alpha  occ. eigenvalues --  -10.25627 -10.25530 -10.25522 -10.25439 -10.25400
 Alpha  occ. eigenvalues --  -10.25247 -10.25081 -10.24688 -10.24669 -10.24259
 Alpha  occ. eigenvalues --  -10.24157 -10.23460  -1.11894  -1.10524  -0.94480
 Alpha  occ. eigenvalues --   -0.93619  -0.92488  -0.91000  -0.89817  -0.89486
 Alpha  occ. eigenvalues --   -0.87721  -0.87372  -0.86603  -0.85712  -0.84972
 Alpha  occ. eigenvalues --   -0.83161  -0.81509  -0.80350  -0.79860  -0.78662
 Alpha  occ. eigenvalues --   -0.77767  -0.76734  -0.76132  -0.76114  -0.75914
 Alpha  occ. eigenvalues --   -0.75835  -0.75476  -0.74804  -0.73586  -0.70614
 Alpha  occ. eigenvalues --   -0.68526  -0.67273  -0.65110  -0.64411  -0.64337
 Alpha  occ. eigenvalues --   -0.63617  -0.62179  -0.61693  -0.60616  -0.59832
 Alpha  occ. eigenvalues --   -0.59097  -0.58829  -0.58265  -0.57391  -0.56214
 Alpha  occ. eigenvalues --   -0.55957  -0.55075  -0.54620  -0.54459  -0.53798
 Alpha  occ. eigenvalues --   -0.53185  -0.53007  -0.52626  -0.52015  -0.51405
 Alpha  occ. eigenvalues --   -0.50934  -0.50677  -0.50038  -0.49529  -0.49291
 Alpha  occ. eigenvalues --   -0.48866  -0.48676  -0.48221  -0.48071  -0.47665
 Alpha  occ. eigenvalues --   -0.47230  -0.47143  -0.46970  -0.46847  -0.46432
 Alpha  occ. eigenvalues --   -0.45815  -0.45555  -0.45279  -0.45005  -0.44923
 Alpha  occ. eigenvalues --   -0.44668  -0.44080  -0.43896  -0.43789  -0.43347
 Alpha  occ. eigenvalues --   -0.43054  -0.42778  -0.42353  -0.41980  -0.41830
 Alpha  occ. eigenvalues --   -0.41665  -0.41137  -0.40947  -0.40824  -0.40459
 Alpha  occ. eigenvalues --   -0.40396  -0.39886  -0.39740  -0.39677  -0.39275
 Alpha  occ. eigenvalues --   -0.39227  -0.38896  -0.38858  -0.38695  -0.37536
 Alpha  occ. eigenvalues --   -0.37354  -0.36947  -0.36419  -0.36276  -0.35490
 Alpha  occ. eigenvalues --   -0.34699  -0.34298  -0.33502  -0.32593  -0.32107
 Alpha  occ. eigenvalues --   -0.31732  -0.29886  -0.28626  -0.26366  -0.23710
 Alpha  occ. eigenvalues --   -0.19764
 Alpha virt. eigenvalues --   -0.04836  -0.00276   0.02773   0.06122   0.08016
 Alpha virt. eigenvalues --    0.09629   0.10085   0.10928   0.11258   0.11758
 Alpha virt. eigenvalues --    0.11817   0.12192   0.12758   0.12818   0.13369
 Alpha virt. eigenvalues --    0.14161   0.14237   0.14514   0.14943   0.15181
 Alpha virt. eigenvalues --    0.15531   0.15581   0.15694   0.16168   0.16235
 Alpha virt. eigenvalues --    0.16626   0.17111   0.17299   0.17397   0.17991
 Alpha virt. eigenvalues --    0.18291   0.18526   0.18611   0.19002   0.19271
 Alpha virt. eigenvalues --    0.19764   0.19818   0.20527   0.20669   0.21045
 Alpha virt. eigenvalues --    0.21558   0.21625   0.21758   0.22096   0.22502
 Alpha virt. eigenvalues --    0.22613   0.22712   0.22862   0.23133   0.23209
 Alpha virt. eigenvalues --    0.23308   0.23635   0.24242   0.24530   0.24992
 Alpha virt. eigenvalues --    0.25217   0.25346   0.25519   0.25664   0.26391
 Alpha virt. eigenvalues --    0.26562   0.26626   0.26885   0.27104   0.27273
 Alpha virt. eigenvalues --    0.27639   0.27824   0.28166   0.28396   0.28788
 Alpha virt. eigenvalues --    0.29531   0.29819   0.30135   0.30206   0.30366
 Alpha virt. eigenvalues --    0.30786   0.31234   0.31835   0.32126   0.32579
 Alpha virt. eigenvalues --    0.33358   0.33678   0.34120   0.35127   0.35638
 Alpha virt. eigenvalues --    0.36145   0.36567   0.36647   0.37665   0.38084
 Alpha virt. eigenvalues --    0.39245   0.39795   0.40589   0.41197   0.41550
 Alpha virt. eigenvalues --    0.42124   0.43310   0.43868   0.44632   0.44985
 Alpha virt. eigenvalues --    0.45522   0.46468   0.48482   0.48867   0.49998
 Alpha virt. eigenvalues --    0.50718   0.52254   0.52641   0.53357   0.54410
 Alpha virt. eigenvalues --    0.54765   0.55466   0.56150   0.56232   0.56513
 Alpha virt. eigenvalues --    0.56995   0.57114   0.57695   0.58470   0.58573
 Alpha virt. eigenvalues --    0.58795   0.59262   0.59381   0.59727   0.60201
 Alpha virt. eigenvalues --    0.60724   0.61096   0.61402   0.61426   0.61678
 Alpha virt. eigenvalues --    0.62168   0.62564   0.62760   0.62958   0.63157
 Alpha virt. eigenvalues --    0.63331   0.64042   0.64299   0.64632   0.65032
 Alpha virt. eigenvalues --    0.65205   0.65775   0.65911   0.66164   0.66773
 Alpha virt. eigenvalues --    0.67078   0.67262   0.67874   0.68513   0.68817
 Alpha virt. eigenvalues --    0.69090   0.69242   0.69572   0.69740   0.69935
 Alpha virt. eigenvalues --    0.70541   0.70852   0.71045   0.71285   0.71564
 Alpha virt. eigenvalues --    0.72001   0.72370   0.72748   0.73363   0.73767
 Alpha virt. eigenvalues --    0.74093   0.74235   0.74347   0.75207   0.75752
 Alpha virt. eigenvalues --    0.76232   0.76599   0.77024   0.77295   0.77499
 Alpha virt. eigenvalues --    0.77709   0.78343   0.78757   0.78978   0.79303
 Alpha virt. eigenvalues --    0.79586   0.79959   0.80411   0.80789   0.80968
 Alpha virt. eigenvalues --    0.81396   0.81874   0.81979   0.82900   0.83011
 Alpha virt. eigenvalues --    0.83107   0.83422   0.83825   0.83966   0.84426
 Alpha virt. eigenvalues --    0.84716   0.85216   0.85418   0.85538   0.85989
 Alpha virt. eigenvalues --    0.86233   0.86446   0.86719   0.87343   0.87471
 Alpha virt. eigenvalues --    0.87729   0.87818   0.88101   0.88254   0.88653
 Alpha virt. eigenvalues --    0.89019   0.89548   0.89843   0.90054   0.90335
 Alpha virt. eigenvalues --    0.90489   0.90884   0.91015   0.91405   0.91428
 Alpha virt. eigenvalues --    0.91566   0.92293   0.92581   0.92660   0.93333
 Alpha virt. eigenvalues --    0.93743   0.93989   0.94070   0.94532   0.94708
 Alpha virt. eigenvalues --    0.95169   0.95315   0.95634   0.95982   0.96136
 Alpha virt. eigenvalues --    0.97028   0.97065   0.97403   0.97637   0.97803
 Alpha virt. eigenvalues --    0.97919   0.98202   0.98894   0.98971   0.99380
 Alpha virt. eigenvalues --    1.00092   1.00593   1.00774   1.00947   1.01224
 Alpha virt. eigenvalues --    1.01738   1.01894   1.02450   1.02641   1.02737
 Alpha virt. eigenvalues --    1.03410   1.03973   1.04477   1.04615   1.04937
 Alpha virt. eigenvalues --    1.05250   1.05424   1.05869   1.06637   1.07685
 Alpha virt. eigenvalues --    1.07799   1.07920   1.08281   1.08641   1.09232
 Alpha virt. eigenvalues --    1.09375   1.10167   1.11019   1.11143   1.11735
 Alpha virt. eigenvalues --    1.12258   1.12453   1.12817   1.13011   1.13594
 Alpha virt. eigenvalues --    1.14352   1.15129   1.15823   1.16192   1.16474
 Alpha virt. eigenvalues --    1.17401   1.17558   1.17747   1.19318   1.19695
 Alpha virt. eigenvalues --    1.20079   1.21244   1.22129   1.23055   1.23950
 Alpha virt. eigenvalues --    1.24441   1.25592   1.26611   1.27005   1.28775
 Alpha virt. eigenvalues --    1.29040   1.29574   1.30030   1.30515   1.33085
 Alpha virt. eigenvalues --    1.33868   1.34178   1.34695   1.35323   1.36262
 Alpha virt. eigenvalues --    1.36690   1.37544   1.37795   1.38232   1.39411
 Alpha virt. eigenvalues --    1.39957   1.40290   1.41042   1.41614   1.41628
 Alpha virt. eigenvalues --    1.42869   1.43147   1.43745   1.44235   1.45751
 Alpha virt. eigenvalues --    1.45843   1.46923   1.47565   1.48184   1.49041
 Alpha virt. eigenvalues --    1.50320   1.50620   1.51542   1.52743   1.53077
 Alpha virt. eigenvalues --    1.53765   1.54271   1.54992   1.55449   1.55725
 Alpha virt. eigenvalues --    1.55765   1.57169   1.58212   1.58354   1.58994
 Alpha virt. eigenvalues --    1.59819   1.60093   1.61532   1.61607   1.62638
 Alpha virt. eigenvalues --    1.63741   1.64116   1.64386   1.64651   1.66798
 Alpha virt. eigenvalues --    1.67022   1.68110   1.70571   1.70686   1.71103
 Alpha virt. eigenvalues --    1.71776   1.72347   1.75020   1.75529   1.75829
 Alpha virt. eigenvalues --    1.76585   1.76664   1.77765   1.78273   1.78345
 Alpha virt. eigenvalues --    1.79647   1.79864   1.80818   1.80863   1.81440
 Alpha virt. eigenvalues --    1.82034   1.82988   1.83244   1.83592   1.84133
 Alpha virt. eigenvalues --    1.84586   1.84757   1.85592   1.86043   1.86237
 Alpha virt. eigenvalues --    1.86335   1.86567   1.87861   1.88129   1.88490
 Alpha virt. eigenvalues --    1.89015   1.89289   1.90049   1.90358   1.90609
 Alpha virt. eigenvalues --    1.90788   1.91587   1.92247   1.92801   1.92900
 Alpha virt. eigenvalues --    1.93252   1.93429   1.93755   1.94265   1.94627
 Alpha virt. eigenvalues --    1.95056   1.95493   1.96031   1.96761   1.97210
 Alpha virt. eigenvalues --    1.97865   1.97998   1.98297   1.98846   1.99044
 Alpha virt. eigenvalues --    1.99369   1.99956   2.00190   2.00677   2.01737
 Alpha virt. eigenvalues --    2.02380   2.02830   2.03084   2.03394   2.03825
 Alpha virt. eigenvalues --    2.04035   2.04301   2.04458   2.04832   2.05164
 Alpha virt. eigenvalues --    2.05909   2.06174   2.06282   2.06907   2.07297
 Alpha virt. eigenvalues --    2.07617   2.08020   2.08899   2.09075   2.09620
 Alpha virt. eigenvalues --    2.09992   2.10193   2.10534   2.10845   2.11547
 Alpha virt. eigenvalues --    2.11818   2.12028   2.12539   2.12960   2.13070
 Alpha virt. eigenvalues --    2.13879   2.14230   2.14602   2.15101   2.15215
 Alpha virt. eigenvalues --    2.15660   2.17256   2.17415   2.17500   2.18074
 Alpha virt. eigenvalues --    2.18215   2.18786   2.19116   2.19307   2.19775
 Alpha virt. eigenvalues --    2.19885   2.20597   2.21765   2.21824   2.22370
 Alpha virt. eigenvalues --    2.22540   2.23810   2.24126   2.24534   2.24811
 Alpha virt. eigenvalues --    2.25080   2.25535   2.26381   2.26957   2.27376
 Alpha virt. eigenvalues --    2.27710   2.28287   2.28794   2.29203   2.29536
 Alpha virt. eigenvalues --    2.30000   2.30315   2.30713   2.30799   2.31466
 Alpha virt. eigenvalues --    2.32088   2.32626   2.33386   2.34238   2.34720
 Alpha virt. eigenvalues --    2.34993   2.35366   2.35546   2.35878   2.36703
 Alpha virt. eigenvalues --    2.37407   2.37765   2.37880   2.38861   2.39356
 Alpha virt. eigenvalues --    2.39668   2.39932   2.40536   2.41143   2.41692
 Alpha virt. eigenvalues --    2.42163   2.42428   2.43498   2.43628   2.43803
 Alpha virt. eigenvalues --    2.44069   2.44390   2.44841   2.45261   2.45538
 Alpha virt. eigenvalues --    2.46444   2.46765   2.47335   2.47831   2.48184
 Alpha virt. eigenvalues --    2.48623   2.48847   2.49227   2.49437   2.50199
 Alpha virt. eigenvalues --    2.50415   2.51144   2.51901   2.52037   2.52641
 Alpha virt. eigenvalues --    2.53191   2.53412   2.53938   2.54369   2.55185
 Alpha virt. eigenvalues --    2.55547   2.56305   2.56488   2.57364   2.57776
 Alpha virt. eigenvalues --    2.58130   2.58407   2.58585   2.59247   2.59672
 Alpha virt. eigenvalues --    2.60500   2.60630   2.60816   2.60950   2.61903
 Alpha virt. eigenvalues --    2.62399   2.63298   2.63764   2.64071   2.64839
 Alpha virt. eigenvalues --    2.64994   2.65404   2.65537   2.66105   2.67131
 Alpha virt. eigenvalues --    2.67621   2.68212   2.68500   2.69358   2.69762
 Alpha virt. eigenvalues --    2.69923   2.70378   2.70776   2.70988   2.71964
 Alpha virt. eigenvalues --    2.72161   2.72417   2.73026   2.73529   2.73726
 Alpha virt. eigenvalues --    2.74387   2.74741   2.74946   2.76003   2.76450
 Alpha virt. eigenvalues --    2.77016   2.77114   2.77567   2.79008   2.79496
 Alpha virt. eigenvalues --    2.80079   2.80895   2.81042   2.81372   2.81594
 Alpha virt. eigenvalues --    2.81704   2.82443   2.82599   2.82995   2.83351
 Alpha virt. eigenvalues --    2.83635   2.84006   2.84603   2.84637   2.85009
 Alpha virt. eigenvalues --    2.85700   2.86560   2.86945   2.87267   2.88255
 Alpha virt. eigenvalues --    2.88865   2.89087   2.89239   2.89736   2.90020
 Alpha virt. eigenvalues --    2.90454   2.91253   2.91902   2.92950   2.93794
 Alpha virt. eigenvalues --    2.94082   2.94340   2.95086   2.95448   2.95976
 Alpha virt. eigenvalues --    2.96514   2.97969   2.98077   2.98378   2.98701
 Alpha virt. eigenvalues --    2.99837   3.00127   3.00500   3.00879   3.01172
 Alpha virt. eigenvalues --    3.02119   3.02284   3.04050   3.04601   3.05601
 Alpha virt. eigenvalues --    3.06616   3.07310   3.07722   3.08150   3.09633
 Alpha virt. eigenvalues --    3.09782   3.10620   3.11762   3.11822   3.13061
 Alpha virt. eigenvalues --    3.13824   3.15021   3.18143   3.19576   3.19932
 Alpha virt. eigenvalues --    3.20881   3.21758   3.23446   3.23624   3.24101
 Alpha virt. eigenvalues --    3.25239   3.25667   3.26255   3.27838   3.28065
 Alpha virt. eigenvalues --    3.33936   3.34214   3.35604   3.36841   3.36959
 Alpha virt. eigenvalues --    3.37881   3.38072   3.40067   3.40647   3.41340
 Alpha virt. eigenvalues --    3.41527   3.42321   3.42411   3.42581   3.45024
 Alpha virt. eigenvalues --    3.45265   3.46458   3.46569   3.47508   3.48093
 Alpha virt. eigenvalues --    3.48155   3.51040   3.51328   3.52199   3.53101
 Alpha virt. eigenvalues --    3.53584   3.54776   3.58325   3.58833   3.59048
 Alpha virt. eigenvalues --    3.59785   3.60359   3.60636   3.62761   3.63127
 Alpha virt. eigenvalues --    3.63244   3.65655   3.66852   3.68401   3.68836
 Alpha virt. eigenvalues --    3.69792   3.69928   3.71967   3.74210   3.74817
 Alpha virt. eigenvalues --    3.76902   3.78645   4.14963   4.15570   4.17746
 Alpha virt. eigenvalues --    4.18780   4.20490   4.21850   4.22896   4.25992
 Alpha virt. eigenvalues --    4.27350   4.27867   4.28955   4.31184   4.35883
 Alpha virt. eigenvalues --    4.38622   4.41204   4.42330   4.45123   4.46574
 Alpha virt. eigenvalues --    4.47352   4.48808   4.52677   4.53766   4.55719
 Alpha virt. eigenvalues --    4.56011   4.57898   4.58233   4.59102   4.62006
 Alpha virt. eigenvalues --    4.62543   4.63686   4.66884   4.69768   4.72526
 Alpha virt. eigenvalues --    4.73806   4.75870   4.77392   4.80561   4.83131
 Alpha virt. eigenvalues --    4.83546   4.87791   4.90733   4.91417
          Condensed to atoms (all electrons):
 Mulliken charges:
               1
     1  O   -0.531447
     2  O   -0.550399
     3  C   -0.019546
     4  C    0.003748
     5  C   -0.163539
     6  C   -0.197987
     7  C    0.109312
     8  C    0.208418
     9  C    0.062149
    10  C    0.048116
    11  C   -0.201020
    12  C   -0.218956
    13  C    0.008457
    14  C    0.063412
    15  C   -0.287486
    16  C   -0.304026
    17  C   -0.293372
    18  C   -0.300785
    19  C   -0.112694
    20  C   -0.155871
    21  C   -0.362746
    22  C   -0.367453
    23  C   -0.108781
    24  C   -0.083658
    25  C    0.036955
    26  C    0.090844
    27  C   -0.351171
    28  C   -0.354206
    29  C   -0.129380
    30  C   -0.139164
    31  C   -0.092374
    32  C   -0.081522
    33  C   -0.134033
    34  C   -0.126745
    35  C    0.126134
    36  C    0.134638
    37  C   -0.397311
    38  C   -0.344768
    39  C   -0.116996
    40  C   -0.105131
    41  C   -0.094519
    42  C   -0.111823
    43  H    0.099621
    44  H    0.085874
    45  H    0.066413
    46  H    0.082549
    47  H    0.035870
    48  H    0.065373
    49  H    0.134998
    50  H    0.127243
    51  H    0.115871
    52  H    0.084787
    53  H    0.084747
    54  H    0.099003
    55  H    0.093227
    56  H    0.111520
    57  H    0.086157
    58  H    0.099669
    59  H    0.084520
    60  H    0.091408
    61  H    0.108952
    62  H    0.109889
    63  H    0.089961
    64  H    0.090431
    65  H    0.102771
    66  H    0.075264
    67  H    0.121172
    68  H    0.125004
    69  H    0.113626
    70  H    0.110424
    71  H    0.117338
    72  H    0.131779
    73  H    0.292710
    74  H    0.317696
    75  H    0.090481
    76  H    0.074522
    77  H    0.116327
    78  H    0.113999
    79  H    0.140191
    80  H    0.131549
    81  H    0.117712
    82  H    0.110100
    83  H    0.093344
    84  H    0.078785
    85  H    0.088326
    86  H    0.065330
    87  H    0.071618
    88  H    0.072431
    89  H    0.108130
    90  H    0.106550
    91  H    0.138847
    92  H    0.080284
    93  H    0.117032
    94  H    0.115538
    95  H    0.088953
    96  H    0.088668
    97  H    0.086497
    98  H    0.095649
 Sum of Mulliken charges =  -0.00000
 Mulliken charges with hydrogens summed into heavy atoms:
               1
     1  O   -0.238737
     2  O   -0.232704
     3  C   -0.019546
     4  C    0.003748
     5  C    0.021956
     6  C   -0.049026
     7  C    0.145183
     8  C    0.273790
     9  C    0.062149
    10  C    0.048116
    11  C    0.061220
    12  C   -0.018298
    13  C    0.008457
    14  C    0.063412
    15  C   -0.010509
    16  C   -0.006679
    17  C   -0.008492
    18  C   -0.010504
    19  C   -0.009923
    20  C   -0.080607
    21  C   -0.002944
    22  C   -0.007912
    23  C   -0.018300
    24  C   -0.009137
    25  C    0.036955
    26  C    0.090844
    27  C    0.019346
    28  C    0.005156
    29  C   -0.036036
    30  C   -0.060379
    31  C   -0.004048
    32  C   -0.016193
    33  C   -0.062415
    34  C   -0.054314
    35  C    0.126134
    36  C    0.134638
    37  C   -0.043785
    38  C   -0.031913
    39  C   -0.028043
    40  C   -0.016463
    41  C   -0.008022
    42  C   -0.016173
 Electronic spatial extent (au):  <R**2>=         110328.6556
 Charge=             -0.0000 electrons
 Dipole moment (field-independent basis, Debye):
    X=             -1.1453    Y=             -0.5073    Z=              1.8724  Tot=              2.2528
 Quadrupole moment (field-independent basis, Debye-Ang):
   XX=           -283.1792   YY=           -240.7946   ZZ=           -260.1252
   XY=              5.0139   XZ=            -10.8242   YZ=              0.5454
 Traceless Quadrupole moment (field-independent basis, Debye-Ang):
   XX=            -21.8128   YY=             20.5718   ZZ=              1.2411
   XY=              5.0139   XZ=            -10.8242   YZ=              0.5454
 Octapole moment (field-independent basis, Debye-Ang**2):
  XXX=           -678.6108  YYY=             12.0741  ZZZ=             10.6347  XYY=             88.2865
  XXY=           -150.8259  XXZ=            528.3126  XZZ=            -62.8738  YZZ=              3.7473
  YYZ=              9.3770  XYZ=            -58.2828
 Hexadecapole moment (field-independent basis, Debye-Ang**3):
 XXXX=        -157430.0952 YYYY=          -4378.9009 ZZZZ=          -2027.7701 XXXY=            721.8720
 XXXZ=          -2400.1920 YYYX=           -256.1117 YYYZ=            -26.0389 ZZZX=           -312.6398
 ZZZY=             35.1631 XXYY=         -23577.2786 XXZZ=         -23436.3785 YYZZ=          -1079.3730
 XXYZ=           -481.2020 YYXZ=             16.2901 ZZXY=           -262.6216
 N-N= 3.977989120205D+03 E-N=-1.191065018138D+04  KE= 1.690050844768D+03
 1\1\GINC-PADAWAN\SP\RCAM-B3LYP TD-FC\6-31G(d,p)\C40H56O2\PADAWAN\29-Ju
 n-2019\0\\# td=(NStates=1) CAM-B3LYP/6-31G(d,p)\\TD\\0,1\O,0,14.759664
 1854,-2.2016276339,-0.3747763306\O,0,-14.7032369207,1.8598178378,0.855
 8246765\C,0,11.3855718512,-1.080928727,1.1883021912\C,0,-12.1726148935
 ,-0.9356961296,0.8051560376\C,0,12.8967784098,-1.4669197301,1.04798237
 02\C,0,-13.5268852975,-0.134569617,0.9514240384\C,0,13.2928712811,-1.9
 023657637,-0.2276576548\C,0,-13.4820505451,1.3081036084,0.781839968\C,
 0,10.9339319192,-0.2841926354,-0.059820228\C,0,-11.2876758686,-0.23268
 42974,-0.3146322172\C,0,12.9248867077,-0.9360043575,-1.3756584388\C,0,
 -12.9046812281,1.622560233,-0.5363706791\C,0,11.6458193289,-0.20546091
 92,-1.1872572417\C,0,-11.6497785679,0.8927756006,-0.9923587749\C,0,11.
 1720279298,-0.3252416823,2.4528657276\C,0,10.60388983,-2.3679472758,1.
 3134094609\C,0,-11.4858207761,-0.9168735154,2.2025488349\C,0,-12.58933
 9636,-2.2632817712,0.4610380078\C,0,9.5667615022,0.3550565426,0.143201
 0001\C,0,-10.1133627033,-0.9372878138,-0.5922479058\C,0,11.1273254975,
 0.5359880637,-2.4453087379\C,0,-10.9038328223,1.5899393779,-2.15758506
 55\C,0,9.3820381708,1.679201358,-0.1366190359\C,0,-8.7712576108,-0.519
 3454915,-0.5006811141\C,0,8.0308790739,2.2950892488,0.0972453935\C,0,-
 7.5190670487,-1.2822525584,-0.5987752095\C,0,8.1058510661,3.8188700919
 ,0.3763490009\C,0,-7.6454956556,-2.8195417023,-0.9339935744\C,0,6.8891
 843254,1.5348634802,0.0469046845\C,0,-6.3624080438,-0.5618116563,-0.37
 50305091\C,0,5.5114016922,2.1562533322,0.1049554115\C,0,-5.0231034323,
 -1.0487447506,-0.4538075548\C,0,4.4231862496,1.2407494888,0.0678211531
 \C,0,-3.9180772277,-0.423888595,-0.0750548355\C,0,3.0397965847,1.56600
 71986,0.1489565607\C,0,-2.562920056,-0.8112154516,-0.2815358136\C,0,2.
 7356738484,3.0812475737,0.4346661756\C,0,-2.2761331073,-2.1790152036,-
 0.7346345035\C,0,2.1213717122,0.5573228962,-0.0237214971\C,0,-1.610092
 3322,0.1253022361,-0.0200738344\C,0,0.7417913481,0.7857133392,0.118627
 7428\C,0,-0.2601548845,-0.1856906742,-0.119059546\H,0,13.3702762996,-0
 .5416475999,1.152180056\H,0,13.0866839044,-2.1113517163,1.9338335154\H
 ,0,-13.8897217492,-0.6094210991,1.927089915\H,0,-14.3412054875,-0.8132
 782508,0.4692753075\H,0,12.5134665487,-2.8735821013,-0.2622642914\H,0,
 -12.5941048715,1.4605605741,1.505480021\H,0,13.6414550775,-0.217304450
 5,-1.2517810621\H,0,13.0025017432,-1.6030625334,-2.1859292689\H,0,-13.
 7608816322,1.6049718182,-1.2557135044\H,0,-12.4526738744,2.7223042944,
 -0.5433512181\H,0,11.7227208921,-0.9030810342,3.2868633473\H,0,10.0613
 219972,-0.2463641465,2.8343223132\H,0,11.6985691269,0.7181415471,2.613
 220457\H,0,10.7521242154,-3.0153821183,0.4854039264\H,0,10.9446053775,
 -3.0641113282,2.197329657\H,0,9.4912251235,-2.3216831614,1.3131462576\
 H,0,-11.4158384838,0.2008956606,2.5740212951\H,0,-10.4342479338,-1.437
 7509301,2.2475507591\H,0,-11.990240183,-1.4134322482,2.970029599\H,0,-
 13.2268424652,-2.7358748395,1.1071752265\H,0,-11.8215852065,-3.0530273
 307,0.244469503\H,0,-13.0601563736,-2.0609764056,-0.6418326573\H,0,8.7
 473265567,-0.2598443045,0.6442086049\H,0,-10.199819714,-2.0202557496,-
 0.7389635294\H,0,10.1327256916,0.806160714,-2.2412088239\H,0,11.403258
 7609,1.4859328842,-2.4474744614\H,0,11.1506893039,-0.1546559527,-3.302
 6973997\H,0,-11.6060216092,2.0491781468,-2.884889982\H,0,-10.162401779
 2,0.8609567327,-2.6148560916\H,0,-10.3669884538,2.416660279,-1.9107246
 685\H,0,14.8159081438,-2.8738562907,0.1599078838\H,0,-15.0247719122,1.
 848619776,1.8649647015\H,0,10.2263381158,2.2531586198,-0.7008393989\H,
 0,-8.6845251495,0.4980819062,-0.3104158546\H,0,8.8517680388,4.07563741
 66,-0.3438006831\H,0,7.3331467037,4.4908744963,-0.0157857456\H,0,8.413
 5560656,3.8089137783,1.4236853865\H,0,-8.3238394139,-3.22350928,-0.107
 4965887\H,0,-8.2325890149,-2.80195921,-1.9529416242\H,0,-6.606789528,-
 3.2801716693,-1.1218589779\H,0,6.9655082138,0.4800117441,-0.3513985319
 \H,0,-6.5404143034,0.41140098,0.3617137944\H,0,5.1738367677,3.21000614
 85,0.3858708421\H,0,-5.0309669167,-2.2073420413,-0.8145188519\H,0,4.75
 83389329,0.2370919551,-0.3268610971\H,0,-4.0533708411,0.7318683037,0.0
 486776638\H,0,3.217929578,3.6983538773,1.2662328243\H,0,1.7005167047,3
 .1778564565,0.7037827863\H,0,2.8870427263,3.8525330872,-0.195690065\H,
 0,-2.5878809251,-3.1614232894,0.0389308491\H,0,-2.9773472427,-2.283829
 5031,-1.6329472617\H,0,-1.2939061896,-2.3657467498,-0.9027833143\H,0,2
 .6699441524,-0.4180804591,-0.2102789319\H,0,-2.0913485359,1.1197718951
 ,0.1973931263\H,0,0.5121069577,1.7310758135,0.5255783528\H,0,0.1604588
 159,-1.1145414042,-0.5390914931\\Version=ES64L-G16RevA.03\State=1-A\HF
 =-1706.9369635\RMSD=8.860e-09\PG=C01 [X(C40H56O2)]\\@


 IT IS A SIMPLE TASK TO MAKE THINGS COMPLEX,
 BUT A COMPLEX TASK TO MAKE THEM SIMPLE.
 Job cpu time:       0 days  5 hours 53 minutes 14.6 seconds.
 Elapsed time:       0 days  1 hours 28 minutes 46.3 seconds.
 File lengths (MBytes):  RWF=   3127 Int=      0 D2E=      0 Chk=     84 Scr=      1
 Normal termination of Gaussian 16 at Sat Jun 29 21:49:43 2019.
