 Entering Gaussian System, Link 0=g16
 Input=Geometria-88-.com
 Output=Geometria-88-.log
 Initial command:
 /usr/local/g16/l1.exe "/home/padawan/israel-mol/zeaxanthin/spectra/abs/Gau-23712.inp" -scrdir="/home/padawan/israel-mol/zeaxanthin/spectra/abs/"
 Entering Link 1 = /usr/local/g16/l1.exe PID=     23714.
  
 Copyright (c) 1988,1990,1992,1993,1995,1998,2003,2009,2016,
            Gaussian, Inc.  All Rights Reserved.
  
 This is part of the Gaussian(R) 16 program.  It is based on
 the Gaussian(R) 09 system (copyright 2009, Gaussian, Inc.),
 the Gaussian(R) 03 system (copyright 2003, Gaussian, Inc.),
 the Gaussian(R) 98 system (copyright 1998, Gaussian, Inc.),
 the Gaussian(R) 94 system (copyright 1995, Gaussian, Inc.),
 the Gaussian 92(TM) system (copyright 1992, Gaussian, Inc.),
 the Gaussian 90(TM) system (copyright 1990, Gaussian, Inc.),
 the Gaussian 88(TM) system (copyright 1988, Gaussian, Inc.),
 the Gaussian 86(TM) system (copyright 1986, Carnegie Mellon
 University), and the Gaussian 82(TM) system (copyright 1983,
 Carnegie Mellon University). Gaussian is a federally registered
 trademark of Gaussian, Inc.
  
 This software contains proprietary and confidential information,
 including trade secrets, belonging to Gaussian, Inc.
  
 This software is provided under written license and may be
 used, copied, transmitted, or stored only in accord with that
 written license.
  
 The following legend is applicable only to US Government
 contracts under FAR:
  
                    RESTRICTED RIGHTS LEGEND
  
 Use, reproduction and disclosure by the US Government is
 subject to restrictions as set forth in subparagraphs (a)
 and (c) of the Commercial Computer Software - Restricted
 Rights clause in FAR 52.227-19.
  
 Gaussian, Inc.
 340 Quinnipiac St., Bldg. 40, Wallingford CT 06492
  
  
 ---------------------------------------------------------------
 Warning -- This program may not be used in any manner that
 competes with the business of Gaussian, Inc. or will provide
 assistance to any competitor of Gaussian, Inc.  The licensee
 of this program is prohibited from giving any competitor of
 Gaussian, Inc. access to this program.  By using this program,
 the user acknowledges that Gaussian, Inc. is engaged in the
 business of creating and licensing software in the field of
 computational chemistry and represents and warrants to the
 licensee that it is not a competitor of Gaussian, Inc. and that
 it will not use this program in any manner prohibited above.
 ---------------------------------------------------------------
  

 Cite this work as:
 Gaussian 16, Revision A.03,
 M. J. Frisch, G. W. Trucks, H. B. Schlegel, G. E. Scuseria, 
 M. A. Robb, J. R. Cheeseman, G. Scalmani, V. Barone, 
 G. A. Petersson, H. Nakatsuji, X. Li, M. Caricato, A. V. Marenich, 
 J. Bloino, B. G. Janesko, R. Gomperts, B. Mennucci, H. P. Hratchian, 
 J. V. Ortiz, A. F. Izmaylov, J. L. Sonnenberg, D. Williams-Young, 
 F. Ding, F. Lipparini, F. Egidi, J. Goings, B. Peng, A. Petrone, 
 T. Henderson, D. Ranasinghe, V. G. Zakrzewski, J. Gao, N. Rega, 
 G. Zheng, W. Liang, M. Hada, M. Ehara, K. Toyota, R. Fukuda, 
 J. Hasegawa, M. Ishida, T. Nakajima, Y. Honda, O. Kitao, H. Nakai, 
 T. Vreven, K. Throssell, J. A. Montgomery, Jr., J. E. Peralta, 
 F. Ogliaro, M. J. Bearpark, J. J. Heyd, E. N. Brothers, K. N. Kudin, 
 V. N. Staroverov, T. A. Keith, R. Kobayashi, J. Normand, 
 K. Raghavachari, A. P. Rendell, J. C. Burant, S. S. Iyengar, 
 J. Tomasi, M. Cossi, J. M. Millam, M. Klene, C. Adamo, R. Cammi, 
 J. W. Ochterski, R. L. Martin, K. Morokuma, O. Farkas, 
 J. B. Foresman, and D. J. Fox, Gaussian, Inc., Wallingford CT, 2016.
 
 ******************************************
 Gaussian 16:  ES64L-G16RevA.03 25-Dec-2016
                29-Jun-2019 
 ******************************************
 %nproc=4
 Will use up to    4 processors via shared memory.
 %Mem=2GB
 -------------------------------------
 # td=(NStates=1) CAM-B3LYP/6-31G(d,p)
 -------------------------------------
 1/38=1,172=1/1;
 2/12=2,17=6,18=5,40=1/2;
 3/5=1,6=6,7=101,11=9,25=1,30=1,74=-40/1,2,3,8;
 4//1;
 5/5=2,38=5/2;
 8/6=1,10=2,108=1/1;
 9/41=1,42=1,70=2/14;
 6/7=2,8=2,9=2,10=2/1;
 99/5=1,9=1/99;
 --
 TD
 --
 Symbolic Z-matrix:
 Charge =  0 Multiplicity = 1
 8                     14.77189  -2.26978  -0.60806 
 8                    -14.7837   2.03982   0.43526 
 6                     11.47307  -1.14192   1.14368 
 6                    -12.28165  -0.90909   0.80998 
 6                     12.92821  -1.63541   1.01028 
 6                    -13.64051  -0.17122   0.80894 
 6                     13.37413  -1.98553  -0.46902 
 6                    -13.49852   1.34217   0.58304 
 6                     11.03546  -0.28672   0.00825 
 6                    -11.40384  -0.3488   -0.24627 
 6                     12.99259  -0.79276  -1.40615 
 6                    -12.86076   1.58738  -0.77285 
 6                     11.65725  -0.22322  -1.17945 
 6                    -11.66627   0.78767  -0.8889 
 6                     11.18614  -0.37493   2.41784 
 6                     10.61636  -2.43145   1.2649 
 6                    -11.5994  -0.4585    2.31968 
 6                    -12.38758  -2.44107   0.75274 
 6                     9.68684   0.33052   0.13494 
 6                    -10.0597  -1.0572   -0.52956 
 6                     11.21221   0.58709  -2.3843 
 6                    -10.76788   1.29999  -2.09021 
 6                     9.43406   1.66468   0.01405 
 6                    -8.90049  -0.60509  -0.18373 
 6                     7.99422   2.32754   0.31947 
 6                    -7.6229   -1.3656   -0.49186 
 6                     8.20212   3.74513   0.66751 
 6                    -7.63259  -2.85268  -0.72375 
 6                     6.85374   1.65746  -0.02016 
 6                    -6.46297  -0.68458  -0.24289 
 6                     5.53109   2.12146   0.19352 
 6                    -5.11323  -1.16795  -0.3677 
 6                     4.41914   1.34967  -0.11466 
 6                    -3.97539  -0.40507  -0.30449 
 6                     3.08452   1.71602   0.20972 
 6                    -2.65129  -0.73289  -0.4765 
 6                     2.80281   3.11724   0.70462 
 6                    -2.37492  -2.22293  -0.87527 
 6                     2.05508   0.80006  -0.06764 
 6                    -1.66004   0.12569  -0.1187 
 6                     0.64924   0.82703   0.14749 
 6                    -0.26997  -0.06889  -0.30625 
 1                     13.54204  -0.85449   1.14166 
 1                     13.32947  -2.27076   1.69205 
 1                    -14.324   -0.4231    1.71966 
 1                    -14.26969  -0.65563  -0.00708 
 1                     12.70963  -2.79471  -0.66305 
 1                    -12.73168   1.93756   1.37913 
 1                     13.76025   0.05681  -1.30399 
 1                     13.19994  -1.07217  -2.35185 
 1                    -13.58017   1.57355  -1.56277 
 1                    -12.57354   2.69346  -0.79976 
 1                     11.58426  -0.76833   3.36941 
 1                     10.11231  -0.51853   2.70637 
 1                     11.49195   0.52087   2.41894 
 1                     10.74558  -3.13735   0.33649 
 1                     10.95773  -3.10832   2.1473 
 1                     9.51405  -2.18664   1.20206 
 1                    -11.69718   0.59399   2.57538 
 1                    -10.4276  -0.79744   2.51532 
 1                    -12.02962  -0.76776   3.28742 
 1                    -13.04593  -2.88303   1.63143 
 1                    -11.55762  -2.99505   0.657 
 1                    -12.94458  -2.44861  -0.26761 
 1                     8.7623   -0.19663   0.41742 
 1                    -10.03488  -2.02368  -0.98951 
 1                     10.09546   1.12072  -2.35888 
 1                     12.078    1.40079  -2.56742 
 1                     11.25413  -0.07637  -3.23961 
 1                    -11.46847   1.3859   -3.06917 
 1                    -10.07166   0.49441  -2.1927 
 1                    -10.31239   2.34596  -2.02333 
 1                     14.97605  -2.77518   0.2267 
 1                    -15.34676   1.7625    1.18269 
 1                     10.15522   2.37248  -0.21164 
 1                    -8.78999   0.36693   0.13187 
 1                     8.48906   4.55016  -0.08985 
 1                     7.29995   4.25661   1.04039 
 1                     8.82272   3.75637   1.46646 
 1                    -8.15227  -3.29678  -0.01173 
 1                    -8.18945  -3.0684   -1.79728 
 1                    -6.52244  -3.33164  -0.69341 
 1                     7.02914   0.53811  -0.34002 
 1                    -6.55147   0.44231  -0.00806 
 1                     5.42899   3.23983   0.62978 
 1                    -5.02445  -2.22269  -0.59832 
 1                     4.40542   0.22739  -0.50515 
 1                    -4.22995   0.63561   0.04853 
 1                     3.45092   3.40354   1.60206 
 1                     1.71476   3.38309   0.98776 
 1                     3.01845   3.86339   0.0953 
 1                    -2.68121  -2.96299  -0.24463 
 1                    -2.90028  -2.35851  -1.72701 
 1                    -1.29949  -2.47999  -1.07196 
 1                     2.50445  -0.10867  -0.52633 
 1                    -1.85683   1.12406   0.36122 
 1                     0.1694    1.81487   0.76843 
 1                     0.05152  -1.10946  -0.75384 
 
 Stoichiometry    C40H56O2
 Framework group  C1[X(C40H56O2)]
 Deg. of freedom   288
 Full point group                 C1      NOp   1
 Largest Abelian subgroup         C1      NOp   1
 Largest concise Abelian subgroup C1      NOp   1
                         Standard orientation:                         
 ---------------------------------------------------------------------
 Center     Atomic      Atomic             Coordinates (Angstroms)
 Number     Number       Type             X           Y           Z
 ---------------------------------------------------------------------
      1          8           0       14.772450   -2.278714   -0.556572
      2          8           0      -14.784826    2.041583    0.390307
      3          6           0       11.473660   -1.109707    1.168027
      4          6           0      -12.281267   -0.896084    0.836488
      5          6           0       12.928990   -1.605645    1.046307
      6          6           0      -13.640474   -0.159088    0.817781
      7          6           0       13.374605   -1.991780   -0.424097
      8          6           0      -13.499270    1.348365    0.554748
      9          6           0       11.035292   -0.282841    0.012085
     10          6           0      -11.404055   -0.361483   -0.233479
     11          6           0       12.992214   -0.822549   -1.390103
     12          6           0      -12.862048    1.560506   -0.806967
     13          6           0       11.656675   -0.248233   -1.177012
     14          6           0      -11.667223    0.758737   -0.903734
     15          6           0       11.186772   -0.311790    2.423071
     16          6           0       10.617594   -2.396266    1.321157
     17          6           0      -11.598757   -0.408245    2.334451
     18          6           0      -12.386501   -2.429052    0.816912
     19          6           0        9.686425    0.336709    0.124028
     20          6           0      -10.059673   -1.076009   -0.499738
     21          6           0       11.210879    0.532053   -2.401254
     22          6           0      -10.769452    1.241828   -2.117554
     23          6           0        9.432981    1.667378   -0.029502
     24          6           0       -8.900569   -0.615015   -0.165489
     25          6           0        7.992919    2.336876    0.260025
     26          6           0       -7.622717   -1.382269   -0.455278
     27          6           0        8.200270    3.762679    0.573090
     28          6           0       -7.631790   -2.874592   -0.650584
     29          6           0        6.852651    1.658127   -0.062677
     30          6           0       -6.463028   -0.694810   -0.223476
     31          6           0        5.529855    2.126628    0.139986
     32          6           0       -5.113105   -1.180470   -0.336824
     33          6           0        4.418161    1.346993   -0.148790
     34          6           0       -3.975604   -0.415744   -0.292734
     35          6           0        3.083478    1.720583    0.166935
     36          6           0       -2.651401   -0.747079   -0.457075
     37          6           0        2.801267    3.133400    0.627377
     38          6           0       -2.374462   -2.246334   -0.819237
     39          6           0        2.054373    0.797611   -0.087515
     40          6           0       -1.660439    0.120483   -0.120795
     41          6           0        0.648596    0.829207    0.127344
     42          6           0       -0.270335   -0.078003   -0.303961
     43          1           0       13.542498   -0.821454    1.158275
     44          1           0       13.330760   -2.223881    1.743339
     45          1           0      -14.323556   -0.388847    1.734633
     46          1           0      -14.269686   -0.663675    0.014104
     47          1           0       12.710419   -2.805786   -0.597988
     48          1           0      -12.732454    1.963475    1.335726
     49          1           0       13.759501    0.029630   -1.309078
     50          1           0       13.199394   -1.124996   -2.328721
     51          1           0      -13.581708    1.526957   -1.596074
     52          1           0      -12.575354    2.665729   -0.861111
     53          1           0       11.585375   -0.681527    3.383881
     54          1           0       10.113099   -0.448763    2.715388
     55          1           0       11.492162    0.583906    2.402076
     56          1           0       10.746854   -3.124688    0.410310
     57          1           0       10.959555   -3.051103    2.219797
     58          1           0        9.515146   -2.153577    1.252677
     59          1           0      -11.696944    0.650163    2.564267
     60          1           0      -10.426732   -0.741739    2.537966
     61          1           0      -12.028529   -0.693851    3.309633
     62          1           0      -13.044371   -2.849610    1.706404
     63          1           0      -11.556311   -2.984835    0.734534
     64          1           0      -12.943825   -2.461893   -0.202755
     65          1           0        8.762216   -0.183775    0.419664
     66          1           0      -10.034551   -2.053475   -0.935826
     67          1           0       10.093885    1.065631   -2.388575
     68          1           0       12.076221    1.341412   -2.604573
     69          1           0       11.252835   -0.152188   -3.240029
     70          1           0      -11.470390    1.303356   -3.098098
     71          1           0      -10.072891    0.434295   -2.200468
     72          1           0      -10.314435    2.289337   -2.076520
     73          1           0       14.977119   -2.763365    0.290281
     74          1           0      -15.347519    1.782443    1.144499
     75          1           0       10.153736    2.369757   -0.272733
     76          1           0       -8.790420    0.364514    0.126113
     77          1           0        8.486594    4.549007   -0.203894
     78          1           0        7.297981    4.282742    0.933597
     79          1           0        8.821113    3.793813    1.371321
     80          1           0       -8.151035   -3.301319    0.072300
     81          1           0       -8.188888   -3.116861   -1.718305
     82          1           0       -6.521403   -3.352153   -0.608851
     83          1           0        7.028479    0.531344   -0.355012
     84          1           0       -6.551979    0.437472   -0.016360
     85          1           0        5.427367    3.255324    0.548682
     86          1           0       -5.023898   -2.240520   -0.541507
     87          1           0        4.404852    0.215458   -0.511607
     88          1           0       -4.230535    0.633168    0.034708
     89          1           0        3.449528    3.441949    1.517298
     90          1           0        1.713179    3.405616    0.904259
     91          1           0        3.016360    3.864468   -0.000153
     92          1           0       -2.680204   -2.970833   -0.170516
     93          1           0       -2.900025   -2.403024   -1.667218
     94          1           0       -1.298968   -2.507649   -1.009910
     95          1           0        2.504027   -0.121897   -0.523909
     96          1           0       -1.857542    1.130244    0.334537
     97          1           0        0.168490    1.831779    0.724004
     98          1           0        0.051495   -1.129102   -0.725979
 ---------------------------------------------------------------------
 Rotational constants (GHZ):           0.2375945           0.0092681           0.0091069
 Standard basis: 6-31G(d,p) (6D, 7F)
 There are   910 symmetry adapted cartesian basis functions of A   symmetry.
 There are   910 symmetry adapted basis functions of A   symmetry.
   910 basis functions,  1568 primitive gaussians,   910 cartesian basis functions
   156 alpha electrons      156 beta electrons
       nuclear repulsion energy      3962.9617068082 Hartrees.
 NAtoms=   98 NActive=   98 NUniq=   98 SFac= 1.00D+00 NAtFMM=   60 NAOKFM=T Big=T
 Integral buffers will be    131072 words long.
 Raffenetti 1 integral format.
 Two-electron integral symmetry is turned on.
 One-electron integrals computed using PRISM.
 NBasis=   910 RedAO= T EigKep=  9.52D-04  NBF=   910
 NBsUse=   910 1.00D-06 EigRej= -1.00D+00 NBFU=   910
 ExpMin= 1.61D-01 ExpMax= 5.48D+03 ExpMxC= 8.25D+02 IAcc=3 IRadAn=         5 AccDes= 0.00D+00
 Harris functional with IExCor=20419 and IRadAn=       5 diagonalized for initial guess.
 HarFok:  IExCor=20419 AccDes= 0.00D+00 IRadAn=         5 IDoV= 1 UseB2=F ITyADJ=14
 ICtDFT=  3500011 ScaDFX=  1.000000  1.000000  1.000000  1.000000
 FoFCou: FMM=F IPFlag=           0 FMFlag=      100000 FMFlg1=        2001
         NFxFlg=           0 DoJE=T BraDBF=F KetDBF=T FulRan=T
         wScrn=  0.000000 ICntrl=       500 IOpCl=  0 I1Cent=   200000004 NGrid=           0
         NMat0=    1 NMatS0=      1 NMatT0=    0 NMatD0=    1 NMtDS0=    0 NMtDT0=    0
 Petite list used in FoFCou.
 Requested convergence on RMS density matrix=1.00D-08 within 128 cycles.
 Requested convergence on MAX density matrix=1.00D-06.
 Requested convergence on             energy=1.00D-06.
 No special actions if energy rises.
 Integral accuracy reduced to 1.0D-05 until final iterations.
 Initial convergence to 1.0D-05 achieved.  Increase integral accuracy.
 SCF Done:  E(RCAM-B3LYP) =  -1706.99391257     A.U. after   14 cycles
            NFock= 14  Conv=0.84D-08     -V/T= 2.0101
 DoSCS=F DFT=T ScalE2(SS,OS)=  1.000000  1.000000
 ExpMin= 1.61D-01 ExpMax= 5.48D+03 ExpMxC= 8.25D+02 IAcc=3 IRadAn=         5 AccDes= 0.00D+00
 HarFok:  IExCor=  205 AccDes= 0.00D+00 IRadAn=         5 IDoV=-2 UseB2=F ITyADJ=14
 ICtDFT= 12500011 ScaDFX=  1.000000  1.000000  1.000000  1.000000
 GSVD:  LWork=       -2100 too small for GESVD, short by        9450 words or        9450 for optimal perf.
 Range of M.O.s used for correlation:    43   910
 NBasis=   910 NAE=   156 NBE=   156 NFC=    42 NFV=     0
 NROrb=    868 NOA=   114 NOB=   114 NVA=   754 NVB=   754
 Orbital symmetries:
       Occupied  (A) (A) (A) (A) (A) (A) (A) (A) (A) (A) (A) (A)
                 (A) (A) (A) (A) (A) (A) (A) (A) (A) (A) (A) (A)
                 (A) (A) (A) (A) (A) (A) (A) (A) (A) (A) (A) (A)
                 (A) (A) (A) (A) (A) (A) (A) (A) (A) (A) (A) (A)
                 (A) (A) (A) (A) (A) (A) (A) (A) (A) (A) (A) (A)
                 (A) (A) (A) (A) (A) (A) (A) (A) (A) (A) (A) (A)
                 (A) (A) (A) (A) (A) (A) (A) (A) (A) (A) (A) (A)
                 (A) (A) (A) (A) (A) (A) (A) (A) (A) (A) (A) (A)
                 (A) (A) (A) (A) (A) (A) (A) (A) (A) (A) (A) (A)
                 (A) (A) (A) (A) (A) (A) (A) (A) (A) (A) (A) (A)
                 (A) (A) (A) (A) (A) (A) (A) (A) (A) (A) (A) (A)
                 (A) (A) (A) (A) (A) (A) (A) (A) (A) (A) (A) (A)
                 (A) (A) (A) (A) (A) (A) (A) (A) (A) (A) (A) (A)
       Virtual   (A) (A) (A) (A) (A) (A) (A) (A) (A) (A) (A) (A)
                 (A) (A) (A) (A) (A) (A) (A) (A) (A) (A) (A) (A)
                 (A) (A) (A) (A) (A) (A) (A) (A) (A) (A) (A) (A)
                 (A) (A) (A) (A) (A) (A) (A) (A) (A) (A) (A) (A)
                 (A) (A) (A) (A) (A) (A) (A) (A) (A) (A) (A) (A)
                 (A) (A) (A) (A) (A) (A) (A) (A) (A) (A) (A) (A)
                 (A) (A) (A) (A) (A) (A) (A) (A) (A) (A) (A) (A)
                 (A) (A) (A) (A) (A) (A) (A) (A) (A) (A) (A) (A)
                 (A) (A) (A) (A) (A) (A) (A) (A) (A) (A) (A) (A)
                 (A) (A) (A) (A) (A) (A) (A) (A) (A) (A) (A) (A)
                 (A) (A) (A) (A) (A) (A) (A) (A) (A) (A) (A) (A)
                 (A) (A) (A) (A) (A) (A) (A) (A) (A) (A) (A) (A)
                 (A) (A) (A) (A) (A) (A) (A) (A) (A) (A) (A) (A)
                 (A) (A) (A) (A) (A) (A) (A) (A) (A) (A) (A) (A)
                 (A) (A) (A) (A) (A) (A) (A) (A) (A) (A) (A) (A)
                 (A) (A) (A) (A) (A) (A) (A) (A) (A) (A) (A) (A)
                 (A) (A) (A) (A) (A) (A) (A) (A) (A) (A) (A) (A)
                 (A) (A) (A) (A) (A) (A) (A) (A) (A) (A) (A) (A)
                 (A) (A) (A) (A) (A) (A) (A) (A) (A) (A) (A) (A)
                 (A) (A) (A) (A) (A) (A) (A) (A) (A) (A) (A) (A)
                 (A) (A) (A) (A) (A) (A) (A) (A) (A) (A) (A) (A)
                 (A) (A) (A) (A) (A) (A) (A) (A) (A) (A) (A) (A)
                 (A) (A) (A) (A) (A) (A) (A) (A) (A) (A) (A) (A)
                 (A) (A) (A) (A) (A) (A) (A) (A) (A) (A) (A) (A)
                 (A) (A) (A) (A) (A) (A) (A) (A) (A) (A) (A) (A)
                 (A) (A) (A) (A) (A) (A) (A) (A) (A) (A) (A) (A)
                 (A) (A) (A) (A) (A) (A) (A) (A) (A) (A) (A) (A)
                 (A) (A) (A) (A) (A) (A) (A) (A) (A) (A) (A) (A)
                 (A) (A) (A) (A) (A) (A) (A) (A) (A) (A) (A) (A)
                 (A) (A) (A) (A) (A) (A) (A) (A) (A) (A) (A) (A)
                 (A) (A) (A) (A) (A) (A) (A) (A) (A) (A) (A) (A)
                 (A) (A) (A) (A) (A) (A) (A) (A) (A) (A) (A) (A)
                 (A) (A) (A) (A) (A) (A) (A) (A) (A) (A) (A) (A)
                 (A) (A) (A) (A) (A) (A) (A) (A) (A) (A) (A) (A)
                 (A) (A) (A) (A) (A) (A) (A) (A) (A) (A) (A) (A)
                 (A) (A) (A) (A) (A) (A) (A) (A) (A) (A) (A) (A)
                 (A) (A) (A) (A) (A) (A) (A) (A) (A) (A) (A) (A)
                 (A) (A) (A) (A) (A) (A) (A) (A) (A) (A) (A) (A)
                 (A) (A) (A) (A) (A) (A) (A) (A) (A) (A) (A) (A)
                 (A) (A) (A) (A) (A) (A) (A) (A) (A) (A) (A) (A)
                 (A) (A) (A) (A) (A) (A) (A) (A) (A) (A) (A) (A)
                 (A) (A) (A) (A) (A) (A) (A) (A) (A) (A) (A) (A)
                 (A) (A) (A) (A) (A) (A) (A) (A) (A) (A) (A) (A)
                 (A) (A) (A) (A) (A) (A) (A) (A) (A) (A) (A) (A)
                 (A) (A) (A) (A) (A) (A) (A) (A) (A) (A) (A) (A)
                 (A) (A) (A) (A) (A) (A) (A) (A) (A) (A) (A) (A)
                 (A) (A) (A) (A) (A) (A) (A) (A) (A) (A) (A) (A)
                 (A) (A) (A) (A) (A) (A) (A) (A) (A) (A) (A) (A)
                 (A) (A) (A) (A) (A) (A) (A) (A) (A) (A) (A) (A)
                 (A) (A) (A) (A) (A) (A) (A) (A) (A) (A) (A) (A)
                 (A) (A) (A) (A) (A) (A) (A) (A) (A) (A) (A) (A)
                 (A) (A) (A) (A) (A) (A) (A) (A) (A) (A) (A) (A)
                 (A) (A) (A) (A) (A) (A) (A) (A) (A) (A) (A) (A)
                 (A) (A) (A) (A) (A) (A) (A) (A) (A) (A) (A) (A)
                 (A) (A) (A) (A) (A) (A) (A) (A) (A) (A) (A) (A)
                 (A) (A) (A) (A) (A) (A) (A) (A) (A) (A) (A) (A)
                 (A) (A) (A) (A) (A) (A) (A) (A) (A) (A) (A) (A)
                 (A) (A) (A) (A) (A) (A) (A) (A) (A) (A) (A) (A)
                 (A) (A) (A) (A) (A) (A) (A) (A) (A) (A) (A) (A)
                 (A) (A) (A) (A) (A) (A) (A) (A) (A) (A) (A) (A)
                 (A) (A) (A) (A) (A) (A) (A) (A) (A) (A) (A) (A)
                 (A) (A) (A) (A) (A) (A) (A) (A) (A) (A) (A) (A)
                 (A) (A) (A) (A) (A) (A) (A) (A) (A) (A)
     4 initial guesses have been made.
 Convergence on wavefunction:    0.001000000000000
 Iteration     1 Dimension     4 NMult     0 NNew      4
 CISAX will form     4 AO SS matrices at one time.
 Iteration     2 Dimension     6 NMult     4 NNew      2
 Iteration     3 Dimension     8 NMult     6 NNew      2
 Iteration     4 Dimension    10 NMult     8 NNew      2
 Iteration     5 Dimension    12 NMult    10 NNew      2
 ***********************************************************************
 Excited states from <AA,BB:AA,BB> singles matrix:
 ***********************************************************************
 
 Ground to excited state transition densities written to RWF  633
 Ground to excited state transition electric dipole moments (Au):
       state          X           Y           Z        Dip. S.      Osc.
         1         7.4472      1.5630      0.4193     58.0798      3.6511
 Ground to excited state transition velocity dipole moments (Au):
       state          X           Y           Z        Dip. S.      Osc.
         1        -0.6753     -0.1402     -0.0381      0.4771      3.3730
 Ground to excited state transition magnetic dipole moments (Au):
       state          X           Y           Z
         1        -0.0604      0.1225      0.7449
 Ground to excited state transition velocity quadrupole moments (Au):
       state          XX          YY          ZZ          XY          XZ          YZ
         1        -0.2012     -0.2920      0.0082     -0.2495      0.2177     -0.0054
 <0|del|b> * <b|rxdel|0> + <0|del|b> * <b|delr+rdel|0>
 Rotatory Strengths (R) in cgs (10**-40 erg-esu-cm/Gauss)
       state          XX          YY          ZZ    R(velocity)    E-M Angle
         1       -20.7027     24.3849    -39.6094    -11.9757       90.52
 1/2[<0|r|b>*<b|rxdel|0> + (<0|rxdel|b>*<b|r|0>)*]
 Rotatory Strengths (R) in cgs (10**-40 erg-esu-cm/Gauss)
       state          XX          YY          ZZ     R(length)
         1       317.9496   -135.3994   -220.8511    -12.7670
  1/2[<0|del|b>*<b|r|0> + (<0|r|b>*<b|del|0>)*] (Au)
       state          X           Y           Z        Dip. S.   Osc.(frdel)
         1        -5.0288     -0.2192     -0.0160      5.2639      3.5093

 Excitation energies and oscillator strengths:
 
 Excited State   1:      Singlet-A      2.5659 eV  483.19 nm  f=3.6511  <S**2>=0.000
     155 ->158         0.14278
     156 ->157         0.69223
 This state for optimization and/or second-order correction.
 Total Energy, E(TD-HF/TD-DFT) =  -1706.89961627    
 Copying the excited state density for this state as the 1-particle RhoCI density.
 SavETr:  write IOETrn=   770 NScale= 10 NData=  16 NLR=1 NState=    1 LETran=      28.

 **********************************************************************

            Population analysis using the SCF density.

 **********************************************************************

 Orbital symmetries:
       Occupied  (A) (A) (A) (A) (A) (A) (A) (A) (A) (A) (A) (A)
                 (A) (A) (A) (A) (A) (A) (A) (A) (A) (A) (A) (A)
                 (A) (A) (A) (A) (A) (A) (A) (A) (A) (A) (A) (A)
                 (A) (A) (A) (A) (A) (A) (A) (A) (A) (A) (A) (A)
                 (A) (A) (A) (A) (A) (A) (A) (A) (A) (A) (A) (A)
                 (A) (A) (A) (A) (A) (A) (A) (A) (A) (A) (A) (A)
                 (A) (A) (A) (A) (A) (A) (A) (A) (A) (A) (A) (A)
                 (A) (A) (A) (A) (A) (A) (A) (A) (A) (A) (A) (A)
                 (A) (A) (A) (A) (A) (A) (A) (A) (A) (A) (A) (A)
                 (A) (A) (A) (A) (A) (A) (A) (A) (A) (A) (A) (A)
                 (A) (A) (A) (A) (A) (A) (A) (A) (A) (A) (A) (A)
                 (A) (A) (A) (A) (A) (A) (A) (A) (A) (A) (A) (A)
                 (A) (A) (A) (A) (A) (A) (A) (A) (A) (A) (A) (A)
       Virtual   (A) (A) (A) (A) (A) (A) (A) (A) (A) (A) (A) (A)
                 (A) (A) (A) (A) (A) (A) (A) (A) (A) (A) (A) (A)
                 (A) (A) (A) (A) (A) (A) (A) (A) (A) (A) (A) (A)
                 (A) (A) (A) (A) (A) (A) (A) (A) (A) (A) (A) (A)
                 (A) (A) (A) (A) (A) (A) (A) (A) (A) (A) (A) (A)
                 (A) (A) (A) (A) (A) (A) (A) (A) (A) (A) (A) (A)
                 (A) (A) (A) (A) (A) (A) (A) (A) (A) (A) (A) (A)
                 (A) (A) (A) (A) (A) (A) (A) (A) (A) (A) (A) (A)
                 (A) (A) (A) (A) (A) (A) (A) (A) (A) (A) (A) (A)
                 (A) (A) (A) (A) (A) (A) (A) (A) (A) (A) (A) (A)
                 (A) (A) (A) (A) (A) (A) (A) (A) (A) (A) (A) (A)
                 (A) (A) (A) (A) (A) (A) (A) (A) (A) (A) (A) (A)
                 (A) (A) (A) (A) (A) (A) (A) (A) (A) (A) (A) (A)
                 (A) (A) (A) (A) (A) (A) (A) (A) (A) (A) (A) (A)
                 (A) (A) (A) (A) (A) (A) (A) (A) (A) (A) (A) (A)
                 (A) (A) (A) (A) (A) (A) (A) (A) (A) (A) (A) (A)
                 (A) (A) (A) (A) (A) (A) (A) (A) (A) (A) (A) (A)
                 (A) (A) (A) (A) (A) (A) (A) (A) (A) (A) (A) (A)
                 (A) (A) (A) (A) (A) (A) (A) (A) (A) (A) (A) (A)
                 (A) (A) (A) (A) (A) (A) (A) (A) (A) (A) (A) (A)
                 (A) (A) (A) (A) (A) (A) (A) (A) (A) (A) (A) (A)
                 (A) (A) (A) (A) (A) (A) (A) (A) (A) (A) (A) (A)
                 (A) (A) (A) (A) (A) (A) (A) (A) (A) (A) (A) (A)
                 (A) (A) (A) (A) (A) (A) (A) (A) (A) (A) (A) (A)
                 (A) (A) (A) (A) (A) (A) (A) (A) (A) (A) (A) (A)
                 (A) (A) (A) (A) (A) (A) (A) (A) (A) (A) (A) (A)
                 (A) (A) (A) (A) (A) (A) (A) (A) (A) (A) (A) (A)
                 (A) (A) (A) (A) (A) (A) (A) (A) (A) (A) (A) (A)
                 (A) (A) (A) (A) (A) (A) (A) (A) (A) (A) (A) (A)
                 (A) (A) (A) (A) (A) (A) (A) (A) (A) (A) (A) (A)
                 (A) (A) (A) (A) (A) (A) (A) (A) (A) (A) (A) (A)
                 (A) (A) (A) (A) (A) (A) (A) (A) (A) (A) (A) (A)
                 (A) (A) (A) (A) (A) (A) (A) (A) (A) (A) (A) (A)
                 (A) (A) (A) (A) (A) (A) (A) (A) (A) (A) (A) (A)
                 (A) (A) (A) (A) (A) (A) (A) (A) (A) (A) (A) (A)
                 (A) (A) (A) (A) (A) (A) (A) (A) (A) (A) (A) (A)
                 (A) (A) (A) (A) (A) (A) (A) (A) (A) (A) (A) (A)
                 (A) (A) (A) (A) (A) (A) (A) (A) (A) (A) (A) (A)
                 (A) (A) (A) (A) (A) (A) (A) (A) (A) (A) (A) (A)
                 (A) (A) (A) (A) (A) (A) (A) (A) (A) (A) (A) (A)
                 (A) (A) (A) (A) (A) (A) (A) (A) (A) (A) (A) (A)
                 (A) (A) (A) (A) (A) (A) (A) (A) (A) (A) (A) (A)
                 (A) (A) (A) (A) (A) (A) (A) (A) (A) (A) (A) (A)
                 (A) (A) (A) (A) (A) (A) (A) (A) (A) (A) (A) (A)
                 (A) (A) (A) (A) (A) (A) (A) (A) (A) (A) (A) (A)
                 (A) (A) (A) (A) (A) (A) (A) (A) (A) (A) (A) (A)
                 (A) (A) (A) (A) (A) (A) (A) (A) (A) (A) (A) (A)
                 (A) (A) (A) (A) (A) (A) (A) (A) (A) (A) (A) (A)
                 (A) (A) (A) (A) (A) (A) (A) (A) (A) (A) (A) (A)
                 (A) (A) (A) (A) (A) (A) (A) (A) (A) (A) (A) (A)
                 (A) (A) (A) (A) (A) (A) (A) (A) (A) (A) (A) (A)
                 (A) (A) (A) (A) (A) (A) (A) (A) (A) (A) (A) (A)
                 (A) (A) (A) (A) (A) (A) (A) (A) (A) (A) (A) (A)
                 (A) (A) (A) (A) (A) (A) (A) (A) (A) (A) (A) (A)
                 (A) (A) (A) (A) (A) (A) (A) (A) (A) (A) (A) (A)
                 (A) (A) (A) (A) (A) (A) (A) (A) (A) (A) (A) (A)
                 (A) (A) (A) (A) (A) (A) (A) (A) (A) (A) (A) (A)
                 (A) (A) (A) (A) (A) (A) (A) (A) (A) (A) (A) (A)
                 (A) (A) (A) (A) (A) (A) (A) (A) (A) (A) (A) (A)
                 (A) (A) (A) (A) (A) (A) (A) (A) (A) (A) (A) (A)
                 (A) (A) (A) (A) (A) (A) (A) (A) (A) (A) (A) (A)
                 (A) (A) (A) (A) (A) (A) (A) (A) (A) (A) (A) (A)
                 (A) (A) (A) (A) (A) (A) (A) (A) (A) (A)
 The electronic state is 1-A.
 Alpha  occ. eigenvalues --  -19.22258 -19.21372 -10.31999 -10.30433 -10.29364
 Alpha  occ. eigenvalues --  -10.28161 -10.27970 -10.27900 -10.27777 -10.27570
 Alpha  occ. eigenvalues --  -10.27492 -10.27379 -10.27149 -10.27139 -10.27123
 Alpha  occ. eigenvalues --  -10.27076 -10.26831 -10.26762 -10.26705 -10.26519
 Alpha  occ. eigenvalues --  -10.26449 -10.26424 -10.26295 -10.26246 -10.26181
 Alpha  occ. eigenvalues --  -10.26151 -10.26046 -10.25931 -10.25904 -10.25847
 Alpha  occ. eigenvalues --  -10.25814 -10.25709 -10.25595 -10.25355 -10.25331
 Alpha  occ. eigenvalues --  -10.25286 -10.25115 -10.24736 -10.24458 -10.24381
 Alpha  occ. eigenvalues --  -10.23457 -10.22975  -1.09097  -1.07923  -0.94047
 Alpha  occ. eigenvalues --   -0.93837  -0.92069  -0.91245  -0.90366  -0.89361
 Alpha  occ. eigenvalues --   -0.87564  -0.87148  -0.86250  -0.85412  -0.84808
 Alpha  occ. eigenvalues --   -0.82851  -0.81766  -0.80268  -0.79783  -0.78794
 Alpha  occ. eigenvalues --   -0.77098  -0.76896  -0.76499  -0.76335  -0.75628
 Alpha  occ. eigenvalues --   -0.75312  -0.74800  -0.74356  -0.74039  -0.70757
 Alpha  occ. eigenvalues --   -0.68210  -0.67149  -0.65961  -0.65091  -0.64672
 Alpha  occ. eigenvalues --   -0.64417  -0.62849  -0.60551  -0.60266  -0.59768
 Alpha  occ. eigenvalues --   -0.58984  -0.58450  -0.58175  -0.57452  -0.56100
 Alpha  occ. eigenvalues --   -0.55711  -0.55094  -0.54743  -0.54142  -0.53704
 Alpha  occ. eigenvalues --   -0.52897  -0.52310  -0.51824  -0.51093  -0.51013
 Alpha  occ. eigenvalues --   -0.50642  -0.50138  -0.49978  -0.49625  -0.49128
 Alpha  occ. eigenvalues --   -0.48843  -0.48397  -0.48367  -0.47943  -0.47684
 Alpha  occ. eigenvalues --   -0.47594  -0.47216  -0.47054  -0.46295  -0.46138
 Alpha  occ. eigenvalues --   -0.46103  -0.45692  -0.45454  -0.44967  -0.44471
 Alpha  occ. eigenvalues --   -0.44428  -0.44267  -0.43908  -0.43629  -0.43136
 Alpha  occ. eigenvalues --   -0.42740  -0.42554  -0.42205  -0.42093  -0.41810
 Alpha  occ. eigenvalues --   -0.41699  -0.41644  -0.41285  -0.41209  -0.40927
 Alpha  occ. eigenvalues --   -0.40542  -0.40477  -0.40174  -0.39691  -0.39588
 Alpha  occ. eigenvalues --   -0.39161  -0.39055  -0.38796  -0.38304  -0.38210
 Alpha  occ. eigenvalues --   -0.37925  -0.37442  -0.36699  -0.36169  -0.35980
 Alpha  occ. eigenvalues --   -0.35505  -0.34692  -0.33722  -0.32518  -0.32122
 Alpha  occ. eigenvalues --   -0.31933  -0.29565  -0.28377  -0.27263  -0.24535
 Alpha  occ. eigenvalues --   -0.20256
 Alpha virt. eigenvalues --   -0.04960   0.00258   0.04092   0.06119   0.06954
 Alpha virt. eigenvalues --    0.08643   0.10080   0.10655   0.11978   0.12075
 Alpha virt. eigenvalues --    0.12120   0.12465   0.12614   0.13414   0.13606
 Alpha virt. eigenvalues --    0.14053   0.14295   0.14842   0.15006   0.15131
 Alpha virt. eigenvalues --    0.15493   0.15782   0.15860   0.16431   0.16502
 Alpha virt. eigenvalues --    0.16779   0.17309   0.17817   0.18041   0.18124
 Alpha virt. eigenvalues --    0.18311   0.18741   0.19003   0.19179   0.19826
 Alpha virt. eigenvalues --    0.20098   0.20279   0.20731   0.20872   0.21085
 Alpha virt. eigenvalues --    0.21244   0.21396   0.21524   0.21912   0.21951
 Alpha virt. eigenvalues --    0.22128   0.22819   0.22904   0.23480   0.23596
 Alpha virt. eigenvalues --    0.23940   0.24151   0.24373   0.24771   0.24932
 Alpha virt. eigenvalues --    0.25091   0.25306   0.25509   0.25606   0.25919
 Alpha virt. eigenvalues --    0.26073   0.26175   0.26561   0.26893   0.27091
 Alpha virt. eigenvalues --    0.27371   0.27583   0.27837   0.28183   0.28721
 Alpha virt. eigenvalues --    0.29058   0.29378   0.29503   0.29882   0.30165
 Alpha virt. eigenvalues --    0.30480   0.30680   0.30913   0.31511   0.31729
 Alpha virt. eigenvalues --    0.32309   0.32678   0.32984   0.33513   0.34124
 Alpha virt. eigenvalues --    0.35349   0.35494   0.35953   0.36672   0.37274
 Alpha virt. eigenvalues --    0.38493   0.39588   0.40261   0.41608   0.42645
 Alpha virt. eigenvalues --    0.43151   0.43997   0.44350   0.44928   0.45113
 Alpha virt. eigenvalues --    0.45676   0.46445   0.47594   0.49105   0.49581
 Alpha virt. eigenvalues --    0.50352   0.50598   0.52145   0.52351   0.53958
 Alpha virt. eigenvalues --    0.55494   0.55554   0.55674   0.55894   0.56222
 Alpha virt. eigenvalues --    0.56508   0.56866   0.57052   0.57272   0.57848
 Alpha virt. eigenvalues --    0.58037   0.58630   0.59076   0.59216   0.59752
 Alpha virt. eigenvalues --    0.60385   0.60531   0.60572   0.60981   0.61092
 Alpha virt. eigenvalues --    0.61452   0.61884   0.62519   0.62819   0.63283
 Alpha virt. eigenvalues --    0.63636   0.63760   0.64340   0.64617   0.64935
 Alpha virt. eigenvalues --    0.65210   0.65446   0.65897   0.66320   0.66843
 Alpha virt. eigenvalues --    0.67230   0.67503   0.67830   0.68151   0.68362
 Alpha virt. eigenvalues --    0.68454   0.69002   0.69175   0.69539   0.70093
 Alpha virt. eigenvalues --    0.70561   0.70970   0.71241   0.71380   0.71780
 Alpha virt. eigenvalues --    0.72022   0.72453   0.72588   0.73293   0.73579
 Alpha virt. eigenvalues --    0.74036   0.74213   0.74277   0.74900   0.75259
 Alpha virt. eigenvalues --    0.75293   0.75837   0.76717   0.77248   0.77533
 Alpha virt. eigenvalues --    0.77910   0.78069   0.78349   0.78998   0.79414
 Alpha virt. eigenvalues --    0.79672   0.80439   0.80588   0.80639   0.81127
 Alpha virt. eigenvalues --    0.81572   0.82179   0.82732   0.82982   0.83519
 Alpha virt. eigenvalues --    0.83652   0.83873   0.84139   0.84492   0.84886
 Alpha virt. eigenvalues --    0.85164   0.85347   0.85410   0.85667   0.85903
 Alpha virt. eigenvalues --    0.86022   0.86368   0.86671   0.87086   0.87232
 Alpha virt. eigenvalues --    0.87880   0.88105   0.88623   0.88746   0.88961
 Alpha virt. eigenvalues --    0.89038   0.89294   0.89473   0.89721   0.89992
 Alpha virt. eigenvalues --    0.90214   0.90398   0.90635   0.90663   0.91338
 Alpha virt. eigenvalues --    0.91687   0.92507   0.92591   0.92719   0.93038
 Alpha virt. eigenvalues --    0.93481   0.93583   0.94074   0.94355   0.94560
 Alpha virt. eigenvalues --    0.94875   0.95277   0.95618   0.96006   0.96297
 Alpha virt. eigenvalues --    0.96778   0.97286   0.97571   0.97683   0.97990
 Alpha virt. eigenvalues --    0.98303   0.98552   0.98807   0.99037   0.99505
 Alpha virt. eigenvalues --    1.00173   1.00584   1.00654   1.00917   1.01140
 Alpha virt. eigenvalues --    1.01490   1.01908   1.02143   1.02910   1.03196
 Alpha virt. eigenvalues --    1.03282   1.04014   1.04187   1.04477   1.05128
 Alpha virt. eigenvalues --    1.05577   1.06094   1.06177   1.06798   1.06856
 Alpha virt. eigenvalues --    1.07763   1.08537   1.08877   1.09445   1.09840
 Alpha virt. eigenvalues --    1.10140   1.10395   1.10923   1.11184   1.11820
 Alpha virt. eigenvalues --    1.12450   1.12680   1.13141   1.13606   1.13896
 Alpha virt. eigenvalues --    1.14118   1.14554   1.15086   1.15347   1.16412
 Alpha virt. eigenvalues --    1.16716   1.17825   1.18422   1.19161   1.19597
 Alpha virt. eigenvalues --    1.21150   1.22089   1.23585   1.23992   1.25241
 Alpha virt. eigenvalues --    1.25336   1.26671   1.27498   1.27957   1.28198
 Alpha virt. eigenvalues --    1.29982   1.30847   1.32025   1.32652   1.34051
 Alpha virt. eigenvalues --    1.34672   1.34988   1.35356   1.35614   1.36660
 Alpha virt. eigenvalues --    1.36797   1.37801   1.37961   1.38441   1.38907
 Alpha virt. eigenvalues --    1.40246   1.40464   1.40697   1.41539   1.41654
 Alpha virt. eigenvalues --    1.41952   1.42341   1.42835   1.44227   1.44709
 Alpha virt. eigenvalues --    1.45119   1.46591   1.46635   1.47466   1.47592
 Alpha virt. eigenvalues --    1.48075   1.49289   1.51101   1.52017   1.52618
 Alpha virt. eigenvalues --    1.52875   1.53189   1.54480   1.55299   1.55496
 Alpha virt. eigenvalues --    1.55848   1.56227   1.56583   1.57318   1.58872
 Alpha virt. eigenvalues --    1.59438   1.59513   1.60617   1.60912   1.61376
 Alpha virt. eigenvalues --    1.61760   1.62984   1.63077   1.65057   1.65151
 Alpha virt. eigenvalues --    1.65533   1.66052   1.68434   1.69133   1.70170
 Alpha virt. eigenvalues --    1.70906   1.72090   1.72341   1.73295   1.74659
 Alpha virt. eigenvalues --    1.74857   1.75324   1.77067   1.77934   1.77948
 Alpha virt. eigenvalues --    1.78646   1.79217   1.79952   1.80420   1.80749
 Alpha virt. eigenvalues --    1.80915   1.81189   1.81717   1.82533   1.82731
 Alpha virt. eigenvalues --    1.82875   1.83730   1.83860   1.84361   1.85130
 Alpha virt. eigenvalues --    1.85718   1.86043   1.86652   1.87070   1.87096
 Alpha virt. eigenvalues --    1.87240   1.88650   1.89190   1.89371   1.89710
 Alpha virt. eigenvalues --    1.89945   1.90292   1.90729   1.91072   1.91492
 Alpha virt. eigenvalues --    1.91914   1.92722   1.92895   1.93509   1.93646
 Alpha virt. eigenvalues --    1.93848   1.94438   1.95246   1.95354   1.95752
 Alpha virt. eigenvalues --    1.96180   1.96497   1.96774   1.97245   1.97572
 Alpha virt. eigenvalues --    1.98196   1.98920   1.99403   2.00042   2.00467
 Alpha virt. eigenvalues --    2.01048   2.01306   2.01470   2.01788   2.02426
 Alpha virt. eigenvalues --    2.02531   2.03415   2.03993   2.04219   2.04302
 Alpha virt. eigenvalues --    2.04470   2.05542   2.06279   2.07210   2.07347
 Alpha virt. eigenvalues --    2.07518   2.08117   2.08884   2.09428   2.09561
 Alpha virt. eigenvalues --    2.10090   2.10773   2.11211   2.11410   2.11549
 Alpha virt. eigenvalues --    2.12241   2.12559   2.13176   2.13378   2.13991
 Alpha virt. eigenvalues --    2.14240   2.14689   2.14997   2.15018   2.15466
 Alpha virt. eigenvalues --    2.15998   2.16139   2.17006   2.17259   2.17411
 Alpha virt. eigenvalues --    2.17586   2.18392   2.18907   2.19812   2.19967
 Alpha virt. eigenvalues --    2.20813   2.21391   2.21441   2.21789   2.22316
 Alpha virt. eigenvalues --    2.23638   2.23716   2.24236   2.24367   2.24724
 Alpha virt. eigenvalues --    2.25367   2.25629   2.25846   2.26907   2.27138
 Alpha virt. eigenvalues --    2.27892   2.28506   2.28809   2.29596   2.29818
 Alpha virt. eigenvalues --    2.30316   2.30776   2.31148   2.31461   2.31945
 Alpha virt. eigenvalues --    2.32489   2.32932   2.33197   2.33625   2.34099
 Alpha virt. eigenvalues --    2.34724   2.35335   2.35980   2.36218   2.36680
 Alpha virt. eigenvalues --    2.36838   2.37242   2.37468   2.37965   2.38465
 Alpha virt. eigenvalues --    2.38879   2.40088   2.40913   2.41523   2.41877
 Alpha virt. eigenvalues --    2.42627   2.42789   2.43006   2.43796   2.44280
 Alpha virt. eigenvalues --    2.44420   2.44744   2.44900   2.45092   2.45970
 Alpha virt. eigenvalues --    2.46204   2.46474   2.46730   2.47129   2.47450
 Alpha virt. eigenvalues --    2.48075   2.48113   2.48672   2.48939   2.49965
 Alpha virt. eigenvalues --    2.50106   2.50428   2.50677   2.51487   2.51929
 Alpha virt. eigenvalues --    2.52288   2.52971   2.53701   2.53749   2.53945
 Alpha virt. eigenvalues --    2.54243   2.54995   2.56026   2.56660   2.57553
 Alpha virt. eigenvalues --    2.57632   2.59229   2.59384   2.59512   2.60181
 Alpha virt. eigenvalues --    2.60445   2.60978   2.61066   2.61631   2.62596
 Alpha virt. eigenvalues --    2.63011   2.63222   2.64220   2.65205   2.65581
 Alpha virt. eigenvalues --    2.65763   2.65984   2.66457   2.67439   2.67869
 Alpha virt. eigenvalues --    2.68277   2.68621   2.69205   2.69380   2.69705
 Alpha virt. eigenvalues --    2.70251   2.70562   2.71117   2.71723   2.72062
 Alpha virt. eigenvalues --    2.72360   2.72762   2.73169   2.73387   2.73970
 Alpha virt. eigenvalues --    2.74770   2.74794   2.75267   2.75463   2.76196
 Alpha virt. eigenvalues --    2.76294   2.77109   2.77285   2.77711   2.78476
 Alpha virt. eigenvalues --    2.78721   2.79069   2.80175   2.80604   2.80739
 Alpha virt. eigenvalues --    2.81917   2.82075   2.82798   2.83010   2.83703
 Alpha virt. eigenvalues --    2.83966   2.84775   2.85133   2.85412   2.85786
 Alpha virt. eigenvalues --    2.86731   2.87235   2.87605   2.88309   2.88362
 Alpha virt. eigenvalues --    2.89878   2.89920   2.90735   2.91020   2.91451
 Alpha virt. eigenvalues --    2.91655   2.92626   2.93153   2.93705   2.93829
 Alpha virt. eigenvalues --    2.94910   2.95270   2.95496   2.95851   2.96185
 Alpha virt. eigenvalues --    2.97020   2.97963   2.98390   2.98674   2.99921
 Alpha virt. eigenvalues --    2.99977   3.00932   3.01059   3.02607   3.03466
 Alpha virt. eigenvalues --    3.03628   3.04627   3.04871   3.06365   3.07011
 Alpha virt. eigenvalues --    3.08025   3.08050   3.08522   3.10082   3.11085
 Alpha virt. eigenvalues --    3.11397   3.11955   3.12085   3.13690   3.14044
 Alpha virt. eigenvalues --    3.14870   3.15408   3.16266   3.16418   3.17359
 Alpha virt. eigenvalues --    3.17801   3.19222   3.20801   3.21259   3.23629
 Alpha virt. eigenvalues --    3.24599   3.25074   3.25456   3.26106   3.27134
 Alpha virt. eigenvalues --    3.28450   3.32327   3.33034   3.33461   3.34486
 Alpha virt. eigenvalues --    3.35645   3.36280   3.38677   3.39728   3.40314
 Alpha virt. eigenvalues --    3.42144   3.42265   3.43049   3.45732   3.46885
 Alpha virt. eigenvalues --    3.47164   3.48684   3.48936   3.49201   3.50119
 Alpha virt. eigenvalues --    3.52203   3.52419   3.52519   3.53773   3.54752
 Alpha virt. eigenvalues --    3.55701   3.56252   3.56861   3.58378   3.58508
 Alpha virt. eigenvalues --    3.58798   3.60684   3.61817   3.62596   3.66446
 Alpha virt. eigenvalues --    3.66855   3.68158   3.68843   3.70463   3.70940
 Alpha virt. eigenvalues --    3.71200   3.72923   3.73543   3.76256   3.77562
 Alpha virt. eigenvalues --    3.80727   3.94195   4.09583   4.12417   4.18624
 Alpha virt. eigenvalues --    4.20091   4.21193   4.22227   4.24026   4.25537
 Alpha virt. eigenvalues --    4.28276   4.29589   4.29902   4.31987   4.36943
 Alpha virt. eigenvalues --    4.39016   4.40558   4.42970   4.44243   4.45181
 Alpha virt. eigenvalues --    4.46893   4.47412   4.49392   4.53688   4.54569
 Alpha virt. eigenvalues --    4.54876   4.55368   4.58303   4.58934   4.59597
 Alpha virt. eigenvalues --    4.61555   4.64805   4.65973   4.67731   4.69797
 Alpha virt. eigenvalues --    4.72305   4.75527   4.77156   4.80084   4.81612
 Alpha virt. eigenvalues --    4.82022   4.85187   4.88375   4.90444
          Condensed to atoms (all electrons):
 Mulliken charges:
               1
     1  O   -0.557457
     2  O   -0.567823
     3  C   -0.012387
     4  C    0.006043
     5  C   -0.218844
     6  C   -0.203299
     7  C    0.158431
     8  C    0.169808
     9  C    0.053399
    10  C    0.069541
    11  C   -0.222228
    12  C   -0.213302
    13  C    0.073262
    14  C    0.058359
    15  C   -0.290282
    16  C   -0.296820
    17  C   -0.326752
    18  C   -0.295425
    19  C   -0.125069
    20  C   -0.184344
    21  C   -0.350998
    22  C   -0.345150
    23  C   -0.098941
    24  C   -0.021844
    25  C    0.051932
    26  C    0.086846
    27  C   -0.378827
    28  C   -0.357565
    29  C   -0.094121
    30  C   -0.124558
    31  C   -0.105467
    32  C   -0.086436
    33  C   -0.118917
    34  C   -0.114894
    35  C    0.148023
    36  C    0.102991
    37  C   -0.381512
    38  C   -0.372576
    39  C   -0.148126
    40  C   -0.122005
    41  C   -0.091195
    42  C   -0.061729
    43  H    0.108147
    44  H    0.079731
    45  H    0.077951
    46  H    0.099867
    47  H    0.087335
    48  H    0.070597
    49  H    0.108422
    50  H    0.115923
    51  H    0.132298
    52  H    0.102403
    53  H    0.085632
    54  H    0.102591
    55  H    0.111990
    56  H    0.083452
    57  H    0.097106
    58  H    0.099794
    59  H    0.099749
    60  H    0.077583
    61  H    0.092626
    62  H    0.095293
    63  H    0.122918
    64  H    0.087774
    65  H    0.088364
    66  H    0.083101
    67  H    0.107383
    68  H    0.094264
    69  H    0.117399
    70  H    0.085708
    71  H    0.122047
    72  H    0.107566
    73  H    0.310841
    74  H    0.301443
    75  H    0.089454
    76  H    0.084740
    77  H    0.122348
    78  H    0.100042
    79  H    0.136125
    80  H    0.143018
    81  H    0.095280
    82  H    0.098371
    83  H    0.081341
    84  H    0.074206
    85  H    0.090583
    86  H    0.067112
    87  H    0.083406
    88  H    0.073840
    89  H    0.103378
    90  H    0.098372
    91  H    0.141271
    92  H    0.133312
    93  H    0.130779
    94  H    0.097189
    95  H    0.072470
    96  H    0.083294
    97  H    0.069876
    98  H    0.083150
 Sum of Mulliken charges =  -0.00000
 Mulliken charges with hydrogens summed into heavy atoms:
               1
     1  O   -0.246616
     2  O   -0.266380
     3  C   -0.012387
     4  C    0.006043
     5  C   -0.030966
     6  C   -0.025481
     7  C    0.245766
     8  C    0.240405
     9  C    0.053399
    10  C    0.069541
    11  C    0.002118
    12  C    0.021399
    13  C    0.073262
    14  C    0.058359
    15  C    0.009932
    16  C   -0.016468
    17  C   -0.056793
    18  C    0.010560
    19  C   -0.036705
    20  C   -0.101242
    21  C   -0.031952
    22  C   -0.029829
    23  C   -0.009487
    24  C    0.062896
    25  C    0.051932
    26  C    0.086846
    27  C   -0.020312
    28  C   -0.020896
    29  C   -0.012780
    30  C   -0.050352
    31  C   -0.014884
    32  C   -0.019324
    33  C   -0.035511
    34  C   -0.041054
    35  C    0.148023
    36  C    0.102991
    37  C   -0.038491
    38  C   -0.011296
    39  C   -0.075656
    40  C   -0.038711
    41  C   -0.021320
    42  C    0.021421
 Electronic spatial extent (au):  <R**2>=         111180.8942
 Charge=             -0.0000 electrons
 Dipole moment (field-independent basis, Debye):
    X=              0.3316    Y=             -1.0682    Z=              2.3265  Tot=              2.5814
 Quadrupole moment (field-independent basis, Debye-Ang):
   XX=           -263.8969   YY=           -244.3986   ZZ=           -261.6146
   XY=             19.5301   XZ=              5.2698   YZ=              1.4511
 Traceless Quadrupole moment (field-independent basis, Debye-Ang):
   XX=             -7.2602   YY=             12.2381   ZZ=             -4.9779
   XY=             19.5301   XZ=              5.2698   YZ=              1.4511
 Octapole moment (field-independent basis, Debye-Ang**2):
  XXX=           -234.0489  YYY=              9.3817  ZZZ=              8.0167  XYY=            102.2025
  XXY=           -225.6259  XXZ=            530.5313  XZZ=            -11.0231  YZZ=             -0.9871
  YYZ=             18.1756  XYZ=            -73.3175
 Hexadecapole moment (field-independent basis, Debye-Ang**3):
 XXXX=        -149757.0332 YYYY=          -4483.0631 ZZZZ=          -2039.3810 XXXY=           2799.2704
 XXXZ=            658.2985 YYYX=             32.9300 YYYZ=             -3.7182 ZZZX=           -116.5272
 ZZZY=             20.1552 XXYY=         -24644.9354 XXZZ=         -23912.4929 YYZZ=          -1120.8590
 XXYZ=           -601.7501 YYXZ=            198.9584 ZZXY=           -219.4643
 N-N= 3.962961706808D+03 E-N=-1.188056699045D+04  KE= 1.689844822641D+03
 1\1\GINC-PADAWAN\SP\RCAM-B3LYP TD-FC\6-31G(d,p)\C40H56O2\PADAWAN\29-Ju
 n-2019\0\\# td=(NStates=1) CAM-B3LYP/6-31G(d,p)\\TD\\0,1\O,0,14.771885
 4075,-2.2697844495,-0.608059659\O,0,-14.7837049675,2.0398158376,0.4352
 626203\C,0,11.4730706011,-1.1419248266,1.1436777288\C,0,-12.2816457966
 ,-0.9090934693,0.8099765197\C,0,12.9282115532,-1.6354065788,1.01027859
 99\C,0,-13.6405066597,-0.1712232823,0.80893979\C,0,13.3741294069,-1.98
 55340805,-0.4690217912\C,0,-13.4985221922,1.3421670147,0.583040088\C,0
 ,11.0354620722,-0.2867228884,0.0082465787\C,0,-11.4038374847,-0.348795
 9086,-0.2462653805\C,0,12.9925934783,-0.7927600331,-1.4061514881\C,0,-
 12.8607568357,1.5873767147,-0.7728543274\C,0,11.657250472,-0.223222695
 4,-1.1794464606\C,0,-11.666270217,0.7876650895,-0.8888984288\C,0,11.18
 61393409,-0.3749266508,2.4178422252\C,0,10.6163610771,-2.4314536265,1.
 2649046105\C,0,-11.5994021342,-0.4584976778,2.3196805481\C,0,-12.38757
 94599,-2.44106955,0.7527371777\C,0,9.6868435104,0.3305240893,0.1349401
 74\C,0,-10.0596973367,-1.057199805,-0.5295616372\C,0,11.2122139864,0.5
 870931742,-2.3843026373\C,0,-10.7678792269,1.299990383,-2.0902083278\C
 ,0,9.4340633733,1.6646799059,0.0140460306\C,0,-8.9004905341,-0.6050940
 664,-0.1837294189\C,0,7.9942154075,2.3275424941,0.3194676158\C,0,-7.62
 28974317,-1.3656008932,-0.4918645185\C,0,8.2021206931,3.7451327182,0.6
 675081168\C,0,-7.6325943654,-2.8526750156,-0.7237525503\C,0,6.85374078
 11,1.6574557395,-0.0201620222\C,0,-6.4629680998,-0.6845839335,-0.24288
 72947\C,0,5.5310936614,2.1214598529,0.1935242684\C,0,-5.1132324452,-1.
 1679466708,-0.3676989439\C,0,4.4191358446,1.3496703809,-0.1146570947\C
 ,0,-3.9753929593,-0.4050667128,-0.3044877788\C,0,3.0845210571,1.716022
 2001,0.2097226373\C,0,-2.6512888929,-0.7328876189,-0.4764953095\C,0,2.
 8028105621,3.117241173,0.7046231713\C,0,-2.3749229863,-2.2229295951,-0
 .8752685669\C,0,2.0550750825,0.8000571696,-0.0676358886\C,0,-1.6600373
 267,0.1256922751,-0.1187036974\C,0,0.6492420932,0.8270274706,0.1474906
 291\C,0,-0.2699658656,-0.068888994,-0.3062482648\H,0,13.5420434763,-0.
 854488884,1.1416590039\H,0,13.3294681828,-2.2707576569,1.6920493369\H,
 0,-14.3239951765,-0.4231024672,1.7196591719\H,0,-14.2696883358,-0.6556
 324862,-0.0070823282\H,0,12.7096261646,-2.7947142145,-0.6630543704\H,0
 ,-12.7316786289,1.9375582738,1.3791273857\H,0,13.7602469567,0.05681296
 12,-1.3039862826\H,0,13.1999414871,-1.072169444,-2.3518458606\H,0,-13.
 5801735614,1.5735486759,-1.5627742104\H,0,-12.5735359606,2.6934614101,
 -0.7997568587\H,0,11.5842570457,-0.7683275589,3.3694116022\H,0,10.1123
 070957,-0.5185313632,2.706369518\H,0,11.4919484648,0.5208718201,2.4189
 410291\H,0,10.7455835614,-3.1373543155,0.3364890349\H,0,10.9577266897,
 -3.1083157487,2.1473046545\H,0,9.5140474057,-2.1866396571,1.2020551485
 \H,0,-11.6971766177,0.5939949705,2.5753814311\H,0,-10.4275972687,-0.79
 74368987,2.5153175358\H,0,-12.0296241214,-0.7677576808,3.2874213381\H,
 0,-13.0459343744,-2.883029555,1.6314276518\H,0,-11.5576188099,-2.99505
 15332,0.6570007561\H,0,-12.9445848165,-2.4486051685,-0.2676052345\H,0,
 8.7622980538,-0.1966279829,0.4174159256\H,0,-10.0348832203,-2.02367609
 16,-0.9895085839\H,0,10.0954619652,1.1207221701,-2.3588805911\H,0,12.0
 779962346,1.4007943703,-2.5674164556\H,0,11.254129648,-0.0763681239,-3
 .2396110911\H,0,-11.4684678538,1.3859018192,-3.0691684098\H,0,-10.0716
 627053,0.494410078,-2.1927038764\H,0,-10.3123929943,2.3459632093,-2.02
 33259286\H,0,14.9760541584,-2.7751764227,0.2267045635\H,0,-15.34676411
 14,1.7625011641,1.1826864736\H,0,10.1552210041,2.372480552,-0.21164047
 9\H,0,-8.7899856956,0.3669287909,0.1318683738\H,0,8.4890617682,4.55016
 48694,-0.0898452875\H,0,7.2999533843,4.25661107,1.040389872\H,0,8.8227
 169817,3.7563685238,1.466459664\H,0,-8.1522722572,-3.2967766068,-0.011
 7270117\H,0,-8.1894547015,-3.0683958537,-1.7972760576\H,0,-6.522441093
 1,-3.3316368158,-0.6934061326\H,0,7.0291445775,0.5381075537,-0.3400173
 937\H,0,-6.5514654085,0.4423140713,-0.0080631833\H,0,5.4289922832,3.23
 98291308,0.6297752325\H,0,-5.0244462646,-2.2226935765,-0.5983172317\H,
 0,4.4054236414,0.227390985,-0.5051489259\H,0,-4.2299484988,0.635608677
 8,0.0485276488\H,0,3.4509228773,3.4035443963,1.6020564066\H,0,1.714758
 1288,3.3830869796,0.9877611841\H,0,3.0184458666,3.8633941733,0.0952990
 339\H,0,-2.681210258,-2.9629934464,-0.2446275068\H,0,-2.900279536,-2.3
 585069708,-1.7270066677\H,0,-1.2994867477,-2.4799881739,-1.071960232\H
 ,0,2.5044476028,-0.1086695181,-0.5263305371\H,0,-1.8568250835,1.124062
 3241,0.361219509\H,0,0.1694026873,1.8148741933,0.7684326383\H,0,0.0515
 179218,-1.1094608962,-0.7538429683\\Version=ES64L-G16RevA.03\State=1-A
 \HF=-1706.9939126\RMSD=8.377e-09\PG=C01 [X(C40H56O2)]\\@


 BREAD HAS TO MOLD IN ORDER TO GET PENICILLIN.
          -- JERRY BOATZ
 Job cpu time:       0 days  5 hours 10 minutes 23.4 seconds.
 Elapsed time:       0 days  1 hours 17 minutes 58.4 seconds.
 File lengths (MBytes):  RWF=   3127 Int=      0 D2E=      0 Chk=     84 Scr=      1
 Normal termination of Gaussian 16 at Sat Jun 29 05:37:52 2019.
