 Entering Gaussian System, Link 0=g16
 Input=Geometria-61-.com
 Output=Geometria-61-.log
 Initial command:
 /usr/local/g16/l1.exe "/home/padawan/israel-mol/zeaxanthin/spectra/abs/Gau-19636.inp" -scrdir="/home/padawan/israel-mol/zeaxanthin/spectra/abs/"
 Entering Link 1 = /usr/local/g16/l1.exe PID=     19638.
  
 Copyright (c) 1988,1990,1992,1993,1995,1998,2003,2009,2016,
            Gaussian, Inc.  All Rights Reserved.
  
 This is part of the Gaussian(R) 16 program.  It is based on
 the Gaussian(R) 09 system (copyright 2009, Gaussian, Inc.),
 the Gaussian(R) 03 system (copyright 2003, Gaussian, Inc.),
 the Gaussian(R) 98 system (copyright 1998, Gaussian, Inc.),
 the Gaussian(R) 94 system (copyright 1995, Gaussian, Inc.),
 the Gaussian 92(TM) system (copyright 1992, Gaussian, Inc.),
 the Gaussian 90(TM) system (copyright 1990, Gaussian, Inc.),
 the Gaussian 88(TM) system (copyright 1988, Gaussian, Inc.),
 the Gaussian 86(TM) system (copyright 1986, Carnegie Mellon
 University), and the Gaussian 82(TM) system (copyright 1983,
 Carnegie Mellon University). Gaussian is a federally registered
 trademark of Gaussian, Inc.
  
 This software contains proprietary and confidential information,
 including trade secrets, belonging to Gaussian, Inc.
  
 This software is provided under written license and may be
 used, copied, transmitted, or stored only in accord with that
 written license.
  
 The following legend is applicable only to US Government
 contracts under FAR:
  
                    RESTRICTED RIGHTS LEGEND
  
 Use, reproduction and disclosure by the US Government is
 subject to restrictions as set forth in subparagraphs (a)
 and (c) of the Commercial Computer Software - Restricted
 Rights clause in FAR 52.227-19.
  
 Gaussian, Inc.
 340 Quinnipiac St., Bldg. 40, Wallingford CT 06492
  
  
 ---------------------------------------------------------------
 Warning -- This program may not be used in any manner that
 competes with the business of Gaussian, Inc. or will provide
 assistance to any competitor of Gaussian, Inc.  The licensee
 of this program is prohibited from giving any competitor of
 Gaussian, Inc. access to this program.  By using this program,
 the user acknowledges that Gaussian, Inc. is engaged in the
 business of creating and licensing software in the field of
 computational chemistry and represents and warrants to the
 licensee that it is not a competitor of Gaussian, Inc. and that
 it will not use this program in any manner prohibited above.
 ---------------------------------------------------------------
  

 Cite this work as:
 Gaussian 16, Revision A.03,
 M. J. Frisch, G. W. Trucks, H. B. Schlegel, G. E. Scuseria, 
 M. A. Robb, J. R. Cheeseman, G. Scalmani, V. Barone, 
 G. A. Petersson, H. Nakatsuji, X. Li, M. Caricato, A. V. Marenich, 
 J. Bloino, B. G. Janesko, R. Gomperts, B. Mennucci, H. P. Hratchian, 
 J. V. Ortiz, A. F. Izmaylov, J. L. Sonnenberg, D. Williams-Young, 
 F. Ding, F. Lipparini, F. Egidi, J. Goings, B. Peng, A. Petrone, 
 T. Henderson, D. Ranasinghe, V. G. Zakrzewski, J. Gao, N. Rega, 
 G. Zheng, W. Liang, M. Hada, M. Ehara, K. Toyota, R. Fukuda, 
 J. Hasegawa, M. Ishida, T. Nakajima, Y. Honda, O. Kitao, H. Nakai, 
 T. Vreven, K. Throssell, J. A. Montgomery, Jr., J. E. Peralta, 
 F. Ogliaro, M. J. Bearpark, J. J. Heyd, E. N. Brothers, K. N. Kudin, 
 V. N. Staroverov, T. A. Keith, R. Kobayashi, J. Normand, 
 K. Raghavachari, A. P. Rendell, J. C. Burant, S. S. Iyengar, 
 J. Tomasi, M. Cossi, J. M. Millam, M. Klene, C. Adamo, R. Cammi, 
 J. W. Ochterski, R. L. Martin, K. Morokuma, O. Farkas, 
 J. B. Foresman, and D. J. Fox, Gaussian, Inc., Wallingford CT, 2016.
 
 ******************************************
 Gaussian 16:  ES64L-G16RevA.03 25-Dec-2016
                28-Jun-2019 
 ******************************************
 %nproc=4
 Will use up to    4 processors via shared memory.
 %Mem=2GB
 -------------------------------------
 # td=(NStates=1) CAM-B3LYP/6-31G(d,p)
 -------------------------------------
 1/38=1,172=1/1;
 2/12=2,17=6,18=5,40=1/2;
 3/5=1,6=6,7=101,11=9,25=1,30=1,74=-40/1,2,3,8;
 4//1;
 5/5=2,38=5/2;
 8/6=1,10=2,108=1/1;
 9/41=1,42=1,70=2/14;
 6/7=2,8=2,9=2,10=2/1;
 99/5=1,9=1/99;
 --
 TD
 --
 Symbolic Z-matrix:
 Charge =  0 Multiplicity = 1
 8                     14.61002  -2.22524  -0.42548 
 8                    -14.66397   1.97615   0.86161 
 6                     11.34966  -1.11897   1.21336 
 6                    -12.20431  -0.91028   0.96572 
 6                     12.86505  -1.5163    1.0928 
 6                    -13.54071  -0.10775   0.86957 
 6                     13.16231  -1.91662  -0.31018 
 6                    -13.38263   1.39628   0.78904 
 6                     10.87707  -0.3656    0.03153 
 6                    -11.26935  -0.29421  -0.1287 
 6                     12.90512  -0.81707  -1.27288 
 6                    -12.73574   1.64539  -0.61755 
 6                     11.5877  -0.28813  -1.10977 
 6                    -11.51254   0.77538  -0.78477 
 6                     11.22243  -0.28283   2.50574 
 6                     10.57042  -2.40121   1.37212 
 6                    -11.57278  -0.6112    2.35996 
 6                    -12.58841  -2.40172   0.80103 
 6                     9.62038   0.3158    0.19727 
 6                    -10.01788  -1.14655  -0.36952 
 6                     11.06526   0.40975  -2.31232 
 6                    -10.75731   1.26168  -2.03721 
 6                     9.3377    1.63551  -0.03866 
 6                    -8.78512  -0.57613  -0.39944 
 6                     8.02224   2.29004   0.32302 
 6                    -7.56725  -1.30894  -0.61636 
 6                     8.1672    3.7297    0.8369 
 6                    -7.71664  -2.81717  -0.78609 
 6                     6.90094   1.66475  -0.06433 
 6                    -6.38179  -0.61414  -0.52545 
 6                     5.56432   2.1666    0.14533 
 6                    -5.10517  -1.11668  -0.63946 
 6                     4.4533    1.38873  -0.15136 
 6                    -3.92963  -0.35945  -0.51546 
 6                     3.06398   1.76166   0.06659 
 6                    -2.63212  -0.7632   -0.77288 
 6                     2.70412   3.14518   0.66202 
 6                    -2.28704  -2.20343  -1.01178 
 6                     2.14895   0.75178  -0.19334 
 6                    -1.62652   0.11333  -0.42745 
 6                     0.65793   0.87858  -0.11133 
 6                    -0.15652  -0.04966  -0.51668 
 1                     13.47859  -0.62452   1.27715 
 1                     13.16108  -2.36344   1.90361 
 1                    -14.16327  -0.44909   1.7274 
 1                    -14.16926  -0.49484   0.061 
 1                     12.49048  -2.8372   -0.67774 
 1                    -12.83976   1.68376   1.65136 
 1                     13.50226  -0.11763  -1.1029 
 1                     12.95254  -1.15035  -2.45807 
 1                    -13.43353   1.09937  -1.41822 
 1                    -12.61012   2.71921  -0.99231 
 1                     11.64268  -1.0279    3.22598 
 1                     10.25247  -0.20575   2.46638 
 1                     11.81064   0.855     2.36415 
 1                     10.52995  -2.99582   0.45411 
 1                     10.87866  -3.05331   2.23291 
 1                     9.4079   -2.27169   1.59164 
 1                    -11.43435   0.34577   2.56287 
 1                    -10.5776  -1.3627    2.21904 
 1                    -12.266   -0.84868   3.26508 
 1                    -13.60502  -2.77398   1.21904 
 1                    -11.71088  -3.12673   1.21987 
 1                    -12.65445  -2.61863  -0.21746 
 1                     8.78577  -0.39392   0.54548 
 1                    -9.95876  -2.32752  -0.21937 
 1                     9.9099    0.78333  -2.11997 
 1                     11.63927   1.30176  -2.53555 
 1                     11.07198  -0.16002  -3.10822 
 1                    -11.42772   1.28834  -2.88531 
 1                    -10.01598   0.50815  -2.22452 
 1                    -10.246    2.35577  -1.86566 
 1                     14.85623  -3.11936   0.18269 
 1                    -15.01516   1.21912   1.59856 
 1                     10.21112   2.2331   -0.47994 
 1                    -8.68119   0.51637  -0.40117 
 1                     8.67432   4.34051   0.06666 
 1                     7.21991   4.28508   0.84844 
 1                     8.56166   3.87444   1.77486 
 1                    -8.26895  -3.28796   0.01525 
 1                    -8.22893  -3.35294  -1.73456 
 1                    -6.64667  -3.37199  -0.63262 
 1                     7.03424   0.67382  -0.62948 
 1                    -6.3188    0.47836  -0.26692 
 1                     5.21602   3.25006   0.47495 
 1                    -5.06011  -2.02932  -0.96186 
 1                     4.57077   0.39646  -0.30667 
 1                    -4.33032   0.61646  -0.21252 
 1                     3.12316   3.21484   1.73833 
 1                     1.63355   3.41085   0.78372 
 1                     3.2244    3.89172  -0.03144 
 1                    -2.7976   -2.70676  -0.25298 
 1                    -2.51945  -2.4321   -1.96574 
 1                    -1.13238  -2.52526  -1.01349 
 1                     2.40697  -0.17357  -0.53539 
 1                    -2.1843    1.10849  -0.53726 
 1                     0.49535   1.8857    0.25035 
 1                     0.19306  -1.06968  -0.84061 
 
 Stoichiometry    C40H56O2
 Framework group  C1[X(C40H56O2)]
 Deg. of freedom   288
 Full point group                 C1      NOp   1
 Largest Abelian subgroup         C1      NOp   1
 Largest concise Abelian subgroup C1      NOp   1
                         Standard orientation:                         
 ---------------------------------------------------------------------
 Center     Atomic      Atomic             Coordinates (Angstroms)
 Number     Number       Type             X           Y           Z
 ---------------------------------------------------------------------
      1          8           0       14.611045   -2.248186   -0.350178
      2          8           0      -14.659005    2.020717    0.796785
      3          6           0       11.352316   -1.080762    1.249012
      4          6           0      -12.201588   -0.862060    1.004107
      5          6           0       12.867331   -1.483421    1.142233
      6          6           0      -13.537392   -0.062440    0.879580
      7          6           0       13.163632   -1.934423   -0.245481
      8          6           0      -13.378158    1.437567    0.744677
      9          6           0       10.879781   -0.370217    0.040921
     10          6           0      -11.266647   -0.286706   -0.112273
     11          6           0       12.906881   -0.870185   -1.247187
     12          6           0      -12.731719    1.635149   -0.670276
     13          6           0       11.589956   -0.334624   -1.102737
     14          6           0      -11.509288    0.758673   -0.806465
     15          6           0       11.226348   -0.198348    2.510376
     16          6           0       10.572128   -2.355792    1.454340
     17          6           0      -11.569183   -0.513293    2.386357
     18          6           0      -12.586950   -2.358158    0.893598
     19          6           0        9.623710    0.317751    0.182461
     20          6           0      -10.015964   -1.148206   -0.322657
     21          6           0       11.067515    0.319753   -2.329498
     22          6           0      -10.754240    1.198766   -2.075993
     23          6           0        9.341977    1.628294   -0.100890
     24          6           0       -8.782761   -0.580242   -0.373711
     25          6           0        8.027199    2.296538    0.237458
     26          6           0       -7.565576   -1.321395   -0.564521
     27          6           0        8.173538    3.753715    0.698900
     28          6           0       -7.716244   -2.834659   -0.679562
     29          6           0        6.905222    1.658563   -0.126551
     30          6           0       -6.379521   -0.624726   -0.499292
     31          6           0        5.569099    2.168755    0.065403
     32          6           0       -5.103355   -1.132099   -0.595612
     33          6           0        4.457327    1.381570   -0.202500
     34          6           0       -3.927153   -0.371836   -0.499571
     35          6           0        3.068404    1.763253    0.002424
     36          6           0       -2.630082   -0.785677   -0.742792
     37          6           0        2.709919    3.167689    0.547613
     38          6           0       -2.286263   -2.233877   -0.929625
     39          6           0        2.152458    0.745386   -0.220438
     40          6           0       -1.623634    0.101952   -0.429702
     41          6           0        0.661575    0.876277   -0.142421
     42          6           0       -0.153805   -0.065347   -0.513609
     43          1           0       13.481666   -0.586049    1.293971
     44          1           0       13.163066   -2.300933    1.983010
     45          1           0      -14.159832   -0.372044    1.749459
     46          1           0      -14.166622   -0.477992    0.085809
     47          1           0       12.490908   -2.867143   -0.579238
     48          1           0      -12.834663    1.755588    1.595813
     49          1           0       13.504652   -0.165545   -1.102853
     50          1           0       12.953485   -1.246119   -2.419575
     51          1           0      -13.430304    1.061111   -1.450388
     52          1           0      -12.605413    2.694621   -1.083655
     53          1           0       11.646336   -0.917245    3.256892
     54          1           0       10.256430   -0.121957    2.468667
     55          1           0       11.815395    0.933136    2.327493
     56          1           0       10.530770   -2.983161    0.558445
     57          1           0       10.880247   -2.976602    2.338013
     58          1           0        9.409813   -2.217477    1.669543
     59          1           0      -11.429900    0.450276    2.554481
     60          1           0      -10.574668   -1.270203    2.272258
     61          1           0      -12.262174   -0.717333    3.299761
     62          1           0      -13.603665   -2.714245    1.325221
     63          1           0      -11.709810   -3.068276    1.337988
     64          1           0      -12.653626   -2.611693   -0.116360
     65          1           0        8.788699   -0.378243    0.556457
     66          1           0       -9.957707   -2.323022   -0.129951
     67          1           0        9.912545    0.700981   -2.150281
     68          1           0       11.642135    1.202654   -2.585078
     69          1           0       11.073419   -0.278410   -3.104289
     70          1           0      -11.425023    1.195304   -2.924211
     71          1           0      -10.013594    0.438363   -2.236256
     72          1           0      -10.241980    2.297935   -1.944318
     73          1           0       14.856826   -3.119939    0.289808
     74          1           0      -15.010457    1.291101    1.560770
     75          1           0       10.215663    2.208835   -0.563855
     76          1           0       -8.677969    0.511401   -0.414977
     77          1           0        8.680793    4.335877   -0.093127
     78          1           0        7.226693    4.309920    0.690771
     79          1           0        8.568546    3.931942    1.630851
     80          1           0       -8.268561   -3.275724    0.138502
     81          1           0       -8.229390   -3.403949   -1.607828
     82          1           0       -6.646646   -3.384436   -0.506600
     83          1           0        7.037474    0.647750   -0.655571
     84          1           0       -6.315546    0.476347   -0.280449
     85          1           0        5.221815    3.263698    0.355796
     86          1           0       -5.059166   -2.055835   -0.884840
     87          1           0        4.573938    0.384234   -0.321891
     88          1           0       -4.326929    0.614710   -0.231930
     89          1           0        3.129507    3.275858    1.620523
     90          1           0        1.639615    3.438448    0.660092
     91          1           0        3.230469    3.888247   -0.172604
     92          1           0       -2.796873   -2.709038   -0.152904
     93          1           0       -2.519290   -2.496696   -1.874594
     94          1           0       -1.131856   -2.556500   -0.920199
     95          1           0        2.409579   -0.191930   -0.528931
     96          1           0       -2.180667    1.092944   -0.575166
     97          1           0        0.499954    1.895942    0.182687
     98          1           0        0.194822   -1.096692   -0.800611
 ---------------------------------------------------------------------
 Rotational constants (GHZ):           0.2361592           0.0093797           0.0092230
 Standard basis: 6-31G(d,p) (6D, 7F)
 There are   910 symmetry adapted cartesian basis functions of A   symmetry.
 There are   910 symmetry adapted basis functions of A   symmetry.
   910 basis functions,  1568 primitive gaussians,   910 cartesian basis functions
   156 alpha electrons      156 beta electrons
       nuclear repulsion energy      3986.3306235715 Hartrees.
 NAtoms=   98 NActive=   98 NUniq=   98 SFac= 1.00D+00 NAtFMM=   60 NAOKFM=T Big=T
 Integral buffers will be    131072 words long.
 Raffenetti 1 integral format.
 Two-electron integral symmetry is turned on.
 One-electron integrals computed using PRISM.
 NBasis=   910 RedAO= T EigKep=  9.33D-04  NBF=   910
 NBsUse=   910 1.00D-06 EigRej= -1.00D+00 NBFU=   910
 ExpMin= 1.61D-01 ExpMax= 5.48D+03 ExpMxC= 8.25D+02 IAcc=3 IRadAn=         5 AccDes= 0.00D+00
 Harris functional with IExCor=20419 and IRadAn=       5 diagonalized for initial guess.
 HarFok:  IExCor=20419 AccDes= 0.00D+00 IRadAn=         5 IDoV= 1 UseB2=F ITyADJ=14
 ICtDFT=  3500011 ScaDFX=  1.000000  1.000000  1.000000  1.000000
 FoFCou: FMM=F IPFlag=           0 FMFlag=      100000 FMFlg1=        2001
         NFxFlg=           0 DoJE=T BraDBF=F KetDBF=T FulRan=T
         wScrn=  0.000000 ICntrl=       500 IOpCl=  0 I1Cent=   200000004 NGrid=           0
         NMat0=    1 NMatS0=      1 NMatT0=    0 NMatD0=    1 NMtDS0=    0 NMtDT0=    0
 Petite list used in FoFCou.
 Requested convergence on RMS density matrix=1.00D-08 within 128 cycles.
 Requested convergence on MAX density matrix=1.00D-06.
 Requested convergence on             energy=1.00D-06.
 No special actions if energy rises.
 Integral accuracy reduced to 1.0D-05 until final iterations.
 Initial convergence to 1.0D-05 achieved.  Increase integral accuracy.
 SCF Done:  E(RCAM-B3LYP) =  -1706.93273140     A.U. after   14 cycles
            NFock= 14  Conv=0.79D-08     -V/T= 2.0099
 DoSCS=F DFT=T ScalE2(SS,OS)=  1.000000  1.000000
 ExpMin= 1.61D-01 ExpMax= 5.48D+03 ExpMxC= 8.25D+02 IAcc=3 IRadAn=         5 AccDes= 0.00D+00
 HarFok:  IExCor=  205 AccDes= 0.00D+00 IRadAn=         5 IDoV=-2 UseB2=F ITyADJ=14
 ICtDFT= 12500011 ScaDFX=  1.000000  1.000000  1.000000  1.000000
 GSVD:  LWork=       -2100 too small for GESVD, short by        9450 words or        9450 for optimal perf.
 Range of M.O.s used for correlation:    43   910
 NBasis=   910 NAE=   156 NBE=   156 NFC=    42 NFV=     0
 NROrb=    868 NOA=   114 NOB=   114 NVA=   754 NVB=   754
 Orbital symmetries:
       Occupied  (A) (A) (A) (A) (A) (A) (A) (A) (A) (A) (A) (A)
                 (A) (A) (A) (A) (A) (A) (A) (A) (A) (A) (A) (A)
                 (A) (A) (A) (A) (A) (A) (A) (A) (A) (A) (A) (A)
                 (A) (A) (A) (A) (A) (A) (A) (A) (A) (A) (A) (A)
                 (A) (A) (A) (A) (A) (A) (A) (A) (A) (A) (A) (A)
                 (A) (A) (A) (A) (A) (A) (A) (A) (A) (A) (A) (A)
                 (A) (A) (A) (A) (A) (A) (A) (A) (A) (A) (A) (A)
                 (A) (A) (A) (A) (A) (A) (A) (A) (A) (A) (A) (A)
                 (A) (A) (A) (A) (A) (A) (A) (A) (A) (A) (A) (A)
                 (A) (A) (A) (A) (A) (A) (A) (A) (A) (A) (A) (A)
                 (A) (A) (A) (A) (A) (A) (A) (A) (A) (A) (A) (A)
                 (A) (A) (A) (A) (A) (A) (A) (A) (A) (A) (A) (A)
                 (A) (A) (A) (A) (A) (A) (A) (A) (A) (A) (A) (A)
       Virtual   (A) (A) (A) (A) (A) (A) (A) (A) (A) (A) (A) (A)
                 (A) (A) (A) (A) (A) (A) (A) (A) (A) (A) (A) (A)
                 (A) (A) (A) (A) (A) (A) (A) (A) (A) (A) (A) (A)
                 (A) (A) (A) (A) (A) (A) (A) (A) (A) (A) (A) (A)
                 (A) (A) (A) (A) (A) (A) (A) (A) (A) (A) (A) (A)
                 (A) (A) (A) (A) (A) (A) (A) (A) (A) (A) (A) (A)
                 (A) (A) (A) (A) (A) (A) (A) (A) (A) (A) (A) (A)
                 (A) (A) (A) (A) (A) (A) (A) (A) (A) (A) (A) (A)
                 (A) (A) (A) (A) (A) (A) (A) (A) (A) (A) (A) (A)
                 (A) (A) (A) (A) (A) (A) (A) (A) (A) (A) (A) (A)
                 (A) (A) (A) (A) (A) (A) (A) (A) (A) (A) (A) (A)
                 (A) (A) (A) (A) (A) (A) (A) (A) (A) (A) (A) (A)
                 (A) (A) (A) (A) (A) (A) (A) (A) (A) (A) (A) (A)
                 (A) (A) (A) (A) (A) (A) (A) (A) (A) (A) (A) (A)
                 (A) (A) (A) (A) (A) (A) (A) (A) (A) (A) (A) (A)
                 (A) (A) (A) (A) (A) (A) (A) (A) (A) (A) (A) (A)
                 (A) (A) (A) (A) (A) (A) (A) (A) (A) (A) (A) (A)
                 (A) (A) (A) (A) (A) (A) (A) (A) (A) (A) (A) (A)
                 (A) (A) (A) (A) (A) (A) (A) (A) (A) (A) (A) (A)
                 (A) (A) (A) (A) (A) (A) (A) (A) (A) (A) (A) (A)
                 (A) (A) (A) (A) (A) (A) (A) (A) (A) (A) (A) (A)
                 (A) (A) (A) (A) (A) (A) (A) (A) (A) (A) (A) (A)
                 (A) (A) (A) (A) (A) (A) (A) (A) (A) (A) (A) (A)
                 (A) (A) (A) (A) (A) (A) (A) (A) (A) (A) (A) (A)
                 (A) (A) (A) (A) (A) (A) (A) (A) (A) (A) (A) (A)
                 (A) (A) (A) (A) (A) (A) (A) (A) (A) (A) (A) (A)
                 (A) (A) (A) (A) (A) (A) (A) (A) (A) (A) (A) (A)
                 (A) (A) (A) (A) (A) (A) (A) (A) (A) (A) (A) (A)
                 (A) (A) (A) (A) (A) (A) (A) (A) (A) (A) (A) (A)
                 (A) (A) (A) (A) (A) (A) (A) (A) (A) (A) (A) (A)
                 (A) (A) (A) (A) (A) (A) (A) (A) (A) (A) (A) (A)
                 (A) (A) (A) (A) (A) (A) (A) (A) (A) (A) (A) (A)
                 (A) (A) (A) (A) (A) (A) (A) (A) (A) (A) (A) (A)
                 (A) (A) (A) (A) (A) (A) (A) (A) (A) (A) (A) (A)
                 (A) (A) (A) (A) (A) (A) (A) (A) (A) (A) (A) (A)
                 (A) (A) (A) (A) (A) (A) (A) (A) (A) (A) (A) (A)
                 (A) (A) (A) (A) (A) (A) (A) (A) (A) (A) (A) (A)
                 (A) (A) (A) (A) (A) (A) (A) (A) (A) (A) (A) (A)
                 (A) (A) (A) (A) (A) (A) (A) (A) (A) (A) (A) (A)
                 (A) (A) (A) (A) (A) (A) (A) (A) (A) (A) (A) (A)
                 (A) (A) (A) (A) (A) (A) (A) (A) (A) (A) (A) (A)
                 (A) (A) (A) (A) (A) (A) (A) (A) (A) (A) (A) (A)
                 (A) (A) (A) (A) (A) (A) (A) (A) (A) (A) (A) (A)
                 (A) (A) (A) (A) (A) (A) (A) (A) (A) (A) (A) (A)
                 (A) (A) (A) (A) (A) (A) (A) (A) (A) (A) (A) (A)
                 (A) (A) (A) (A) (A) (A) (A) (A) (A) (A) (A) (A)
                 (A) (A) (A) (A) (A) (A) (A) (A) (A) (A) (A) (A)
                 (A) (A) (A) (A) (A) (A) (A) (A) (A) (A) (A) (A)
                 (A) (A) (A) (A) (A) (A) (A) (A) (A) (A) (A) (A)
                 (A) (A) (A) (A) (A) (A) (A) (A) (A) (A) (A) (A)
                 (A) (A) (A) (A) (A) (A) (A) (A) (A) (A) (A) (A)
                 (A) (A) (A) (A) (A) (A) (A) (A) (A) (A) (A) (A)
                 (A) (A) (A) (A) (A) (A) (A) (A) (A) (A) (A) (A)
                 (A) (A) (A) (A) (A) (A) (A) (A) (A) (A) (A) (A)
                 (A) (A) (A) (A) (A) (A) (A) (A) (A) (A) (A) (A)
                 (A) (A) (A) (A) (A) (A) (A) (A) (A) (A) (A) (A)
                 (A) (A) (A) (A) (A) (A) (A) (A) (A) (A) (A) (A)
                 (A) (A) (A) (A) (A) (A) (A) (A) (A) (A) (A) (A)
                 (A) (A) (A) (A) (A) (A) (A) (A) (A) (A) (A) (A)
                 (A) (A) (A) (A) (A) (A) (A) (A) (A) (A) (A) (A)
                 (A) (A) (A) (A) (A) (A) (A) (A) (A) (A) (A) (A)
                 (A) (A) (A) (A) (A) (A) (A) (A) (A) (A) (A) (A)
                 (A) (A) (A) (A) (A) (A) (A) (A) (A) (A)
     4 initial guesses have been made.
 Convergence on wavefunction:    0.001000000000000
 Iteration     1 Dimension     4 NMult     0 NNew      4
 CISAX will form     4 AO SS matrices at one time.
 Iteration     2 Dimension     6 NMult     4 NNew      2
 Iteration     3 Dimension     8 NMult     6 NNew      2
 Iteration     4 Dimension    10 NMult     8 NNew      2
 Iteration     5 Dimension    12 NMult    10 NNew      2
 Iteration     6 Dimension    14 NMult    12 NNew      2
 ***********************************************************************
 Excited states from <AA,BB:AA,BB> singles matrix:
 ***********************************************************************
 
 Ground to excited state transition densities written to RWF  633
 Ground to excited state transition electric dipole moments (Au):
       state          X           Y           Z        Dip. S.      Osc.
         1        -7.3092     -1.2631     -0.3234     55.1241      3.6613
 Ground to excited state transition velocity dipole moments (Au):
       state          X           Y           Z        Dip. S.      Osc.
         1         0.6993      0.1181      0.0319      0.5040      3.3726
 Ground to excited state transition magnetic dipole moments (Au):
       state          X           Y           Z
         1         0.1614     -0.5873     -0.4006
 Ground to excited state transition velocity quadrupole moments (Au):
       state          XX          YY          ZZ          XY          XZ          YZ
         1        -3.7536      0.1261     -0.0586     -0.0394     -0.2446      0.0136
 <0|del|b> * <b|rxdel|0> + <0|del|b> * <b|delr+rdel|0>
 Rotatory Strengths (R) in cgs (10**-40 erg-esu-cm/Gauss)
       state          XX          YY          ZZ    R(velocity)    E-M Angle
         1      -193.4257    393.4569     18.3278     72.7863       86.59
 1/2[<0|r|b>*<b|rxdel|0> + (<0|rxdel|b>*<b|r|0>)*]
 Rotatory Strengths (R) in cgs (10**-40 erg-esu-cm/Gauss)
       state          XX          YY          ZZ     R(length)
         1       834.3923   -524.5993    -91.6183     72.7249
  1/2[<0|del|b>*<b|r|0> + (<0|r|b>*<b|del|0>)*] (Au)
       state          X           Y           Z        Dip. S.   Osc.(frdel)
         1        -5.1114     -0.1492     -0.0103      5.2709      3.5139

 Excitation energies and oscillator strengths:
 
 Excited State   1:      Singlet-A      2.7110 eV  457.33 nm  f=3.6613  <S**2>=0.000
     155 ->158        -0.17060
     156 ->157         0.68219
 This state for optimization and/or second-order correction.
 Total Energy, E(TD-HF/TD-DFT) =  -1706.83310307    
 Copying the excited state density for this state as the 1-particle RhoCI density.
 SavETr:  write IOETrn=   770 NScale= 10 NData=  16 NLR=1 NState=    1 LETran=      28.

 **********************************************************************

            Population analysis using the SCF density.

 **********************************************************************

 Orbital symmetries:
       Occupied  (A) (A) (A) (A) (A) (A) (A) (A) (A) (A) (A) (A)
                 (A) (A) (A) (A) (A) (A) (A) (A) (A) (A) (A) (A)
                 (A) (A) (A) (A) (A) (A) (A) (A) (A) (A) (A) (A)
                 (A) (A) (A) (A) (A) (A) (A) (A) (A) (A) (A) (A)
                 (A) (A) (A) (A) (A) (A) (A) (A) (A) (A) (A) (A)
                 (A) (A) (A) (A) (A) (A) (A) (A) (A) (A) (A) (A)
                 (A) (A) (A) (A) (A) (A) (A) (A) (A) (A) (A) (A)
                 (A) (A) (A) (A) (A) (A) (A) (A) (A) (A) (A) (A)
                 (A) (A) (A) (A) (A) (A) (A) (A) (A) (A) (A) (A)
                 (A) (A) (A) (A) (A) (A) (A) (A) (A) (A) (A) (A)
                 (A) (A) (A) (A) (A) (A) (A) (A) (A) (A) (A) (A)
                 (A) (A) (A) (A) (A) (A) (A) (A) (A) (A) (A) (A)
                 (A) (A) (A) (A) (A) (A) (A) (A) (A) (A) (A) (A)
       Virtual   (A) (A) (A) (A) (A) (A) (A) (A) (A) (A) (A) (A)
                 (A) (A) (A) (A) (A) (A) (A) (A) (A) (A) (A) (A)
                 (A) (A) (A) (A) (A) (A) (A) (A) (A) (A) (A) (A)
                 (A) (A) (A) (A) (A) (A) (A) (A) (A) (A) (A) (A)
                 (A) (A) (A) (A) (A) (A) (A) (A) (A) (A) (A) (A)
                 (A) (A) (A) (A) (A) (A) (A) (A) (A) (A) (A) (A)
                 (A) (A) (A) (A) (A) (A) (A) (A) (A) (A) (A) (A)
                 (A) (A) (A) (A) (A) (A) (A) (A) (A) (A) (A) (A)
                 (A) (A) (A) (A) (A) (A) (A) (A) (A) (A) (A) (A)
                 (A) (A) (A) (A) (A) (A) (A) (A) (A) (A) (A) (A)
                 (A) (A) (A) (A) (A) (A) (A) (A) (A) (A) (A) (A)
                 (A) (A) (A) (A) (A) (A) (A) (A) (A) (A) (A) (A)
                 (A) (A) (A) (A) (A) (A) (A) (A) (A) (A) (A) (A)
                 (A) (A) (A) (A) (A) (A) (A) (A) (A) (A) (A) (A)
                 (A) (A) (A) (A) (A) (A) (A) (A) (A) (A) (A) (A)
                 (A) (A) (A) (A) (A) (A) (A) (A) (A) (A) (A) (A)
                 (A) (A) (A) (A) (A) (A) (A) (A) (A) (A) (A) (A)
                 (A) (A) (A) (A) (A) (A) (A) (A) (A) (A) (A) (A)
                 (A) (A) (A) (A) (A) (A) (A) (A) (A) (A) (A) (A)
                 (A) (A) (A) (A) (A) (A) (A) (A) (A) (A) (A) (A)
                 (A) (A) (A) (A) (A) (A) (A) (A) (A) (A) (A) (A)
                 (A) (A) (A) (A) (A) (A) (A) (A) (A) (A) (A) (A)
                 (A) (A) (A) (A) (A) (A) (A) (A) (A) (A) (A) (A)
                 (A) (A) (A) (A) (A) (A) (A) (A) (A) (A) (A) (A)
                 (A) (A) (A) (A) (A) (A) (A) (A) (A) (A) (A) (A)
                 (A) (A) (A) (A) (A) (A) (A) (A) (A) (A) (A) (A)
                 (A) (A) (A) (A) (A) (A) (A) (A) (A) (A) (A) (A)
                 (A) (A) (A) (A) (A) (A) (A) (A) (A) (A) (A) (A)
                 (A) (A) (A) (A) (A) (A) (A) (A) (A) (A) (A) (A)
                 (A) (A) (A) (A) (A) (A) (A) (A) (A) (A) (A) (A)
                 (A) (A) (A) (A) (A) (A) (A) (A) (A) (A) (A) (A)
                 (A) (A) (A) (A) (A) (A) (A) (A) (A) (A) (A) (A)
                 (A) (A) (A) (A) (A) (A) (A) (A) (A) (A) (A) (A)
                 (A) (A) (A) (A) (A) (A) (A) (A) (A) (A) (A) (A)
                 (A) (A) (A) (A) (A) (A) (A) (A) (A) (A) (A) (A)
                 (A) (A) (A) (A) (A) (A) (A) (A) (A) (A) (A) (A)
                 (A) (A) (A) (A) (A) (A) (A) (A) (A) (A) (A) (A)
                 (A) (A) (A) (A) (A) (A) (A) (A) (A) (A) (A) (A)
                 (A) (A) (A) (A) (A) (A) (A) (A) (A) (A) (A) (A)
                 (A) (A) (A) (A) (A) (A) (A) (A) (A) (A) (A) (A)
                 (A) (A) (A) (A) (A) (A) (A) (A) (A) (A) (A) (A)
                 (A) (A) (A) (A) (A) (A) (A) (A) (A) (A) (A) (A)
                 (A) (A) (A) (A) (A) (A) (A) (A) (A) (A) (A) (A)
                 (A) (A) (A) (A) (A) (A) (A) (A) (A) (A) (A) (A)
                 (A) (A) (A) (A) (A) (A) (A) (A) (A) (A) (A) (A)
                 (A) (A) (A) (A) (A) (A) (A) (A) (A) (A) (A) (A)
                 (A) (A) (A) (A) (A) (A) (A) (A) (A) (A) (A) (A)
                 (A) (A) (A) (A) (A) (A) (A) (A) (A) (A) (A) (A)
                 (A) (A) (A) (A) (A) (A) (A) (A) (A) (A) (A) (A)
                 (A) (A) (A) (A) (A) (A) (A) (A) (A) (A) (A) (A)
                 (A) (A) (A) (A) (A) (A) (A) (A) (A) (A) (A) (A)
                 (A) (A) (A) (A) (A) (A) (A) (A) (A) (A) (A) (A)
                 (A) (A) (A) (A) (A) (A) (A) (A) (A) (A) (A) (A)
                 (A) (A) (A) (A) (A) (A) (A) (A) (A) (A) (A) (A)
                 (A) (A) (A) (A) (A) (A) (A) (A) (A) (A) (A) (A)
                 (A) (A) (A) (A) (A) (A) (A) (A) (A) (A) (A) (A)
                 (A) (A) (A) (A) (A) (A) (A) (A) (A) (A) (A) (A)
                 (A) (A) (A) (A) (A) (A) (A) (A) (A) (A) (A) (A)
                 (A) (A) (A) (A) (A) (A) (A) (A) (A) (A) (A) (A)
                 (A) (A) (A) (A) (A) (A) (A) (A) (A) (A) (A) (A)
                 (A) (A) (A) (A) (A) (A) (A) (A) (A) (A) (A) (A)
                 (A) (A) (A) (A) (A) (A) (A) (A) (A) (A) (A) (A)
                 (A) (A) (A) (A) (A) (A) (A) (A) (A) (A)
 The electronic state is 1-A.
 Alpha  occ. eigenvalues --  -19.21476 -19.21402 -10.30854 -10.29999 -10.28193
 Alpha  occ. eigenvalues --  -10.28181 -10.27870 -10.27827 -10.27799 -10.27651
 Alpha  occ. eigenvalues --  -10.27394 -10.27059 -10.26963 -10.26944 -10.26858
 Alpha  occ. eigenvalues --  -10.26793 -10.26747 -10.26717 -10.26602 -10.26458
 Alpha  occ. eigenvalues --  -10.26432 -10.26321 -10.26278 -10.26169 -10.26015
 Alpha  occ. eigenvalues --  -10.25942 -10.25859 -10.25829 -10.25806 -10.25608
 Alpha  occ. eigenvalues --  -10.25581 -10.25535 -10.25473 -10.25463 -10.25448
 Alpha  occ. eigenvalues --  -10.25194 -10.25114 -10.24965 -10.24829 -10.24297
 Alpha  occ. eigenvalues --  -10.24259 -10.23860  -1.08155  -1.05066  -0.95036
 Alpha  occ. eigenvalues --   -0.93525  -0.92560  -0.91382  -0.90549  -0.89752
 Alpha  occ. eigenvalues --   -0.88618  -0.87371  -0.86826  -0.85607  -0.84977
 Alpha  occ. eigenvalues --   -0.82451  -0.81911  -0.80200  -0.78798  -0.78111
 Alpha  occ. eigenvalues --   -0.77075  -0.76788  -0.76392  -0.76161  -0.76024
 Alpha  occ. eigenvalues --   -0.75741  -0.75535  -0.74599  -0.74212  -0.70724
 Alpha  occ. eigenvalues --   -0.68542  -0.66842  -0.66060  -0.64551  -0.64206
 Alpha  occ. eigenvalues --   -0.63737  -0.62781  -0.62331  -0.61403  -0.60254
 Alpha  occ. eigenvalues --   -0.59213  -0.58369  -0.57940  -0.57151  -0.55591
 Alpha  occ. eigenvalues --   -0.55183  -0.54845  -0.54572  -0.54169  -0.53141
 Alpha  occ. eigenvalues --   -0.52745  -0.52641  -0.52122  -0.51659  -0.51527
 Alpha  occ. eigenvalues --   -0.50922  -0.50456  -0.49997  -0.49851  -0.48974
 Alpha  occ. eigenvalues --   -0.48947  -0.48718  -0.48503  -0.48123  -0.47820
 Alpha  occ. eigenvalues --   -0.47392  -0.47209  -0.46962  -0.46548  -0.46268
 Alpha  occ. eigenvalues --   -0.46228  -0.45789  -0.45567  -0.44965  -0.44869
 Alpha  occ. eigenvalues --   -0.44674  -0.44132  -0.44046  -0.43734  -0.43200
 Alpha  occ. eigenvalues --   -0.42989  -0.42677  -0.42515  -0.42279  -0.42152
 Alpha  occ. eigenvalues --   -0.41683  -0.41593  -0.41342  -0.40990  -0.40586
 Alpha  occ. eigenvalues --   -0.40524  -0.40198  -0.39916  -0.39837  -0.39778
 Alpha  occ. eigenvalues --   -0.39630  -0.39113  -0.38648  -0.38051  -0.37989
 Alpha  occ. eigenvalues --   -0.37853  -0.37684  -0.36669  -0.36004  -0.35538
 Alpha  occ. eigenvalues --   -0.35487  -0.34638  -0.33767  -0.32243  -0.31558
 Alpha  occ. eigenvalues --   -0.31425  -0.30535  -0.28385  -0.26957  -0.23852
 Alpha  occ. eigenvalues --   -0.20694
 Alpha virt. eigenvalues --   -0.04488  -0.00524   0.03564   0.05869   0.08396
 Alpha virt. eigenvalues --    0.09483   0.09951   0.10255   0.10520   0.11216
 Alpha virt. eigenvalues --    0.11293   0.12258   0.12874   0.12883   0.13480
 Alpha virt. eigenvalues --    0.13751   0.14080   0.14251   0.14549   0.14742
 Alpha virt. eigenvalues --    0.14990   0.15668   0.16060   0.16113   0.16257
 Alpha virt. eigenvalues --    0.16591   0.16751   0.16838   0.17266   0.17566
 Alpha virt. eigenvalues --    0.17970   0.18262   0.18526   0.18855   0.19002
 Alpha virt. eigenvalues --    0.19806   0.19955   0.20110   0.20511   0.21057
 Alpha virt. eigenvalues --    0.21295   0.21653   0.21899   0.22326   0.22654
 Alpha virt. eigenvalues --    0.22706   0.22719   0.22985   0.23269   0.23359
 Alpha virt. eigenvalues --    0.23667   0.23784   0.24212   0.24394   0.24619
 Alpha virt. eigenvalues --    0.24941   0.25057   0.25608   0.25853   0.25920
 Alpha virt. eigenvalues --    0.26319   0.26498   0.26518   0.26766   0.27102
 Alpha virt. eigenvalues --    0.27295   0.27923   0.28542   0.28822   0.29064
 Alpha virt. eigenvalues --    0.29451   0.29686   0.29899   0.30100   0.30190
 Alpha virt. eigenvalues --    0.30485   0.31333   0.31819   0.31970   0.32317
 Alpha virt. eigenvalues --    0.32873   0.33251   0.33411   0.33825   0.34694
 Alpha virt. eigenvalues --    0.35549   0.35821   0.36250   0.37251   0.38533
 Alpha virt. eigenvalues --    0.39061   0.39281   0.41033   0.41371   0.42170
 Alpha virt. eigenvalues --    0.42636   0.42787   0.43421   0.44337   0.44563
 Alpha virt. eigenvalues --    0.45541   0.46765   0.47575   0.48535   0.48822
 Alpha virt. eigenvalues --    0.49510   0.50893   0.51456   0.52800   0.53859
 Alpha virt. eigenvalues --    0.54219   0.55412   0.56076   0.56247   0.56395
 Alpha virt. eigenvalues --    0.57182   0.57583   0.57796   0.57877   0.58521
 Alpha virt. eigenvalues --    0.58661   0.58850   0.59062   0.59609   0.59691
 Alpha virt. eigenvalues --    0.60422   0.60791   0.61462   0.61912   0.62037
 Alpha virt. eigenvalues --    0.62109   0.62343   0.62892   0.63715   0.63893
 Alpha virt. eigenvalues --    0.63937   0.64124   0.64333   0.64704   0.64950
 Alpha virt. eigenvalues --    0.65301   0.65602   0.65813   0.65991   0.66755
 Alpha virt. eigenvalues --    0.66935   0.67713   0.68024   0.68327   0.68554
 Alpha virt. eigenvalues --    0.68782   0.69041   0.69277   0.69419   0.69815
 Alpha virt. eigenvalues --    0.70515   0.70925   0.71013   0.71459   0.72134
 Alpha virt. eigenvalues --    0.72543   0.72893   0.73116   0.73384   0.73592
 Alpha virt. eigenvalues --    0.74176   0.74301   0.74474   0.74817   0.75513
 Alpha virt. eigenvalues --    0.76079   0.76261   0.76424   0.76760   0.77122
 Alpha virt. eigenvalues --    0.77574   0.77685   0.77977   0.78458   0.78550
 Alpha virt. eigenvalues --    0.78872   0.80057   0.80530   0.81126   0.81356
 Alpha virt. eigenvalues --    0.81726   0.81825   0.81913   0.81968   0.82566
 Alpha virt. eigenvalues --    0.82920   0.83273   0.83389   0.83626   0.83953
 Alpha virt. eigenvalues --    0.84519   0.84531   0.84629   0.85143   0.85264
 Alpha virt. eigenvalues --    0.85684   0.85744   0.86079   0.86139   0.86169
 Alpha virt. eigenvalues --    0.86942   0.87591   0.87856   0.88214   0.88713
 Alpha virt. eigenvalues --    0.88948   0.89057   0.89252   0.89579   0.89785
 Alpha virt. eigenvalues --    0.90129   0.90558   0.91255   0.91423   0.91765
 Alpha virt. eigenvalues --    0.92025   0.92136   0.92709   0.92770   0.92909
 Alpha virt. eigenvalues --    0.93714   0.93875   0.94170   0.94401   0.94533
 Alpha virt. eigenvalues --    0.95085   0.95510   0.95709   0.95868   0.96092
 Alpha virt. eigenvalues --    0.96595   0.96768   0.97161   0.97430   0.97892
 Alpha virt. eigenvalues --    0.98307   0.98624   0.98689   0.99166   0.99556
 Alpha virt. eigenvalues --    0.99712   0.99866   1.00012   1.00338   1.00699
 Alpha virt. eigenvalues --    1.01357   1.01547   1.01872   1.02076   1.02324
 Alpha virt. eigenvalues --    1.02850   1.02930   1.03431   1.03773   1.04570
 Alpha virt. eigenvalues --    1.04755   1.04812   1.05663   1.05688   1.07121
 Alpha virt. eigenvalues --    1.07217   1.07438   1.08112   1.08699   1.09334
 Alpha virt. eigenvalues --    1.09895   1.10307   1.10404   1.11002   1.12173
 Alpha virt. eigenvalues --    1.12508   1.13036   1.14389   1.14676   1.14985
 Alpha virt. eigenvalues --    1.15440   1.15598   1.16063   1.16254   1.16778
 Alpha virt. eigenvalues --    1.17485   1.17693   1.18891   1.19527   1.19769
 Alpha virt. eigenvalues --    1.20422   1.23579   1.24549   1.24741   1.25125
 Alpha virt. eigenvalues --    1.26378   1.26490   1.27275   1.27462   1.29016
 Alpha virt. eigenvalues --    1.29097   1.29822   1.30609   1.31656   1.33405
 Alpha virt. eigenvalues --    1.34228   1.34700   1.34874   1.36209   1.36680
 Alpha virt. eigenvalues --    1.37220   1.38413   1.38602   1.38950   1.39282
 Alpha virt. eigenvalues --    1.41444   1.41662   1.42109   1.42701   1.43266
 Alpha virt. eigenvalues --    1.43776   1.43873   1.44235   1.45488   1.45719
 Alpha virt. eigenvalues --    1.46094   1.46861   1.46914   1.48277   1.48662
 Alpha virt. eigenvalues --    1.49123   1.50005   1.50654   1.51819   1.52214
 Alpha virt. eigenvalues --    1.52912   1.53567   1.54466   1.54790   1.55369
 Alpha virt. eigenvalues --    1.56179   1.57426   1.57443   1.57732   1.58191
 Alpha virt. eigenvalues --    1.59069   1.59656   1.60331   1.60756   1.62106
 Alpha virt. eigenvalues --    1.63331   1.63920   1.64346   1.65624   1.67165
 Alpha virt. eigenvalues --    1.68342   1.69168   1.69870   1.70459   1.71671
 Alpha virt. eigenvalues --    1.72475   1.73461   1.74172   1.74825   1.76534
 Alpha virt. eigenvalues --    1.77131   1.77900   1.78327   1.78701   1.79082
 Alpha virt. eigenvalues --    1.80017   1.80394   1.80556   1.81102   1.81487
 Alpha virt. eigenvalues --    1.81989   1.82737   1.83692   1.83768   1.84317
 Alpha virt. eigenvalues --    1.84556   1.84899   1.84961   1.85486   1.85737
 Alpha virt. eigenvalues --    1.86814   1.86945   1.87264   1.87911   1.87975
 Alpha virt. eigenvalues --    1.88906   1.89296   1.90110   1.90295   1.90467
 Alpha virt. eigenvalues --    1.90721   1.91009   1.91030   1.92020   1.92318
 Alpha virt. eigenvalues --    1.92838   1.93040   1.93782   1.95188   1.95227
 Alpha virt. eigenvalues --    1.95460   1.96282   1.96795   1.97101   1.97493
 Alpha virt. eigenvalues --    1.97846   1.98652   1.99226   1.99340   1.99964
 Alpha virt. eigenvalues --    2.00268   2.00525   2.00904   2.01102   2.01484
 Alpha virt. eigenvalues --    2.01895   2.02108   2.02862   2.03417   2.04297
 Alpha virt. eigenvalues --    2.04617   2.05026   2.05095   2.05825   2.05925
 Alpha virt. eigenvalues --    2.06251   2.07472   2.07593   2.07832   2.08120
 Alpha virt. eigenvalues --    2.08512   2.08743   2.08990   2.09679   2.09900
 Alpha virt. eigenvalues --    2.10150   2.10567   2.10939   2.11310   2.11872
 Alpha virt. eigenvalues --    2.12492   2.12605   2.12652   2.12971   2.13216
 Alpha virt. eigenvalues --    2.13695   2.13785   2.13978   2.14298   2.14505
 Alpha virt. eigenvalues --    2.15348   2.15597   2.15864   2.16168   2.16233
 Alpha virt. eigenvalues --    2.16758   2.17500   2.18033   2.18881   2.19205
 Alpha virt. eigenvalues --    2.19461   2.19725   2.20700   2.20774   2.21062
 Alpha virt. eigenvalues --    2.22029   2.22497   2.22658   2.23150   2.23240
 Alpha virt. eigenvalues --    2.24442   2.25451   2.25729   2.26013   2.26374
 Alpha virt. eigenvalues --    2.26796   2.27333   2.27416   2.27949   2.28184
 Alpha virt. eigenvalues --    2.28590   2.28848   2.29065   2.30158   2.30246
 Alpha virt. eigenvalues --    2.30802   2.30933   2.32129   2.32476   2.32685
 Alpha virt. eigenvalues --    2.33380   2.34278   2.34440   2.35274   2.35534
 Alpha virt. eigenvalues --    2.35707   2.35958   2.36200   2.37209   2.37815
 Alpha virt. eigenvalues --    2.38137   2.38626   2.39022   2.39444   2.39613
 Alpha virt. eigenvalues --    2.40362   2.40585   2.41277   2.41420   2.41522
 Alpha virt. eigenvalues --    2.42335   2.43400   2.44004   2.44412   2.45097
 Alpha virt. eigenvalues --    2.45566   2.46121   2.46393   2.47422   2.48069
 Alpha virt. eigenvalues --    2.48485   2.48755   2.48996   2.49458   2.49956
 Alpha virt. eigenvalues --    2.50541   2.51465   2.51512   2.52507   2.52538
 Alpha virt. eigenvalues --    2.53091   2.54316   2.54481   2.55149   2.55408
 Alpha virt. eigenvalues --    2.55511   2.56495   2.56901   2.57615   2.57926
 Alpha virt. eigenvalues --    2.58077   2.58768   2.59451   2.60054   2.60302
 Alpha virt. eigenvalues --    2.61021   2.61178   2.61783   2.62228   2.62371
 Alpha virt. eigenvalues --    2.62833   2.62952   2.63363   2.63828   2.63865
 Alpha virt. eigenvalues --    2.64533   2.65241   2.65451   2.65540   2.66425
 Alpha virt. eigenvalues --    2.66502   2.66987   2.68283   2.68595   2.69050
 Alpha virt. eigenvalues --    2.69293   2.69797   2.69948   2.70565   2.70895
 Alpha virt. eigenvalues --    2.71301   2.71811   2.72004   2.72167   2.73182
 Alpha virt. eigenvalues --    2.73517   2.74156   2.74807   2.75218   2.76293
 Alpha virt. eigenvalues --    2.76545   2.77532   2.77768   2.78200   2.78756
 Alpha virt. eigenvalues --    2.79246   2.79361   2.79618   2.79963   2.81241
 Alpha virt. eigenvalues --    2.81557   2.81660   2.83138   2.83575   2.83752
 Alpha virt. eigenvalues --    2.83988   2.84922   2.85302   2.85418   2.86144
 Alpha virt. eigenvalues --    2.86465   2.86563   2.87187   2.87920   2.88139
 Alpha virt. eigenvalues --    2.88844   2.89574   2.90121   2.90444   2.91376
 Alpha virt. eigenvalues --    2.91777   2.92224   2.92822   2.93118   2.93738
 Alpha virt. eigenvalues --    2.94460   2.95261   2.95578   2.95863   2.96199
 Alpha virt. eigenvalues --    2.96263   2.96717   2.97161   2.98703   2.98759
 Alpha virt. eigenvalues --    2.99049   2.99655   3.00026   3.01401   3.02388
 Alpha virt. eigenvalues --    3.03666   3.04228   3.04482   3.04997   3.05163
 Alpha virt. eigenvalues --    3.06196   3.06684   3.07595   3.07770   3.08893
 Alpha virt. eigenvalues --    3.09323   3.10909   3.11046   3.12829   3.14806
 Alpha virt. eigenvalues --    3.15111   3.15883   3.16017   3.16465   3.17255
 Alpha virt. eigenvalues --    3.20270   3.21787   3.22155   3.22160   3.23580
 Alpha virt. eigenvalues --    3.24202   3.24961   3.25724   3.27987   3.29661
 Alpha virt. eigenvalues --    3.29932   3.30173   3.30563   3.33126   3.35187
 Alpha virt. eigenvalues --    3.35613   3.35704   3.38716   3.39195   3.39996
 Alpha virt. eigenvalues --    3.40383   3.40971   3.42301   3.43498   3.44899
 Alpha virt. eigenvalues --    3.45128   3.45452   3.48128   3.48169   3.48452
 Alpha virt. eigenvalues --    3.49010   3.49538   3.50623   3.51510   3.51920
 Alpha virt. eigenvalues --    3.52707   3.53119   3.54267   3.54526   3.58486
 Alpha virt. eigenvalues --    3.58514   3.58761   3.60585   3.60991   3.61756
 Alpha virt. eigenvalues --    3.64919   3.65299   3.66109   3.68664   3.71974
 Alpha virt. eigenvalues --    3.73483   3.76870   3.79893   3.82545   3.83938
 Alpha virt. eigenvalues --    3.88334   3.99131   4.06389   4.09014   4.17809
 Alpha virt. eigenvalues --    4.20341   4.22335   4.22631   4.25034   4.26153
 Alpha virt. eigenvalues --    4.30177   4.31048   4.31932   4.32573   4.35391
 Alpha virt. eigenvalues --    4.38337   4.40711   4.43191   4.45391   4.46102
 Alpha virt. eigenvalues --    4.48096   4.48615   4.50140   4.53176   4.54857
 Alpha virt. eigenvalues --    4.56547   4.56702   4.58098   4.59611   4.59989
 Alpha virt. eigenvalues --    4.63105   4.64174   4.68783   4.70011   4.71210
 Alpha virt. eigenvalues --    4.72589   4.74650   4.77325   4.81171   4.82471
 Alpha virt. eigenvalues --    4.83071   4.87834   4.89666   4.91731
          Condensed to atoms (all electrons):
 Mulliken charges:
               1
     1  O   -0.583391
     2  O   -0.558190
     3  C   -0.060710
     4  C   -0.007742
     5  C   -0.169067
     6  C   -0.257637
     7  C    0.165534
     8  C    0.204311
     9  C    0.093943
    10  C    0.072355
    11  C   -0.175322
    12  C   -0.222095
    13  C    0.041290
    14  C    0.050582
    15  C   -0.248888
    16  C   -0.304695
    17  C   -0.267061
    18  C   -0.308182
    19  C   -0.131889
    20  C   -0.174672
    21  C   -0.364355
    22  C   -0.348709
    23  C   -0.127656
    24  C   -0.071482
    25  C    0.074534
    26  C    0.116426
    27  C   -0.373599
    28  C   -0.385209
    29  C   -0.114301
    30  C   -0.126547
    31  C   -0.099030
    32  C   -0.062972
    33  C   -0.093739
    34  C   -0.107896
    35  C    0.097913
    36  C    0.076970
    37  C   -0.378364
    38  C   -0.360150
    39  C   -0.137443
    40  C   -0.119117
    41  C   -0.026193
    42  C   -0.114633
    43  H    0.106050
    44  H    0.066215
    45  H    0.069693
    46  H    0.107347
    47  H    0.064774
    48  H    0.087301
    49  H    0.127938
    50  H    0.083902
    51  H    0.107455
    52  H    0.106144
    53  H    0.094310
    54  H    0.116880
    55  H    0.071386
    56  H    0.113732
    57  H    0.098839
    58  H    0.081165
    59  H    0.116267
    60  H    0.083343
    61  H    0.078285
    62  H    0.100094
    63  H    0.077070
    64  H    0.122784
    65  H    0.085624
    66  H    0.078059
    67  H    0.096386
    68  H    0.109869
    69  H    0.116591
    70  H    0.115152
    71  H    0.122280
    72  H    0.088742
    73  H    0.297750
    74  H    0.296748
    75  H    0.097048
    76  H    0.092181
    77  H    0.120676
    78  H    0.108019
    79  H    0.135103
    80  H    0.132430
    81  H    0.112785
    82  H    0.088331
    83  H    0.098988
    84  H    0.075451
    85  H    0.084191
    86  H    0.057230
    87  H    0.079691
    88  H    0.077989
    89  H    0.124532
    90  H    0.119753
    91  H    0.120841
    92  H    0.132026
    93  H    0.135199
    94  H    0.088611
    95  H    0.070881
    96  H    0.082778
    97  H    0.074142
    98  H    0.090025
 Sum of Mulliken charges =  -0.00000
 Mulliken charges with hydrogens summed into heavy atoms:
               1
     1  O   -0.285641
     2  O   -0.261442
     3  C   -0.060710
     4  C   -0.007742
     5  C    0.003198
     6  C   -0.080598
     7  C    0.230308
     8  C    0.291612
     9  C    0.093943
    10  C    0.072355
    11  C    0.036518
    12  C   -0.008497
    13  C    0.041290
    14  C    0.050582
    15  C    0.033688
    16  C   -0.010959
    17  C    0.010834
    18  C   -0.008234
    19  C   -0.046265
    20  C   -0.096613
    21  C   -0.041509
    22  C   -0.022535
    23  C   -0.030608
    24  C    0.020699
    25  C    0.074534
    26  C    0.116426
    27  C   -0.009800
    28  C   -0.051663
    29  C   -0.015313
    30  C   -0.051097
    31  C   -0.014839
    32  C   -0.005742
    33  C   -0.014048
    34  C   -0.029907
    35  C    0.097913
    36  C    0.076970
    37  C   -0.013237
    38  C   -0.004314
    39  C   -0.066561
    40  C   -0.036339
    41  C    0.047949
    42  C   -0.024608
 Electronic spatial extent (au):  <R**2>=         109915.2199
 Charge=             -0.0000 electrons
 Dipole moment (field-independent basis, Debye):
    X=              0.8142    Y=             -1.9004    Z=              1.0963  Tot=              2.3401
 Quadrupole moment (field-independent basis, Debye-Ang):
   XX=           -301.8741   YY=           -243.4172   ZZ=           -262.4899
   XY=             23.0351   XZ=              3.8471   YZ=             -0.7934
 Traceless Quadrupole moment (field-independent basis, Debye-Ang):
   XX=            -32.6137   YY=             25.8432   ZZ=              6.7705
   XY=             23.0351   XZ=              3.8471   YZ=             -0.7934
 Octapole moment (field-independent basis, Debye-Ang**2):
  XXX=            -74.3155  YYY=            -13.2709  ZZZ=              0.5074  XYY=            157.2507
  XXY=           -464.3930  XXZ=            313.3306  XZZ=            -29.0400  YZZ=             -1.2828
  YYZ=              9.4329  XYZ=            -46.9323
 Hexadecapole moment (field-independent basis, Debye-Ang**3):
 XXXX=        -160837.8993 YYYY=          -4448.0729 ZZZZ=          -2145.9326 XXXY=           4997.3844
 XXXZ=            648.5447 YYYX=           -129.9252 YYYZ=             -1.3750 ZZZX=           -222.3857
 ZZZY=             37.8089 XXYY=         -24114.6803 XXZZ=         -23885.5236 YYZZ=          -1120.4841
 XXYZ=           -934.3740 YYXZ=            267.3046 ZZXY=           -243.9184
 N-N= 3.986330623572D+03 E-N=-1.192754923976D+04  KE= 1.690195098340D+03
 1\1\GINC-PADAWAN\SP\RCAM-B3LYP TD-FC\6-31G(d,p)\C40H56O2\PADAWAN\28-Ju
 n-2019\0\\# td=(NStates=1) CAM-B3LYP/6-31G(d,p)\\TD\\0,1\O,0,14.610019
 2209,-2.2252399951,-0.4254814011\O,0,-14.6639729943,1.9761494709,0.861
 6052545\C,0,11.3496582598,-1.1189725314,1.2133646975\C,0,-12.204308062
 8,-0.9102835884,0.9657220942\C,0,12.8650452365,-1.5163046686,1.0927968
 517\C,0,-13.5407066797,-0.1077469347,0.8695658526\C,0,13.1623082248,-1
 .9166171888,-0.3101759066\C,0,-13.3826306031,1.3962824262,0.7890406881
 \C,0,10.8770662326,-0.3656007762,0.0315289069\C,0,-11.2693540364,-0.29
 421045,-0.1287036244\C,0,12.9051247315,-0.8170724643,-1.2728781608\C,0
 ,-12.7357443344,1.6453925163,-0.6175487969\C,0,11.5877035174,-0.288129
 186,-1.1097694929\C,0,-11.5125448445,0.7753838614,-0.7847680158\C,0,11
 .2224329703,-0.2828274408,2.5057410151\C,0,10.5704164826,-2.4012106022
 ,1.3721153315\C,0,-11.5727794719,-0.6112029483,2.3599645765\C,0,-12.58
 8409543,-2.4017156146,0.8010320072\C,0,9.6203768637,0.3158026172,0.197
 2664066\C,0,-10.0178831553,-1.1465487399,-0.3695156326\C,0,11.06525929
 09,0.4097454394,-2.3123154385\C,0,-10.7573081698,1.2616765517,-2.03721
 30283\C,0,9.3377037374,1.6355069886,-0.0386592399\C,0,-8.7851189969,-0
 .5761311701,-0.3994409901\C,0,8.0222382098,2.2900387438,0.3230179708\C
 ,0,-7.5672518672,-1.3089352266,-0.6163569677\C,0,8.1671972007,3.729701
 175,0.8368950555\C,0,-7.7166427703,-2.8171714652,-0.7860887839\C,0,6.9
 009355006,1.6647464685,-0.0643264386\C,0,-6.381789982,-0.6141368888,-0
 .5254455506\C,0,5.5643169837,2.1666043673,0.1453294489\C,0,-5.10517163
 92,-1.1166815443,-0.6394561196\C,0,4.4532992609,1.3887342873,-0.151360
 7651\C,0,-3.9296283828,-0.3594521513,-0.5154588759\C,0,3.0639790029,1.
 7616567636,0.0665883238\C,0,-2.6321169757,-0.7632006502,-0.7728849485\
 C,0,2.7041206931,3.1451839673,0.6620189109\C,0,-2.2870441984,-2.203427
 6449,-1.0117822182\C,0,2.1489544704,0.7517823421,-0.1933384588\C,0,-1.
 6265239754,0.113331039,-0.4274545725\C,0,0.6579329623,0.8785826262,-0.
 1113252525\C,0,-0.1565245215,-0.0496570708,-0.5166793079\H,0,13.478587
 1307,-0.6245158867,1.2771525533\H,0,13.1610813441,-2.3634369248,1.9036
 10493\H,0,-14.1632691039,-0.4490850655,1.727399946\H,0,-14.1692582928,
 -0.4948364066,0.0610044804\H,0,12.4904842504,-2.8371984629,-0.67773583
 86\H,0,-12.8397594369,1.6837628943,1.6513646095\H,0,13.5022611581,-0.1
 176344835,-1.1028961736\H,0,12.9525367467,-1.1503472618,-2.4580664826\
 H,0,-13.4335288969,1.0993712581,-1.418219755\H,0,-12.610119619,2.71921
 39854,-0.9923061136\H,0,11.6426828883,-1.0279035165,3.2259772587\H,0,1
 0.2524711121,-0.2057500851,2.4663755186\H,0,11.810640334,0.8549952324,
 2.3641455496\H,0,10.5299519982,-2.9958201621,0.4541107971\H,0,10.87865
 87829,-3.0533102481,2.2329132153\H,0,9.4078967907,-2.2716881619,1.5916
 441074\H,0,-11.434350335,0.345770148,2.56287018\H,0,-10.5776022692,-1.
 3627034253,2.2190379078\H,0,-12.2659977588,-0.8486757726,3.2650791039\
 H,0,-13.605020283,-2.7739786499,1.2190364126\H,0,-11.7108841364,-3.126
 7347015,1.2198670427\H,0,-12.6544458026,-2.6186321712,-0.21746022\H,0,
 8.785770401,-0.3939177119,0.5454787319\H,0,-9.9587556076,-2.3275164756
 ,-0.2193715702\H,0,9.9099034093,0.7833284307,-2.1199666997\H,0,11.6392
 723622,1.3017644673,-2.5355532693\H,0,11.0719814331,-0.1600164887,-3.1
 082179518\H,0,-11.4277237794,1.2883420632,-2.885310024\H,0,-10.0159771
 367,0.5081514521,-2.2245170577\H,0,-10.2459963546,2.3557741904,-1.8656
 60162\H,0,14.8562321762,-3.1193608412,0.182690162\H,0,-15.0151609511,1
 .2191168257,1.5985580608\H,0,10.2111165937,2.2330966136,-0.4799373087\
 H,0,-8.6811948165,0.5163737354,-0.4011749305\H,0,8.674320294,4.3405139
 043,0.066660363\H,0,7.2199053795,4.2850839173,0.8484406771\H,0,8.56166
 08761,3.8744403309,1.7748605041\H,0,-8.2689539254,-3.2879557247,0.0152
 456856\H,0,-8.2289286489,-3.3529443085,-1.734559786\H,0,-6.6466735164,
 -3.3719908512,-0.632620054\H,0,7.0342350865,0.673821125,-0.6294763396\
 H,0,-6.3188021422,0.4783576757,-0.2669190689\H,0,5.2160209861,3.250060
 1539,0.47494975\H,0,-5.060109831,-2.0293242395,-0.9618635864\H,0,4.570
 770176,0.3964578917,-0.3066690779\H,0,-4.3303185359,0.6164567626,-0.21
 25184558\H,0,3.123160101,3.2148355255,1.738330034\H,0,1.633550008,3.41
 08497559,0.7837207801\H,0,3.2243964616,3.8917170056,-0.0314436404\H,0,
 -2.7976018972,-2.7067578229,-0.2529783418\H,0,-2.5194514531,-2.4321043
 305,-1.9657405411\H,0,-1.132380037,-2.5252627014,-1.0134943854\H,0,2.4
 069678548,-0.1735660077,-0.5353914431\H,0,-2.1842978308,1.108490767,-0
 .537260339\H,0,0.4953452815,1.885701276,0.2503508301\H,0,0.1930620762,
 -1.0696769178,-0.8406116452\\Version=ES64L-G16RevA.03\State=1-A\HF=-17
 06.9327314\RMSD=7.871e-09\PG=C01 [X(C40H56O2)]\\@


 DEMOCRATS BUY MOST OF THE BOOKS THAT HAVE BEEN
 BANNED; REPUBLICANS FORM CENSORSHIP COMMITTEES AND
 READ THEM AS A GROUP.
 Job cpu time:       0 days  5 hours 55 minutes 30.7 seconds.
 Elapsed time:       0 days  1 hours 29 minutes 18.1 seconds.
 File lengths (MBytes):  RWF=   3127 Int=      0 D2E=      0 Chk=     84 Scr=      1
 Normal termination of Gaussian 16 at Fri Jun 28 10:33:59 2019.
