 Entering Gaussian System, Link 0=g16
 Input=Geometria-454-.com
 Output=Geometria-454-.log
 Initial command:
 /usr/local/g16/l1.exe "/home/padawan/israel-mol/zeaxanthin/spectra/abs/Gau-24084.inp" -scrdir="/home/padawan/israel-mol/zeaxanthin/spectra/abs/"
 Entering Link 1 = /usr/local/g16/l1.exe PID=     24086.
  
 Copyright (c) 1988,1990,1992,1993,1995,1998,2003,2009,2016,
            Gaussian, Inc.  All Rights Reserved.
  
 This is part of the Gaussian(R) 16 program.  It is based on
 the Gaussian(R) 09 system (copyright 2009, Gaussian, Inc.),
 the Gaussian(R) 03 system (copyright 2003, Gaussian, Inc.),
 the Gaussian(R) 98 system (copyright 1998, Gaussian, Inc.),
 the Gaussian(R) 94 system (copyright 1995, Gaussian, Inc.),
 the Gaussian 92(TM) system (copyright 1992, Gaussian, Inc.),
 the Gaussian 90(TM) system (copyright 1990, Gaussian, Inc.),
 the Gaussian 88(TM) system (copyright 1988, Gaussian, Inc.),
 the Gaussian 86(TM) system (copyright 1986, Carnegie Mellon
 University), and the Gaussian 82(TM) system (copyright 1983,
 Carnegie Mellon University). Gaussian is a federally registered
 trademark of Gaussian, Inc.
  
 This software contains proprietary and confidential information,
 including trade secrets, belonging to Gaussian, Inc.
  
 This software is provided under written license and may be
 used, copied, transmitted, or stored only in accord with that
 written license.
  
 The following legend is applicable only to US Government
 contracts under FAR:
  
                    RESTRICTED RIGHTS LEGEND
  
 Use, reproduction and disclosure by the US Government is
 subject to restrictions as set forth in subparagraphs (a)
 and (c) of the Commercial Computer Software - Restricted
 Rights clause in FAR 52.227-19.
  
 Gaussian, Inc.
 340 Quinnipiac St., Bldg. 40, Wallingford CT 06492
  
  
 ---------------------------------------------------------------
 Warning -- This program may not be used in any manner that
 competes with the business of Gaussian, Inc. or will provide
 assistance to any competitor of Gaussian, Inc.  The licensee
 of this program is prohibited from giving any competitor of
 Gaussian, Inc. access to this program.  By using this program,
 the user acknowledges that Gaussian, Inc. is engaged in the
 business of creating and licensing software in the field of
 computational chemistry and represents and warrants to the
 licensee that it is not a competitor of Gaussian, Inc. and that
 it will not use this program in any manner prohibited above.
 ---------------------------------------------------------------
  

 Cite this work as:
 Gaussian 16, Revision A.03,
 M. J. Frisch, G. W. Trucks, H. B. Schlegel, G. E. Scuseria, 
 M. A. Robb, J. R. Cheeseman, G. Scalmani, V. Barone, 
 G. A. Petersson, H. Nakatsuji, X. Li, M. Caricato, A. V. Marenich, 
 J. Bloino, B. G. Janesko, R. Gomperts, B. Mennucci, H. P. Hratchian, 
 J. V. Ortiz, A. F. Izmaylov, J. L. Sonnenberg, D. Williams-Young, 
 F. Ding, F. Lipparini, F. Egidi, J. Goings, B. Peng, A. Petrone, 
 T. Henderson, D. Ranasinghe, V. G. Zakrzewski, J. Gao, N. Rega, 
 G. Zheng, W. Liang, M. Hada, M. Ehara, K. Toyota, R. Fukuda, 
 J. Hasegawa, M. Ishida, T. Nakajima, Y. Honda, O. Kitao, H. Nakai, 
 T. Vreven, K. Throssell, J. A. Montgomery, Jr., J. E. Peralta, 
 F. Ogliaro, M. J. Bearpark, J. J. Heyd, E. N. Brothers, K. N. Kudin, 
 V. N. Staroverov, T. A. Keith, R. Kobayashi, J. Normand, 
 K. Raghavachari, A. P. Rendell, J. C. Burant, S. S. Iyengar, 
 J. Tomasi, M. Cossi, J. M. Millam, M. Klene, C. Adamo, R. Cammi, 
 J. W. Ochterski, R. L. Martin, K. Morokuma, O. Farkas, 
 J. B. Foresman, and D. J. Fox, Gaussian, Inc., Wallingford CT, 2016.
 
 ******************************************
 Gaussian 16:  ES64L-G16RevA.03 25-Dec-2016
                10-Jul-2019 
 ******************************************
 %nproc=4
 Will use up to    4 processors via shared memory.
 %Mem=2GB
 -------------------------------------
 # td=(NStates=1) CAM-B3LYP/6-31G(d,p)
 -------------------------------------
 1/38=1,172=1/1;
 2/12=2,17=6,18=5,40=1/2;
 3/5=1,6=6,7=101,11=9,25=1,30=1,74=-40/1,2,3,8;
 4//1;
 5/5=2,38=5/2;
 8/6=1,10=2,108=1/1;
 9/41=1,42=1,70=2/14;
 6/7=2,8=2,9=2,10=2/1;
 99/5=1,9=1/99;
 --
 TD
 --
 Symbolic Z-matrix:
 Charge =  0 Multiplicity = 1
 8                     14.80846  -2.14589  -0.43812 
 8                    -14.75137   1.94989   0.62261 
 6                     11.50608  -1.07537   1.18249 
 6                    -12.30886  -0.90371   0.77902 
 6                     12.96504  -1.44112   1.12118 
 6                    -13.65726  -0.22154   0.75949 
 6                     13.38587  -1.91665  -0.26747 
 6                    -13.55442   1.30939   0.79537 
 6                     10.95585  -0.29776  -0.09682 
 6                    -11.27026  -0.2622   -0.18364 
 6                     13.00146  -0.98627  -1.43651 
 6                    -12.79485   1.698    -0.48592 
 6                     11.61612  -0.26067  -1.26317 
 6                    -11.55697   0.84845  -0.809 
 6                     11.25451  -0.09231   2.39852 
 6                     10.60834  -2.24383   1.50444 
 6                    -11.65578  -0.78021   2.21981 
 6                    -12.48083  -2.40126   0.40233 
 6                     9.60462   0.34749   0.1503 
 6                    -10.06122  -0.98455  -0.36528 
 6                     11.17341   0.41185  -2.47148 
 6                    -10.72795   1.45197  -1.91687 
 6                     9.36157   1.58851  -0.01101 
 6                    -8.9274   -0.49848  -0.23814 
 6                     8.08789   2.2046    0.19761 
 6                    -7.67893  -1.28423  -0.49351 
 6                     8.15849   3.68813   0.53938 
 6                    -7.8208   -2.67086  -0.8917 
 6                     6.93318   1.6152   -0.06843 
 6                    -6.44206  -0.63851  -0.31266 
 6                     5.59315   2.0303    0.17616 
 6                    -5.05319  -1.20613  -0.56436 
 6                     4.46482   1.31301   0.00923 
 6                    -3.99183  -0.44602  -0.41055 
 6                     3.04706   1.6799    0.18726 
 6                    -2.59194  -0.85281  -0.47936 
 6                     2.79605   3.16961   0.55792 
 6                    -2.43272  -2.25111  -0.90926 
 6                     2.06611   0.73024  -0.07986 
 6                    -1.61925   0.09276  -0.20495 
 6                     0.60605   0.80698   0.17138 
 6                    -0.21358  -0.13263  -0.14592 
 1                     13.54586  -0.51266   1.36765 
 1                     13.04477  -2.56079   1.72504 
 1                    -14.25039  -0.72919   1.39598 
 1                    -14.07556  -0.4539   -0.22049 
 1                     12.79816  -2.85682  -0.27322 
 1                    -13.02112   1.58204   1.69028 
 1                     13.65918  -0.25616  -1.45446 
 1                     13.08064  -1.74605  -2.39488 
 1                    -13.44886   1.66799  -1.2298 
 1                    -12.57065   2.71958  -0.2529 
 1                     11.7829  -0.61386   3.2927 
 1                     10.12805  -0.13764   2.696 
 1                     11.74315   0.76015   2.37972 
 1                     10.46252  -3.13363   0.62533 
 1                     10.92351  -2.8786    2.30835 
 1                     9.47053  -1.98368   1.59787 
 1                    -11.66795   0.27134   2.82972 
 1                    -10.63503  -1.06928   2.21175 
 1                    -12.14515  -1.70386   2.94389 
 1                    -13.5489  -2.8996    0.86592 
 1                    -11.58556  -2.7611    0.95284 
 1                    -12.60696  -2.29758  -0.71583 
 1                     8.74772  -0.2118    0.74805 
 1                    -9.88787  -2.15447  -0.62211 
 1                     10.07614   0.88362  -2.5588 
 1                     11.6796   1.42112  -2.64679 
 1                     11.3784  -0.1273   -3.49663 
 1                    -11.41403   1.88722  -2.50333 
 1                    -9.99948   0.89099  -2.29954 
 1                    -10.13044   2.34685  -1.65346 
 1                     15.01262  -2.89752   0.08813 
 1                    -15.34611   1.85696   1.3009 
 1                     10.29077   2.29662  -0.35452 
 1                    -8.96103   0.54284   0.08662 
 1                     8.65617   4.13926  -0.34948 
 1                     7.35847   4.2014    0.66242 
 1                     8.69548   3.91949   1.38383 
 1                    -8.6777   -3.21994  -0.36256 
 1                    -8.10641  -2.63634  -2.0579 
 1                    -6.80358  -3.28661  -0.72815 
 1                     6.90089   0.59862  -0.49124 
 1                    -6.36022   0.41078  -0.03906 
 1                     5.39253   2.92591   0.69076 
 1                    -4.89659  -2.31642  -0.6954 
 1                     4.57314   0.33019  -0.42181 
 1                    -4.03314   0.60747  -0.10278 
 1                     3.05339   3.19702   1.81669 
 1                     1.71971   3.56681   0.37181 
 1                     3.30756   3.74035  -0.06768 
 1                    -3.08153  -2.98956  -0.25982 
 1                    -2.63806  -2.36119  -1.93906 
 1                    -1.34145  -2.5851   -0.6731 
 1                     2.25845  -0.15259  -0.32757 
 1                    -2.14273   1.01762   0.05328 
 1                     0.40441   1.88862   0.52369 
 1                     0.0087   -1.21609  -0.35354 
 
 Stoichiometry    C40H56O2
 Framework group  C1[X(C40H56O2)]
 Deg. of freedom   288
 Full point group                 C1      NOp   1
 Largest Abelian subgroup         C1      NOp   1
 Largest concise Abelian subgroup C1      NOp   1
                         Standard orientation:                         
 ---------------------------------------------------------------------
 Center     Atomic      Atomic             Coordinates (Angstroms)
 Number     Number       Type             X           Y           Z
 ---------------------------------------------------------------------
      1          8           0       14.810410   -2.159025   -0.385007
      2          8           0      -14.748868    1.966762    0.569524
      3          6           0       11.508405   -1.044774    1.206626
      4          6           0      -12.306589   -0.881802    0.802602
      5          6           0       12.967312   -1.412186    1.154981
      6          6           0      -13.654930   -0.200275    0.764865
      7          6           0       13.387871   -1.925115   -0.220380
      8          6           0      -13.551944    1.331058    0.759334
      9          6           0       10.958031   -0.301978   -0.093148
     10          6           0      -11.268098   -0.266639   -0.177220
     11          6           0       13.003354   -1.026637   -1.414078
     12          6           0      -12.792555    1.684816   -0.532114
     13          6           0       11.618101   -0.296482   -1.260184
     14          6           0      -11.554806    0.826729   -0.832324
     15          6           0       11.257121   -0.029182    2.395682
     16          6           0       10.610608   -2.204026    1.560185
     17          6           0      -11.653256   -0.719465    2.239417
     18          6           0      -12.478760   -2.388962    0.466552
     19          6           0        9.606893    0.349845    0.136671
     20          6           0      -10.059148   -0.993755   -0.339465
     21          6           0       11.175254    0.343169   -2.486153
     22          6           0      -10.725913    1.400000   -1.956238
     23          6           0        9.363930    1.586081   -0.058081
     24          6           0       -8.925268   -0.504537   -0.225706
     25          6           0        8.090350    2.207705    0.134014
     26          6           0       -7.676912   -1.297021   -0.459952
     27          6           0        8.161135    3.699920    0.435551
     28          6           0       -7.818976   -2.693887   -0.820490
     29          6           0        6.935536    1.611442   -0.115800
     30          6           0       -6.439946   -0.646764   -0.296825
     31          6           0        5.595586    2.033129    0.117702
     32          6           0       -5.051170   -1.221114   -0.533315
     33          6           0        4.467163    1.311693   -0.029601
     34          6           0       -3.989723   -0.457226   -0.400280
     35          6           0        3.049463    1.683399    0.138687
     36          6           0       -2.589880   -0.865860   -0.458299
     37          6           0        2.798654    3.182605    0.468988
     38          6           0       -2.430856   -2.275287   -0.850281
     39          6           0        2.068380    0.726962   -0.102503
     40          6           0       -1.617058    0.086686   -0.209714
     41          6           0        0.608371    0.810600    0.146813
     42          6           0       -0.211396   -0.137155   -0.144846
     43          1           0       13.548267   -0.477467    1.376173
     44          1           0       13.047046   -2.515133    1.788873
     45          1           0      -14.247999   -0.690484    1.414934
     46          1           0      -14.073416   -0.459001   -0.208416
     47          1           0       12.800069   -2.865044   -0.200613
     48          1           0      -13.018468    1.627744    1.646457
     49          1           0       13.661130   -0.297341   -1.451861
     50          1           0       13.082299   -1.812048   -2.351572
     51          1           0      -13.446693    1.634775   -1.274808
     52          1           0      -12.568218    2.712306   -0.326834
     53          1           0       11.785614   -0.526428    3.303548
     54          1           0       10.130709   -0.066352    2.694463
     55          1           0       11.745843    0.822405    2.353765
     56          1           0       10.464554   -3.117247    0.705469
     57          1           0       10.925858   -2.816864    2.380908
     58          1           0        9.472840   -1.941331    1.646744
     59          1           0      -11.665233    0.348189    2.820681
     60          1           0      -10.632534   -1.008749    2.239001
     61          1           0      -12.142586   -1.623162    2.988274
     62          1           0      -13.546803   -2.874493    0.943618
     63          1           0      -11.583433   -2.733880    1.026437
     64          1           0      -12.605070   -2.315534   -0.653983
     65          1           0        8.750043   -0.192998    0.749458
     66          1           0       -9.885949   -2.170203   -0.564616
     67          1           0       10.078012    0.812515   -2.586010
     68          1           0       11.681503    1.347284   -2.688764
     69          1           0       11.380024   -0.223510   -3.496386
     70          1           0      -11.412059    1.819312   -2.554135
     71          1           0       -9.997559    0.828816   -2.323730
     72          1           0      -10.128287    2.301623   -1.717208
     73          1           0       15.014588   -2.896173    0.161335
     74          1           0      -15.343505    1.892260    1.250173
     75          1           0       10.293146    2.284560   -0.420766
     76          1           0       -8.958748    0.545184    0.070805
     77          1           0        8.658709    4.126820   -0.465257
     78          1           0        7.361185    4.216404    0.544812
     79          1           0        8.698296    3.953976    1.273356
     80          1           0       -8.675839   -3.228385   -0.276564
     81          1           0       -8.104772   -2.690878   -1.987152
     82          1           0       -6.801781   -3.305094   -0.640525
     83          1           0        6.903085    0.583811   -0.510980
     84          1           0       -6.357964    0.409530   -0.051690
     85          1           0        5.395133    2.942336    0.607940
     86          1           0       -4.894701   -2.334557   -0.634322
     87          1           0        4.575321    0.317576   -0.433933
     88          1           0       -4.030880    0.604198   -0.121089
     89          1           0        3.056211    3.244009    1.726514
     90          1           0        1.722318    3.574732    0.272389
     91          1           0        3.310116    3.736184   -0.171890
     92          1           0       -3.079626   -2.995846   -0.181010
     93          1           0       -2.636384   -2.413135   -1.876692
     94          1           0       -1.339579   -2.602873   -0.605359
     95          1           0        2.260605   -0.162263   -0.326297
     96          1           0       -2.140411    1.018240    0.023512
     97          1           0        0.406888    1.901392    0.469788
     98          1           0        0.010754   -1.225859   -0.323143
 ---------------------------------------------------------------------
 Rotational constants (GHZ):           0.2457701           0.0092670           0.0091148
 Standard basis: 6-31G(d,p) (6D, 7F)
 There are   910 symmetry adapted cartesian basis functions of A   symmetry.
 There are   910 symmetry adapted basis functions of A   symmetry.
   910 basis functions,  1568 primitive gaussians,   910 cartesian basis functions
   156 alpha electrons      156 beta electrons
       nuclear repulsion energy      3982.5286871958 Hartrees.
 NAtoms=   98 NActive=   98 NUniq=   98 SFac= 1.00D+00 NAtFMM=   60 NAOKFM=T Big=T
 Integral buffers will be    131072 words long.
 Raffenetti 1 integral format.
 Two-electron integral symmetry is turned on.
 One-electron integrals computed using PRISM.
 NBasis=   910 RedAO= T EigKep=  8.43D-04  NBF=   910
 NBsUse=   910 1.00D-06 EigRej= -1.00D+00 NBFU=   910
 ExpMin= 1.61D-01 ExpMax= 5.48D+03 ExpMxC= 8.25D+02 IAcc=3 IRadAn=         5 AccDes= 0.00D+00
 Harris functional with IExCor=20419 and IRadAn=       5 diagonalized for initial guess.
 HarFok:  IExCor=20419 AccDes= 0.00D+00 IRadAn=         5 IDoV= 1 UseB2=F ITyADJ=14
 ICtDFT=  3500011 ScaDFX=  1.000000  1.000000  1.000000  1.000000
 FoFCou: FMM=F IPFlag=           0 FMFlag=      100000 FMFlg1=        2001
         NFxFlg=           0 DoJE=T BraDBF=F KetDBF=T FulRan=T
         wScrn=  0.000000 ICntrl=       500 IOpCl=  0 I1Cent=   200000004 NGrid=           0
         NMat0=    1 NMatS0=      1 NMatT0=    0 NMatD0=    1 NMtDS0=    0 NMtDT0=    0
 Petite list used in FoFCou.
 Requested convergence on RMS density matrix=1.00D-08 within 128 cycles.
 Requested convergence on MAX density matrix=1.00D-06.
 Requested convergence on             energy=1.00D-06.
 No special actions if energy rises.
 Integral accuracy reduced to 1.0D-05 until final iterations.
 Initial convergence to 1.0D-05 achieved.  Increase integral accuracy.
 SCF Done:  E(RCAM-B3LYP) =  -1706.91342660     A.U. after   13 cycles
            NFock= 13  Conv=0.89D-08     -V/T= 2.0092
 DoSCS=F DFT=T ScalE2(SS,OS)=  1.000000  1.000000
 ExpMin= 1.61D-01 ExpMax= 5.48D+03 ExpMxC= 8.25D+02 IAcc=3 IRadAn=         5 AccDes= 0.00D+00
 HarFok:  IExCor=  205 AccDes= 0.00D+00 IRadAn=         5 IDoV=-2 UseB2=F ITyADJ=14
 ICtDFT= 12500011 ScaDFX=  1.000000  1.000000  1.000000  1.000000
 GSVD:  LWork=       -2100 too small for GESVD, short by        9450 words or        9450 for optimal perf.
 Range of M.O.s used for correlation:    43   910
 NBasis=   910 NAE=   156 NBE=   156 NFC=    42 NFV=     0
 NROrb=    868 NOA=   114 NOB=   114 NVA=   754 NVB=   754
 Orbital symmetries:
       Occupied  (A) (A) (A) (A) (A) (A) (A) (A) (A) (A) (A) (A)
                 (A) (A) (A) (A) (A) (A) (A) (A) (A) (A) (A) (A)
                 (A) (A) (A) (A) (A) (A) (A) (A) (A) (A) (A) (A)
                 (A) (A) (A) (A) (A) (A) (A) (A) (A) (A) (A) (A)
                 (A) (A) (A) (A) (A) (A) (A) (A) (A) (A) (A) (A)
                 (A) (A) (A) (A) (A) (A) (A) (A) (A) (A) (A) (A)
                 (A) (A) (A) (A) (A) (A) (A) (A) (A) (A) (A) (A)
                 (A) (A) (A) (A) (A) (A) (A) (A) (A) (A) (A) (A)
                 (A) (A) (A) (A) (A) (A) (A) (A) (A) (A) (A) (A)
                 (A) (A) (A) (A) (A) (A) (A) (A) (A) (A) (A) (A)
                 (A) (A) (A) (A) (A) (A) (A) (A) (A) (A) (A) (A)
                 (A) (A) (A) (A) (A) (A) (A) (A) (A) (A) (A) (A)
                 (A) (A) (A) (A) (A) (A) (A) (A) (A) (A) (A) (A)
       Virtual   (A) (A) (A) (A) (A) (A) (A) (A) (A) (A) (A) (A)
                 (A) (A) (A) (A) (A) (A) (A) (A) (A) (A) (A) (A)
                 (A) (A) (A) (A) (A) (A) (A) (A) (A) (A) (A) (A)
                 (A) (A) (A) (A) (A) (A) (A) (A) (A) (A) (A) (A)
                 (A) (A) (A) (A) (A) (A) (A) (A) (A) (A) (A) (A)
                 (A) (A) (A) (A) (A) (A) (A) (A) (A) (A) (A) (A)
                 (A) (A) (A) (A) (A) (A) (A) (A) (A) (A) (A) (A)
                 (A) (A) (A) (A) (A) (A) (A) (A) (A) (A) (A) (A)
                 (A) (A) (A) (A) (A) (A) (A) (A) (A) (A) (A) (A)
                 (A) (A) (A) (A) (A) (A) (A) (A) (A) (A) (A) (A)
                 (A) (A) (A) (A) (A) (A) (A) (A) (A) (A) (A) (A)
                 (A) (A) (A) (A) (A) (A) (A) (A) (A) (A) (A) (A)
                 (A) (A) (A) (A) (A) (A) (A) (A) (A) (A) (A) (A)
                 (A) (A) (A) (A) (A) (A) (A) (A) (A) (A) (A) (A)
                 (A) (A) (A) (A) (A) (A) (A) (A) (A) (A) (A) (A)
                 (A) (A) (A) (A) (A) (A) (A) (A) (A) (A) (A) (A)
                 (A) (A) (A) (A) (A) (A) (A) (A) (A) (A) (A) (A)
                 (A) (A) (A) (A) (A) (A) (A) (A) (A) (A) (A) (A)
                 (A) (A) (A) (A) (A) (A) (A) (A) (A) (A) (A) (A)
                 (A) (A) (A) (A) (A) (A) (A) (A) (A) (A) (A) (A)
                 (A) (A) (A) (A) (A) (A) (A) (A) (A) (A) (A) (A)
                 (A) (A) (A) (A) (A) (A) (A) (A) (A) (A) (A) (A)
                 (A) (A) (A) (A) (A) (A) (A) (A) (A) (A) (A) (A)
                 (A) (A) (A) (A) (A) (A) (A) (A) (A) (A) (A) (A)
                 (A) (A) (A) (A) (A) (A) (A) (A) (A) (A) (A) (A)
                 (A) (A) (A) (A) (A) (A) (A) (A) (A) (A) (A) (A)
                 (A) (A) (A) (A) (A) (A) (A) (A) (A) (A) (A) (A)
                 (A) (A) (A) (A) (A) (A) (A) (A) (A) (A) (A) (A)
                 (A) (A) (A) (A) (A) (A) (A) (A) (A) (A) (A) (A)
                 (A) (A) (A) (A) (A) (A) (A) (A) (A) (A) (A) (A)
                 (A) (A) (A) (A) (A) (A) (A) (A) (A) (A) (A) (A)
                 (A) (A) (A) (A) (A) (A) (A) (A) (A) (A) (A) (A)
                 (A) (A) (A) (A) (A) (A) (A) (A) (A) (A) (A) (A)
                 (A) (A) (A) (A) (A) (A) (A) (A) (A) (A) (A) (A)
                 (A) (A) (A) (A) (A) (A) (A) (A) (A) (A) (A) (A)
                 (A) (A) (A) (A) (A) (A) (A) (A) (A) (A) (A) (A)
                 (A) (A) (A) (A) (A) (A) (A) (A) (A) (A) (A) (A)
                 (A) (A) (A) (A) (A) (A) (A) (A) (A) (A) (A) (A)
                 (A) (A) (A) (A) (A) (A) (A) (A) (A) (A) (A) (A)
                 (A) (A) (A) (A) (A) (A) (A) (A) (A) (A) (A) (A)
                 (A) (A) (A) (A) (A) (A) (A) (A) (A) (A) (A) (A)
                 (A) (A) (A) (A) (A) (A) (A) (A) (A) (A) (A) (A)
                 (A) (A) (A) (A) (A) (A) (A) (A) (A) (A) (A) (A)
                 (A) (A) (A) (A) (A) (A) (A) (A) (A) (A) (A) (A)
                 (A) (A) (A) (A) (A) (A) (A) (A) (A) (A) (A) (A)
                 (A) (A) (A) (A) (A) (A) (A) (A) (A) (A) (A) (A)
                 (A) (A) (A) (A) (A) (A) (A) (A) (A) (A) (A) (A)
                 (A) (A) (A) (A) (A) (A) (A) (A) (A) (A) (A) (A)
                 (A) (A) (A) (A) (A) (A) (A) (A) (A) (A) (A) (A)
                 (A) (A) (A) (A) (A) (A) (A) (A) (A) (A) (A) (A)
                 (A) (A) (A) (A) (A) (A) (A) (A) (A) (A) (A) (A)
                 (A) (A) (A) (A) (A) (A) (A) (A) (A) (A) (A) (A)
                 (A) (A) (A) (A) (A) (A) (A) (A) (A) (A) (A) (A)
                 (A) (A) (A) (A) (A) (A) (A) (A) (A) (A) (A) (A)
                 (A) (A) (A) (A) (A) (A) (A) (A) (A) (A) (A) (A)
                 (A) (A) (A) (A) (A) (A) (A) (A) (A) (A) (A) (A)
                 (A) (A) (A) (A) (A) (A) (A) (A) (A) (A) (A) (A)
                 (A) (A) (A) (A) (A) (A) (A) (A) (A) (A) (A) (A)
                 (A) (A) (A) (A) (A) (A) (A) (A) (A) (A) (A) (A)
                 (A) (A) (A) (A) (A) (A) (A) (A) (A) (A) (A) (A)
                 (A) (A) (A) (A) (A) (A) (A) (A) (A) (A) (A) (A)
                 (A) (A) (A) (A) (A) (A) (A) (A) (A) (A) (A) (A)
                 (A) (A) (A) (A) (A) (A) (A) (A) (A) (A)
     4 initial guesses have been made.
 Convergence on wavefunction:    0.001000000000000
 Iteration     1 Dimension     4 NMult     0 NNew      4
 CISAX will form     4 AO SS matrices at one time.
 Iteration     2 Dimension     6 NMult     4 NNew      2
 Iteration     3 Dimension     8 NMult     6 NNew      2
 Iteration     4 Dimension    10 NMult     8 NNew      2
 Iteration     5 Dimension    12 NMult    10 NNew      2
 Iteration     6 Dimension    14 NMult    12 NNew      2
 ***********************************************************************
 Excited states from <AA,BB:AA,BB> singles matrix:
 ***********************************************************************
 
 Ground to excited state transition densities written to RWF  633
 Ground to excited state transition electric dipole moments (Au):
       state          X           Y           Z        Dip. S.      Osc.
         1        -6.7234     -1.3404     -0.3303     47.1099      3.5124
 Ground to excited state transition velocity dipole moments (Au):
       state          X           Y           Z        Dip. S.      Osc.
         1         0.7226      0.1438      0.0367      0.5442      3.2438
 Ground to excited state transition magnetic dipole moments (Au):
       state          X           Y           Z
         1         0.0492     -0.0915     -0.8907
 Ground to excited state transition velocity quadrupole moments (Au):
       state          XX          YY          ZZ          XY          XZ          YZ
         1         0.6185      0.2272      0.0299      0.1107     -0.2885     -0.0222
 <0|del|b> * <b|rxdel|0> + <0|del|b> * <b|delr+rdel|0>
 Rotatory Strengths (R) in cgs (10**-40 erg-esu-cm/Gauss)
       state          XX          YY          ZZ    R(velocity)    E-M Angle
         1        -0.8706    -54.5061     -9.7358    -21.7041       90.89
 1/2[<0|r|b>*<b|rxdel|0> + (<0|rxdel|b>*<b|r|0>)*]
 Rotatory Strengths (R) in cgs (10**-40 erg-esu-cm/Gauss)
       state          XX          YY          ZZ     R(length)
         1       233.8843    -86.7058   -208.0380    -20.2865
  1/2[<0|del|b>*<b|r|0> + (<0|r|b>*<b|del|0>)*] (Au)
       state          X           Y           Z        Dip. S.   Osc.(frdel)
         1        -4.8582     -0.1928     -0.0121      5.0631      3.3754

 Excitation energies and oscillator strengths:
 
 Excited State   1:      Singlet-A      3.0433 eV  407.41 nm  f=3.5124  <S**2>=0.000
     155 ->158        -0.17366
     156 ->157         0.67870
 This state for optimization and/or second-order correction.
 Total Energy, E(TD-HF/TD-DFT) =  -1706.80158884    
 Copying the excited state density for this state as the 1-particle RhoCI density.
 SavETr:  write IOETrn=   770 NScale= 10 NData=  16 NLR=1 NState=    1 LETran=      28.

 **********************************************************************

            Population analysis using the SCF density.

 **********************************************************************

 Orbital symmetries:
       Occupied  (A) (A) (A) (A) (A) (A) (A) (A) (A) (A) (A) (A)
                 (A) (A) (A) (A) (A) (A) (A) (A) (A) (A) (A) (A)
                 (A) (A) (A) (A) (A) (A) (A) (A) (A) (A) (A) (A)
                 (A) (A) (A) (A) (A) (A) (A) (A) (A) (A) (A) (A)
                 (A) (A) (A) (A) (A) (A) (A) (A) (A) (A) (A) (A)
                 (A) (A) (A) (A) (A) (A) (A) (A) (A) (A) (A) (A)
                 (A) (A) (A) (A) (A) (A) (A) (A) (A) (A) (A) (A)
                 (A) (A) (A) (A) (A) (A) (A) (A) (A) (A) (A) (A)
                 (A) (A) (A) (A) (A) (A) (A) (A) (A) (A) (A) (A)
                 (A) (A) (A) (A) (A) (A) (A) (A) (A) (A) (A) (A)
                 (A) (A) (A) (A) (A) (A) (A) (A) (A) (A) (A) (A)
                 (A) (A) (A) (A) (A) (A) (A) (A) (A) (A) (A) (A)
                 (A) (A) (A) (A) (A) (A) (A) (A) (A) (A) (A) (A)
       Virtual   (A) (A) (A) (A) (A) (A) (A) (A) (A) (A) (A) (A)
                 (A) (A) (A) (A) (A) (A) (A) (A) (A) (A) (A) (A)
                 (A) (A) (A) (A) (A) (A) (A) (A) (A) (A) (A) (A)
                 (A) (A) (A) (A) (A) (A) (A) (A) (A) (A) (A) (A)
                 (A) (A) (A) (A) (A) (A) (A) (A) (A) (A) (A) (A)
                 (A) (A) (A) (A) (A) (A) (A) (A) (A) (A) (A) (A)
                 (A) (A) (A) (A) (A) (A) (A) (A) (A) (A) (A) (A)
                 (A) (A) (A) (A) (A) (A) (A) (A) (A) (A) (A) (A)
                 (A) (A) (A) (A) (A) (A) (A) (A) (A) (A) (A) (A)
                 (A) (A) (A) (A) (A) (A) (A) (A) (A) (A) (A) (A)
                 (A) (A) (A) (A) (A) (A) (A) (A) (A) (A) (A) (A)
                 (A) (A) (A) (A) (A) (A) (A) (A) (A) (A) (A) (A)
                 (A) (A) (A) (A) (A) (A) (A) (A) (A) (A) (A) (A)
                 (A) (A) (A) (A) (A) (A) (A) (A) (A) (A) (A) (A)
                 (A) (A) (A) (A) (A) (A) (A) (A) (A) (A) (A) (A)
                 (A) (A) (A) (A) (A) (A) (A) (A) (A) (A) (A) (A)
                 (A) (A) (A) (A) (A) (A) (A) (A) (A) (A) (A) (A)
                 (A) (A) (A) (A) (A) (A) (A) (A) (A) (A) (A) (A)
                 (A) (A) (A) (A) (A) (A) (A) (A) (A) (A) (A) (A)
                 (A) (A) (A) (A) (A) (A) (A) (A) (A) (A) (A) (A)
                 (A) (A) (A) (A) (A) (A) (A) (A) (A) (A) (A) (A)
                 (A) (A) (A) (A) (A) (A) (A) (A) (A) (A) (A) (A)
                 (A) (A) (A) (A) (A) (A) (A) (A) (A) (A) (A) (A)
                 (A) (A) (A) (A) (A) (A) (A) (A) (A) (A) (A) (A)
                 (A) (A) (A) (A) (A) (A) (A) (A) (A) (A) (A) (A)
                 (A) (A) (A) (A) (A) (A) (A) (A) (A) (A) (A) (A)
                 (A) (A) (A) (A) (A) (A) (A) (A) (A) (A) (A) (A)
                 (A) (A) (A) (A) (A) (A) (A) (A) (A) (A) (A) (A)
                 (A) (A) (A) (A) (A) (A) (A) (A) (A) (A) (A) (A)
                 (A) (A) (A) (A) (A) (A) (A) (A) (A) (A) (A) (A)
                 (A) (A) (A) (A) (A) (A) (A) (A) (A) (A) (A) (A)
                 (A) (A) (A) (A) (A) (A) (A) (A) (A) (A) (A) (A)
                 (A) (A) (A) (A) (A) (A) (A) (A) (A) (A) (A) (A)
                 (A) (A) (A) (A) (A) (A) (A) (A) (A) (A) (A) (A)
                 (A) (A) (A) (A) (A) (A) (A) (A) (A) (A) (A) (A)
                 (A) (A) (A) (A) (A) (A) (A) (A) (A) (A) (A) (A)
                 (A) (A) (A) (A) (A) (A) (A) (A) (A) (A) (A) (A)
                 (A) (A) (A) (A) (A) (A) (A) (A) (A) (A) (A) (A)
                 (A) (A) (A) (A) (A) (A) (A) (A) (A) (A) (A) (A)
                 (A) (A) (A) (A) (A) (A) (A) (A) (A) (A) (A) (A)
                 (A) (A) (A) (A) (A) (A) (A) (A) (A) (A) (A) (A)
                 (A) (A) (A) (A) (A) (A) (A) (A) (A) (A) (A) (A)
                 (A) (A) (A) (A) (A) (A) (A) (A) (A) (A) (A) (A)
                 (A) (A) (A) (A) (A) (A) (A) (A) (A) (A) (A) (A)
                 (A) (A) (A) (A) (A) (A) (A) (A) (A) (A) (A) (A)
                 (A) (A) (A) (A) (A) (A) (A) (A) (A) (A) (A) (A)
                 (A) (A) (A) (A) (A) (A) (A) (A) (A) (A) (A) (A)
                 (A) (A) (A) (A) (A) (A) (A) (A) (A) (A) (A) (A)
                 (A) (A) (A) (A) (A) (A) (A) (A) (A) (A) (A) (A)
                 (A) (A) (A) (A) (A) (A) (A) (A) (A) (A) (A) (A)
                 (A) (A) (A) (A) (A) (A) (A) (A) (A) (A) (A) (A)
                 (A) (A) (A) (A) (A) (A) (A) (A) (A) (A) (A) (A)
                 (A) (A) (A) (A) (A) (A) (A) (A) (A) (A) (A) (A)
                 (A) (A) (A) (A) (A) (A) (A) (A) (A) (A) (A) (A)
                 (A) (A) (A) (A) (A) (A) (A) (A) (A) (A) (A) (A)
                 (A) (A) (A) (A) (A) (A) (A) (A) (A) (A) (A) (A)
                 (A) (A) (A) (A) (A) (A) (A) (A) (A) (A) (A) (A)
                 (A) (A) (A) (A) (A) (A) (A) (A) (A) (A) (A) (A)
                 (A) (A) (A) (A) (A) (A) (A) (A) (A) (A) (A) (A)
                 (A) (A) (A) (A) (A) (A) (A) (A) (A) (A) (A) (A)
                 (A) (A) (A) (A) (A) (A) (A) (A) (A) (A) (A) (A)
                 (A) (A) (A) (A) (A) (A) (A) (A) (A) (A) (A) (A)
                 (A) (A) (A) (A) (A) (A) (A) (A) (A) (A)
 The electronic state is 1-A.
 Alpha  occ. eigenvalues --  -19.21207 -19.20616 -10.30444 -10.29572 -10.28291
 Alpha  occ. eigenvalues --  -10.28063 -10.28055 -10.27626 -10.27422 -10.27100
 Alpha  occ. eigenvalues --  -10.26928 -10.26872 -10.26842 -10.26755 -10.26675
 Alpha  occ. eigenvalues --  -10.26609 -10.26586 -10.26570 -10.26514 -10.26498
 Alpha  occ. eigenvalues --  -10.26474 -10.26444 -10.26425 -10.26367 -10.26177
 Alpha  occ. eigenvalues --  -10.26128 -10.25868 -10.25806 -10.25699 -10.25658
 Alpha  occ. eigenvalues --  -10.25461 -10.25318 -10.25275 -10.24927 -10.24736
 Alpha  occ. eigenvalues --  -10.24537 -10.24294 -10.24107 -10.23449 -10.23321
 Alpha  occ. eigenvalues --  -10.22734 -10.22578  -1.11883  -1.09232  -0.94141
 Alpha  occ. eigenvalues --   -0.93356  -0.92241  -0.91710  -0.90777  -0.90085
 Alpha  occ. eigenvalues --   -0.88073  -0.87040  -0.86724  -0.85770  -0.85102
 Alpha  occ. eigenvalues --   -0.83439  -0.82336  -0.81029  -0.80693  -0.78560
 Alpha  occ. eigenvalues --   -0.76855  -0.76791  -0.75914  -0.75573  -0.75397
 Alpha  occ. eigenvalues --   -0.75322  -0.75127  -0.74368  -0.74105  -0.70402
 Alpha  occ. eigenvalues --   -0.69060  -0.67744  -0.65952  -0.64758  -0.63619
 Alpha  occ. eigenvalues --   -0.62973  -0.62323  -0.61488  -0.60533  -0.60232
 Alpha  occ. eigenvalues --   -0.59416  -0.58991  -0.58831  -0.58327  -0.57195
 Alpha  occ. eigenvalues --   -0.56000  -0.55479  -0.55310  -0.54330  -0.53869
 Alpha  occ. eigenvalues --   -0.53547  -0.53403  -0.52128  -0.51955  -0.51580
 Alpha  occ. eigenvalues --   -0.50734  -0.50587  -0.49876  -0.49725  -0.49501
 Alpha  occ. eigenvalues --   -0.49238  -0.48966  -0.48752  -0.47943  -0.47652
 Alpha  occ. eigenvalues --   -0.47343  -0.47269  -0.46685  -0.46606  -0.46340
 Alpha  occ. eigenvalues --   -0.46072  -0.45591  -0.45428  -0.44889  -0.44475
 Alpha  occ. eigenvalues --   -0.44246  -0.43781  -0.43337  -0.42999  -0.42770
 Alpha  occ. eigenvalues --   -0.42475  -0.42435  -0.42303  -0.42162  -0.41972
 Alpha  occ. eigenvalues --   -0.41818  -0.41644  -0.41555  -0.40974  -0.40780
 Alpha  occ. eigenvalues --   -0.40363  -0.39539  -0.39258  -0.39147  -0.38874
 Alpha  occ. eigenvalues --   -0.38834  -0.38453  -0.38239  -0.37946  -0.37516
 Alpha  occ. eigenvalues --   -0.37364  -0.37267  -0.36767  -0.36612  -0.36225
 Alpha  occ. eigenvalues --   -0.35850  -0.34422  -0.34165  -0.32316  -0.31838
 Alpha  occ. eigenvalues --   -0.31588  -0.29767  -0.28558  -0.27245  -0.24632
 Alpha  occ. eigenvalues --   -0.21534
 Alpha virt. eigenvalues --   -0.03467   0.00528   0.03805   0.06434   0.08473
 Alpha virt. eigenvalues --    0.09554   0.09939   0.11837   0.11940   0.12349
 Alpha virt. eigenvalues --    0.12694   0.12902   0.13238   0.13727   0.13882
 Alpha virt. eigenvalues --    0.14319   0.14705   0.15225   0.15325   0.15738
 Alpha virt. eigenvalues --    0.15922   0.16158   0.16273   0.16396   0.16795
 Alpha virt. eigenvalues --    0.16846   0.16940   0.17180   0.17651   0.18043
 Alpha virt. eigenvalues --    0.18247   0.18415   0.18596   0.18659   0.18888
 Alpha virt. eigenvalues --    0.19555   0.20028   0.20126   0.20416   0.20661
 Alpha virt. eigenvalues --    0.21129   0.21532   0.21821   0.21956   0.22107
 Alpha virt. eigenvalues --    0.22722   0.23152   0.23328   0.23519   0.23815
 Alpha virt. eigenvalues --    0.23820   0.24066   0.24417   0.24940   0.25045
 Alpha virt. eigenvalues --    0.25240   0.25617   0.25766   0.25837   0.26234
 Alpha virt. eigenvalues --    0.26464   0.26914   0.27361   0.27398   0.27783
 Alpha virt. eigenvalues --    0.27876   0.28571   0.28604   0.29083   0.29214
 Alpha virt. eigenvalues --    0.29642   0.29891   0.30009   0.30025   0.30313
 Alpha virt. eigenvalues --    0.30878   0.31408   0.31585   0.31891   0.32488
 Alpha virt. eigenvalues --    0.32754   0.32985   0.33060   0.33735   0.34282
 Alpha virt. eigenvalues --    0.34741   0.36270   0.36423   0.36888   0.37464
 Alpha virt. eigenvalues --    0.38745   0.39546   0.40362   0.41082   0.42253
 Alpha virt. eigenvalues --    0.42655   0.43766   0.44116   0.45348   0.46269
 Alpha virt. eigenvalues --    0.47233   0.47902   0.48213   0.49534   0.50194
 Alpha virt. eigenvalues --    0.50671   0.51323   0.52986   0.53539   0.54528
 Alpha virt. eigenvalues --    0.54926   0.55447   0.56148   0.56635   0.56897
 Alpha virt. eigenvalues --    0.56981   0.57756   0.57969   0.58551   0.58770
 Alpha virt. eigenvalues --    0.59369   0.59530   0.59801   0.60527   0.60547
 Alpha virt. eigenvalues --    0.60785   0.61202   0.61605   0.61718   0.62079
 Alpha virt. eigenvalues --    0.62322   0.62931   0.62994   0.63416   0.63754
 Alpha virt. eigenvalues --    0.64151   0.64364   0.64933   0.65031   0.65464
 Alpha virt. eigenvalues --    0.66081   0.66303   0.66755   0.67015   0.67541
 Alpha virt. eigenvalues --    0.67776   0.67875   0.68200   0.68381   0.68671
 Alpha virt. eigenvalues --    0.69351   0.69466   0.69759   0.69981   0.70108
 Alpha virt. eigenvalues --    0.70299   0.70975   0.71346   0.71874   0.72252
 Alpha virt. eigenvalues --    0.72493   0.73207   0.73282   0.73560   0.73757
 Alpha virt. eigenvalues --    0.74230   0.74498   0.74973   0.75214   0.76057
 Alpha virt. eigenvalues --    0.76135   0.76763   0.76837   0.76944   0.77001
 Alpha virt. eigenvalues --    0.77731   0.78003   0.78074   0.78532   0.79220
 Alpha virt. eigenvalues --    0.79887   0.80108   0.80593   0.80710   0.81253
 Alpha virt. eigenvalues --    0.81446   0.82140   0.82266   0.82579   0.83036
 Alpha virt. eigenvalues --    0.83242   0.83767   0.83880   0.84067   0.84356
 Alpha virt. eigenvalues --    0.84983   0.85422   0.85491   0.85776   0.86095
 Alpha virt. eigenvalues --    0.86422   0.86886   0.87090   0.87214   0.87398
 Alpha virt. eigenvalues --    0.87704   0.87942   0.88413   0.88637   0.88927
 Alpha virt. eigenvalues --    0.89126   0.89386   0.90114   0.90385   0.90560
 Alpha virt. eigenvalues --    0.90996   0.91118   0.91170   0.91641   0.91714
 Alpha virt. eigenvalues --    0.92208   0.92277   0.92377   0.92950   0.93528
 Alpha virt. eigenvalues --    0.93559   0.93969   0.94426   0.94763   0.95198
 Alpha virt. eigenvalues --    0.95296   0.95909   0.95926   0.96433   0.96662
 Alpha virt. eigenvalues --    0.96954   0.97605   0.97730   0.97850   0.98419
 Alpha virt. eigenvalues --    0.98650   0.98836   0.99180   0.99433   0.99970
 Alpha virt. eigenvalues --    1.00384   1.01032   1.01304   1.01544   1.01801
 Alpha virt. eigenvalues --    1.02217   1.03009   1.03111   1.03708   1.03921
 Alpha virt. eigenvalues --    1.04312   1.04625   1.04729   1.05315   1.05404
 Alpha virt. eigenvalues --    1.06463   1.06565   1.06819   1.07118   1.07687
 Alpha virt. eigenvalues --    1.07995   1.08462   1.08759   1.09097   1.09703
 Alpha virt. eigenvalues --    1.10788   1.11071   1.11457   1.11947   1.12072
 Alpha virt. eigenvalues --    1.12542   1.12770   1.13157   1.13746   1.13821
 Alpha virt. eigenvalues --    1.14150   1.14567   1.14983   1.15904   1.16363
 Alpha virt. eigenvalues --    1.16669   1.17243   1.18126   1.19107   1.20125
 Alpha virt. eigenvalues --    1.21464   1.23218   1.24501   1.25203   1.26080
 Alpha virt. eigenvalues --    1.26887   1.27618   1.28238   1.29261   1.30297
 Alpha virt. eigenvalues --    1.32705   1.33275   1.33879   1.34619   1.35161
 Alpha virt. eigenvalues --    1.35846   1.36134   1.36548   1.36944   1.37591
 Alpha virt. eigenvalues --    1.37936   1.38635   1.38841   1.39224   1.40434
 Alpha virt. eigenvalues --    1.41028   1.41623   1.42314   1.42450   1.43136
 Alpha virt. eigenvalues --    1.43791   1.44347   1.44792   1.45127   1.45949
 Alpha virt. eigenvalues --    1.46617   1.47066   1.47603   1.48251   1.48774
 Alpha virt. eigenvalues --    1.49975   1.50116   1.52223   1.52550   1.52963
 Alpha virt. eigenvalues --    1.54980   1.55617   1.56823   1.57374   1.58567
 Alpha virt. eigenvalues --    1.58746   1.58779   1.59423   1.59886   1.60930
 Alpha virt. eigenvalues --    1.61134   1.61255   1.61642   1.62559   1.62902
 Alpha virt. eigenvalues --    1.63509   1.64247   1.65289   1.65714   1.66289
 Alpha virt. eigenvalues --    1.66391   1.67112   1.68369   1.68635   1.70008
 Alpha virt. eigenvalues --    1.71447   1.72150   1.72931   1.73861   1.74504
 Alpha virt. eigenvalues --    1.76578   1.76967   1.77840   1.78506   1.79048
 Alpha virt. eigenvalues --    1.79433   1.80798   1.81023   1.82043   1.82274
 Alpha virt. eigenvalues --    1.83262   1.83461   1.83729   1.83834   1.84485
 Alpha virt. eigenvalues --    1.84964   1.85392   1.85723   1.85845   1.86077
 Alpha virt. eigenvalues --    1.86739   1.87071   1.87642   1.87810   1.88709
 Alpha virt. eigenvalues --    1.88931   1.89525   1.89836   1.90499   1.90906
 Alpha virt. eigenvalues --    1.91420   1.91583   1.91883   1.92004   1.92513
 Alpha virt. eigenvalues --    1.92727   1.93459   1.93565   1.93831   1.94850
 Alpha virt. eigenvalues --    1.95005   1.95127   1.95494   1.96071   1.96647
 Alpha virt. eigenvalues --    1.96766   1.97093   1.97465   1.98334   1.98581
 Alpha virt. eigenvalues --    1.98985   1.99551   1.99956   2.00189   2.00351
 Alpha virt. eigenvalues --    2.00754   2.01228   2.01932   2.02135   2.02547
 Alpha virt. eigenvalues --    2.03238   2.03501   2.04777   2.04979   2.05308
 Alpha virt. eigenvalues --    2.05541   2.05839   2.06210   2.07297   2.07714
 Alpha virt. eigenvalues --    2.08038   2.08134   2.08809   2.09268   2.10322
 Alpha virt. eigenvalues --    2.10613   2.11117   2.11315   2.11634   2.11996
 Alpha virt. eigenvalues --    2.12383   2.12694   2.13354   2.14142   2.14227
 Alpha virt. eigenvalues --    2.14295   2.15061   2.15531   2.15948   2.16228
 Alpha virt. eigenvalues --    2.16357   2.16844   2.17021   2.17351   2.17964
 Alpha virt. eigenvalues --    2.18165   2.18596   2.18742   2.19507   2.20110
 Alpha virt. eigenvalues --    2.20536   2.20835   2.20953   2.22237   2.22400
 Alpha virt. eigenvalues --    2.22775   2.23405   2.23645   2.23749   2.24654
 Alpha virt. eigenvalues --    2.25748   2.26239   2.26417   2.26696   2.27908
 Alpha virt. eigenvalues --    2.28301   2.29124   2.29291   2.29805   2.29933
 Alpha virt. eigenvalues --    2.30273   2.30697   2.31447   2.32781   2.32909
 Alpha virt. eigenvalues --    2.33216   2.33977   2.34318   2.35394   2.35782
 Alpha virt. eigenvalues --    2.35920   2.36809   2.36997   2.37457   2.37850
 Alpha virt. eigenvalues --    2.38356   2.38765   2.38907   2.39709   2.40119
 Alpha virt. eigenvalues --    2.40438   2.40606   2.41178   2.41944   2.42367
 Alpha virt. eigenvalues --    2.42964   2.43097   2.43393   2.43756   2.44033
 Alpha virt. eigenvalues --    2.44283   2.44486   2.46070   2.46151   2.46865
 Alpha virt. eigenvalues --    2.47016   2.47235   2.47379   2.47760   2.48236
 Alpha virt. eigenvalues --    2.48712   2.49383   2.50386   2.50702   2.50877
 Alpha virt. eigenvalues --    2.51254   2.51460   2.52622   2.52789   2.53613
 Alpha virt. eigenvalues --    2.54368   2.54758   2.55598   2.55922   2.56070
 Alpha virt. eigenvalues --    2.56824   2.57456   2.57617   2.57934   2.58594
 Alpha virt. eigenvalues --    2.58836   2.60133   2.60326   2.61083   2.61523
 Alpha virt. eigenvalues --    2.62027   2.62144   2.62641   2.62725   2.62823
 Alpha virt. eigenvalues --    2.63597   2.63742   2.64688   2.64976   2.65465
 Alpha virt. eigenvalues --    2.66425   2.66558   2.66879   2.67363   2.67549
 Alpha virt. eigenvalues --    2.68180   2.68810   2.69766   2.70027   2.70447
 Alpha virt. eigenvalues --    2.70675   2.71283   2.71725   2.72387   2.72610
 Alpha virt. eigenvalues --    2.73071   2.73626   2.74456   2.74868   2.75182
 Alpha virt. eigenvalues --    2.75303   2.75846   2.75969   2.76264   2.77259
 Alpha virt. eigenvalues --    2.77525   2.77859   2.78059   2.78459   2.79057
 Alpha virt. eigenvalues --    2.79783   2.79824   2.80254   2.80899   2.81024
 Alpha virt. eigenvalues --    2.81553   2.82185   2.82811   2.83437   2.83844
 Alpha virt. eigenvalues --    2.84392   2.85204   2.86048   2.86311   2.86664
 Alpha virt. eigenvalues --    2.86890   2.87134   2.88099   2.88454   2.88490
 Alpha virt. eigenvalues --    2.89421   2.89780   2.89937   2.90336   2.91535
 Alpha virt. eigenvalues --    2.91771   2.92376   2.93322   2.93565   2.94590
 Alpha virt. eigenvalues --    2.94830   2.95138   2.95890   2.96037   2.97009
 Alpha virt. eigenvalues --    2.98336   2.98985   2.99369   2.99959   3.00910
 Alpha virt. eigenvalues --    3.00965   3.02148   3.02521   3.03246   3.03739
 Alpha virt. eigenvalues --    3.04480   3.05006   3.05225   3.05706   3.06381
 Alpha virt. eigenvalues --    3.07457   3.07979   3.08439   3.08725   3.10935
 Alpha virt. eigenvalues --    3.11403   3.12703   3.12941   3.13154   3.14526
 Alpha virt. eigenvalues --    3.14748   3.14819   3.16601   3.17640   3.17944
 Alpha virt. eigenvalues --    3.18721   3.21282   3.22513   3.23336   3.25113
 Alpha virt. eigenvalues --    3.26630   3.26690   3.29493   3.29694   3.30127
 Alpha virt. eigenvalues --    3.30855   3.34763   3.35937   3.36444   3.36866
 Alpha virt. eigenvalues --    3.37237   3.37718   3.39082   3.39917   3.41052
 Alpha virt. eigenvalues --    3.41312   3.41758   3.42046   3.44919   3.46026
 Alpha virt. eigenvalues --    3.46235   3.47331   3.47549   3.50683   3.51277
 Alpha virt. eigenvalues --    3.51953   3.52107   3.53353   3.55162   3.55721
 Alpha virt. eigenvalues --    3.56757   3.57346   3.57600   3.58835   3.60393
 Alpha virt. eigenvalues --    3.61894   3.62751   3.63993   3.64021   3.68879
 Alpha virt. eigenvalues --    3.70632   3.71818   3.74461   3.75097   3.75432
 Alpha virt. eigenvalues --    3.77258   3.78620   3.79452   3.79965   3.80411
 Alpha virt. eigenvalues --    3.90864   3.99891   4.10940   4.17685   4.19196
 Alpha virt. eigenvalues --    4.19811   4.21109   4.23165   4.26205   4.26476
 Alpha virt. eigenvalues --    4.27682   4.30329   4.31189   4.32250   4.38354
 Alpha virt. eigenvalues --    4.40328   4.41678   4.42728   4.43735   4.46089
 Alpha virt. eigenvalues --    4.47335   4.49681   4.51019   4.54281   4.54538
 Alpha virt. eigenvalues --    4.55269   4.55964   4.57131   4.59840   4.61082
 Alpha virt. eigenvalues --    4.63743   4.66028   4.67253   4.70332   4.71907
 Alpha virt. eigenvalues --    4.74050   4.75708   4.79465   4.81140   4.84332
 Alpha virt. eigenvalues --    4.86191   4.87436   4.89289   4.95527
          Condensed to atoms (all electrons):
 Mulliken charges:
               1
     1  O   -0.550310
     2  O   -0.539953
     3  C    0.006437
     4  C   -0.022083
     5  C   -0.190134
     6  C   -0.175693
     7  C    0.145554
     8  C    0.165832
     9  C    0.048568
    10  C    0.044012
    11  C   -0.195708
    12  C   -0.222014
    13  C    0.069404
    14  C    0.034816
    15  C   -0.285633
    16  C   -0.300740
    17  C   -0.305822
    18  C   -0.282737
    19  C   -0.125326
    20  C   -0.122596
    21  C   -0.383058
    22  C   -0.346324
    23  C   -0.071615
    24  C   -0.052926
    25  C    0.067826
    26  C    0.101972
    27  C   -0.356924
    28  C   -0.385245
    29  C   -0.114039
    30  C   -0.138224
    31  C   -0.074839
    32  C   -0.101407
    33  C   -0.115058
    34  C   -0.090834
    35  C    0.081680
    36  C    0.111454
    37  C   -0.351280
    38  C   -0.380187
    39  C   -0.097151
    40  C   -0.116507
    41  C   -0.074633
    42  C   -0.083941
    43  H    0.102417
    44  H    0.058959
    45  H    0.082372
    46  H    0.084257
    47  H    0.078514
    48  H    0.073263
    49  H    0.134009
    50  H    0.097216
    51  H    0.130650
    52  H    0.111690
    53  H    0.077976
    54  H    0.099858
    55  H    0.113639
    56  H    0.062458
    57  H    0.114439
    58  H    0.097997
    59  H    0.088216
    60  H    0.119797
    61  H    0.053201
    62  H    0.069117
    63  H    0.111645
    64  H    0.115695
    65  H    0.090310
    66  H    0.064307
    67  H    0.109156
    68  H    0.109280
    69  H    0.102504
    70  H    0.112697
    71  H    0.121555
    72  H    0.100841
    73  H    0.301538
    74  H    0.293824
    75  H    0.077628
    76  H    0.080189
    77  H    0.112201
    78  H    0.113965
    79  H    0.120756
    80  H    0.125128
    81  H    0.120005
    82  H    0.104038
    83  H    0.077176
    84  H    0.084098
    85  H    0.073756
    86  H    0.078647
    87  H    0.072592
    88  H    0.071660
    89  H    0.097896
    90  H    0.100168
    91  H    0.140140
    92  H    0.109571
    93  H    0.143336
    94  H    0.087738
    95  H    0.052721
    96  H    0.076257
    97  H    0.079445
    98  H    0.092881
 Sum of Mulliken charges =  -0.00000
 Mulliken charges with hydrogens summed into heavy atoms:
               1
     1  O   -0.248772
     2  O   -0.246129
     3  C    0.006437
     4  C   -0.022083
     5  C   -0.028758
     6  C   -0.009064
     7  C    0.224068
     8  C    0.239095
     9  C    0.048568
    10  C    0.044012
    11  C    0.035516
    12  C    0.020327
    13  C    0.069404
    14  C    0.034816
    15  C    0.005840
    16  C   -0.025846
    17  C   -0.044609
    18  C    0.013721
    19  C   -0.035016
    20  C   -0.058289
    21  C   -0.062119
    22  C   -0.011231
    23  C    0.006013
    24  C    0.027263
    25  C    0.067826
    26  C    0.101972
    27  C   -0.010001
    28  C   -0.036075
    29  C   -0.036863
    30  C   -0.054127
    31  C   -0.001083
    32  C   -0.022760
    33  C   -0.042466
    34  C   -0.019174
    35  C    0.081680
    36  C    0.111454
    37  C   -0.013077
    38  C   -0.039541
    39  C   -0.044431
    40  C   -0.040250
    41  C    0.004812
    42  C    0.008939
 Electronic spatial extent (au):  <R**2>=         111067.5056
 Charge=             -0.0000 electrons
 Dipole moment (field-independent basis, Debye):
    X=             -0.3093    Y=             -0.5711    Z=              1.6879  Tot=              1.8086
 Quadrupole moment (field-independent basis, Debye-Ang):
   XX=           -270.0038   YY=           -243.0878   ZZ=           -261.5560
   XY=              0.9590   XZ=             -0.0890   YZ=              1.3409
 Traceless Quadrupole moment (field-independent basis, Debye-Ang):
   XX=            -11.7879   YY=             15.1281   ZZ=             -3.3401
   XY=              0.9590   XZ=             -0.0890   YZ=              1.3409
 Octapole moment (field-independent basis, Debye-Ang**2):
  XXX=           -511.7553  YYY=              1.8568  ZZZ=             -7.1730  XYY=            118.0148
  XXY=           -132.3533  XXZ=            420.7678  XZZ=            -26.0326  YZZ=              9.0996
  YYZ=             12.1109  XYZ=            -73.9434
 Hexadecapole moment (field-independent basis, Debye-Ang**3):
 XXXX=        -149664.8180 YYYY=          -4398.4241 ZZZZ=          -2047.9997 XXXY=           -894.1449
 XXXZ=           -947.3373 YYYX=           -458.4156 YYYZ=             -7.6781 ZZZX=           -148.5179
 ZZZY=             37.5820 XXYY=         -23768.8846 XXZZ=         -24195.0674 YYZZ=          -1075.3378
 XXYZ=           -158.9107 YYXZ=             87.4094 ZZXY=           -205.0000
 N-N= 3.982528687196D+03 E-N=-1.192095522150D+04  KE= 1.691303691387D+03
 1\1\GINC-PADAWAN\SP\RCAM-B3LYP TD-FC\6-31G(d,p)\C40H56O2\PADAWAN\10-Ju
 l-2019\0\\# td=(NStates=1) CAM-B3LYP/6-31G(d,p)\\TD\\0,1\O,0,14.808459
 0649,-2.1458920603,-0.4381226653\O,0,-14.7513717342,1.9498868447,0.622
 6113551\C,0,11.5060839024,-1.0753681709,1.1824916102\C,0,-12.308858517
 9,-0.9037129313,0.7790234243\C,0,12.9650352355,-1.4411171498,1.1211796
 9\C,0,-13.6572583348,-0.2215383138,0.7594948455\C,0,13.3858705811,-1.9
 166471918,-0.2674716362\C,0,-13.5544177818,1.3093937374,0.7953713211\C
 ,0,10.9558541114,-0.2977639925,-0.0968239284\C,0,-11.2702641274,-0.262
 1972487,-0.1836391179\C,0,13.0014643654,-0.986269384,-1.4365145245\C,0
 ,-12.794850245,1.6979977768,-0.4859156336\C,0,11.6161163586,-0.2606664
 397,-1.2631748335\C,0,-11.5569692869,0.8484511681,-0.809000439\C,0,11.
 2545061776,-0.0923083889,2.398520293\C,0,10.608340275,-2.2438348646,1.
 5044385639\C,0,-11.6557777718,-0.780209849,2.2198105611\C,0,-12.480828
 7849,-2.4012555686,0.4023321372\C,0,9.6046152875,0.3474857855,0.150301
 7102\C,0,-10.0612174887,-0.9845525403,-0.3652752085\C,0,11.173410106,0
 .4118456495,-2.4714813551\C,0,-10.7279452335,1.4519655806,-1.916870994
 1\C,0,9.3615661236,1.5885122891,-0.0110064746\C,0,-8.9274032253,-0.498
 4834053,-0.2381448605\C,0,8.0878947755,2.2046001999,0.1976054295\C,0,-
 7.6789330353,-1.2842327564,-0.4935146835\C,0,8.1584863296,3.6881270176
 ,0.5393753035\C,0,-7.8208031863,-2.6708568338,-0.8916993449\C,0,6.9331
 787249,1.6152015141,-0.0684268487\C,0,-6.4420560086,-0.638509326,-0.31
 26642724\C,0,5.593149867,2.030300737,0.1761625323\C,0,-5.0531864406,-1
 .2061304891,-0.5643586099\C,0,4.464820413,1.3130067146,0.0092252935\C,
 0,-3.9918346035,-0.4460208082,-0.4105483848\C,0,3.0470573107,1.6798985
 878,0.187260391\C,0,-2.5919429583,-0.8528096111,-0.4793555956\C,0,2.79
 6049886,3.1696064095,0.5579185009\C,0,-2.4327187659,-2.2511124133,-0.9
 092619662\C,0,2.0661061856,0.7302401879,-0.0798571107\C,0,-1.619253248
 3,0.0927589818,-0.2049523222\C,0,0.6060477738,0.8069754654,0.171383018
 3\C,0,-0.213580227,-0.1326253676,-0.1459222322\H,0,13.5458638584,-0.51
 26647016,1.3676516032\H,0,13.044769713,-2.5607866598,1.7250426363\H,0,
 -14.2503878158,-0.7291930763,1.3959768037\H,0,-14.0755589229,-0.453902
 3132,-0.2204936694\H,0,12.7981550175,-2.8568204251,-0.2732153865\H,0,-
 13.0211175728,1.5820427223,1.6902785009\H,0,13.6591768497,-0.256158335
 9,-1.4544613301\H,0,13.080639557,-1.7460468318,-2.394880164\H,0,-13.44
 886043,1.6679881198,-1.2298009131\H,0,-12.5706456716,2.7195840224,-0.2
 529021732\H,0,11.7828969097,-0.6138621123,3.2927039314\H,0,10.12804866
 99,-0.1376432744,2.6959984808\H,0,11.7431535854,0.7601457475,2.3797171
 067\H,0,10.4625152545,-3.1336339435,0.6253279188\H,0,10.9235132683,-2.
 8786027774,2.3083507591\H,0,9.4705330543,-1.983679361,1.5978747305\H,0
 ,-11.6679536954,0.2713427053,2.8297168647\H,0,-10.6350280118,-1.069284
 0834,2.2117471787\H,0,-12.1451456736,-1.7038612911,2.9438869847\H,0,-1
 3.5489046715,-2.8996012121,0.8659211011\H,0,-11.5855616042,-2.76109813
 78,0.95284034\H,0,-12.6069610541,-2.297580066,-0.715830057\H,0,8.74771
 65957,-0.2117995001,0.7480489889\H,0,-9.8878685189,-2.1544691709,-0.62
 21118442\H,0,10.076140033,0.8836184597,-2.5588005831\H,0,11.6795963946
 ,1.4211164025,-2.6467943934\H,0,11.3784020752,-0.1273032174,-3.4966267
 927\H,0,-11.4140324102,1.8872219512,-2.5033318262\H,0,-9.9994754865,0.
 890989736,-2.2995445605\H,0,-10.1304447995,2.3468532983,-1.6534589419\
 H,0,15.0126178148,-2.897518657,0.0881307061\H,0,-15.3461140464,1.85696
 06101,1.3008982948\H,0,10.2907745595,2.2966229662,-0.3545247675\H,0,-8
 .9610328003,0.5428363816,0.0866238494\H,0,8.6561684788,4.1392637793,-0
 .3494812511\H,0,7.3584692359,4.2013955485,0.6624220752\H,0,8.695484258
 4,3.9194948364,1.3838314011\H,0,-8.6777048005,-3.219938923,-0.36256209
 52\H,0,-8.1064063966,-2.6363426484,-2.0579021202\H,0,-6.8035792069,-3.
 2866123133,-0.728149607\H,0,6.9008917522,0.5986236053,-0.4912425163\H,
 0,-6.3602162836,0.410780918,-0.0390562826\H,0,5.3925286369,2.925907738
 7,0.6907613311\H,0,-4.8965934793,-2.3164229494,-0.6953969397\H,0,4.573
 140413,0.330191265,-0.4218105921\H,0,-4.0331388179,0.6074658635,-0.102
 7774817\H,0,3.0533931243,3.1970237443,1.8166878698\H,0,1.7197086239,3.
 5668053514,0.371809589\H,0,3.3075647785,3.7403518691,-0.0676772637\H,0
 ,-3.08153029,-2.9895561027,-0.2598190259\H,0,-2.6380633143,-2.36118723
 88,-1.9390578728\H,0,-1.3414509441,-2.585098685,-0.673100346\H,0,2.258
 4530033,-0.1525939105,-0.3275706611\H,0,-2.1427336744,1.0176216801,0.0
 532787149\H,0,0.4044061876,1.8886215681,0.5236881638\H,0,0.0087036404,
 -1.2160915593,-0.3535429383\\Version=ES64L-G16RevA.03\State=1-A\HF=-17
 06.9134266\RMSD=8.905e-09\PG=C01 [X(C40H56O2)]\\@


 THE PROMISED LAND ALWAYS LIES ON THE OTHER SIDE OF A WILDERNESS.

                         -- HAVELOCK ELLIS
 Job cpu time:       0 days  5 hours 41 minutes 38.1 seconds.
 Elapsed time:       0 days  1 hours 25 minutes 52.6 seconds.
 File lengths (MBytes):  RWF=   3127 Int=      0 D2E=      0 Chk=     84 Scr=      1
 Normal termination of Gaussian 16 at Wed Jul 10 09:59:03 2019.
