 Entering Gaussian System, Link 0=g16
 Input=Geometria-334-.com
 Output=Geometria-334-.log
 Initial command:
 /usr/local/g16/l1.exe "/home/padawan/israel-mol/zeaxanthin/spectra/abs/Gau-822.inp" -scrdir="/home/padawan/israel-mol/zeaxanthin/spectra/abs/"
 Entering Link 1 = /usr/local/g16/l1.exe PID=       824.
  
 Copyright (c) 1988,1990,1992,1993,1995,1998,2003,2009,2016,
            Gaussian, Inc.  All Rights Reserved.
  
 This is part of the Gaussian(R) 16 program.  It is based on
 the Gaussian(R) 09 system (copyright 2009, Gaussian, Inc.),
 the Gaussian(R) 03 system (copyright 2003, Gaussian, Inc.),
 the Gaussian(R) 98 system (copyright 1998, Gaussian, Inc.),
 the Gaussian(R) 94 system (copyright 1995, Gaussian, Inc.),
 the Gaussian 92(TM) system (copyright 1992, Gaussian, Inc.),
 the Gaussian 90(TM) system (copyright 1990, Gaussian, Inc.),
 the Gaussian 88(TM) system (copyright 1988, Gaussian, Inc.),
 the Gaussian 86(TM) system (copyright 1986, Carnegie Mellon
 University), and the Gaussian 82(TM) system (copyright 1983,
 Carnegie Mellon University). Gaussian is a federally registered
 trademark of Gaussian, Inc.
  
 This software contains proprietary and confidential information,
 including trade secrets, belonging to Gaussian, Inc.
  
 This software is provided under written license and may be
 used, copied, transmitted, or stored only in accord with that
 written license.
  
 The following legend is applicable only to US Government
 contracts under FAR:
  
                    RESTRICTED RIGHTS LEGEND
  
 Use, reproduction and disclosure by the US Government is
 subject to restrictions as set forth in subparagraphs (a)
 and (c) of the Commercial Computer Software - Restricted
 Rights clause in FAR 52.227-19.
  
 Gaussian, Inc.
 340 Quinnipiac St., Bldg. 40, Wallingford CT 06492
  
  
 ---------------------------------------------------------------
 Warning -- This program may not be used in any manner that
 competes with the business of Gaussian, Inc. or will provide
 assistance to any competitor of Gaussian, Inc.  The licensee
 of this program is prohibited from giving any competitor of
 Gaussian, Inc. access to this program.  By using this program,
 the user acknowledges that Gaussian, Inc. is engaged in the
 business of creating and licensing software in the field of
 computational chemistry and represents and warrants to the
 licensee that it is not a competitor of Gaussian, Inc. and that
 it will not use this program in any manner prohibited above.
 ---------------------------------------------------------------
  

 Cite this work as:
 Gaussian 16, Revision A.03,
 M. J. Frisch, G. W. Trucks, H. B. Schlegel, G. E. Scuseria, 
 M. A. Robb, J. R. Cheeseman, G. Scalmani, V. Barone, 
 G. A. Petersson, H. Nakatsuji, X. Li, M. Caricato, A. V. Marenich, 
 J. Bloino, B. G. Janesko, R. Gomperts, B. Mennucci, H. P. Hratchian, 
 J. V. Ortiz, A. F. Izmaylov, J. L. Sonnenberg, D. Williams-Young, 
 F. Ding, F. Lipparini, F. Egidi, J. Goings, B. Peng, A. Petrone, 
 T. Henderson, D. Ranasinghe, V. G. Zakrzewski, J. Gao, N. Rega, 
 G. Zheng, W. Liang, M. Hada, M. Ehara, K. Toyota, R. Fukuda, 
 J. Hasegawa, M. Ishida, T. Nakajima, Y. Honda, O. Kitao, H. Nakai, 
 T. Vreven, K. Throssell, J. A. Montgomery, Jr., J. E. Peralta, 
 F. Ogliaro, M. J. Bearpark, J. J. Heyd, E. N. Brothers, K. N. Kudin, 
 V. N. Staroverov, T. A. Keith, R. Kobayashi, J. Normand, 
 K. Raghavachari, A. P. Rendell, J. C. Burant, S. S. Iyengar, 
 J. Tomasi, M. Cossi, J. M. Millam, M. Klene, C. Adamo, R. Cammi, 
 J. W. Ochterski, R. L. Martin, K. Morokuma, O. Farkas, 
 J. B. Foresman, and D. J. Fox, Gaussian, Inc., Wallingford CT, 2016.
 
 ******************************************
 Gaussian 16:  ES64L-G16RevA.03 25-Dec-2016
                 6-Jul-2019 
 ******************************************
 %nproc=4
 Will use up to    4 processors via shared memory.
 %Mem=2GB
 -------------------------------------
 # td=(NStates=1) CAM-B3LYP/6-31G(d,p)
 -------------------------------------
 1/38=1,172=1/1;
 2/12=2,17=6,18=5,40=1/2;
 3/5=1,6=6,7=101,11=9,25=1,30=1,74=-40/1,2,3,8;
 4//1;
 5/5=2,38=5/2;
 8/6=1,10=2,108=1/1;
 9/41=1,42=1,70=2/14;
 6/7=2,8=2,9=2,10=2/1;
 99/5=1,9=1/99;
 --
 TD
 --
 Symbolic Z-matrix:
 Charge =  0 Multiplicity = 1
 8                     14.8344  -2.15874  -0.42181 
 8                    -14.76432   2.10563   0.94504 
 6                     11.59182  -1.0367    1.33755 
 6                    -12.27291  -0.90203   0.76424 
 6                     13.17698  -1.3414    1.14674 
 6                    -13.54614  -0.16762   0.77616 
 6                     13.4824  -1.85148  -0.17969 
 6                    -13.53287   1.36424   0.88443 
 6                     11.02733  -0.21338   0.00557 
 6                    -11.40457  -0.27636  -0.33748 
 6                     13.1344  -0.79388  -1.29999 
 6                    -12.9009   1.66273  -0.4299 
 6                     11.69906  -0.24384  -1.11731 
 6                    -11.54816   0.96299  -0.79714 
 6                     11.44011  -0.20763   2.53272 
 6                     10.65585  -2.26432   1.29663 
 6                    -11.57775  -0.90986   2.10126 
 6                    -12.6575  -2.29315   0.31039 
 6                     9.6457    0.30688   0.12091 
 6                    -10.11844  -1.12571  -0.44902 
 6                     11.14294   0.38129  -2.41613 
 6                    -10.76279   1.49583  -1.97421 
 6                     9.34897   1.54835  -0.16063 
 6                    -8.86754  -0.59003  -0.28576 
 6                     8.06987   2.14637   0.09238 
 6                    -7.65946  -1.35048  -0.50204 
 6                     8.09112   3.58835   0.36219 
 6                    -7.82357  -2.73693  -0.9717 
 6                     6.84494   1.53634  -0.04765 
 6                    -6.46501  -0.68683  -0.29293 
 6                     5.53967   1.88866   0.07438 
 6                    -5.11629  -1.20471  -0.46639 
 6                     4.38008   1.19531  -0.08414 
 6                    -3.99787  -0.412    -0.19534 
 6                     2.97885   1.65058   0.07345 
 6                    -2.68062  -0.76775  -0.52032 
 6                     2.73658   3.10517   0.67049 
 6                    -2.42561  -2.26391  -0.7994 
 6                     2.0332    0.62392  -0.06209 
 6                    -1.68848   0.15044  -0.2554 
 6                     0.58638   0.92035  -0.02941 
 6                    -0.34049  -0.00542  -0.33935 
 1                     13.60052  -0.34191   1.25091 
 1                     13.3273  -2.10914   1.88922 
 1                    -14.32795  -0.47756   1.52074 
 1                    -13.87699  -0.26553  -0.20994 
 1                     12.6403  -2.7381   -0.26384 
 1                    -12.85121   1.66491   1.82138 
 1                     13.97593  -0.08681  -1.18554 
 1                     13.40014  -1.14894  -2.38508 
 1                    -13.40372   1.47121  -1.37778 
 1                    -12.66239   2.72491  -0.41079 
 1                     11.91275  -0.59567   3.47771 
 1                     10.36052   0.02227   2.63723 
 1                     11.76109   0.90967   2.43948 
 1                     10.80555  -2.95873   0.44403 
 1                     11.03161  -2.88638   2.08673 
 1                     9.56587  -1.94      1.58923 
 1                    -11.50855   0.27487   2.21588 
 1                    -10.56817  -1.46895   1.94109 
 1                    -12.08007  -1.449     3.05513 
 1                    -13.48722  -2.88705   0.8297 
 1                    -11.76175  -3.06823   0.16362 
 1                    -13.14838  -2.14499  -0.81672 
 1                     8.90285  -0.28439   0.4418 
 1                    -10.07241  -2.16628  -0.78204 
 1                     10.0359   0.4663   -2.43788 
 1                     11.55122   1.40426  -2.51964 
 1                     11.60059  -0.29116  -3.26455 
 1                    -11.43274   1.93666  -2.71839 
 1                    -10.03793   0.72845  -2.29728 
 1                    -10.23168   2.37685  -1.48677 
 1                     14.80415  -2.97064   0.14307 
 1                    -14.94919   2.05089   1.90611 
 1                     9.97403   2.17526  -0.82356 
 1                    -8.75044   0.31952   0.08444 
 1                     8.73196   4.13428  -0.3656 
 1                     7.06495   4.13557   0.43526 
 1                     8.50565   3.77096   1.34948 
 1                    -8.53973  -3.20064  -0.20387 
 1                    -8.20628  -2.84703  -1.92412 
 1                    -6.90301  -3.3097   -0.67099 
 1                     6.92437   0.56989  -0.25808 
 1                    -6.61087   0.35467   0.16155 
 1                     5.33875   2.83544   0.28932 
 1                    -4.67185  -2.12886  -0.63116 
 1                     4.61678   0.09968  -0.22868 
 1                    -4.21565   0.50287   0.13027 
 1                     3.48065   3.49342   1.41227 
 1                     1.8281    3.09709   1.09041 
 1                     2.89414   3.73217  -0.10774 
 1                    -2.81778  -2.80945   0.10851 
 1                    -3.08233  -2.64124  -1.71191 
 1                    -1.42329  -2.43832  -0.8414 
 1                     2.24037  -0.26913  -0.38805 
 1                    -1.85983   1.05229   0.0236 
 1                     0.13832   1.87603   0.41809 
 1                     0.00512  -0.92161  -0.91846 
 
 Stoichiometry    C40H56O2
 Framework group  C1[X(C40H56O2)]
 Deg. of freedom   288
 Full point group                 C1      NOp   1
 Largest Abelian subgroup         C1      NOp   1
 Largest concise Abelian subgroup C1      NOp   1
                         Standard orientation:                         
 ---------------------------------------------------------------------
 Center     Atomic      Atomic             Coordinates (Angstroms)
 Number     Number       Type             X           Y           Z
 ---------------------------------------------------------------------
      1          8           0       14.836936   -2.163321   -0.374404
      2          8           0      -14.762690    2.122822    0.901854
      3          6           0       11.595155   -0.996700    1.357209
      4          6           0      -12.270059   -0.887488    0.798512
      5          6           0       13.180304   -1.305632    1.173309
      6          6           0      -13.543604   -0.153569    0.792024
      7          6           0       13.484976   -1.850367   -0.139451
      8          6           0      -13.530943    1.380620    0.859875
      9          6           0       11.029305   -0.209008    0.004416
     10          6           0      -11.402811   -0.290695   -0.319975
     11          6           0       13.135666   -0.822812   -1.286972
     12          6           0      -12.900087    1.644643   -0.462341
     13          6           0       11.700220   -0.268773   -1.117772
     14          6           0      -11.547301    0.936049   -0.812028
     15          6           0       11.443958   -0.136478    2.530233
     16          6           0       10.659702   -2.225369    1.349364
     17          6           0      -11.573900   -0.859775    2.134747
     18          6           0      -12.654349   -2.290255    0.381776
     19          6           0        9.647525    0.313512    0.107046
     20          6           0      -10.116386   -1.142132   -0.410058
     21          6           0       11.142849    0.321674   -2.432194
     22          6           0      -10.763044    1.438016   -2.003321
     23          6           0        9.350031    1.546998   -0.206894
     24          6           0       -8.865601   -0.601801   -0.261910
     25          6           0        8.070848    2.150933    0.031235
     26          6           0       -7.657343   -1.367162   -0.458977
     27          6           0        8.091643    3.599525    0.262922
     28          6           0       -7.821177   -2.765584   -0.891810
     29          6           0        6.846087    1.536895   -0.091756
     30          6           0       -6.463035   -0.697721   -0.268337
     31          6           0        5.540753    1.891738    0.021935
     32          6           0       -5.114215   -1.219407   -0.429099
     33          6           0        4.381356    1.193959   -0.117389
     34          6           0       -3.995945   -0.419342   -0.179876
     35          6           0        2.980037    1.652610    0.029204
     36          6           0       -2.678782   -0.782969   -0.496360
     37          6           0        2.737556    3.122330    0.587881
     38          6           0       -2.423300   -2.285858   -0.736103
     39          6           0        2.034752    0.622330   -0.078512
     40          6           0       -1.686859    0.142318   -0.256477
     41          6           0        0.587816    0.918891   -0.052569
     42          6           0       -0.338864   -0.015126   -0.337308
     43          1           0       13.603473   -0.303562    1.250778
     44          1           0       13.331522   -2.053475    1.935649
     45          1           0      -14.324720   -0.444109    1.545105
     46          1           0      -13.875142   -0.277579   -0.190903
     47          1           0       12.643213   -2.739259   -0.199571
     48          1           0      -12.848730    1.706177    1.788063
     49          1           0       13.976962   -0.112610   -1.191835
     50          1           0       13.400766   -1.206231   -2.362525
     51          1           0      -13.403518    1.427983   -1.404461
     52          1           0      -12.662046    2.707061   -0.471410
     53          1           0       11.917469   -0.499273    3.484765
     54          1           0       10.364340    0.095633    2.629458
     55          1           0       11.764356    0.978115    2.407335
     56          1           0       10.809088   -2.941944    0.515252
     57          1           0       11.036337   -2.826233    2.155303
     58          1           0        9.569800   -1.893928    1.634141
     59          1           0      -11.505148    0.327600    2.218046
     60          1           0      -10.564188   -1.422458    1.988610
     61          1           0      -12.075269   -1.373797    3.102873
     62          1           0      -13.483418   -2.870614    0.917177
     63          1           0      -11.758361   -3.068541    0.254809
     64          1           0      -13.146129   -2.172065   -0.748481
     65          1           0        8.905182   -0.269414    0.443967
     66          1           0      -10.070127   -2.191102   -0.715565
     67          1           0       10.035754    0.405598   -2.455347
     68          1           0       11.550597    1.341739   -2.562944
     69          1           0       11.600181   -0.372708   -3.262948
     70          1           0      -11.433750    1.858786   -2.758363
     71          1           0      -10.038078    0.662704   -2.306606
     72          1           0      -10.231977    2.331803   -1.539676
     73          1           0       14.807466   -2.960056    0.211698
     74          1           0      -14.946824    2.093350    1.864167
     75          1           0        9.974315    2.156490   -0.886587
     76          1           0       -8.748642    0.317248    0.084103
     77          1           0        8.731694    4.126366   -0.479486
     78          1           0        7.065281    4.148040    0.322318
     79          1           0        8.506818    3.808275    1.244744
     80          1           0       -8.536556   -3.209198   -0.111485
     81          1           0       -8.204536   -2.900915   -1.840710
     82          1           0       -6.900132   -3.329834   -0.576807
     83          1           0        6.925801    0.565266   -0.276694
     84          1           0       -6.609031    0.355333    0.158650
     85          1           0        5.339564    2.843770    0.211997
     86          1           0       -4.669478   -2.147390   -0.569790
     87          1           0        4.618447    0.094995   -0.233177
     88          1           0       -4.213898    0.503690    0.121665
     89          1           0        3.481992    3.530321    1.318608
     90          1           0        1.829387    3.124927    1.008554
     91          1           0        2.894256    3.728670   -0.206723
     92          1           0       -2.814557   -2.807442    0.186164
     93          1           0       -3.080525   -2.687382   -1.637850
     94          1           0       -1.420933   -2.460882   -0.774242
     95          1           0        2.242082   -0.278907   -0.380978
     96          1           0       -1.858404    1.051125   -0.001222
     97          1           0        0.139660    1.885844    0.369918
     98          1           0        0.006737   -0.946111   -0.892327
 ---------------------------------------------------------------------
 Rotational constants (GHZ):           0.2503995           0.0092134           0.0090667
 Standard basis: 6-31G(d,p) (6D, 7F)
 There are   910 symmetry adapted cartesian basis functions of A   symmetry.
 There are   910 symmetry adapted basis functions of A   symmetry.
   910 basis functions,  1568 primitive gaussians,   910 cartesian basis functions
   156 alpha electrons      156 beta electrons
       nuclear repulsion energy      3981.5924794121 Hartrees.
 NAtoms=   98 NActive=   98 NUniq=   98 SFac= 1.00D+00 NAtFMM=   60 NAOKFM=T Big=T
 Integral buffers will be    131072 words long.
 Raffenetti 1 integral format.
 Two-electron integral symmetry is turned on.
 One-electron integrals computed using PRISM.
 NBasis=   910 RedAO= T EigKep=  9.45D-04  NBF=   910
 NBsUse=   910 1.00D-06 EigRej= -1.00D+00 NBFU=   910
 ExpMin= 1.61D-01 ExpMax= 5.48D+03 ExpMxC= 8.25D+02 IAcc=3 IRadAn=         5 AccDes= 0.00D+00
 Harris functional with IExCor=20419 and IRadAn=       5 diagonalized for initial guess.
 HarFok:  IExCor=20419 AccDes= 0.00D+00 IRadAn=         5 IDoV= 1 UseB2=F ITyADJ=14
 ICtDFT=  3500011 ScaDFX=  1.000000  1.000000  1.000000  1.000000
 FoFCou: FMM=F IPFlag=           0 FMFlag=      100000 FMFlg1=        2001
         NFxFlg=           0 DoJE=T BraDBF=F KetDBF=T FulRan=T
         wScrn=  0.000000 ICntrl=       500 IOpCl=  0 I1Cent=   200000004 NGrid=           0
         NMat0=    1 NMatS0=      1 NMatT0=    0 NMatD0=    1 NMtDS0=    0 NMtDT0=    0
 Petite list used in FoFCou.
 Requested convergence on RMS density matrix=1.00D-08 within 128 cycles.
 Requested convergence on MAX density matrix=1.00D-06.
 Requested convergence on             energy=1.00D-06.
 No special actions if energy rises.
 Integral accuracy reduced to 1.0D-05 until final iterations.
 Initial convergence to 1.0D-05 achieved.  Increase integral accuracy.
 SCF Done:  E(RCAM-B3LYP) =  -1706.97157297     A.U. after   14 cycles
            NFock= 14  Conv=0.87D-08     -V/T= 2.0092
 DoSCS=F DFT=T ScalE2(SS,OS)=  1.000000  1.000000
 ExpMin= 1.61D-01 ExpMax= 5.48D+03 ExpMxC= 8.25D+02 IAcc=3 IRadAn=         5 AccDes= 0.00D+00
 HarFok:  IExCor=  205 AccDes= 0.00D+00 IRadAn=         5 IDoV=-2 UseB2=F ITyADJ=14
 ICtDFT= 12500011 ScaDFX=  1.000000  1.000000  1.000000  1.000000
 GSVD:  LWork=       -2100 too small for GESVD, short by        9450 words or        9450 for optimal perf.
 Range of M.O.s used for correlation:    43   910
 NBasis=   910 NAE=   156 NBE=   156 NFC=    42 NFV=     0
 NROrb=    868 NOA=   114 NOB=   114 NVA=   754 NVB=   754
 Orbital symmetries:
       Occupied  (A) (A) (A) (A) (A) (A) (A) (A) (A) (A) (A) (A)
                 (A) (A) (A) (A) (A) (A) (A) (A) (A) (A) (A) (A)
                 (A) (A) (A) (A) (A) (A) (A) (A) (A) (A) (A) (A)
                 (A) (A) (A) (A) (A) (A) (A) (A) (A) (A) (A) (A)
                 (A) (A) (A) (A) (A) (A) (A) (A) (A) (A) (A) (A)
                 (A) (A) (A) (A) (A) (A) (A) (A) (A) (A) (A) (A)
                 (A) (A) (A) (A) (A) (A) (A) (A) (A) (A) (A) (A)
                 (A) (A) (A) (A) (A) (A) (A) (A) (A) (A) (A) (A)
                 (A) (A) (A) (A) (A) (A) (A) (A) (A) (A) (A) (A)
                 (A) (A) (A) (A) (A) (A) (A) (A) (A) (A) (A) (A)
                 (A) (A) (A) (A) (A) (A) (A) (A) (A) (A) (A) (A)
                 (A) (A) (A) (A) (A) (A) (A) (A) (A) (A) (A) (A)
                 (A) (A) (A) (A) (A) (A) (A) (A) (A) (A) (A) (A)
       Virtual   (A) (A) (A) (A) (A) (A) (A) (A) (A) (A) (A) (A)
                 (A) (A) (A) (A) (A) (A) (A) (A) (A) (A) (A) (A)
                 (A) (A) (A) (A) (A) (A) (A) (A) (A) (A) (A) (A)
                 (A) (A) (A) (A) (A) (A) (A) (A) (A) (A) (A) (A)
                 (A) (A) (A) (A) (A) (A) (A) (A) (A) (A) (A) (A)
                 (A) (A) (A) (A) (A) (A) (A) (A) (A) (A) (A) (A)
                 (A) (A) (A) (A) (A) (A) (A) (A) (A) (A) (A) (A)
                 (A) (A) (A) (A) (A) (A) (A) (A) (A) (A) (A) (A)
                 (A) (A) (A) (A) (A) (A) (A) (A) (A) (A) (A) (A)
                 (A) (A) (A) (A) (A) (A) (A) (A) (A) (A) (A) (A)
                 (A) (A) (A) (A) (A) (A) (A) (A) (A) (A) (A) (A)
                 (A) (A) (A) (A) (A) (A) (A) (A) (A) (A) (A) (A)
                 (A) (A) (A) (A) (A) (A) (A) (A) (A) (A) (A) (A)
                 (A) (A) (A) (A) (A) (A) (A) (A) (A) (A) (A) (A)
                 (A) (A) (A) (A) (A) (A) (A) (A) (A) (A) (A) (A)
                 (A) (A) (A) (A) (A) (A) (A) (A) (A) (A) (A) (A)
                 (A) (A) (A) (A) (A) (A) (A) (A) (A) (A) (A) (A)
                 (A) (A) (A) (A) (A) (A) (A) (A) (A) (A) (A) (A)
                 (A) (A) (A) (A) (A) (A) (A) (A) (A) (A) (A) (A)
                 (A) (A) (A) (A) (A) (A) (A) (A) (A) (A) (A) (A)
                 (A) (A) (A) (A) (A) (A) (A) (A) (A) (A) (A) (A)
                 (A) (A) (A) (A) (A) (A) (A) (A) (A) (A) (A) (A)
                 (A) (A) (A) (A) (A) (A) (A) (A) (A) (A) (A) (A)
                 (A) (A) (A) (A) (A) (A) (A) (A) (A) (A) (A) (A)
                 (A) (A) (A) (A) (A) (A) (A) (A) (A) (A) (A) (A)
                 (A) (A) (A) (A) (A) (A) (A) (A) (A) (A) (A) (A)
                 (A) (A) (A) (A) (A) (A) (A) (A) (A) (A) (A) (A)
                 (A) (A) (A) (A) (A) (A) (A) (A) (A) (A) (A) (A)
                 (A) (A) (A) (A) (A) (A) (A) (A) (A) (A) (A) (A)
                 (A) (A) (A) (A) (A) (A) (A) (A) (A) (A) (A) (A)
                 (A) (A) (A) (A) (A) (A) (A) (A) (A) (A) (A) (A)
                 (A) (A) (A) (A) (A) (A) (A) (A) (A) (A) (A) (A)
                 (A) (A) (A) (A) (A) (A) (A) (A) (A) (A) (A) (A)
                 (A) (A) (A) (A) (A) (A) (A) (A) (A) (A) (A) (A)
                 (A) (A) (A) (A) (A) (A) (A) (A) (A) (A) (A) (A)
                 (A) (A) (A) (A) (A) (A) (A) (A) (A) (A) (A) (A)
                 (A) (A) (A) (A) (A) (A) (A) (A) (A) (A) (A) (A)
                 (A) (A) (A) (A) (A) (A) (A) (A) (A) (A) (A) (A)
                 (A) (A) (A) (A) (A) (A) (A) (A) (A) (A) (A) (A)
                 (A) (A) (A) (A) (A) (A) (A) (A) (A) (A) (A) (A)
                 (A) (A) (A) (A) (A) (A) (A) (A) (A) (A) (A) (A)
                 (A) (A) (A) (A) (A) (A) (A) (A) (A) (A) (A) (A)
                 (A) (A) (A) (A) (A) (A) (A) (A) (A) (A) (A) (A)
                 (A) (A) (A) (A) (A) (A) (A) (A) (A) (A) (A) (A)
                 (A) (A) (A) (A) (A) (A) (A) (A) (A) (A) (A) (A)
                 (A) (A) (A) (A) (A) (A) (A) (A) (A) (A) (A) (A)
                 (A) (A) (A) (A) (A) (A) (A) (A) (A) (A) (A) (A)
                 (A) (A) (A) (A) (A) (A) (A) (A) (A) (A) (A) (A)
                 (A) (A) (A) (A) (A) (A) (A) (A) (A) (A) (A) (A)
                 (A) (A) (A) (A) (A) (A) (A) (A) (A) (A) (A) (A)
                 (A) (A) (A) (A) (A) (A) (A) (A) (A) (A) (A) (A)
                 (A) (A) (A) (A) (A) (A) (A) (A) (A) (A) (A) (A)
                 (A) (A) (A) (A) (A) (A) (A) (A) (A) (A) (A) (A)
                 (A) (A) (A) (A) (A) (A) (A) (A) (A) (A) (A) (A)
                 (A) (A) (A) (A) (A) (A) (A) (A) (A) (A) (A) (A)
                 (A) (A) (A) (A) (A) (A) (A) (A) (A) (A) (A) (A)
                 (A) (A) (A) (A) (A) (A) (A) (A) (A) (A) (A) (A)
                 (A) (A) (A) (A) (A) (A) (A) (A) (A) (A) (A) (A)
                 (A) (A) (A) (A) (A) (A) (A) (A) (A) (A) (A) (A)
                 (A) (A) (A) (A) (A) (A) (A) (A) (A) (A) (A) (A)
                 (A) (A) (A) (A) (A) (A) (A) (A) (A) (A) (A) (A)
                 (A) (A) (A) (A) (A) (A) (A) (A) (A) (A) (A) (A)
                 (A) (A) (A) (A) (A) (A) (A) (A) (A) (A)
     4 initial guesses have been made.
 Convergence on wavefunction:    0.001000000000000
 Iteration     1 Dimension     4 NMult     0 NNew      4
 CISAX will form     4 AO SS matrices at one time.
 Iteration     2 Dimension     6 NMult     4 NNew      2
 Iteration     3 Dimension     8 NMult     6 NNew      2
 Iteration     4 Dimension    10 NMult     8 NNew      2
 Iteration     5 Dimension    12 NMult    10 NNew      2
 Iteration     6 Dimension    14 NMult    12 NNew      2
 ***********************************************************************
 Excited states from <AA,BB:AA,BB> singles matrix:
 ***********************************************************************
 
 Ground to excited state transition densities written to RWF  633
 Ground to excited state transition electric dipole moments (Au):
       state          X           Y           Z        Dip. S.      Osc.
         1         7.7125      1.3874      0.2586     61.4746      3.8278
 Ground to excited state transition velocity dipole moments (Au):
       state          X           Y           Z        Dip. S.      Osc.
         1        -0.6927     -0.1224     -0.0232      0.4954      3.5357
 Ground to excited state transition magnetic dipole moments (Au):
       state          X           Y           Z
         1        -0.0786      0.2862      0.6294
 Ground to excited state transition velocity quadrupole moments (Au):
       state          XX          YY          ZZ          XY          XZ          YZ
         1         0.8759     -0.1710      0.0020     -0.0694      0.2078      0.0203
 <0|del|b> * <b|rxdel|0> + <0|del|b> * <b|delr+rdel|0>
 Rotatory Strengths (R) in cgs (10**-40 erg-esu-cm/Gauss)
       state          XX          YY          ZZ    R(velocity)    E-M Angle
         1       -85.5322     91.2511     30.5293     12.0827       89.44
 1/2[<0|r|b>*<b|rxdel|0> + (<0|rxdel|b>*<b|r|0>)*]
 Rotatory Strengths (R) in cgs (10**-40 erg-esu-cm/Gauss)
       state          XX          YY          ZZ     R(length)
         1       428.5022   -280.7916   -115.1095     10.8670
  1/2[<0|del|b>*<b|r|0> + (<0|r|b>*<b|del|0>)*] (Au)
       state          X           Y           Z        Dip. S.   Osc.(frdel)
         1        -5.3425     -0.1698     -0.0060      5.5183      3.6788

 Excitation energies and oscillator strengths:
 
 Excited State   1:      Singlet-A      2.5415 eV  487.84 nm  f=3.8278  <S**2>=0.000
     155 ->158         0.16298
     156 ->157         0.68628
 This state for optimization and/or second-order correction.
 Total Energy, E(TD-HF/TD-DFT) =  -1706.87817453    
 Copying the excited state density for this state as the 1-particle RhoCI density.
 SavETr:  write IOETrn=   770 NScale= 10 NData=  16 NLR=1 NState=    1 LETran=      28.

 **********************************************************************

            Population analysis using the SCF density.

 **********************************************************************

 Orbital symmetries:
       Occupied  (A) (A) (A) (A) (A) (A) (A) (A) (A) (A) (A) (A)
                 (A) (A) (A) (A) (A) (A) (A) (A) (A) (A) (A) (A)
                 (A) (A) (A) (A) (A) (A) (A) (A) (A) (A) (A) (A)
                 (A) (A) (A) (A) (A) (A) (A) (A) (A) (A) (A) (A)
                 (A) (A) (A) (A) (A) (A) (A) (A) (A) (A) (A) (A)
                 (A) (A) (A) (A) (A) (A) (A) (A) (A) (A) (A) (A)
                 (A) (A) (A) (A) (A) (A) (A) (A) (A) (A) (A) (A)
                 (A) (A) (A) (A) (A) (A) (A) (A) (A) (A) (A) (A)
                 (A) (A) (A) (A) (A) (A) (A) (A) (A) (A) (A) (A)
                 (A) (A) (A) (A) (A) (A) (A) (A) (A) (A) (A) (A)
                 (A) (A) (A) (A) (A) (A) (A) (A) (A) (A) (A) (A)
                 (A) (A) (A) (A) (A) (A) (A) (A) (A) (A) (A) (A)
                 (A) (A) (A) (A) (A) (A) (A) (A) (A) (A) (A) (A)
       Virtual   (A) (A) (A) (A) (A) (A) (A) (A) (A) (A) (A) (A)
                 (A) (A) (A) (A) (A) (A) (A) (A) (A) (A) (A) (A)
                 (A) (A) (A) (A) (A) (A) (A) (A) (A) (A) (A) (A)
                 (A) (A) (A) (A) (A) (A) (A) (A) (A) (A) (A) (A)
                 (A) (A) (A) (A) (A) (A) (A) (A) (A) (A) (A) (A)
                 (A) (A) (A) (A) (A) (A) (A) (A) (A) (A) (A) (A)
                 (A) (A) (A) (A) (A) (A) (A) (A) (A) (A) (A) (A)
                 (A) (A) (A) (A) (A) (A) (A) (A) (A) (A) (A) (A)
                 (A) (A) (A) (A) (A) (A) (A) (A) (A) (A) (A) (A)
                 (A) (A) (A) (A) (A) (A) (A) (A) (A) (A) (A) (A)
                 (A) (A) (A) (A) (A) (A) (A) (A) (A) (A) (A) (A)
                 (A) (A) (A) (A) (A) (A) (A) (A) (A) (A) (A) (A)
                 (A) (A) (A) (A) (A) (A) (A) (A) (A) (A) (A) (A)
                 (A) (A) (A) (A) (A) (A) (A) (A) (A) (A) (A) (A)
                 (A) (A) (A) (A) (A) (A) (A) (A) (A) (A) (A) (A)
                 (A) (A) (A) (A) (A) (A) (A) (A) (A) (A) (A) (A)
                 (A) (A) (A) (A) (A) (A) (A) (A) (A) (A) (A) (A)
                 (A) (A) (A) (A) (A) (A) (A) (A) (A) (A) (A) (A)
                 (A) (A) (A) (A) (A) (A) (A) (A) (A) (A) (A) (A)
                 (A) (A) (A) (A) (A) (A) (A) (A) (A) (A) (A) (A)
                 (A) (A) (A) (A) (A) (A) (A) (A) (A) (A) (A) (A)
                 (A) (A) (A) (A) (A) (A) (A) (A) (A) (A) (A) (A)
                 (A) (A) (A) (A) (A) (A) (A) (A) (A) (A) (A) (A)
                 (A) (A) (A) (A) (A) (A) (A) (A) (A) (A) (A) (A)
                 (A) (A) (A) (A) (A) (A) (A) (A) (A) (A) (A) (A)
                 (A) (A) (A) (A) (A) (A) (A) (A) (A) (A) (A) (A)
                 (A) (A) (A) (A) (A) (A) (A) (A) (A) (A) (A) (A)
                 (A) (A) (A) (A) (A) (A) (A) (A) (A) (A) (A) (A)
                 (A) (A) (A) (A) (A) (A) (A) (A) (A) (A) (A) (A)
                 (A) (A) (A) (A) (A) (A) (A) (A) (A) (A) (A) (A)
                 (A) (A) (A) (A) (A) (A) (A) (A) (A) (A) (A) (A)
                 (A) (A) (A) (A) (A) (A) (A) (A) (A) (A) (A) (A)
                 (A) (A) (A) (A) (A) (A) (A) (A) (A) (A) (A) (A)
                 (A) (A) (A) (A) (A) (A) (A) (A) (A) (A) (A) (A)
                 (A) (A) (A) (A) (A) (A) (A) (A) (A) (A) (A) (A)
                 (A) (A) (A) (A) (A) (A) (A) (A) (A) (A) (A) (A)
                 (A) (A) (A) (A) (A) (A) (A) (A) (A) (A) (A) (A)
                 (A) (A) (A) (A) (A) (A) (A) (A) (A) (A) (A) (A)
                 (A) (A) (A) (A) (A) (A) (A) (A) (A) (A) (A) (A)
                 (A) (A) (A) (A) (A) (A) (A) (A) (A) (A) (A) (A)
                 (A) (A) (A) (A) (A) (A) (A) (A) (A) (A) (A) (A)
                 (A) (A) (A) (A) (A) (A) (A) (A) (A) (A) (A) (A)
                 (A) (A) (A) (A) (A) (A) (A) (A) (A) (A) (A) (A)
                 (A) (A) (A) (A) (A) (A) (A) (A) (A) (A) (A) (A)
                 (A) (A) (A) (A) (A) (A) (A) (A) (A) (A) (A) (A)
                 (A) (A) (A) (A) (A) (A) (A) (A) (A) (A) (A) (A)
                 (A) (A) (A) (A) (A) (A) (A) (A) (A) (A) (A) (A)
                 (A) (A) (A) (A) (A) (A) (A) (A) (A) (A) (A) (A)
                 (A) (A) (A) (A) (A) (A) (A) (A) (A) (A) (A) (A)
                 (A) (A) (A) (A) (A) (A) (A) (A) (A) (A) (A) (A)
                 (A) (A) (A) (A) (A) (A) (A) (A) (A) (A) (A) (A)
                 (A) (A) (A) (A) (A) (A) (A) (A) (A) (A) (A) (A)
                 (A) (A) (A) (A) (A) (A) (A) (A) (A) (A) (A) (A)
                 (A) (A) (A) (A) (A) (A) (A) (A) (A) (A) (A) (A)
                 (A) (A) (A) (A) (A) (A) (A) (A) (A) (A) (A) (A)
                 (A) (A) (A) (A) (A) (A) (A) (A) (A) (A) (A) (A)
                 (A) (A) (A) (A) (A) (A) (A) (A) (A) (A) (A) (A)
                 (A) (A) (A) (A) (A) (A) (A) (A) (A) (A) (A) (A)
                 (A) (A) (A) (A) (A) (A) (A) (A) (A) (A) (A) (A)
                 (A) (A) (A) (A) (A) (A) (A) (A) (A) (A) (A) (A)
                 (A) (A) (A) (A) (A) (A) (A) (A) (A) (A) (A) (A)
                 (A) (A) (A) (A) (A) (A) (A) (A) (A) (A) (A) (A)
                 (A) (A) (A) (A) (A) (A) (A) (A) (A) (A)
 The electronic state is 1-A.
 Alpha  occ. eigenvalues --  -19.22609 -19.22358 -10.31308 -10.31235 -10.28932
 Alpha  occ. eigenvalues --  -10.28314 -10.27210 -10.27118 -10.26984 -10.26861
 Alpha  occ. eigenvalues --  -10.26758 -10.26630 -10.26604 -10.26568 -10.26493
 Alpha  occ. eigenvalues --  -10.26400 -10.26389 -10.26217 -10.26035 -10.25938
 Alpha  occ. eigenvalues --  -10.25862 -10.25847 -10.25785 -10.25752 -10.25736
 Alpha  occ. eigenvalues --  -10.25680 -10.25603 -10.25599 -10.25497 -10.25454
 Alpha  occ. eigenvalues --  -10.25443 -10.25429 -10.25267 -10.25262 -10.25144
 Alpha  occ. eigenvalues --  -10.24983 -10.24515 -10.24502 -10.24347 -10.24089
 Alpha  occ. eigenvalues --  -10.23968 -10.23552  -1.11148  -1.09666  -0.94619
 Alpha  occ. eigenvalues --   -0.93357  -0.92671  -0.91795  -0.91071  -0.89993
 Alpha  occ. eigenvalues --   -0.88100  -0.87052  -0.86779  -0.85600  -0.84753
 Alpha  occ. eigenvalues --   -0.83795  -0.82357  -0.80807  -0.79932  -0.79273
 Alpha  occ. eigenvalues --   -0.77115  -0.76876  -0.76645  -0.75656  -0.75292
 Alpha  occ. eigenvalues --   -0.75067  -0.74943  -0.74314  -0.73924  -0.70791
 Alpha  occ. eigenvalues --   -0.68887  -0.67227  -0.65337  -0.64360  -0.63901
 Alpha  occ. eigenvalues --   -0.62698  -0.62465  -0.62308  -0.61530  -0.61174
 Alpha  occ. eigenvalues --   -0.60236  -0.59510  -0.59066  -0.58607  -0.56836
 Alpha  occ. eigenvalues --   -0.55695  -0.55577  -0.55071  -0.54413  -0.54160
 Alpha  occ. eigenvalues --   -0.53370  -0.52794  -0.52282  -0.51600  -0.51087
 Alpha  occ. eigenvalues --   -0.50673  -0.50298  -0.49999  -0.49838  -0.49488
 Alpha  occ. eigenvalues --   -0.49429  -0.49174  -0.49124  -0.48673  -0.48393
 Alpha  occ. eigenvalues --   -0.47711  -0.47590  -0.47368  -0.46747  -0.46633
 Alpha  occ. eigenvalues --   -0.46410  -0.46102  -0.46037  -0.45767  -0.45300
 Alpha  occ. eigenvalues --   -0.45177  -0.44862  -0.44381  -0.43828  -0.43429
 Alpha  occ. eigenvalues --   -0.43231  -0.42916  -0.42695  -0.42614  -0.41763
 Alpha  occ. eigenvalues --   -0.41547  -0.41403  -0.41377  -0.41154  -0.40895
 Alpha  occ. eigenvalues --   -0.40797  -0.40418  -0.40335  -0.40157  -0.39879
 Alpha  occ. eigenvalues --   -0.39555  -0.38961  -0.38710  -0.37906  -0.37818
 Alpha  occ. eigenvalues --   -0.37636  -0.37280  -0.36147  -0.35965  -0.35515
 Alpha  occ. eigenvalues --   -0.35106  -0.34308  -0.33167  -0.32683  -0.31939
 Alpha  occ. eigenvalues --   -0.31404  -0.29760  -0.28685  -0.27186  -0.23870
 Alpha  occ. eigenvalues --   -0.20147
 Alpha virt. eigenvalues --   -0.04837  -0.00454   0.03309   0.06161   0.07965
 Alpha virt. eigenvalues --    0.09378   0.10328   0.11307   0.11352   0.12120
 Alpha virt. eigenvalues --    0.12885   0.13150   0.13523   0.13693   0.14249
 Alpha virt. eigenvalues --    0.14555   0.14827   0.15129   0.15340   0.15740
 Alpha virt. eigenvalues --    0.15888   0.16025   0.16272   0.16506   0.16951
 Alpha virt. eigenvalues --    0.17122   0.17272   0.17557   0.18098   0.18259
 Alpha virt. eigenvalues --    0.18786   0.19009   0.19324   0.19822   0.20000
 Alpha virt. eigenvalues --    0.20372   0.20740   0.20924   0.21226   0.21419
 Alpha virt. eigenvalues --    0.21439   0.21534   0.21846   0.22005   0.22172
 Alpha virt. eigenvalues --    0.22376   0.22842   0.22901   0.22924   0.23331
 Alpha virt. eigenvalues --    0.23391   0.23706   0.24196   0.24568   0.24921
 Alpha virt. eigenvalues --    0.25060   0.25552   0.25798   0.26044   0.26459
 Alpha virt. eigenvalues --    0.26749   0.26811   0.27419   0.27453   0.27803
 Alpha virt. eigenvalues --    0.28039   0.28334   0.28452   0.28853   0.28872
 Alpha virt. eigenvalues --    0.29091   0.29700   0.29897   0.30214   0.31055
 Alpha virt. eigenvalues --    0.31339   0.31475   0.31790   0.31961   0.32012
 Alpha virt. eigenvalues --    0.32288   0.33160   0.33427   0.34532   0.35184
 Alpha virt. eigenvalues --    0.35831   0.36003   0.36419   0.38021   0.38288
 Alpha virt. eigenvalues --    0.38873   0.39218   0.40432   0.40974   0.42397
 Alpha virt. eigenvalues --    0.43034   0.43641   0.44048   0.44601   0.45684
 Alpha virt. eigenvalues --    0.46017   0.46860   0.47444   0.48146   0.49003
 Alpha virt. eigenvalues --    0.50674   0.51147   0.51948   0.53422   0.54066
 Alpha virt. eigenvalues --    0.55262   0.55942   0.56483   0.56812   0.56967
 Alpha virt. eigenvalues --    0.57580   0.57849   0.58211   0.58557   0.58913
 Alpha virt. eigenvalues --    0.59174   0.59369   0.59538   0.59976   0.60105
 Alpha virt. eigenvalues --    0.60707   0.61258   0.61340   0.61753   0.61911
 Alpha virt. eigenvalues --    0.62133   0.62314   0.62770   0.63316   0.63541
 Alpha virt. eigenvalues --    0.63737   0.64094   0.64426   0.64768   0.64883
 Alpha virt. eigenvalues --    0.65598   0.65984   0.66164   0.66357   0.66630
 Alpha virt. eigenvalues --    0.66993   0.67358   0.67737   0.68133   0.68376
 Alpha virt. eigenvalues --    0.69126   0.69644   0.69776   0.69856   0.70228
 Alpha virt. eigenvalues --    0.70933   0.71062   0.71393   0.71686   0.71960
 Alpha virt. eigenvalues --    0.72386   0.72560   0.72611   0.73602   0.74065
 Alpha virt. eigenvalues --    0.74247   0.74634   0.75000   0.75468   0.75732
 Alpha virt. eigenvalues --    0.75894   0.76375   0.76671   0.76993   0.77293
 Alpha virt. eigenvalues --    0.77524   0.77772   0.78278   0.78755   0.79203
 Alpha virt. eigenvalues --    0.79719   0.80280   0.80461   0.80650   0.80836
 Alpha virt. eigenvalues --    0.81460   0.82171   0.82667   0.82921   0.83390
 Alpha virt. eigenvalues --    0.83875   0.84028   0.84585   0.84720   0.84891
 Alpha virt. eigenvalues --    0.85094   0.85676   0.85961   0.86084   0.86337
 Alpha virt. eigenvalues --    0.86936   0.87118   0.87357   0.87475   0.87811
 Alpha virt. eigenvalues --    0.87925   0.88102   0.88411   0.88698   0.89176
 Alpha virt. eigenvalues --    0.89621   0.90243   0.90453   0.90879   0.90926
 Alpha virt. eigenvalues --    0.90963   0.91275   0.91330   0.91646   0.91840
 Alpha virt. eigenvalues --    0.91959   0.92218   0.92822   0.93040   0.93469
 Alpha virt. eigenvalues --    0.93951   0.94298   0.94691   0.94763   0.95201
 Alpha virt. eigenvalues --    0.95631   0.96127   0.96174   0.96746   0.96780
 Alpha virt. eigenvalues --    0.96970   0.97454   0.97539   0.98063   0.98379
 Alpha virt. eigenvalues --    0.99165   0.99748   0.99855   1.00056   1.00224
 Alpha virt. eigenvalues --    1.00388   1.00765   1.01025   1.01192   1.01463
 Alpha virt. eigenvalues --    1.01556   1.02020   1.02577   1.02825   1.03122
 Alpha virt. eigenvalues --    1.03354   1.03746   1.03963   1.04425   1.05035
 Alpha virt. eigenvalues --    1.05344   1.05643   1.06043   1.06555   1.06823
 Alpha virt. eigenvalues --    1.07495   1.07669   1.08175   1.08689   1.08969
 Alpha virt. eigenvalues --    1.09467   1.09598   1.10171   1.10918   1.12292
 Alpha virt. eigenvalues --    1.12757   1.13314   1.14006   1.14336   1.14603
 Alpha virt. eigenvalues --    1.15010   1.15557   1.15777   1.15912   1.16783
 Alpha virt. eigenvalues --    1.17309   1.17686   1.17988   1.18505   1.20694
 Alpha virt. eigenvalues --    1.22175   1.23259   1.24541   1.24918   1.25036
 Alpha virt. eigenvalues --    1.25479   1.26506   1.26749   1.27669   1.28303
 Alpha virt. eigenvalues --    1.28640   1.30131   1.30536   1.31304   1.31730
 Alpha virt. eigenvalues --    1.32351   1.33749   1.35623   1.35765   1.36342
 Alpha virt. eigenvalues --    1.37376   1.38392   1.38987   1.39226   1.39295
 Alpha virt. eigenvalues --    1.40232   1.40723   1.42035   1.42344   1.42556
 Alpha virt. eigenvalues --    1.43070   1.45367   1.46331   1.46865   1.47190
 Alpha virt. eigenvalues --    1.47707   1.48058   1.48421   1.48985   1.49619
 Alpha virt. eigenvalues --    1.49911   1.50972   1.52236   1.52526   1.52907
 Alpha virt. eigenvalues --    1.52994   1.54722   1.55015   1.55562   1.56170
 Alpha virt. eigenvalues --    1.57235   1.57770   1.58026   1.59220   1.59577
 Alpha virt. eigenvalues --    1.60252   1.60482   1.61199   1.62228   1.62406
 Alpha virt. eigenvalues --    1.63910   1.64206   1.64834   1.65687   1.66389
 Alpha virt. eigenvalues --    1.67471   1.67792   1.68950   1.70642   1.71100
 Alpha virt. eigenvalues --    1.72185   1.73305   1.73736   1.74472   1.76175
 Alpha virt. eigenvalues --    1.76411   1.76968   1.77572   1.78040   1.78437
 Alpha virt. eigenvalues --    1.79774   1.80627   1.81310   1.82060   1.82182
 Alpha virt. eigenvalues --    1.82761   1.83531   1.84849   1.84885   1.85561
 Alpha virt. eigenvalues --    1.86127   1.86197   1.86760   1.86975   1.87505
 Alpha virt. eigenvalues --    1.87899   1.87972   1.88359   1.88560   1.88773
 Alpha virt. eigenvalues --    1.89654   1.89935   1.90313   1.90463   1.90984
 Alpha virt. eigenvalues --    1.91399   1.91754   1.92669   1.92780   1.92861
 Alpha virt. eigenvalues --    1.93242   1.94050   1.94748   1.95107   1.95432
 Alpha virt. eigenvalues --    1.95718   1.96167   1.96927   1.97161   1.98033
 Alpha virt. eigenvalues --    1.98846   1.99039   1.99244   1.99449   1.99657
 Alpha virt. eigenvalues --    1.99964   2.00125   2.01047   2.01347   2.01808
 Alpha virt. eigenvalues --    2.01902   2.02192   2.03508   2.03809   2.04262
 Alpha virt. eigenvalues --    2.04546   2.04817   2.05583   2.05926   2.06059
 Alpha virt. eigenvalues --    2.06152   2.06597   2.07163   2.07541   2.07832
 Alpha virt. eigenvalues --    2.08393   2.08687   2.09155   2.09818   2.10287
 Alpha virt. eigenvalues --    2.10575   2.10629   2.11038   2.11181   2.11276
 Alpha virt. eigenvalues --    2.11854   2.12592   2.13036   2.13191   2.13447
 Alpha virt. eigenvalues --    2.14168   2.14687   2.15347   2.15607   2.15945
 Alpha virt. eigenvalues --    2.16156   2.16687   2.16806   2.17586   2.17864
 Alpha virt. eigenvalues --    2.18154   2.19020   2.19599   2.19782   2.20194
 Alpha virt. eigenvalues --    2.20550   2.20829   2.20989   2.21762   2.21872
 Alpha virt. eigenvalues --    2.22463   2.22718   2.22843   2.23626   2.23769
 Alpha virt. eigenvalues --    2.24195   2.24559   2.24942   2.26083   2.26187
 Alpha virt. eigenvalues --    2.26955   2.27439   2.28204   2.28457   2.29070
 Alpha virt. eigenvalues --    2.30334   2.30879   2.31151   2.31762   2.32089
 Alpha virt. eigenvalues --    2.32653   2.32974   2.33707   2.34667   2.34829
 Alpha virt. eigenvalues --    2.35168   2.36192   2.36318   2.36656   2.37851
 Alpha virt. eigenvalues --    2.38196   2.38751   2.39132   2.39669   2.40196
 Alpha virt. eigenvalues --    2.40769   2.41362   2.41472   2.41866   2.42099
 Alpha virt. eigenvalues --    2.42615   2.42890   2.43298   2.44432   2.44740
 Alpha virt. eigenvalues --    2.44907   2.45235   2.46098   2.46420   2.46592
 Alpha virt. eigenvalues --    2.47167   2.48341   2.49550   2.49592   2.50296
 Alpha virt. eigenvalues --    2.50750   2.51331   2.51758   2.51995   2.52455
 Alpha virt. eigenvalues --    2.52721   2.53000   2.53456   2.54138   2.54398
 Alpha virt. eigenvalues --    2.54875   2.55083   2.55339   2.56734   2.57231
 Alpha virt. eigenvalues --    2.57897   2.58093   2.58792   2.59539   2.59710
 Alpha virt. eigenvalues --    2.60065   2.60585   2.60651   2.61524   2.61603
 Alpha virt. eigenvalues --    2.62463   2.62703   2.62929   2.63755   2.63867
 Alpha virt. eigenvalues --    2.64343   2.65515   2.65963   2.66336   2.66800
 Alpha virt. eigenvalues --    2.67978   2.68113   2.69042   2.69781   2.69997
 Alpha virt. eigenvalues --    2.70116   2.70708   2.71033   2.71065   2.71558
 Alpha virt. eigenvalues --    2.71726   2.72028   2.72470   2.73284   2.73629
 Alpha virt. eigenvalues --    2.73818   2.74355   2.74567   2.74926   2.75331
 Alpha virt. eigenvalues --    2.75744   2.75825   2.76824   2.77199   2.77256
 Alpha virt. eigenvalues --    2.77539   2.77841   2.78938   2.79260   2.79927
 Alpha virt. eigenvalues --    2.80541   2.80818   2.80886   2.81365   2.81541
 Alpha virt. eigenvalues --    2.82268   2.82870   2.83608   2.83778   2.84218
 Alpha virt. eigenvalues --    2.84573   2.84951   2.85244   2.85913   2.86695
 Alpha virt. eigenvalues --    2.87229   2.87617   2.88231   2.89139   2.89615
 Alpha virt. eigenvalues --    2.89687   2.90074   2.90945   2.91019   2.91583
 Alpha virt. eigenvalues --    2.91840   2.92415   2.93046   2.93647   2.95011
 Alpha virt. eigenvalues --    2.95209   2.95457   2.96218   2.96802   2.97626
 Alpha virt. eigenvalues --    2.98406   2.99342   2.99826   3.00029   3.00262
 Alpha virt. eigenvalues --    3.00669   3.02168   3.02465   3.02748   3.04190
 Alpha virt. eigenvalues --    3.04367   3.05473   3.07324   3.08055   3.08183
 Alpha virt. eigenvalues --    3.08709   3.09080   3.11215   3.11779   3.12359
 Alpha virt. eigenvalues --    3.13005   3.14739   3.16004   3.16458   3.17499
 Alpha virt. eigenvalues --    3.18099   3.18218   3.20273   3.21215   3.21898
 Alpha virt. eigenvalues --    3.22854   3.24471   3.24736   3.24952   3.26436
 Alpha virt. eigenvalues --    3.28867   3.28945   3.29266   3.32329   3.33202
 Alpha virt. eigenvalues --    3.35398   3.36103   3.36203   3.36972   3.38264
 Alpha virt. eigenvalues --    3.38504   3.41343   3.41666   3.42389   3.42592
 Alpha virt. eigenvalues --    3.43477   3.43762   3.47548   3.47771   3.48040
 Alpha virt. eigenvalues --    3.48273   3.49322   3.49740   3.49931   3.50167
 Alpha virt. eigenvalues --    3.50491   3.51241   3.51604   3.52300   3.52495
 Alpha virt. eigenvalues --    3.53268   3.53934   3.54921   3.58082   3.58802
 Alpha virt. eigenvalues --    3.60196   3.60585   3.61230   3.61551   3.61803
 Alpha virt. eigenvalues --    3.65989   3.67141   3.67567   3.71333   3.74290
 Alpha virt. eigenvalues --    3.76946   3.81788   3.82725   3.84608   3.85219
 Alpha virt. eigenvalues --    3.88548   3.93718   4.09571   4.12061   4.17003
 Alpha virt. eigenvalues --    4.19831   4.21631   4.21974   4.24231   4.26096
 Alpha virt. eigenvalues --    4.28863   4.29428   4.30949   4.32950   4.37074
 Alpha virt. eigenvalues --    4.38995   4.40369   4.41577   4.44804   4.46522
 Alpha virt. eigenvalues --    4.48225   4.49121   4.50434   4.55018   4.56131
 Alpha virt. eigenvalues --    4.57250   4.57678   4.59397   4.61395   4.62982
 Alpha virt. eigenvalues --    4.63711   4.65006   4.67076   4.68228   4.72611
 Alpha virt. eigenvalues --    4.73998   4.75104   4.79560   4.81367   4.85108
 Alpha virt. eigenvalues --    4.86556   4.87498   4.89688   4.95697
          Condensed to atoms (all electrons):
 Mulliken charges:
               1
     1  O   -0.530079
     2  O   -0.544908
     3  C   -0.019573
     4  C    0.013058
     5  C   -0.161936
     6  C   -0.170173
     7  C    0.142426
     8  C    0.153105
     9  C    0.029914
    10  C    0.052545
    11  C   -0.226232
    12  C   -0.230085
    13  C    0.061385
    14  C    0.016768
    15  C   -0.304742
    16  C   -0.306347
    17  C   -0.268334
    18  C   -0.285397
    19  C   -0.109480
    20  C   -0.176095
    21  C   -0.358775
    22  C   -0.345726
    23  C   -0.092776
    24  C   -0.048693
    25  C    0.082712
    26  C    0.120809
    27  C   -0.382250
    28  C   -0.385357
    29  C   -0.087120
    30  C   -0.155831
    31  C   -0.046619
    32  C   -0.073683
    33  C   -0.119584
    34  C   -0.095653
    35  C    0.066101
    36  C    0.090359
    37  C   -0.355227
    38  C   -0.376054
    39  C   -0.096193
    40  C   -0.079712
    41  C   -0.111432
    42  C   -0.076227
    43  H    0.111407
    44  H    0.086919
    45  H    0.064573
    46  H    0.107441
    47  H    0.039639
    48  H    0.059272
    49  H    0.117066
    50  H    0.096671
    51  H    0.133109
    52  H    0.095408
    53  H    0.099399
    54  H    0.100317
    55  H    0.100616
    56  H    0.117526
    57  H    0.094875
    58  H    0.104811
    59  H    0.079946
    60  H    0.102445
    61  H    0.084302
    62  H    0.101280
    63  H    0.081624
    64  H    0.070742
    65  H    0.092221
    66  H    0.088283
    67  H    0.117680
    68  H    0.115212
    69  H    0.089716
    70  H    0.115412
    71  H    0.129880
    72  H    0.108363
    73  H    0.308074
    74  H    0.311359
    75  H    0.099756
    76  H    0.067849
    77  H    0.110369
    78  H    0.101969
    79  H    0.123624
    80  H    0.111669
    81  H    0.140231
    82  H    0.110738
    83  H    0.045105
    84  H    0.084612
    85  H    0.038667
    86  H    0.070151
    87  H    0.066160
    88  H    0.063400
    89  H    0.118861
    90  H    0.122845
    91  H    0.141093
    92  H    0.128237
    93  H    0.115253
    94  H    0.114324
    95  H    0.081825
    96  H    0.057530
    97  H    0.079856
    98  H    0.071398
 Sum of Mulliken charges =  -0.00000
 Mulliken charges with hydrogens summed into heavy atoms:
               1
     1  O   -0.222005
     2  O   -0.233549
     3  C   -0.019573
     4  C    0.013058
     5  C    0.036390
     6  C    0.001841
     7  C    0.182065
     8  C    0.212377
     9  C    0.029914
    10  C    0.052545
    11  C   -0.012495
    12  C   -0.001568
    13  C    0.061385
    14  C    0.016768
    15  C   -0.004410
    16  C    0.010865
    17  C   -0.001642
    18  C   -0.031751
    19  C   -0.017259
    20  C   -0.087812
    21  C   -0.036167
    22  C    0.007929
    23  C    0.006980
    24  C    0.019156
    25  C    0.082712
    26  C    0.120809
    27  C   -0.046289
    28  C   -0.022719
    29  C   -0.042015
    30  C   -0.071218
    31  C   -0.007952
    32  C   -0.003531
    33  C   -0.053424
    34  C   -0.032253
    35  C    0.066101
    36  C    0.090359
    37  C    0.027572
    38  C   -0.018240
    39  C   -0.014368
    40  C   -0.022182
    41  C   -0.031575
    42  C   -0.004829
 Electronic spatial extent (au):  <R**2>=         111615.6994
 Charge=             -0.0000 electrons
 Dipole moment (field-independent basis, Debye):
    X=              0.6757    Y=             -0.8046    Z=              2.2992  Tot=              2.5279
 Quadrupole moment (field-independent basis, Debye-Ang):
   XX=           -297.0948   YY=           -243.5937   ZZ=           -259.1660
   XY=              1.8877   XZ=              2.8538   YZ=              1.3753
 Traceless Quadrupole moment (field-independent basis, Debye-Ang):
   XX=            -30.4766   YY=             23.0244   ZZ=              7.4522
   XY=              1.8877   XZ=              2.8538   YZ=              1.3753
 Octapole moment (field-independent basis, Debye-Ang**2):
  XXX=             -6.5913  YYY=             -7.4930  ZZZ=             12.3906  XYY=            112.5861
  XXY=           -212.8343  XXZ=            453.4917  XZZ=            -59.2961  YZZ=              8.3108
  YYZ=             17.3643  XYZ=            -83.2862
 Hexadecapole moment (field-independent basis, Debye-Ang**3):
 XXXX=        -164127.6640 YYYY=          -4291.1748 ZZZZ=          -1984.9086 XXXY=            327.0825
 XXXZ=           -368.7795 YYYX=           -325.3975 YYYZ=              8.1817 ZZZX=           -171.3498
 ZZZY=             39.8666 XXYY=         -24220.4208 XXZZ=         -23673.8904 YYZZ=          -1043.7431
 XXYZ=           -342.6330 YYXZ=             70.7376 ZZXY=           -264.3223
 N-N= 3.981592479412D+03 E-N=-1.191892631394D+04  KE= 1.691464971357D+03
 1\1\GINC-PADAWAN\SP\RCAM-B3LYP TD-FC\6-31G(d,p)\C40H56O2\PADAWAN\06-Ju
 l-2019\0\\# td=(NStates=1) CAM-B3LYP/6-31G(d,p)\\TD\\0,1\O,0,14.834401
 6592,-2.1587433454,-0.4218110341\O,0,-14.7643230293,2.1056324192,0.945
 0435984\C,0,11.5918224762,-1.0367043045,1.3375471157\C,0,-12.272914923
 5,-0.9020327633,0.7642419462\C,0,13.1769764296,-1.3413971778,1.1467422
 462\C,0,-13.5461372227,-0.1676229223,0.7761565117\C,0,13.482400234,-1.
 8514806752,-0.1796928583\C,0,-13.5328656266,1.3642392219,0.884430227\C
 ,0,11.0273312591,-0.2133755537,0.0055663106\C,0,-11.4045675578,-0.2763
 586649,-0.3374845025\C,0,13.1343976588,-0.7938801451,-1.2999908721\C,0
 ,-12.9009008501,1.6627342504,-0.429900032\C,0,11.6990646535,-0.2438447
 576,-1.117310247\C,0,-11.5481584058,0.9629926223,-0.7971392529\C,0,11.
 4401147385,-0.2076299211,2.5327237134\C,0,10.6558450255,-2.2643169128,
 1.2966277828\C,0,-11.577749969,-0.9098628143,2.1012587059\C,0,-12.6574
 964516,-2.2931547585,0.3103929433\C,0,9.6456993959,0.3068817251,0.1209
 087709\C,0,-10.1184432113,-1.1257066557,-0.4490235834\C,0,11.142937058
 7,0.3812925942,-2.4161258196\C,0,-10.7627887179,1.495829967,-1.9742067
 277\C,0,9.3489748645,1.5483482727,-0.1606314371\C,0,-8.8675372387,-0.5
 900325603,-0.285759622\C,0,8.0698729733,2.1463743773,0.0923849075\C,0,
 -7.6594610881,-1.350479381,-0.5020355356\C,0,8.091119593,3.5883470396,
 0.3621875848\C,0,-7.8235734633,-2.7369334414,-0.9716973447\C,0,6.84493
 9901,1.5363436283,-0.0476547715\C,0,-6.4650083038,-0.6868341585,-0.292
 9322992\C,0,5.5396745195,1.8886565726,0.0743823542\C,0,-5.1162927513,-
 1.2047103471,-0.4663888129\C,0,4.3800819392,1.1953149454,-0.0841440434
 \C,0,-3.9978652065,-0.4119974058,-0.1953368637\C,0,2.97885049,1.650575
 6555,0.0734490099\C,0,-2.6806218262,-0.7677511052,-0.520319692\C,0,2.7
 365839394,3.1051699659,0.670489758\C,0,-2.4256080548,-2.2639136935,-0.
 7994009801\C,0,2.0332028953,0.6239195559,-0.0620853335\C,0,-1.68848017
 1,0.1504447504,-0.2553973667\C,0,0.5863758066,0.9203468026,-0.02940706
 07\C,0,-0.3404929183,-0.0054226474,-0.3393515752\H,0,13.6005193239,-0.
 3419076259,1.250909929\H,0,13.3272979658,-2.1091414952,1.8892190539\H,
 0,-14.3279455716,-0.4775579128,1.5207392799\H,0,-13.8769890659,-0.2655
 334763,-0.2099426143\H,0,12.6402992319,-2.738098553,-0.2638444494\H,0,
 -12.8512105821,1.6649110091,1.8213816112\H,0,13.9759285249,-0.08681140
 12,-1.1855444384\H,0,13.4001415072,-1.1489371208,-2.3850791839\H,0,-13
 .4037159156,1.4712084418,-1.3777757106\H,0,-12.6623948465,2.7249145555
 ,-0.4107879618\H,0,11.912749895,-0.5956702931,3.4777124322\H,0,10.3605
 219172,0.0222727172,2.6372326043\H,0,11.7610853785,0.9096707,2.4394830
 833\H,0,10.805549558,-2.9587264527,0.444029789\H,0,11.0316140784,-2.88
 63835555,2.0867285969\H,0,9.5658725883,-1.9400049936,1.5892338664\H,0,
 -11.5085477548,0.2748730583,2.2158754805\H,0,-10.5681713261,-1.4689540
 504,1.941090113\H,0,-12.0800691659,-1.4489958046,3.0551281088\H,0,-13.
 4872185029,-2.887049957,0.8296974787\H,0,-11.7617492229,-3.0682288509,
 0.1636214181\H,0,-13.1483751955,-2.1449948075,-0.816720146\H,0,8.90285
 21092,-0.2843867588,0.4417983638\H,0,-10.0724069727,-2.166280352,-0.78
 20378368\H,0,10.0358960086,0.4662967276,-2.4378784908\H,0,11.551223557
 4,1.4042647174,-2.5196416782\H,0,11.6005942944,-0.2911596031,-3.264553
 5854\H,0,-11.4327442814,1.9366568947,-2.7183933323\H,0,-10.0379293319,
 0.7284534823,-2.2972843344\H,0,-10.2316849235,2.3768462976,-1.48677227
 32\H,0,14.8041469677,-2.9706359687,0.1430661996\H,0,-14.9491943544,2.0
 50890003,1.9061088159\H,0,9.9740328853,2.17526083,-0.8235616712\H,0,-8
 .7504417412,0.3195240504,0.0844436314\H,0,8.7319560576,4.1342832812,-0
 .3656028633\H,0,7.064949884,4.1355689658,0.4352593589\H,0,8.5056452745
 ,3.7709599829,1.3494779658\H,0,-8.5397310031,-3.2006369928,-0.20386622
 56\H,0,-8.2062763836,-2.8470337175,-1.9241187419\H,0,-6.9030091499,-3.
 3097046226,-0.6709938914\H,0,6.9243741004,0.569890732,-0.2580791999\H,
 0,-6.6108713491,0.3546653064,0.1615537784\H,0,5.3387532593,2.835438691
 8,0.2893211871\H,0,-4.6718510051,-2.1288641935,-0.6311605161\H,0,4.616
 7847775,0.0996782137,-0.2286812791\H,0,-4.2156470687,0.5028654034,0.13
 02658226\H,0,3.4806458496,3.4934233842,1.4122674277\H,0,1.8280994629,3
 .0970883797,1.0904114491\H,0,2.8941434363,3.732171051,-0.1077412701\H,
 0,-2.8177839154,-2.8094480919,0.1085078068\H,0,-3.0823277408,-2.641235
 2436,-1.7119051575\H,0,-1.4232891279,-2.4383240075,-0.8413971757\H,0,2
 .2403711951,-0.2691255637,-0.3880467087\H,0,-1.8598253835,1.0522851464
 ,0.0235957466\H,0,0.138319579,1.8760303089,0.4180876038\H,0,0.00512328
 23,-0.9216121113,-0.9184594299\\Version=ES64L-G16RevA.03\State=1-A\HF=
 -1706.971573\RMSD=8.653e-09\PG=C01 [X(C40H56O2)]\\@


 MY DESCRIPTION OF EXPERIENCE IS NOT WHAT HAPPENS
 TO A MAN.  EXPERIENCE IS WHAT A MAN DOES WITH WHAT
 HAPPENS TO HIM.
                         - CHUCK KNOX, SEATTLE SEAHAWKS, 1985
 Job cpu time:       0 days  5 hours 58 minutes 14.1 seconds.
 Elapsed time:       0 days  1 hours 30 minutes  2.2 seconds.
 File lengths (MBytes):  RWF=   3127 Int=      0 D2E=      0 Chk=     84 Scr=      1
 Normal termination of Gaussian 16 at Sat Jul  6 18:55:53 2019.
