 Entering Gaussian System, Link 0=g16
 Input=Geometria-255-.com
 Output=Geometria-255-.log
 Initial command:
 /usr/local/g16/l1.exe "/home/padawan/israel-mol/zeaxanthin/spectra/abs/Gau-18641.inp" -scrdir="/home/padawan/israel-mol/zeaxanthin/spectra/abs/"
 Entering Link 1 = /usr/local/g16/l1.exe PID=     18643.
  
 Copyright (c) 1988,1990,1992,1993,1995,1998,2003,2009,2016,
            Gaussian, Inc.  All Rights Reserved.
  
 This is part of the Gaussian(R) 16 program.  It is based on
 the Gaussian(R) 09 system (copyright 2009, Gaussian, Inc.),
 the Gaussian(R) 03 system (copyright 2003, Gaussian, Inc.),
 the Gaussian(R) 98 system (copyright 1998, Gaussian, Inc.),
 the Gaussian(R) 94 system (copyright 1995, Gaussian, Inc.),
 the Gaussian 92(TM) system (copyright 1992, Gaussian, Inc.),
 the Gaussian 90(TM) system (copyright 1990, Gaussian, Inc.),
 the Gaussian 88(TM) system (copyright 1988, Gaussian, Inc.),
 the Gaussian 86(TM) system (copyright 1986, Carnegie Mellon
 University), and the Gaussian 82(TM) system (copyright 1983,
 Carnegie Mellon University). Gaussian is a federally registered
 trademark of Gaussian, Inc.
  
 This software contains proprietary and confidential information,
 including trade secrets, belonging to Gaussian, Inc.
  
 This software is provided under written license and may be
 used, copied, transmitted, or stored only in accord with that
 written license.
  
 The following legend is applicable only to US Government
 contracts under FAR:
  
                    RESTRICTED RIGHTS LEGEND
  
 Use, reproduction and disclosure by the US Government is
 subject to restrictions as set forth in subparagraphs (a)
 and (c) of the Commercial Computer Software - Restricted
 Rights clause in FAR 52.227-19.
  
 Gaussian, Inc.
 340 Quinnipiac St., Bldg. 40, Wallingford CT 06492
  
  
 ---------------------------------------------------------------
 Warning -- This program may not be used in any manner that
 competes with the business of Gaussian, Inc. or will provide
 assistance to any competitor of Gaussian, Inc.  The licensee
 of this program is prohibited from giving any competitor of
 Gaussian, Inc. access to this program.  By using this program,
 the user acknowledges that Gaussian, Inc. is engaged in the
 business of creating and licensing software in the field of
 computational chemistry and represents and warrants to the
 licensee that it is not a competitor of Gaussian, Inc. and that
 it will not use this program in any manner prohibited above.
 ---------------------------------------------------------------
  

 Cite this work as:
 Gaussian 16, Revision A.03,
 M. J. Frisch, G. W. Trucks, H. B. Schlegel, G. E. Scuseria, 
 M. A. Robb, J. R. Cheeseman, G. Scalmani, V. Barone, 
 G. A. Petersson, H. Nakatsuji, X. Li, M. Caricato, A. V. Marenich, 
 J. Bloino, B. G. Janesko, R. Gomperts, B. Mennucci, H. P. Hratchian, 
 J. V. Ortiz, A. F. Izmaylov, J. L. Sonnenberg, D. Williams-Young, 
 F. Ding, F. Lipparini, F. Egidi, J. Goings, B. Peng, A. Petrone, 
 T. Henderson, D. Ranasinghe, V. G. Zakrzewski, J. Gao, N. Rega, 
 G. Zheng, W. Liang, M. Hada, M. Ehara, K. Toyota, R. Fukuda, 
 J. Hasegawa, M. Ishida, T. Nakajima, Y. Honda, O. Kitao, H. Nakai, 
 T. Vreven, K. Throssell, J. A. Montgomery, Jr., J. E. Peralta, 
 F. Ogliaro, M. J. Bearpark, J. J. Heyd, E. N. Brothers, K. N. Kudin, 
 V. N. Staroverov, T. A. Keith, R. Kobayashi, J. Normand, 
 K. Raghavachari, A. P. Rendell, J. C. Burant, S. S. Iyengar, 
 J. Tomasi, M. Cossi, J. M. Millam, M. Klene, C. Adamo, R. Cammi, 
 J. W. Ochterski, R. L. Martin, K. Morokuma, O. Farkas, 
 J. B. Foresman, and D. J. Fox, Gaussian, Inc., Wallingford CT, 2016.
 
 ******************************************
 Gaussian 16:  ES64L-G16RevA.03 25-Dec-2016
                 4-Jul-2019 
 ******************************************
 %nproc=4
 Will use up to    4 processors via shared memory.
 %Mem=2GB
 -------------------------------------
 # td=(NStates=1) CAM-B3LYP/6-31G(d,p)
 -------------------------------------
 1/38=1,172=1/1;
 2/12=2,17=6,18=5,40=1/2;
 3/5=1,6=6,7=101,11=9,25=1,30=1,74=-40/1,2,3,8;
 4//1;
 5/5=2,38=5/2;
 8/6=1,10=2,108=1/1;
 9/41=1,42=1,70=2/14;
 6/7=2,8=2,9=2,10=2/1;
 99/5=1,9=1/99;
 --
 TD
 --
 Symbolic Z-matrix:
 Charge =  0 Multiplicity = 1
 8                     14.65852  -2.37415  -0.41431 
 8                    -14.6344   1.99345   1.02127 
 6                     11.46926  -1.07821   1.35093 
 6                    -12.28182  -1.07545   0.81036 
 6                     13.06533  -1.36452   1.16505 
 6                    -13.61476  -0.21049   0.82172 
 6                     13.29616  -1.94228  -0.19063 
 6                    -13.46174   1.38602   0.91727 
 6                     10.92585  -0.28795   0.0213 
 6                    -11.34912  -0.2744   -0.14915 
 6                     12.91771  -0.92725  -1.23935 
 6                    -12.67458   1.78831  -0.2693 
 6                     11.57289  -0.32425  -1.10023 
 6                    -11.61569   0.88851  -0.66347 
 6                     11.43605  -0.14691   2.53834 
 6                     10.60992  -2.34541   1.61911 
 6                    -11.60363  -1.14585   2.18178 
 6                    -12.57734  -2.4265    0.26569 
 6                     9.61379   0.41848   0.27707 
 6                    -10.10579  -1.09101  -0.50482 
 6                     11.00654   0.14766  -2.35689 
 6                    -10.69614   1.48513  -1.78446 
 6                     9.3374    1.69229  -0.05201 
 6                    -8.8794   -0.60424  -0.42722 
 6                     8.09706   2.3086   -0.0006 
 6                    -7.59035  -1.29025  -0.61307 
 6                     8.11233   3.78292   0.06151 
 6                    -7.7277   -2.78173  -1.12079 
 6                     6.88846   1.53449  -0.12695 
 6                    -6.42803  -0.63425  -0.39647 
 6                     5.56738   2.18655  -0.00825 
 6                    -5.11768  -1.04808  -0.70187 
 6                     4.49195   1.32199   0.01008 
 6                    -4.00038  -0.36938  -0.23888 
 6                     3.04893   1.76063   0.15645 
 6                    -2.64452  -0.68673  -0.54662 
 6                     2.74462   3.16017   0.58182 
 6                    -2.30157  -2.18383  -1.02221 
 6                     2.10713   0.74089  -0.00531 
 6                    -1.67566   0.17891  -0.36328 
 6                     0.59973   0.97143   0.0255 
 6                    -0.27524  -0.01144  -0.41207 
 1                     13.73514  -0.56159   1.31731 
 1                     13.20951  -2.18261   1.96496 
 1                    -14.23715  -0.45293   1.71854 
 1                    -14.331   -0.32379  -0.11442 
 1                     12.4678  -2.84932  -0.33549 
 1                    -12.96665   1.61545   1.71812 
 1                     13.73287  -0.25864  -1.36301 
 1                     13.03037  -1.61556  -2.15357 
 1                    -13.51142   1.64771  -1.19037 
 1                    -12.363    2.75261  -0.05682 
 1                     11.94725  -0.77527   3.39605 
 1                     10.30795  -0.01308   2.86852 
 1                     12.04439   0.82155   2.50717 
 1                     10.7325  -2.98547   0.84992 
 1                     11.01691  -2.86762   2.3582 
 1                     9.67991  -2.20767   1.58762 
 1                    -11.55345  -0.09197   2.77695 
 1                    -10.64953  -1.52195   1.87069 
 1                    -12.2756  -1.65261   2.84762 
 1                    -13.669   -2.91071   0.45212 
 1                    -11.86572  -3.2316    0.51217 
 1                    -12.70348  -2.56724  -0.87431 
 1                     8.80186  -0.17843   0.62725 
 1                    -10.20081  -2.16778  -0.49886 
 1                     9.80419   0.50934  -2.36253 
 1                     11.54922   1.02934  -2.70982 
 1                     11.19131  -0.58558  -3.12439 
 1                    -11.26318   1.66567  -2.58547 
 1                    -10.10388   0.78262  -1.97256 
 1                    -10.21259   2.37681  -1.64585 
 1                     14.64523  -2.9932    0.47076 
 1                    -15.15106   1.66538   1.77892 
 1                     10.20247   2.19483  -0.62389 
 1                    -8.70539   0.39348  -0.1024 
 1                     8.90485   4.32817  -0.58968 
 1                     7.11529   4.34633   0.17727 
 1                     8.56785   4.06532   1.07592 
 1                    -8.07073  -3.38346  -0.28208 
 1                    -8.04594  -2.84639  -2.11838 
 1                    -6.75355  -3.19685  -1.10261 
 1                     6.98809   0.54604  -0.51059 
 1                    -6.33412   0.29737   0.19185 
 1                     5.52013   3.07533   0.12163 
 1                    -4.77848  -2.14012  -1.10685 
 1                     4.4827    0.16001  -0.22999 
 1                    -4.24401   0.64017   0.365 
 1                     3.41514   3.26815   1.46158 
 1                     1.90377   3.30194   0.73545 
 1                     3.3921    3.85359   0.03866 
 1                    -2.55533  -2.89527  -0.24775 
 1                    -2.77513  -2.34139  -1.96354 
 1                    -1.17761  -2.40006  -1.12758 
 1                     2.31299  -0.13328  -0.45992 
 1                    -1.77001   1.2044    0.03972 
 1                     0.13409   1.91647   0.18451 
 1                     0.15597  -0.98764  -0.45214 
 
 Stoichiometry    C40H56O2
 Framework group  C1[X(C40H56O2)]
 Deg. of freedom   288
 Full point group                 C1      NOp   1
 Largest Abelian subgroup         C1      NOp   1
 Largest concise Abelian subgroup C1      NOp   1
                         Standard orientation:                         
 ---------------------------------------------------------------------
 Center     Atomic      Atomic             Coordinates (Angstroms)
 Number     Number       Type             X           Y           Z
 ---------------------------------------------------------------------
      1          8           0       14.654707   -2.388712   -0.374784
      2          8           0      -14.634314    2.027527    0.989885
      3          6           0       11.467905   -1.051300    1.363771
      4          6           0      -12.283682   -1.046747    0.846152
      5          6           0       13.063625   -1.342683    1.182881
      6          6           0      -13.616126   -0.180961    0.839239
      7          6           0       13.292810   -1.951086   -0.159618
      8          6           0      -13.462100    1.417209    0.898519
      9          6           0       10.923648   -0.290991    0.017135
     10          6           0      -11.351470   -0.268146   -0.132116
     11          6           0       12.913907   -0.959809   -1.230657
     12          6           0      -12.675870    1.792097   -0.297609
     13          6           0       11.569573   -0.353023   -1.103906
     14          6           0      -11.617874    0.882988   -0.672344
     15          6           0       11.436388   -0.093375    2.529856
     16          6           0       10.608108   -2.311601    1.661365
     17          6           0      -11.604200   -1.086516    2.218159
     18          6           0      -12.580504   -2.409590    0.332458
     19          6           0        9.612235    0.421822    0.258136
     20          6           0      -10.108952   -1.093328   -0.470431
     21          6           0       11.002266    0.090688   -2.370371
     22          6           0      -10.699087    1.453569   -1.807425
     23          6           0        9.336255    1.688028   -0.099402
     24          6           0       -8.882207   -0.605653   -0.405043
     25          6           0        8.096308    2.306073   -0.060750
     26          6           0       -7.593735   -1.296450   -0.576568
     27          6           0        8.112483    3.781407   -0.032006
     28          6           0       -7.732428   -2.798942   -1.050306
     29          6           0        6.887154    1.530020   -0.168398
     30          6           0       -6.430832   -0.636402   -0.375983
     31          6           0        5.566555    2.185370   -0.063193
     32          6           0       -5.121014   -1.057811   -0.673209
     33          6           0        4.490658    1.322081   -0.024291
     34          6           0       -4.002870   -0.369473   -0.226759
     35          6           0        3.048025    1.764770    0.113514
     36          6           0       -2.647494   -0.694501   -0.528552
     37          6           0        2.744933    3.173748    0.507426
     38          6           0       -2.305857   -2.202167   -0.970499
     39          6           0        2.105491    0.742193   -0.024236
     40          6           0       -1.677964    0.174492   -0.365761
     41          6           0        0.598250    0.974261    0.002803
     42          6           0       -0.277699   -0.017740   -0.411584
     43          1           0       13.734047   -0.536911    1.316293
     44          1           0       13.208122   -2.142561    2.000938
     45          1           0      -14.237771   -0.402692    1.741909
     46          1           0      -14.333345   -0.314979   -0.093414
     47          1           0       12.463794   -2.860680   -0.283131
     48          1           0      -12.966102    1.664391    1.693497
     49          1           0       13.729334   -0.294642   -1.370187
     50          1           0       13.025292   -1.668681   -2.129179
     51          1           0      -13.513687    1.631199   -1.214451
     52          1           0      -12.363542    2.760771   -0.107287
     53          1           0       11.948067   -0.702477    3.401062
     54          1           0       10.308680    0.048555    2.858003
     55          1           0       12.045247    0.873779    2.476205
     56          1           0       10.729575   -2.968967    0.906728
     57          1           0       11.015525   -2.817213    2.411678
     58          1           0        9.678150   -2.174066    1.627668
     59          1           0      -11.552840   -0.019484    2.789303
     60          1           0      -10.650615   -1.470119    1.914741
     61          1           0      -12.275804   -1.577693    2.895936
     62          1           0      -13.672254   -2.888821    0.530842
     63          1           0      -11.869102   -3.209328    0.596392
     64          1           0      -12.707839   -2.575996   -0.803940
     65          1           0        8.800314   -0.166537    0.622498
     66          1           0      -10.204576   -2.169629   -0.440033
     67          1           0        9.800116    0.452859   -2.383031
     68          1           0       11.545102    0.963839   -2.743671
     69          1           0       11.185870   -0.659826   -3.121272
     70          1           0      -11.266801    1.616286   -2.611768
     71          1           0      -10.107404    0.746636   -1.980166
     72          1           0      -10.214896    2.347867   -1.689479
     73          1           0       14.641927   -2.987577    0.524070
     74          1           0      -15.150425    1.716978    1.755251
     75          1           0       10.201044    2.176998   -0.683333
     76          1           0       -8.707312    0.399059   -0.103026
     77          1           0        8.904678    4.311331   -0.696115
     78          1           0        7.115880    4.347882    0.071951
     79          1           0        8.569153    4.086406    0.975323
     80          1           0       -8.074981   -3.381349   -0.197876
     81          1           0       -8.051675   -2.885960   -2.045868
     82          1           0       -6.758497   -3.214125   -1.023677
     83          1           0        6.985844    0.533084   -0.529686
     84          1           0       -6.335817    0.308226    0.191030
     85          1           0        5.519941    3.076893    0.046602
     86          1           0       -4.782829   -2.158919   -1.053714
     87          1           0        4.480511    0.154982   -0.238013
     88          1           0       -4.245341    0.653619    0.354373
     89          1           0        3.416368    3.301203    1.383874
     90          1           0        1.904307    3.319455    0.658616
     91          1           0        3.392275    3.854335   -0.051896
     92          1           0       -2.559267   -2.895764   -0.179900
     93          1           0       -2.780426   -2.380691   -1.907566
     94          1           0       -1.182132   -2.421392   -1.072027
     95          1           0        2.310409   -0.142157   -0.459165
     96          1           0       -1.771336    1.208891    0.014033
     97          1           0        0.133305    1.922933    0.140858
     98          1           0        0.152912   -0.994846   -0.429990
 ---------------------------------------------------------------------
 Rotational constants (GHZ):           0.2353718           0.0093094           0.0091454
 Standard basis: 6-31G(d,p) (6D, 7F)
 There are   910 symmetry adapted cartesian basis functions of A   symmetry.
 There are   910 symmetry adapted basis functions of A   symmetry.
   910 basis functions,  1568 primitive gaussians,   910 cartesian basis functions
   156 alpha electrons      156 beta electrons
       nuclear repulsion energy      3976.5190607813 Hartrees.
 NAtoms=   98 NActive=   98 NUniq=   98 SFac= 1.00D+00 NAtFMM=   60 NAOKFM=T Big=T
 Integral buffers will be    131072 words long.
 Raffenetti 1 integral format.
 Two-electron integral symmetry is turned on.
 One-electron integrals computed using PRISM.
 NBasis=   910 RedAO= T EigKep=  9.57D-04  NBF=   910
 NBsUse=   910 1.00D-06 EigRej= -1.00D+00 NBFU=   910
 ExpMin= 1.61D-01 ExpMax= 5.48D+03 ExpMxC= 8.25D+02 IAcc=3 IRadAn=         5 AccDes= 0.00D+00
 Harris functional with IExCor=20419 and IRadAn=       5 diagonalized for initial guess.
 HarFok:  IExCor=20419 AccDes= 0.00D+00 IRadAn=         5 IDoV= 1 UseB2=F ITyADJ=14
 ICtDFT=  3500011 ScaDFX=  1.000000  1.000000  1.000000  1.000000
 FoFCou: FMM=F IPFlag=           0 FMFlag=      100000 FMFlg1=        2001
         NFxFlg=           0 DoJE=T BraDBF=F KetDBF=T FulRan=T
         wScrn=  0.000000 ICntrl=       500 IOpCl=  0 I1Cent=   200000004 NGrid=           0
         NMat0=    1 NMatS0=      1 NMatT0=    0 NMatD0=    1 NMtDS0=    0 NMtDT0=    0
 Petite list used in FoFCou.
 Requested convergence on RMS density matrix=1.00D-08 within 128 cycles.
 Requested convergence on MAX density matrix=1.00D-06.
 Requested convergence on             energy=1.00D-06.
 No special actions if energy rises.
 Integral accuracy reduced to 1.0D-05 until final iterations.
 Initial convergence to 1.0D-05 achieved.  Increase integral accuracy.
 SCF Done:  E(RCAM-B3LYP) =  -1706.86786918     A.U. after   14 cycles
            NFock= 14  Conv=0.67D-08     -V/T= 2.0089
 DoSCS=F DFT=T ScalE2(SS,OS)=  1.000000  1.000000
 ExpMin= 1.61D-01 ExpMax= 5.48D+03 ExpMxC= 8.25D+02 IAcc=3 IRadAn=         5 AccDes= 0.00D+00
 HarFok:  IExCor=  205 AccDes= 0.00D+00 IRadAn=         5 IDoV=-2 UseB2=F ITyADJ=14
 ICtDFT= 12500011 ScaDFX=  1.000000  1.000000  1.000000  1.000000
 GSVD:  LWork=       -2100 too small for GESVD, short by        9450 words or        9450 for optimal perf.
 Range of M.O.s used for correlation:    43   910
 NBasis=   910 NAE=   156 NBE=   156 NFC=    42 NFV=     0
 NROrb=    868 NOA=   114 NOB=   114 NVA=   754 NVB=   754
 Orbital symmetries:
       Occupied  (A) (A) (A) (A) (A) (A) (A) (A) (A) (A) (A) (A)
                 (A) (A) (A) (A) (A) (A) (A) (A) (A) (A) (A) (A)
                 (A) (A) (A) (A) (A) (A) (A) (A) (A) (A) (A) (A)
                 (A) (A) (A) (A) (A) (A) (A) (A) (A) (A) (A) (A)
                 (A) (A) (A) (A) (A) (A) (A) (A) (A) (A) (A) (A)
                 (A) (A) (A) (A) (A) (A) (A) (A) (A) (A) (A) (A)
                 (A) (A) (A) (A) (A) (A) (A) (A) (A) (A) (A) (A)
                 (A) (A) (A) (A) (A) (A) (A) (A) (A) (A) (A) (A)
                 (A) (A) (A) (A) (A) (A) (A) (A) (A) (A) (A) (A)
                 (A) (A) (A) (A) (A) (A) (A) (A) (A) (A) (A) (A)
                 (A) (A) (A) (A) (A) (A) (A) (A) (A) (A) (A) (A)
                 (A) (A) (A) (A) (A) (A) (A) (A) (A) (A) (A) (A)
                 (A) (A) (A) (A) (A) (A) (A) (A) (A) (A) (A) (A)
       Virtual   (A) (A) (A) (A) (A) (A) (A) (A) (A) (A) (A) (A)
                 (A) (A) (A) (A) (A) (A) (A) (A) (A) (A) (A) (A)
                 (A) (A) (A) (A) (A) (A) (A) (A) (A) (A) (A) (A)
                 (A) (A) (A) (A) (A) (A) (A) (A) (A) (A) (A) (A)
                 (A) (A) (A) (A) (A) (A) (A) (A) (A) (A) (A) (A)
                 (A) (A) (A) (A) (A) (A) (A) (A) (A) (A) (A) (A)
                 (A) (A) (A) (A) (A) (A) (A) (A) (A) (A) (A) (A)
                 (A) (A) (A) (A) (A) (A) (A) (A) (A) (A) (A) (A)
                 (A) (A) (A) (A) (A) (A) (A) (A) (A) (A) (A) (A)
                 (A) (A) (A) (A) (A) (A) (A) (A) (A) (A) (A) (A)
                 (A) (A) (A) (A) (A) (A) (A) (A) (A) (A) (A) (A)
                 (A) (A) (A) (A) (A) (A) (A) (A) (A) (A) (A) (A)
                 (A) (A) (A) (A) (A) (A) (A) (A) (A) (A) (A) (A)
                 (A) (A) (A) (A) (A) (A) (A) (A) (A) (A) (A) (A)
                 (A) (A) (A) (A) (A) (A) (A) (A) (A) (A) (A) (A)
                 (A) (A) (A) (A) (A) (A) (A) (A) (A) (A) (A) (A)
                 (A) (A) (A) (A) (A) (A) (A) (A) (A) (A) (A) (A)
                 (A) (A) (A) (A) (A) (A) (A) (A) (A) (A) (A) (A)
                 (A) (A) (A) (A) (A) (A) (A) (A) (A) (A) (A) (A)
                 (A) (A) (A) (A) (A) (A) (A) (A) (A) (A) (A) (A)
                 (A) (A) (A) (A) (A) (A) (A) (A) (A) (A) (A) (A)
                 (A) (A) (A) (A) (A) (A) (A) (A) (A) (A) (A) (A)
                 (A) (A) (A) (A) (A) (A) (A) (A) (A) (A) (A) (A)
                 (A) (A) (A) (A) (A) (A) (A) (A) (A) (A) (A) (A)
                 (A) (A) (A) (A) (A) (A) (A) (A) (A) (A) (A) (A)
                 (A) (A) (A) (A) (A) (A) (A) (A) (A) (A) (A) (A)
                 (A) (A) (A) (A) (A) (A) (A) (A) (A) (A) (A) (A)
                 (A) (A) (A) (A) (A) (A) (A) (A) (A) (A) (A) (A)
                 (A) (A) (A) (A) (A) (A) (A) (A) (A) (A) (A) (A)
                 (A) (A) (A) (A) (A) (A) (A) (A) (A) (A) (A) (A)
                 (A) (A) (A) (A) (A) (A) (A) (A) (A) (A) (A) (A)
                 (A) (A) (A) (A) (A) (A) (A) (A) (A) (A) (A) (A)
                 (A) (A) (A) (A) (A) (A) (A) (A) (A) (A) (A) (A)
                 (A) (A) (A) (A) (A) (A) (A) (A) (A) (A) (A) (A)
                 (A) (A) (A) (A) (A) (A) (A) (A) (A) (A) (A) (A)
                 (A) (A) (A) (A) (A) (A) (A) (A) (A) (A) (A) (A)
                 (A) (A) (A) (A) (A) (A) (A) (A) (A) (A) (A) (A)
                 (A) (A) (A) (A) (A) (A) (A) (A) (A) (A) (A) (A)
                 (A) (A) (A) (A) (A) (A) (A) (A) (A) (A) (A) (A)
                 (A) (A) (A) (A) (A) (A) (A) (A) (A) (A) (A) (A)
                 (A) (A) (A) (A) (A) (A) (A) (A) (A) (A) (A) (A)
                 (A) (A) (A) (A) (A) (A) (A) (A) (A) (A) (A) (A)
                 (A) (A) (A) (A) (A) (A) (A) (A) (A) (A) (A) (A)
                 (A) (A) (A) (A) (A) (A) (A) (A) (A) (A) (A) (A)
                 (A) (A) (A) (A) (A) (A) (A) (A) (A) (A) (A) (A)
                 (A) (A) (A) (A) (A) (A) (A) (A) (A) (A) (A) (A)
                 (A) (A) (A) (A) (A) (A) (A) (A) (A) (A) (A) (A)
                 (A) (A) (A) (A) (A) (A) (A) (A) (A) (A) (A) (A)
                 (A) (A) (A) (A) (A) (A) (A) (A) (A) (A) (A) (A)
                 (A) (A) (A) (A) (A) (A) (A) (A) (A) (A) (A) (A)
                 (A) (A) (A) (A) (A) (A) (A) (A) (A) (A) (A) (A)
                 (A) (A) (A) (A) (A) (A) (A) (A) (A) (A) (A) (A)
                 (A) (A) (A) (A) (A) (A) (A) (A) (A) (A) (A) (A)
                 (A) (A) (A) (A) (A) (A) (A) (A) (A) (A) (A) (A)
                 (A) (A) (A) (A) (A) (A) (A) (A) (A) (A) (A) (A)
                 (A) (A) (A) (A) (A) (A) (A) (A) (A) (A) (A) (A)
                 (A) (A) (A) (A) (A) (A) (A) (A) (A) (A) (A) (A)
                 (A) (A) (A) (A) (A) (A) (A) (A) (A) (A) (A) (A)
                 (A) (A) (A) (A) (A) (A) (A) (A) (A) (A) (A) (A)
                 (A) (A) (A) (A) (A) (A) (A) (A) (A) (A) (A) (A)
                 (A) (A) (A) (A) (A) (A) (A) (A) (A) (A) (A) (A)
                 (A) (A) (A) (A) (A) (A) (A) (A) (A) (A) (A) (A)
                 (A) (A) (A) (A) (A) (A) (A) (A) (A) (A)
     4 initial guesses have been made.
 Convergence on wavefunction:    0.001000000000000
 Iteration     1 Dimension     4 NMult     0 NNew      4
 CISAX will form     4 AO SS matrices at one time.
 Iteration     2 Dimension     6 NMult     4 NNew      2
 Iteration     3 Dimension     8 NMult     6 NNew      2
 Iteration     4 Dimension    10 NMult     8 NNew      2
 Iteration     5 Dimension    12 NMult    10 NNew      2
 Iteration     6 Dimension    14 NMult    12 NNew      2
 ***********************************************************************
 Excited states from <AA,BB:AA,BB> singles matrix:
 ***********************************************************************
 
 Ground to excited state transition densities written to RWF  633
 Ground to excited state transition electric dipole moments (Au):
       state          X           Y           Z        Dip. S.      Osc.
         1        -7.2318     -1.1671     -0.3015     53.7524      3.6406
 Ground to excited state transition velocity dipole moments (Au):
       state          X           Y           Z        Dip. S.      Osc.
         1         0.7071      0.1115      0.0300      0.5133      3.3681
 Ground to excited state transition magnetic dipole moments (Au):
       state          X           Y           Z
         1         0.1211     -0.3067     -0.9715
 Ground to excited state transition velocity quadrupole moments (Au):
       state          XX          YY          ZZ          XY          XZ          YZ
         1         0.0154      0.2466      0.0124      0.1049     -0.2882     -0.0530
 <0|del|b> * <b|rxdel|0> + <0|del|b> * <b|delr+rdel|0>
 Rotatory Strengths (R) in cgs (10**-40 erg-esu-cm/Gauss)
       state          XX          YY          ZZ    R(velocity)    E-M Angle
         1       -97.7794     55.0262    197.5396     51.5955       88.27
 1/2[<0|r|b>*<b|rxdel|0> + (<0|rxdel|b>*<b|r|0>)*]
 Rotatory Strengths (R) in cgs (10**-40 erg-esu-cm/Gauss)
       state          XX          YY          ZZ     R(length)
         1       619.3460   -253.1000   -207.1210     53.0416
  1/2[<0|del|b>*<b|r|0> + (<0|r|b>*<b|del|0>)*] (Au)
       state          X           Y           Z        Dip. S.   Osc.(frdel)
         1        -5.1133     -0.1302     -0.0091      5.2525      3.5017

 Excitation energies and oscillator strengths:
 
 Excited State   1:      Singlet-A      2.7645 eV  448.49 nm  f=3.6406  <S**2>=0.000
     155 ->158         0.20377
     156 ->157         0.67002
 This state for optimization and/or second-order correction.
 Total Energy, E(TD-HF/TD-DFT) =  -1706.76627548    
 Copying the excited state density for this state as the 1-particle RhoCI density.
 SavETr:  write IOETrn=   770 NScale= 10 NData=  16 NLR=1 NState=    1 LETran=      28.

 **********************************************************************

            Population analysis using the SCF density.

 **********************************************************************

 Orbital symmetries:
       Occupied  (A) (A) (A) (A) (A) (A) (A) (A) (A) (A) (A) (A)
                 (A) (A) (A) (A) (A) (A) (A) (A) (A) (A) (A) (A)
                 (A) (A) (A) (A) (A) (A) (A) (A) (A) (A) (A) (A)
                 (A) (A) (A) (A) (A) (A) (A) (A) (A) (A) (A) (A)
                 (A) (A) (A) (A) (A) (A) (A) (A) (A) (A) (A) (A)
                 (A) (A) (A) (A) (A) (A) (A) (A) (A) (A) (A) (A)
                 (A) (A) (A) (A) (A) (A) (A) (A) (A) (A) (A) (A)
                 (A) (A) (A) (A) (A) (A) (A) (A) (A) (A) (A) (A)
                 (A) (A) (A) (A) (A) (A) (A) (A) (A) (A) (A) (A)
                 (A) (A) (A) (A) (A) (A) (A) (A) (A) (A) (A) (A)
                 (A) (A) (A) (A) (A) (A) (A) (A) (A) (A) (A) (A)
                 (A) (A) (A) (A) (A) (A) (A) (A) (A) (A) (A) (A)
                 (A) (A) (A) (A) (A) (A) (A) (A) (A) (A) (A) (A)
       Virtual   (A) (A) (A) (A) (A) (A) (A) (A) (A) (A) (A) (A)
                 (A) (A) (A) (A) (A) (A) (A) (A) (A) (A) (A) (A)
                 (A) (A) (A) (A) (A) (A) (A) (A) (A) (A) (A) (A)
                 (A) (A) (A) (A) (A) (A) (A) (A) (A) (A) (A) (A)
                 (A) (A) (A) (A) (A) (A) (A) (A) (A) (A) (A) (A)
                 (A) (A) (A) (A) (A) (A) (A) (A) (A) (A) (A) (A)
                 (A) (A) (A) (A) (A) (A) (A) (A) (A) (A) (A) (A)
                 (A) (A) (A) (A) (A) (A) (A) (A) (A) (A) (A) (A)
                 (A) (A) (A) (A) (A) (A) (A) (A) (A) (A) (A) (A)
                 (A) (A) (A) (A) (A) (A) (A) (A) (A) (A) (A) (A)
                 (A) (A) (A) (A) (A) (A) (A) (A) (A) (A) (A) (A)
                 (A) (A) (A) (A) (A) (A) (A) (A) (A) (A) (A) (A)
                 (A) (A) (A) (A) (A) (A) (A) (A) (A) (A) (A) (A)
                 (A) (A) (A) (A) (A) (A) (A) (A) (A) (A) (A) (A)
                 (A) (A) (A) (A) (A) (A) (A) (A) (A) (A) (A) (A)
                 (A) (A) (A) (A) (A) (A) (A) (A) (A) (A) (A) (A)
                 (A) (A) (A) (A) (A) (A) (A) (A) (A) (A) (A) (A)
                 (A) (A) (A) (A) (A) (A) (A) (A) (A) (A) (A) (A)
                 (A) (A) (A) (A) (A) (A) (A) (A) (A) (A) (A) (A)
                 (A) (A) (A) (A) (A) (A) (A) (A) (A) (A) (A) (A)
                 (A) (A) (A) (A) (A) (A) (A) (A) (A) (A) (A) (A)
                 (A) (A) (A) (A) (A) (A) (A) (A) (A) (A) (A) (A)
                 (A) (A) (A) (A) (A) (A) (A) (A) (A) (A) (A) (A)
                 (A) (A) (A) (A) (A) (A) (A) (A) (A) (A) (A) (A)
                 (A) (A) (A) (A) (A) (A) (A) (A) (A) (A) (A) (A)
                 (A) (A) (A) (A) (A) (A) (A) (A) (A) (A) (A) (A)
                 (A) (A) (A) (A) (A) (A) (A) (A) (A) (A) (A) (A)
                 (A) (A) (A) (A) (A) (A) (A) (A) (A) (A) (A) (A)
                 (A) (A) (A) (A) (A) (A) (A) (A) (A) (A) (A) (A)
                 (A) (A) (A) (A) (A) (A) (A) (A) (A) (A) (A) (A)
                 (A) (A) (A) (A) (A) (A) (A) (A) (A) (A) (A) (A)
                 (A) (A) (A) (A) (A) (A) (A) (A) (A) (A) (A) (A)
                 (A) (A) (A) (A) (A) (A) (A) (A) (A) (A) (A) (A)
                 (A) (A) (A) (A) (A) (A) (A) (A) (A) (A) (A) (A)
                 (A) (A) (A) (A) (A) (A) (A) (A) (A) (A) (A) (A)
                 (A) (A) (A) (A) (A) (A) (A) (A) (A) (A) (A) (A)
                 (A) (A) (A) (A) (A) (A) (A) (A) (A) (A) (A) (A)
                 (A) (A) (A) (A) (A) (A) (A) (A) (A) (A) (A) (A)
                 (A) (A) (A) (A) (A) (A) (A) (A) (A) (A) (A) (A)
                 (A) (A) (A) (A) (A) (A) (A) (A) (A) (A) (A) (A)
                 (A) (A) (A) (A) (A) (A) (A) (A) (A) (A) (A) (A)
                 (A) (A) (A) (A) (A) (A) (A) (A) (A) (A) (A) (A)
                 (A) (A) (A) (A) (A) (A) (A) (A) (A) (A) (A) (A)
                 (A) (A) (A) (A) (A) (A) (A) (A) (A) (A) (A) (A)
                 (A) (A) (A) (A) (A) (A) (A) (A) (A) (A) (A) (A)
                 (A) (A) (A) (A) (A) (A) (A) (A) (A) (A) (A) (A)
                 (A) (A) (A) (A) (A) (A) (A) (A) (A) (A) (A) (A)
                 (A) (A) (A) (A) (A) (A) (A) (A) (A) (A) (A) (A)
                 (A) (A) (A) (A) (A) (A) (A) (A) (A) (A) (A) (A)
                 (A) (A) (A) (A) (A) (A) (A) (A) (A) (A) (A) (A)
                 (A) (A) (A) (A) (A) (A) (A) (A) (A) (A) (A) (A)
                 (A) (A) (A) (A) (A) (A) (A) (A) (A) (A) (A) (A)
                 (A) (A) (A) (A) (A) (A) (A) (A) (A) (A) (A) (A)
                 (A) (A) (A) (A) (A) (A) (A) (A) (A) (A) (A) (A)
                 (A) (A) (A) (A) (A) (A) (A) (A) (A) (A) (A) (A)
                 (A) (A) (A) (A) (A) (A) (A) (A) (A) (A) (A) (A)
                 (A) (A) (A) (A) (A) (A) (A) (A) (A) (A) (A) (A)
                 (A) (A) (A) (A) (A) (A) (A) (A) (A) (A) (A) (A)
                 (A) (A) (A) (A) (A) (A) (A) (A) (A) (A) (A) (A)
                 (A) (A) (A) (A) (A) (A) (A) (A) (A) (A) (A) (A)
                 (A) (A) (A) (A) (A) (A) (A) (A) (A) (A) (A) (A)
                 (A) (A) (A) (A) (A) (A) (A) (A) (A) (A) (A) (A)
                 (A) (A) (A) (A) (A) (A) (A) (A) (A) (A)
 The electronic state is 1-A.
 Alpha  occ. eigenvalues --  -19.22766 -19.20998 -10.31078 -10.28419 -10.28184
 Alpha  occ. eigenvalues --  -10.27923 -10.27799 -10.27541 -10.27457 -10.27304
 Alpha  occ. eigenvalues --  -10.27279 -10.27265 -10.27111 -10.26991 -10.26828
 Alpha  occ. eigenvalues --  -10.26777 -10.26256 -10.26195 -10.26094 -10.26040
 Alpha  occ. eigenvalues --  -10.26023 -10.25870 -10.25805 -10.25781 -10.25762
 Alpha  occ. eigenvalues --  -10.25648 -10.25641 -10.25619 -10.25433 -10.25431
 Alpha  occ. eigenvalues --  -10.25355 -10.25142 -10.25128 -10.25065 -10.24981
 Alpha  occ. eigenvalues --  -10.24912 -10.24868 -10.24847 -10.24566 -10.24265
 Alpha  occ. eigenvalues --  -10.22056 -10.20566  -1.12299  -1.08102  -0.93418
 Alpha  occ. eigenvalues --   -0.93299  -0.91832  -0.91454  -0.90382  -0.89753
 Alpha  occ. eigenvalues --   -0.87786  -0.87273  -0.86920  -0.85521  -0.84442
 Alpha  occ. eigenvalues --   -0.83415  -0.82223  -0.80832  -0.80026  -0.78988
 Alpha  occ. eigenvalues --   -0.78398  -0.76737  -0.76287  -0.75953  -0.75724
 Alpha  occ. eigenvalues --   -0.75668  -0.75134  -0.74738  -0.73803  -0.70836
 Alpha  occ. eigenvalues --   -0.69118  -0.67651  -0.66138  -0.64252  -0.63639
 Alpha  occ. eigenvalues --   -0.63511  -0.63199  -0.62569  -0.61278  -0.60019
 Alpha  occ. eigenvalues --   -0.59599  -0.59039  -0.58579  -0.58152  -0.56740
 Alpha  occ. eigenvalues --   -0.56213  -0.55525  -0.55431  -0.54244  -0.53849
 Alpha  occ. eigenvalues --   -0.53527  -0.52699  -0.52248  -0.52057  -0.51417
 Alpha  occ. eigenvalues --   -0.51286  -0.50842  -0.50766  -0.49888  -0.49862
 Alpha  occ. eigenvalues --   -0.49301  -0.48969  -0.48911  -0.48329  -0.48065
 Alpha  occ. eigenvalues --   -0.47613  -0.47387  -0.47326  -0.47219  -0.46398
 Alpha  occ. eigenvalues --   -0.46279  -0.46209  -0.45896  -0.45605  -0.45035
 Alpha  occ. eigenvalues --   -0.44691  -0.44518  -0.44091  -0.43780  -0.43527
 Alpha  occ. eigenvalues --   -0.43084  -0.42991  -0.42929  -0.42809  -0.42345
 Alpha  occ. eigenvalues --   -0.41988  -0.41490  -0.41386  -0.41035  -0.40862
 Alpha  occ. eigenvalues --   -0.40732  -0.40438  -0.40117  -0.39885  -0.39505
 Alpha  occ. eigenvalues --   -0.39199  -0.38651  -0.38144  -0.38054  -0.37766
 Alpha  occ. eigenvalues --   -0.37343  -0.37310  -0.36348  -0.35727  -0.35264
 Alpha  occ. eigenvalues --   -0.35119  -0.33714  -0.33151  -0.32199  -0.31980
 Alpha  occ. eigenvalues --   -0.30999  -0.29730  -0.28816  -0.26648  -0.23619
 Alpha  occ. eigenvalues --   -0.20824
 Alpha virt. eigenvalues --   -0.04034  -0.00835   0.03003   0.06518   0.08601
 Alpha virt. eigenvalues --    0.09826   0.10179   0.11450   0.11767   0.12215
 Alpha virt. eigenvalues --    0.12480   0.12726   0.13125   0.13560   0.13937
 Alpha virt. eigenvalues --    0.14467   0.14753   0.15093   0.15303   0.15406
 Alpha virt. eigenvalues --    0.15561   0.15839   0.15950   0.16299   0.17003
 Alpha virt. eigenvalues --    0.17134   0.17312   0.17330   0.17983   0.18508
 Alpha virt. eigenvalues --    0.18579   0.18683   0.19218   0.19437   0.19677
 Alpha virt. eigenvalues --    0.19933   0.20010   0.20596   0.20631   0.21451
 Alpha virt. eigenvalues --    0.21514   0.21560   0.22144   0.22185   0.22423
 Alpha virt. eigenvalues --    0.22831   0.23181   0.23240   0.23332   0.23947
 Alpha virt. eigenvalues --    0.24185   0.24233   0.24323   0.24548   0.24851
 Alpha virt. eigenvalues --    0.25450   0.25476   0.25664   0.25949   0.26468
 Alpha virt. eigenvalues --    0.26764   0.26899   0.26996   0.27658   0.27949
 Alpha virt. eigenvalues --    0.28186   0.28420   0.28809   0.29206   0.29400
 Alpha virt. eigenvalues --    0.29478   0.29711   0.29971   0.30215   0.30666
 Alpha virt. eigenvalues --    0.31412   0.31754   0.32310   0.32509   0.32823
 Alpha virt. eigenvalues --    0.33238   0.33792   0.34027   0.34417   0.34501
 Alpha virt. eigenvalues --    0.35219   0.36089   0.36426   0.37372   0.37897
 Alpha virt. eigenvalues --    0.39183   0.40039   0.40675   0.41545   0.42401
 Alpha virt. eigenvalues --    0.42905   0.43745   0.44618   0.44809   0.45654
 Alpha virt. eigenvalues --    0.46443   0.46513   0.47739   0.48721   0.49322
 Alpha virt. eigenvalues --    0.49971   0.51043   0.52428   0.53398   0.54030
 Alpha virt. eigenvalues --    0.54262   0.55294   0.55844   0.56176   0.56453
 Alpha virt. eigenvalues --    0.56695   0.56893   0.57577   0.57728   0.58562
 Alpha virt. eigenvalues --    0.58654   0.58897   0.59394   0.59749   0.60244
 Alpha virt. eigenvalues --    0.60262   0.60776   0.61056   0.61174   0.61527
 Alpha virt. eigenvalues --    0.62178   0.62490   0.63172   0.63518   0.63808
 Alpha virt. eigenvalues --    0.63962   0.64210   0.64791   0.65038   0.65151
 Alpha virt. eigenvalues --    0.65524   0.65975   0.66322   0.66661   0.66913
 Alpha virt. eigenvalues --    0.67203   0.67388   0.67560   0.67751   0.68262
 Alpha virt. eigenvalues --    0.68386   0.68892   0.69142   0.69518   0.70020
 Alpha virt. eigenvalues --    0.70553   0.70983   0.71311   0.71623   0.72218
 Alpha virt. eigenvalues --    0.72628   0.72777   0.72920   0.73246   0.73515
 Alpha virt. eigenvalues --    0.73868   0.74354   0.74439   0.75695   0.75821
 Alpha virt. eigenvalues --    0.75958   0.76233   0.76486   0.76654   0.76879
 Alpha virt. eigenvalues --    0.77402   0.77752   0.78152   0.78524   0.79088
 Alpha virt. eigenvalues --    0.79685   0.79854   0.81093   0.81206   0.81638
 Alpha virt. eigenvalues --    0.82149   0.82186   0.82346   0.82671   0.82808
 Alpha virt. eigenvalues --    0.83487   0.83686   0.84189   0.84291   0.84788
 Alpha virt. eigenvalues --    0.85019   0.85594   0.85788   0.85959   0.86167
 Alpha virt. eigenvalues --    0.86238   0.86471   0.86830   0.87366   0.87807
 Alpha virt. eigenvalues --    0.87956   0.88012   0.88314   0.88923   0.89134
 Alpha virt. eigenvalues --    0.89459   0.89617   0.89878   0.90671   0.91172
 Alpha virt. eigenvalues --    0.91259   0.91549   0.91690   0.91893   0.92092
 Alpha virt. eigenvalues --    0.92207   0.93258   0.93486   0.93862   0.94040
 Alpha virt. eigenvalues --    0.94103   0.94820   0.95124   0.95221   0.95473
 Alpha virt. eigenvalues --    0.95934   0.96075   0.96188   0.96811   0.96919
 Alpha virt. eigenvalues --    0.97314   0.97573   0.97603   0.98075   0.98255
 Alpha virt. eigenvalues --    0.98356   0.98878   0.99153   0.99591   0.99804
 Alpha virt. eigenvalues --    0.99948   1.00629   1.00810   1.01114   1.01268
 Alpha virt. eigenvalues --    1.01739   1.02096   1.02447   1.02897   1.03216
 Alpha virt. eigenvalues --    1.03580   1.04378   1.04538   1.05173   1.05613
 Alpha virt. eigenvalues --    1.05998   1.06248   1.06760   1.07143   1.07480
 Alpha virt. eigenvalues --    1.07888   1.08871   1.09064   1.09434   1.09943
 Alpha virt. eigenvalues --    1.10280   1.11195   1.11475   1.11787   1.13161
 Alpha virt. eigenvalues --    1.13413   1.14173   1.14459   1.14782   1.15233
 Alpha virt. eigenvalues --    1.15576   1.16094   1.16938   1.17326   1.17913
 Alpha virt. eigenvalues --    1.18354   1.18668   1.19178   1.20157   1.20915
 Alpha virt. eigenvalues --    1.21994   1.22684   1.23176   1.24815   1.25179
 Alpha virt. eigenvalues --    1.25848   1.26569   1.27026   1.27945   1.28093
 Alpha virt. eigenvalues --    1.28452   1.30324   1.30694   1.31543   1.33312
 Alpha virt. eigenvalues --    1.33606   1.33986   1.34976   1.35124   1.35655
 Alpha virt. eigenvalues --    1.36382   1.37468   1.38412   1.38824   1.39697
 Alpha virt. eigenvalues --    1.39986   1.40710   1.40913   1.41022   1.41974
 Alpha virt. eigenvalues --    1.43547   1.43986   1.44181   1.44998   1.45181
 Alpha virt. eigenvalues --    1.45660   1.46651   1.47871   1.48348   1.48812
 Alpha virt. eigenvalues --    1.49790   1.50007   1.50616   1.52197   1.53160
 Alpha virt. eigenvalues --    1.53591   1.54577   1.55334   1.56397   1.56841
 Alpha virt. eigenvalues --    1.57564   1.59307   1.59658   1.59701   1.60402
 Alpha virt. eigenvalues --    1.60644   1.62183   1.62652   1.63336   1.63455
 Alpha virt. eigenvalues --    1.65274   1.65744   1.66607   1.67549   1.68111
 Alpha virt. eigenvalues --    1.68229   1.68746   1.69450   1.70103   1.70214
 Alpha virt. eigenvalues --    1.71239   1.71287   1.72844   1.73284   1.73822
 Alpha virt. eigenvalues --    1.75870   1.76348   1.76757   1.78008   1.78911
 Alpha virt. eigenvalues --    1.79565   1.79659   1.80170   1.80221   1.81336
 Alpha virt. eigenvalues --    1.82213   1.82773   1.82837   1.83197   1.83734
 Alpha virt. eigenvalues --    1.84787   1.84880   1.85228   1.85783   1.86048
 Alpha virt. eigenvalues --    1.86955   1.87173   1.87509   1.87642   1.88315
 Alpha virt. eigenvalues --    1.88687   1.89133   1.89637   1.89777   1.90684
 Alpha virt. eigenvalues --    1.91166   1.91677   1.92014   1.92071   1.92274
 Alpha virt. eigenvalues --    1.92794   1.93724   1.93980   1.94466   1.94522
 Alpha virt. eigenvalues --    1.95168   1.95499   1.95771   1.95933   1.96482
 Alpha virt. eigenvalues --    1.97091   1.97303   1.97562   1.98137   1.98490
 Alpha virt. eigenvalues --    1.99487   1.99683   2.00010   2.00268   2.00718
 Alpha virt. eigenvalues --    2.01018   2.01492   2.01601   2.02529   2.02893
 Alpha virt. eigenvalues --    2.03379   2.04610   2.04871   2.05757   2.05960
 Alpha virt. eigenvalues --    2.06413   2.06723   2.07248   2.07799   2.08137
 Alpha virt. eigenvalues --    2.08594   2.09266   2.09601   2.09845   2.10431
 Alpha virt. eigenvalues --    2.10774   2.11005   2.11914   2.11961   2.12921
 Alpha virt. eigenvalues --    2.13214   2.14416   2.14924   2.15103   2.15516
 Alpha virt. eigenvalues --    2.15833   2.15983   2.16634   2.17194   2.17500
 Alpha virt. eigenvalues --    2.18122   2.18297   2.18320   2.19300   2.19935
 Alpha virt. eigenvalues --    2.20254   2.20544   2.21239   2.22001   2.22300
 Alpha virt. eigenvalues --    2.22562   2.22581   2.23016   2.23953   2.24278
 Alpha virt. eigenvalues --    2.24365   2.24670   2.25124   2.25810   2.26794
 Alpha virt. eigenvalues --    2.27042   2.27250   2.27601   2.27813   2.28253
 Alpha virt. eigenvalues --    2.28437   2.28856   2.29137   2.30309   2.30428
 Alpha virt. eigenvalues --    2.31548   2.31745   2.31986   2.32997   2.33449
 Alpha virt. eigenvalues --    2.33610   2.34482   2.34741   2.34947   2.35959
 Alpha virt. eigenvalues --    2.36112   2.37151   2.37558   2.38018   2.38249
 Alpha virt. eigenvalues --    2.38446   2.38699   2.39430   2.39688   2.40076
 Alpha virt. eigenvalues --    2.40477   2.40906   2.40999   2.41394   2.41777
 Alpha virt. eigenvalues --    2.42345   2.42889   2.43073   2.43430   2.43974
 Alpha virt. eigenvalues --    2.44373   2.45319   2.45617   2.45685   2.46628
 Alpha virt. eigenvalues --    2.47097   2.47743   2.48291   2.48728   2.48890
 Alpha virt. eigenvalues --    2.49817   2.50003   2.50305   2.50438   2.50767
 Alpha virt. eigenvalues --    2.51640   2.53101   2.53549   2.53904   2.54769
 Alpha virt. eigenvalues --    2.55100   2.55231   2.56398   2.56736   2.57300
 Alpha virt. eigenvalues --    2.57591   2.58112   2.58522   2.59142   2.60097
 Alpha virt. eigenvalues --    2.60361   2.60405   2.60817   2.61042   2.61474
 Alpha virt. eigenvalues --    2.61611   2.62206   2.62985   2.63458   2.63808
 Alpha virt. eigenvalues --    2.64204   2.64649   2.65014   2.65941   2.66424
 Alpha virt. eigenvalues --    2.66609   2.66935   2.67344   2.68029   2.68430
 Alpha virt. eigenvalues --    2.68483   2.69237   2.69486   2.70065   2.71188
 Alpha virt. eigenvalues --    2.71235   2.71672   2.72503   2.72528   2.73428
 Alpha virt. eigenvalues --    2.73699   2.74411   2.74451   2.75234   2.75697
 Alpha virt. eigenvalues --    2.76072   2.76495   2.76825   2.77289   2.77572
 Alpha virt. eigenvalues --    2.77877   2.78269   2.78291   2.78657   2.79521
 Alpha virt. eigenvalues --    2.79721   2.81121   2.81850   2.82138   2.82362
 Alpha virt. eigenvalues --    2.83150   2.83735   2.84636   2.85385   2.85968
 Alpha virt. eigenvalues --    2.86055   2.86414   2.86712   2.87977   2.88066
 Alpha virt. eigenvalues --    2.88581   2.88728   2.89018   2.89476   2.89836
 Alpha virt. eigenvalues --    2.89919   2.91676   2.91942   2.92801   2.93038
 Alpha virt. eigenvalues --    2.93586   2.93744   2.94501   2.94994   2.95467
 Alpha virt. eigenvalues --    2.96176   2.96583   2.97824   2.98039   2.98920
 Alpha virt. eigenvalues --    3.00449   3.00692   3.01127   3.01321   3.01525
 Alpha virt. eigenvalues --    3.02050   3.02861   3.03367   3.04045   3.04249
 Alpha virt. eigenvalues --    3.06233   3.06480   3.06854   3.08178   3.09785
 Alpha virt. eigenvalues --    3.09982   3.10813   3.11479   3.11927   3.12090
 Alpha virt. eigenvalues --    3.13191   3.14203   3.14794   3.16098   3.17235
 Alpha virt. eigenvalues --    3.17996   3.18478   3.18582   3.19232   3.21656
 Alpha virt. eigenvalues --    3.21919   3.22426   3.22806   3.26609   3.27239
 Alpha virt. eigenvalues --    3.27339   3.28466   3.28548   3.31030   3.34340
 Alpha virt. eigenvalues --    3.34855   3.39016   3.41581   3.42733   3.43005
 Alpha virt. eigenvalues --    3.43428   3.43631   3.44288   3.44534   3.45031
 Alpha virt. eigenvalues --    3.46967   3.47619   3.48362   3.48979   3.50301
 Alpha virt. eigenvalues --    3.50692   3.52273   3.52799   3.53286   3.53592
 Alpha virt. eigenvalues --    3.55245   3.56296   3.56616   3.57049   3.57359
 Alpha virt. eigenvalues --    3.58352   3.59000   3.59561   3.60228   3.60829
 Alpha virt. eigenvalues --    3.62386   3.63452   3.63635   3.64633   3.65294
 Alpha virt. eigenvalues --    3.67658   3.69384   3.69512   3.71872   3.75600
 Alpha virt. eigenvalues --    3.76583   3.78972   3.88237   3.95003   3.98189
 Alpha virt. eigenvalues --    4.07409   4.15161   4.17958   4.18242   4.20376
 Alpha virt. eigenvalues --    4.20467   4.22258   4.23148   4.26467   4.28603
 Alpha virt. eigenvalues --    4.30081   4.31798   4.32683   4.33019   4.36065
 Alpha virt. eigenvalues --    4.38431   4.40471   4.41710   4.43915   4.46569
 Alpha virt. eigenvalues --    4.47236   4.48931   4.51333   4.53953   4.54719
 Alpha virt. eigenvalues --    4.56392   4.57277   4.58159   4.59053   4.61750
 Alpha virt. eigenvalues --    4.62549   4.64054   4.68041   4.69050   4.71250
 Alpha virt. eigenvalues --    4.72307   4.74650   4.78570   4.80803   4.82157
 Alpha virt. eigenvalues --    4.84475   4.85224   4.85947   4.92922
          Condensed to atoms (all electrons):
 Mulliken charges:
               1
     1  O   -0.554745
     2  O   -0.541451
     3  C   -0.025686
     4  C    0.015462
     5  C   -0.190044
     6  C   -0.223641
     7  C    0.155811
     8  C    0.201934
     9  C    0.022609
    10  C    0.062764
    11  C   -0.236507
    12  C   -0.210684
    13  C    0.099127
    14  C    0.034470
    15  C   -0.275946
    16  C   -0.290189
    17  C   -0.285111
    18  C   -0.318784
    19  C   -0.115710
    20  C   -0.171395
    21  C   -0.366870
    22  C   -0.332965
    23  C   -0.106538
    24  C   -0.057470
    25  C    0.102396
    26  C    0.064606
    27  C   -0.386151
    28  C   -0.371424
    29  C   -0.124749
    30  C   -0.128323
    31  C   -0.025943
    32  C   -0.078648
    33  C   -0.118728
    34  C   -0.120438
    35  C    0.100135
    36  C    0.090384
    37  C   -0.314739
    38  C   -0.375756
    39  C   -0.147694
    40  C   -0.113699
    41  C   -0.111166
    42  C   -0.075639
    43  H    0.114872
    44  H    0.064217
    45  H    0.052003
    46  H    0.083533
    47  H    0.047380
    48  H    0.067803
    49  H    0.124128
    50  H    0.104576
    51  H    0.083707
    52  H    0.109869
    53  H    0.072609
    54  H    0.087735
    55  H    0.104750
    56  H    0.108519
    57  H    0.109049
    58  H    0.112947
    59  H    0.080695
    60  H    0.115523
    61  H    0.108102
    62  H    0.084861
    63  H    0.103395
    64  H    0.107175
    65  H    0.086303
    66  H    0.086559
    67  H    0.095619
    68  H    0.111934
    69  H    0.114079
    70  H    0.109251
    71  H    0.115478
    72  H    0.107123
    73  H    0.307890
    74  H    0.308751
    75  H    0.084443
    76  H    0.083240
    77  H    0.121539
    78  H    0.106345
    79  H    0.115376
    80  H    0.126604
    81  H    0.136154
    82  H    0.107251
    83  H    0.096504
    84  H    0.086839
    85  H    0.036041
    86  H    0.078054
    87  H    0.084390
    88  H    0.073562
    89  H    0.122389
    90  H    0.088112
    91  H    0.125196
    92  H    0.128640
    93  H    0.132732
    94  H    0.101910
    95  H    0.085412
    96  H    0.075614
    97  H    0.082025
    98  H    0.078325
 Sum of Mulliken charges =  -0.00000
 Mulliken charges with hydrogens summed into heavy atoms:
               1
     1  O   -0.246856
     2  O   -0.232699
     3  C   -0.025686
     4  C    0.015462
     5  C   -0.010955
     6  C   -0.088105
     7  C    0.203191
     8  C    0.269737
     9  C    0.022609
    10  C    0.062764
    11  C   -0.007803
    12  C   -0.017108
    13  C    0.099127
    14  C    0.034470
    15  C   -0.010853
    16  C    0.040326
    17  C    0.019209
    18  C   -0.023353
    19  C   -0.029407
    20  C   -0.084836
    21  C   -0.045238
    22  C   -0.001112
    23  C   -0.022095
    24  C    0.025769
    25  C    0.102396
    26  C    0.064606
    27  C   -0.042891
    28  C   -0.001415
    29  C   -0.028245
    30  C   -0.041484
    31  C    0.010097
    32  C   -0.000594
    33  C   -0.034337
    34  C   -0.046875
    35  C    0.100135
    36  C    0.090384
    37  C    0.020957
    38  C   -0.012473
    39  C   -0.062282
    40  C   -0.038084
    41  C   -0.029141
    42  C    0.002686
 Electronic spatial extent (au):  <R**2>=         110782.5095
 Charge=             -0.0000 electrons
 Dipole moment (field-independent basis, Debye):
    X=              0.4045    Y=             -0.9061    Z=              2.2638  Tot=              2.4717
 Quadrupole moment (field-independent basis, Debye-Ang):
   XX=           -287.1822   YY=           -242.6517   ZZ=           -261.0807
   XY=             17.9999   XZ=             -3.6210   YZ=              0.9685
 Traceless Quadrupole moment (field-independent basis, Debye-Ang):
   XX=            -23.5440   YY=             20.9865   ZZ=              2.5575
   XY=             17.9999   XZ=             -3.6210   YZ=              0.9685
 Octapole moment (field-independent basis, Debye-Ang**2):
  XXX=           -435.6489  YYY=              2.1586  ZZZ=              4.2910  XYY=             88.1261
  XXY=           -147.2363  XXZ=            498.6451  XZZ=            -59.9945  YZZ=             -2.7704
  YYZ=             15.9045  XYZ=           -101.3032
 Hexadecapole moment (field-independent basis, Debye-Ang**3):
 XXXX=        -155630.4473 YYYY=          -4514.2022 ZZZZ=          -2051.2132 XXXY=           3466.0701
 XXXZ=           -778.4473 YYYX=            -69.0299 YYYZ=             -8.6418 ZZZX=           -287.6288
 ZZZY=             41.5318 XXYY=         -24488.2123 XXZZ=         -23661.0789 YYZZ=          -1119.4699
 XXYZ=           -537.3711 YYXZ=            223.5019 ZZXY=           -283.9558
 N-N= 3.976519060781D+03 E-N=-1.190911052731D+04  KE= 1.691843639285D+03
 1\1\GINC-PADAWAN\SP\RCAM-B3LYP TD-FC\6-31G(d,p)\C40H56O2\PADAWAN\04-Ju
 l-2019\0\\# td=(NStates=1) CAM-B3LYP/6-31G(d,p)\\TD\\0,1\O,0,14.658524
 0714,-2.3741548866,-0.414310284\O,0,-14.634400037,1.9934512011,1.02127
 12211\C,0,11.46926022,-1.0782084549,1.3509284538\C,0,-12.2818158136,-1
 .075450105,0.8103565577\C,0,13.0653252645,-1.36451949,1.1650540774\C,0
 ,-13.6147640854,-0.2104872087,0.8217210681\C,0,13.2961616102,-1.942279
 7551,-0.1906339524\C,0,-13.4617385139,1.3860214001,0.9172735114\C,0,10
 .9258511111,-0.2879530114,0.0212978838\C,0,-11.3491220132,-0.274398468
 8,-0.1491456686\C,0,12.9177059896,-0.9272534824,-1.2393548085\C,0,-12.
 6745782178,1.7883068077,-0.2693039724\C,0,11.5728920362,-0.3242527984,
 -1.1002285389\C,0,-11.6156851585,0.8885051735,-0.6634658856\C,0,11.436
 0543324,-0.1469138495,2.5383442754\C,0,10.609920433,-2.3454050216,1.61
 9110031\C,0,-11.6036325573,-1.1458464126,2.1817767577\C,0,-12.57733843
 58,-2.4264980928,0.2656884728\C,0,9.6137862046,0.4184828852,0.27707438
 74\C,0,-10.1057919462,-1.0910131863,-0.5048191629\C,0,11.0065434193,0.
 1476592308,-2.356889896\C,0,-10.6961420532,1.4851288969,-1.7844577528\
 C,0,9.3374037074,1.6922926672,-0.0520105751\C,0,-8.8793984248,-0.60424
 39814,-0.4272237684\C,0,8.0970556916,2.3086006,-0.0006043914\C,0,-7.59
 03541774,-1.2902533584,-0.6130666387\C,0,8.1123317142,3.7829164965,0.0
 615075168\C,0,-7.7277038764,-2.7817279209,-1.1207922542\C,0,6.88846425
 34,1.5344934432,-0.1269527013\C,0,-6.4280346065,-0.6342489,-0.39647265
 33\C,0,5.5673772897,2.1865463615,-0.0082459086\C,0,-5.1176828903,-1.04
 80846846,-0.7018723612\C,0,4.4919531263,1.3219876127,0.0100753785\C,0,
 -4.0003754575,-0.3693831444,-0.2388812181\C,0,3.0489274977,1.760626660
 6,0.1564473097\C,0,-2.6445182158,-0.6867330034,-0.5466223222\C,0,2.744
 6247435,3.1601654654,0.5818208911\C,0,-2.3015656506,-2.1838256847,-1.0
 222132613\C,0,2.107130288,0.740891253,-0.005309656\C,0,-1.6756588889,0
 .1789075967,-0.3632781548\C,0,0.5997271417,0.9714319111,0.0254984298\C
 ,0,-0.2752363926,-0.0114432494,-0.4120688469\H,0,13.7351427863,-0.5615
 895941,1.3173065687\H,0,13.2095061866,-2.182608842,1.9649566277\H,0,-1
 4.2371464916,-0.4529254495,1.7185390599\H,0,-14.3310044674,-0.32378930
 19,-0.1144230623\H,0,12.4678019822,-2.8493196751,-0.3354916142\H,0,-12
 .9666521262,1.6154460626,1.7181212851\H,0,13.7328742194,-0.258638584,-
 1.3630121852\H,0,13.0303745305,-1.6155637835,-2.1535660326\H,0,-13.511
 4166857,1.6477060916,-1.1903669697\H,0,-12.3630049075,2.7526073247,-0.
 0568225653\H,0,11.9472533453,-0.7752682529,3.3960542664\H,0,10.3079466
 597,-0.0130808182,2.8685157326\H,0,12.0443937094,0.8215518881,2.507169
 852\H,0,10.7325022532,-2.985469127,0.849920378\H,0,11.0169126083,-2.86
 76216793,2.3581957436\H,0,9.6799139924,-2.2076717603,1.5876237054\H,0,
 -11.5534522452,-0.0919736264,2.7769515882\H,0,-10.6495294619,-1.521949
 3499,1.8706930733\H,0,-12.2755987189,-1.6526061656,2.8476173577\H,0,-1
 3.6689966807,-2.9107123232,0.452119721\H,0,-11.86571962,-3.2315951875,
 0.5121662726\H,0,-12.7034807061,-2.5672370317,-0.8743059046\H,0,8.8018
 620102,-0.1784261627,0.6272469087\H,0,-10.200809813,-2.1677805021,-0.4
 98859519\H,0,9.8041928383,0.509341032,-2.3625309561\H,0,11.5492233573,
 1.0293372246,-2.7098206961\H,0,11.1913133663,-0.585579045,-3.124389569
 \H,0,-11.2631773247,1.665669796,-2.58547004\H,0,-10.1038759266,0.78261
 88989,-1.9725618622\H,0,-10.2125930143,2.3768062936,-1.6458481808\H,0,
 14.6452310761,-2.9931982249,0.4707589689\H,0,-15.1510645415,1.66538145
 21,1.7789160966\H,0,10.2024657286,2.1948327872,-0.6238917042\H,0,-8.70
 53872357,0.3934814461,-0.1023950525\H,0,8.9048533473,4.3281726702,-0.5
 896752705\H,0,7.1152949185,4.3463300419,0.1772735604\H,0,8.5678514951,
 4.0653194188,1.0759206101\H,0,-8.0707341034,-3.3834552746,-0.282084047
 4\H,0,-8.04594035,-2.8463936535,-2.1183781678\H,0,-6.7535542044,-3.196
 8533374,-1.1026070527\H,0,6.988090472,0.5460383467,-0.5105944514\H,0,-
 6.3341236744,0.2973695769,0.1918468077\H,0,5.5201313971,3.0753326812,0
 .1216344184\H,0,-4.7784816682,-2.1401153186,-1.1068480848\H,0,4.482701
 3691,0.1600142473,-0.2299914101\H,0,-4.244009905,0.6401691338,0.364999
 2959\H,0,3.4151392989,3.268150857,1.4615823592\H,0,1.9037670297,3.3019
 388648,0.7354459526\H,0,3.3921032323,3.8535931932,0.0386633703\H,0,-2.
 5553276698,-2.8952666738,-0.2477478188\H,0,-2.7751270207,-2.3413852586
 ,-1.963540321\H,0,-1.1776145605,-2.4000601811,-1.1275757936\H,0,2.3129
 884568,-0.1332819793,-0.4599238964\H,0,-1.7700064016,1.2044003579,0.03
 97173587\H,0,0.1340891559,1.9164743533,0.1845142464\H,0,0.1559683668,-
 0.987638714,-0.4521427983\\Version=ES64L-G16RevA.03\State=1-A\HF=-1706
 .8678692\RMSD=6.656e-09\PG=C01 [X(C40H56O2)]\\@


 WHAT THE SLIME CONTAINS, THE GLOWING REVEALS
 BY THE FLAME'S BRIGHT HUE WHEN YOU IGNITE IT.
   --  LEONARD THURNEYSSER, 1531-1596
 DESCRIBING HIS FLAME PHOTOLYSIS ANALYTIC METHOD
 Job cpu time:       0 days  5 hours 52 minutes  5.5 seconds.
 Elapsed time:       0 days  1 hours 28 minutes 29.5 seconds.
 File lengths (MBytes):  RWF=   3127 Int=      0 D2E=      0 Chk=     84 Scr=      1
 Normal termination of Gaussian 16 at Thu Jul  4 09:04:34 2019.
