 Entering Gaussian System, Link 0=g16
 Input=Geometria-463-.com
 Output=Geometria-463-.log
 Initial command:
 /usr/local/g16/l1.exe "/home/padawan/israel-mol/zeaxanthin/spectra/abs/Gau-25413.inp" -scrdir="/home/padawan/israel-mol/zeaxanthin/spectra/abs/"
 Entering Link 1 = /usr/local/g16/l1.exe PID=     25415.
  
 Copyright (c) 1988,1990,1992,1993,1995,1998,2003,2009,2016,
            Gaussian, Inc.  All Rights Reserved.
  
 This is part of the Gaussian(R) 16 program.  It is based on
 the Gaussian(R) 09 system (copyright 2009, Gaussian, Inc.),
 the Gaussian(R) 03 system (copyright 2003, Gaussian, Inc.),
 the Gaussian(R) 98 system (copyright 1998, Gaussian, Inc.),
 the Gaussian(R) 94 system (copyright 1995, Gaussian, Inc.),
 the Gaussian 92(TM) system (copyright 1992, Gaussian, Inc.),
 the Gaussian 90(TM) system (copyright 1990, Gaussian, Inc.),
 the Gaussian 88(TM) system (copyright 1988, Gaussian, Inc.),
 the Gaussian 86(TM) system (copyright 1986, Carnegie Mellon
 University), and the Gaussian 82(TM) system (copyright 1983,
 Carnegie Mellon University). Gaussian is a federally registered
 trademark of Gaussian, Inc.
  
 This software contains proprietary and confidential information,
 including trade secrets, belonging to Gaussian, Inc.
  
 This software is provided under written license and may be
 used, copied, transmitted, or stored only in accord with that
 written license.
  
 The following legend is applicable only to US Government
 contracts under FAR:
  
                    RESTRICTED RIGHTS LEGEND
  
 Use, reproduction and disclosure by the US Government is
 subject to restrictions as set forth in subparagraphs (a)
 and (c) of the Commercial Computer Software - Restricted
 Rights clause in FAR 52.227-19.
  
 Gaussian, Inc.
 340 Quinnipiac St., Bldg. 40, Wallingford CT 06492
  
  
 ---------------------------------------------------------------
 Warning -- This program may not be used in any manner that
 competes with the business of Gaussian, Inc. or will provide
 assistance to any competitor of Gaussian, Inc.  The licensee
 of this program is prohibited from giving any competitor of
 Gaussian, Inc. access to this program.  By using this program,
 the user acknowledges that Gaussian, Inc. is engaged in the
 business of creating and licensing software in the field of
 computational chemistry and represents and warrants to the
 licensee that it is not a competitor of Gaussian, Inc. and that
 it will not use this program in any manner prohibited above.
 ---------------------------------------------------------------
  

 Cite this work as:
 Gaussian 16, Revision A.03,
 M. J. Frisch, G. W. Trucks, H. B. Schlegel, G. E. Scuseria, 
 M. A. Robb, J. R. Cheeseman, G. Scalmani, V. Barone, 
 G. A. Petersson, H. Nakatsuji, X. Li, M. Caricato, A. V. Marenich, 
 J. Bloino, B. G. Janesko, R. Gomperts, B. Mennucci, H. P. Hratchian, 
 J. V. Ortiz, A. F. Izmaylov, J. L. Sonnenberg, D. Williams-Young, 
 F. Ding, F. Lipparini, F. Egidi, J. Goings, B. Peng, A. Petrone, 
 T. Henderson, D. Ranasinghe, V. G. Zakrzewski, J. Gao, N. Rega, 
 G. Zheng, W. Liang, M. Hada, M. Ehara, K. Toyota, R. Fukuda, 
 J. Hasegawa, M. Ishida, T. Nakajima, Y. Honda, O. Kitao, H. Nakai, 
 T. Vreven, K. Throssell, J. A. Montgomery, Jr., J. E. Peralta, 
 F. Ogliaro, M. J. Bearpark, J. J. Heyd, E. N. Brothers, K. N. Kudin, 
 V. N. Staroverov, T. A. Keith, R. Kobayashi, J. Normand, 
 K. Raghavachari, A. P. Rendell, J. C. Burant, S. S. Iyengar, 
 J. Tomasi, M. Cossi, J. M. Millam, M. Klene, C. Adamo, R. Cammi, 
 J. W. Ochterski, R. L. Martin, K. Morokuma, O. Farkas, 
 J. B. Foresman, and D. J. Fox, Gaussian, Inc., Wallingford CT, 2016.
 
 ******************************************
 Gaussian 16:  ES64L-G16RevA.03 25-Dec-2016
                10-Jul-2019 
 ******************************************
 %nproc=4
 Will use up to    4 processors via shared memory.
 %Mem=2GB
 -------------------------------------
 # td=(NStates=1) CAM-B3LYP/6-31G(d,p)
 -------------------------------------
 1/38=1,172=1/1;
 2/12=2,17=6,18=5,40=1/2;
 3/5=1,6=6,7=101,11=9,25=1,30=1,74=-40/1,2,3,8;
 4//1;
 5/5=2,38=5/2;
 8/6=1,10=2,108=1/1;
 9/41=1,42=1,70=2/14;
 6/7=2,8=2,9=2,10=2/1;
 99/5=1,9=1/99;
 --
 TD
 --
 Symbolic Z-matrix:
 Charge =  0 Multiplicity = 1
 8                     14.62609  -2.25711  -0.4529 
 8                    -14.64926   2.00612   0.71115 
 6                     11.5308  -0.93143   1.09128 
 6                    -12.30128  -0.95363   0.69931 
 6                     12.94339  -1.26554   0.87858 
 6                    -13.67577  -0.21241   0.6912 
 6                     13.32282  -2.03187  -0.31564 
 6                    -13.41908   1.26231   0.6789 
 6                     10.92364  -0.29478  -0.08408 
 6                    -11.35213  -0.30492  -0.35772 
 6                     12.93319  -1.01405  -1.43001 
 6                    -12.65884   1.7511   -0.57455 
 6                     11.5755  -0.27334  -1.25624 
 6                    -11.46622   0.9116   -0.92507 
 6                     11.37321  -0.18681   2.41561 
 6                     10.67443  -2.30044   1.36865 
 6                    -11.62418  -0.79863   2.07465 
 6                    -12.57917  -2.38713   0.388 
 6                     9.58192   0.37983   0.09433 
 6                    -10.13224  -1.13197  -0.44779 
 6                     11.0545   0.28401  -2.52398 
 6                    -10.69712   1.51526  -1.98421 
 6                     9.40553   1.70603  -0.20184 
 6                    -8.90788  -0.62165  -0.34671 
 6                     8.07986   2.2259    0.07274 
 6                    -7.61266  -1.34349  -0.53776 
 6                     8.16817   3.74911   0.30366 
 6                    -7.63122  -2.81409  -0.99473 
 6                     6.92724   1.57463   0.03218 
 6                    -6.40938  -0.68482  -0.3996 
 6                     5.50851   2.02373   0.17381 
 6                    -5.11347  -1.16838  -0.49097 
 6                     4.41326   1.29641   0.14464 
 6                    -4.02311  -0.32477  -0.12822 
 6                     3.11056   1.67861   0.25427 
 6                    -2.67108  -0.82941  -0.27843 
 6                     2.82965   3.12121   0.82666 
 6                    -2.36828  -2.2084   -0.73033 
 6                     2.06699   0.83571   0.16215 
 6                    -1.70418   0.15763   0.13048 
 6                     0.60998   0.92998   0.30708 
 6                    -0.21732  -0.11427   0.0994 
 1                     13.60529  -0.54502   1.1597 
 1                     13.21484  -2.04125   1.61143 
 1                    -14.33073  -0.72785   1.53518 
 1                    -13.99995  -0.5842   -0.32364 
 1                     12.77635  -2.8187   -0.46328 
 1                    -12.76276   1.61195   1.64105 
 1                     13.67763  -0.19518  -1.48482 
 1                     12.97795  -1.34289  -2.44687 
 1                    -13.3663   1.739    -1.45256 
 1                    -12.28093   2.79985  -0.39254 
 1                     11.52436  -0.81712   3.23666 
 1                     10.24126  -0.03381   2.56213 
 1                     11.81101   0.71808   2.37398 
 1                     10.78198  -3.20765   0.77972 
 1                     11.0038  -2.74056   2.40811 
 1                     9.53368  -2.16956   1.44057 
 1                    -11.33744   0.28845   2.25177 
 1                    -10.66007  -1.33713   2.14641 
 1                    -12.35639  -1.10903   2.77578 
 1                    -13.29906  -2.84829   1.07462 
 1                    -11.62817  -2.95794   0.39221 
 1                    -12.927   -2.75154  -0.72238 
 1                     8.74627  -0.091     0.51125 
 1                    -10.37798  -2.23508  -0.50925 
 1                     9.94701   0.39987  -2.46478 
 1                     11.51727   1.30425  -2.69268 
 1                     11.27211  -0.35939  -3.10904 
 1                    -11.56201   1.91867  -2.68803 
 1                    -10.03011   0.85322  -2.47059 
 1                    -10.23026   2.42403  -1.73278 
 1                     14.92336  -2.80676   0.12316 
 1                    -14.95034   1.94395   1.63079 
 1                     10.28965   2.42464  -0.45415 
 1                    -8.7974    0.48335  -0.13565 
 1                     8.92835   4.02167  -0.4142 
 1                     7.27318   4.36587   0.27946 
 1                     8.80289   3.87973   1.15287 
 1                    -8.2318   -3.65201  -0.31606 
 1                    -8.26725  -2.84219  -1.85754 
 1                    -6.65813  -3.32486  -1.14323 
 1                     6.95087   0.40442  -0.03308 
 1                    -6.6072    0.46065  -0.09272 
 1                     5.421     2.9653    0.59216 
 1                    -4.9441   -2.12328  -0.86717 
 1                     4.53924   0.17761  -0.31083 
 1                    -4.07894   0.62336   0.21971 
 1                     3.2957    3.31996   1.72226 
 1                     1.71487   3.28362   1.09899 
 1                     2.95823   3.93564   0.11351 
 1                    -2.89721  -3.06366  -0.07182 
 1                    -3.06516  -2.60403  -1.6716 
 1                    -1.42874  -2.42504  -0.71074 
 1                     2.24463  -0.14658  -0.0832 
 1                    -2.15493   1.13177   0.36231 
 1                     0.09577   1.91775   0.41792 
 1                     0.11403  -1.06686  -0.10702 
 
 Stoichiometry    C40H56O2
 Framework group  C1[X(C40H56O2)]
 Deg. of freedom   288
 Full point group                 C1      NOp   1
 Largest Abelian subgroup         C1      NOp   1
 Largest concise Abelian subgroup C1      NOp   1
                         Standard orientation:                         
 ---------------------------------------------------------------------
 Center     Atomic      Atomic             Coordinates (Angstroms)
 Number     Number       Type             X           Y           Z
 ---------------------------------------------------------------------
      1          8           0       14.625256   -2.286254   -0.362019
      2          8           0      -14.645683    2.049476    0.632977
      3          6           0       11.532389   -0.889462    1.123220
      4          6           0      -12.300037   -0.909712    0.753139
      5          6           0       12.944531   -1.234022    0.924644
      6          6           0      -13.673954   -0.168485    0.712660
      7          6           0       13.322290   -2.053949   -0.233970
      8          6           0      -13.416120    1.303950    0.633381
      9          6           0       10.924681   -0.306182   -0.079244
     10          6           0      -11.351330   -0.310314   -0.332987
     11          6           0       12.932455   -1.087312   -1.392955
     12          6           0      -12.656613    1.734862   -0.641573
     13          6           0       11.575508   -0.338369   -1.251734
     14          6           0      -11.464971    0.879362   -0.954744
     15          6           0       11.376572   -0.085508    2.412611
     16          6           0       10.675193   -2.243799    1.463030
     17          6           0      -11.621590   -0.693162    2.119468
     18          6           0      -12.579333   -2.355614    0.507299
     19          6           0        9.583654    0.376924    0.069590
     20          6           0      -10.132174   -1.141597   -0.386573
     21          6           0       11.053806    0.161440   -2.542954
     22          6           0      -10.696348    1.433818   -2.040788
     23          6           0        9.408038    1.688504   -0.286165
     24          6           0       -8.907320   -0.628232   -0.309748
     25          6           0        8.083026    2.221366   -0.034267
     26          6           0       -7.612834   -1.359054   -0.469035
     27          6           0        8.172733    3.753396    0.127371
     28          6           0       -7.632967   -2.848823   -0.858935
     29          6           0        6.929853    1.569874   -0.044305
     30          6           0       -6.408920   -0.695803   -0.361879
     31          6           0        5.511607    2.026099    0.078063
     32          6           0       -5.113472   -1.184066   -0.432373
     33          6           0        4.415755    1.299103    0.082794
     34          6           0       -4.022121   -0.325799   -0.109129
     35          6           0        3.113462    1.686954    0.176124
     36          6           0       -2.670626   -0.837836   -0.237493
     37          6           0        2.834198    3.154225    0.682848
     38          6           0       -2.369316   -2.236124   -0.626760
     39          6           0        2.069141    0.841611    0.123160
     40          6           0       -1.702585    0.165900    0.125472
     41          6           0        0.612338    0.943546    0.264926
     42          6           0       -0.215967   -0.108354    0.105458
     43          1           0       13.607246   -0.502057    1.172288
     44          1           0       13.216022   -1.975984    1.691638
     45          1           0      -14.328557   -0.644647    1.579678
     46          1           0      -13.999336   -0.585573   -0.284028
     47          1           0       12.775069   -2.846204   -0.345371
     48          1           0      -12.758661    1.696250    1.578152
     49          1           0       13.677489   -0.272378   -1.485426
     50          1           0       12.976047   -1.461886   -2.393912
     51          1           0      -13.364874    1.683596   -1.517524
     52          1           0      -12.277716    2.790464   -0.507552
     53          1           0       11.527966   -0.678125    3.261224
     54          1           0       10.244877    0.074898    2.553019
     55          1           0       11.815048    0.816207    2.329670
     56          1           0       10.781503   -3.176833    0.915687
     57          1           0       11.005153   -2.636674    2.521064
     58          1           0        9.534614   -2.108853    1.529925
     59          1           0      -11.333834    0.400592    2.246941
     60          1           0      -10.657835   -1.228655    2.214713
     61          1           0      -12.353407   -0.970893    2.834567
     62          1           0      -13.298970   -2.784610    1.214715
     63          1           0      -11.628775   -2.926426    0.536536
     64          1           0      -12.928448   -2.769629   -0.585145
     65          1           0        8.748001   -0.073853    0.508118
     66          1           0      -10.378828   -2.246155   -0.397809
     67          1           0        9.946460    0.280773   -2.488113
     68          1           0       11.517228    1.172615   -2.758076
     69          1           0       11.270389   -0.507969   -3.098470
     70          1           0      -11.561546    1.805653   -2.761410
     71          1           0      -10.030291    0.749878   -2.497270
     72          1           0      -10.228552    2.352653   -1.831164
     73          1           0       14.922608   -2.809498    0.238090
     74          1           0      -14.945991    2.029254    1.554749
     75          1           0       10.292499    2.394215   -0.571522
     76          1           0       -8.795778    0.485095   -0.149035
     77          1           0        8.932482    3.992545   -0.602747
     78          1           0        7.278210    4.369166    0.076041
     79          1           0        8.808324    3.921806    0.969246
     80          1           0       -8.233592   -3.654660   -0.142503
     81          1           0       -8.269790   -2.915437   -1.719043
     82          1           0       -6.660412   -3.366591   -0.984994
     83          1           0        6.952504    0.397897   -0.056534
     84          1           0       -6.605563    0.462550   -0.107007
     85          1           0        5.425212    2.985719    0.453426
     86          1           0       -4.945185   -2.155167   -0.765099
     87          1           0        4.540449    0.160726   -0.321658
     88          1           0       -4.076900    0.637154    0.195568
     89          1           0        3.301201    3.392932    1.568132
     90          1           0        1.719786    3.329715    0.948510
     91          1           0        2.962776    3.935424   -0.066552
     92          1           0       -2.898326   -3.060259    0.070258
     93          1           0       -3.067343   -2.673395   -1.548548
     94          1           0       -1.429926   -2.452435   -0.598188
     95          1           0        2.245795   -0.150931   -0.077607
     96          1           0       -2.152365    1.149917    0.313342
     97          1           0        0.099001    1.935752    0.331370
     98          1           0        0.114454   -1.069580   -0.057905
 ---------------------------------------------------------------------
 Rotational constants (GHZ):           0.2427015           0.0093198           0.0091552
 Standard basis: 6-31G(d,p) (6D, 7F)
 There are   910 symmetry adapted cartesian basis functions of A   symmetry.
 There are   910 symmetry adapted basis functions of A   symmetry.
   910 basis functions,  1568 primitive gaussians,   910 cartesian basis functions
   156 alpha electrons      156 beta electrons
       nuclear repulsion energy      3989.7889955519 Hartrees.
 NAtoms=   98 NActive=   98 NUniq=   98 SFac= 1.00D+00 NAtFMM=   60 NAOKFM=T Big=T
 Integral buffers will be    131072 words long.
 Raffenetti 1 integral format.
 Two-electron integral symmetry is turned on.
 One-electron integrals computed using PRISM.
 NBasis=   910 RedAO= T EigKep=  8.35D-04  NBF=   910
 NBsUse=   910 1.00D-06 EigRej= -1.00D+00 NBFU=   910
 ExpMin= 1.61D-01 ExpMax= 5.48D+03 ExpMxC= 8.25D+02 IAcc=3 IRadAn=         5 AccDes= 0.00D+00
 Harris functional with IExCor=20419 and IRadAn=       5 diagonalized for initial guess.
 HarFok:  IExCor=20419 AccDes= 0.00D+00 IRadAn=         5 IDoV= 1 UseB2=F ITyADJ=14
 ICtDFT=  3500011 ScaDFX=  1.000000  1.000000  1.000000  1.000000
 FoFCou: FMM=F IPFlag=           0 FMFlag=      100000 FMFlg1=        2001
         NFxFlg=           0 DoJE=T BraDBF=F KetDBF=T FulRan=T
         wScrn=  0.000000 ICntrl=       500 IOpCl=  0 I1Cent=   200000004 NGrid=           0
         NMat0=    1 NMatS0=      1 NMatT0=    0 NMatD0=    1 NMtDS0=    0 NMtDT0=    0
 Petite list used in FoFCou.
 Requested convergence on RMS density matrix=1.00D-08 within 128 cycles.
 Requested convergence on MAX density matrix=1.00D-06.
 Requested convergence on             energy=1.00D-06.
 No special actions if energy rises.
 Integral accuracy reduced to 1.0D-05 until final iterations.
 Initial convergence to 1.0D-05 achieved.  Increase integral accuracy.
 SCF Done:  E(RCAM-B3LYP) =  -1706.98687914     A.U. after   14 cycles
            NFock= 14  Conv=0.45D-08     -V/T= 2.0090
 DoSCS=F DFT=T ScalE2(SS,OS)=  1.000000  1.000000
 ExpMin= 1.61D-01 ExpMax= 5.48D+03 ExpMxC= 8.25D+02 IAcc=3 IRadAn=         5 AccDes= 0.00D+00
 HarFok:  IExCor=  205 AccDes= 0.00D+00 IRadAn=         5 IDoV=-2 UseB2=F ITyADJ=14
 ICtDFT= 12500011 ScaDFX=  1.000000  1.000000  1.000000  1.000000
 GSVD:  LWork=       -2100 too small for GESVD, short by        9450 words or        9450 for optimal perf.
 Range of M.O.s used for correlation:    43   910
 NBasis=   910 NAE=   156 NBE=   156 NFC=    42 NFV=     0
 NROrb=    868 NOA=   114 NOB=   114 NVA=   754 NVB=   754
 Orbital symmetries:
       Occupied  (A) (A) (A) (A) (A) (A) (A) (A) (A) (A) (A) (A)
                 (A) (A) (A) (A) (A) (A) (A) (A) (A) (A) (A) (A)
                 (A) (A) (A) (A) (A) (A) (A) (A) (A) (A) (A) (A)
                 (A) (A) (A) (A) (A) (A) (A) (A) (A) (A) (A) (A)
                 (A) (A) (A) (A) (A) (A) (A) (A) (A) (A) (A) (A)
                 (A) (A) (A) (A) (A) (A) (A) (A) (A) (A) (A) (A)
                 (A) (A) (A) (A) (A) (A) (A) (A) (A) (A) (A) (A)
                 (A) (A) (A) (A) (A) (A) (A) (A) (A) (A) (A) (A)
                 (A) (A) (A) (A) (A) (A) (A) (A) (A) (A) (A) (A)
                 (A) (A) (A) (A) (A) (A) (A) (A) (A) (A) (A) (A)
                 (A) (A) (A) (A) (A) (A) (A) (A) (A) (A) (A) (A)
                 (A) (A) (A) (A) (A) (A) (A) (A) (A) (A) (A) (A)
                 (A) (A) (A) (A) (A) (A) (A) (A) (A) (A) (A) (A)
       Virtual   (A) (A) (A) (A) (A) (A) (A) (A) (A) (A) (A) (A)
                 (A) (A) (A) (A) (A) (A) (A) (A) (A) (A) (A) (A)
                 (A) (A) (A) (A) (A) (A) (A) (A) (A) (A) (A) (A)
                 (A) (A) (A) (A) (A) (A) (A) (A) (A) (A) (A) (A)
                 (A) (A) (A) (A) (A) (A) (A) (A) (A) (A) (A) (A)
                 (A) (A) (A) (A) (A) (A) (A) (A) (A) (A) (A) (A)
                 (A) (A) (A) (A) (A) (A) (A) (A) (A) (A) (A) (A)
                 (A) (A) (A) (A) (A) (A) (A) (A) (A) (A) (A) (A)
                 (A) (A) (A) (A) (A) (A) (A) (A) (A) (A) (A) (A)
                 (A) (A) (A) (A) (A) (A) (A) (A) (A) (A) (A) (A)
                 (A) (A) (A) (A) (A) (A) (A) (A) (A) (A) (A) (A)
                 (A) (A) (A) (A) (A) (A) (A) (A) (A) (A) (A) (A)
                 (A) (A) (A) (A) (A) (A) (A) (A) (A) (A) (A) (A)
                 (A) (A) (A) (A) (A) (A) (A) (A) (A) (A) (A) (A)
                 (A) (A) (A) (A) (A) (A) (A) (A) (A) (A) (A) (A)
                 (A) (A) (A) (A) (A) (A) (A) (A) (A) (A) (A) (A)
                 (A) (A) (A) (A) (A) (A) (A) (A) (A) (A) (A) (A)
                 (A) (A) (A) (A) (A) (A) (A) (A) (A) (A) (A) (A)
                 (A) (A) (A) (A) (A) (A) (A) (A) (A) (A) (A) (A)
                 (A) (A) (A) (A) (A) (A) (A) (A) (A) (A) (A) (A)
                 (A) (A) (A) (A) (A) (A) (A) (A) (A) (A) (A) (A)
                 (A) (A) (A) (A) (A) (A) (A) (A) (A) (A) (A) (A)
                 (A) (A) (A) (A) (A) (A) (A) (A) (A) (A) (A) (A)
                 (A) (A) (A) (A) (A) (A) (A) (A) (A) (A) (A) (A)
                 (A) (A) (A) (A) (A) (A) (A) (A) (A) (A) (A) (A)
                 (A) (A) (A) (A) (A) (A) (A) (A) (A) (A) (A) (A)
                 (A) (A) (A) (A) (A) (A) (A) (A) (A) (A) (A) (A)
                 (A) (A) (A) (A) (A) (A) (A) (A) (A) (A) (A) (A)
                 (A) (A) (A) (A) (A) (A) (A) (A) (A) (A) (A) (A)
                 (A) (A) (A) (A) (A) (A) (A) (A) (A) (A) (A) (A)
                 (A) (A) (A) (A) (A) (A) (A) (A) (A) (A) (A) (A)
                 (A) (A) (A) (A) (A) (A) (A) (A) (A) (A) (A) (A)
                 (A) (A) (A) (A) (A) (A) (A) (A) (A) (A) (A) (A)
                 (A) (A) (A) (A) (A) (A) (A) (A) (A) (A) (A) (A)
                 (A) (A) (A) (A) (A) (A) (A) (A) (A) (A) (A) (A)
                 (A) (A) (A) (A) (A) (A) (A) (A) (A) (A) (A) (A)
                 (A) (A) (A) (A) (A) (A) (A) (A) (A) (A) (A) (A)
                 (A) (A) (A) (A) (A) (A) (A) (A) (A) (A) (A) (A)
                 (A) (A) (A) (A) (A) (A) (A) (A) (A) (A) (A) (A)
                 (A) (A) (A) (A) (A) (A) (A) (A) (A) (A) (A) (A)
                 (A) (A) (A) (A) (A) (A) (A) (A) (A) (A) (A) (A)
                 (A) (A) (A) (A) (A) (A) (A) (A) (A) (A) (A) (A)
                 (A) (A) (A) (A) (A) (A) (A) (A) (A) (A) (A) (A)
                 (A) (A) (A) (A) (A) (A) (A) (A) (A) (A) (A) (A)
                 (A) (A) (A) (A) (A) (A) (A) (A) (A) (A) (A) (A)
                 (A) (A) (A) (A) (A) (A) (A) (A) (A) (A) (A) (A)
                 (A) (A) (A) (A) (A) (A) (A) (A) (A) (A) (A) (A)
                 (A) (A) (A) (A) (A) (A) (A) (A) (A) (A) (A) (A)
                 (A) (A) (A) (A) (A) (A) (A) (A) (A) (A) (A) (A)
                 (A) (A) (A) (A) (A) (A) (A) (A) (A) (A) (A) (A)
                 (A) (A) (A) (A) (A) (A) (A) (A) (A) (A) (A) (A)
                 (A) (A) (A) (A) (A) (A) (A) (A) (A) (A) (A) (A)
                 (A) (A) (A) (A) (A) (A) (A) (A) (A) (A) (A) (A)
                 (A) (A) (A) (A) (A) (A) (A) (A) (A) (A) (A) (A)
                 (A) (A) (A) (A) (A) (A) (A) (A) (A) (A) (A) (A)
                 (A) (A) (A) (A) (A) (A) (A) (A) (A) (A) (A) (A)
                 (A) (A) (A) (A) (A) (A) (A) (A) (A) (A) (A) (A)
                 (A) (A) (A) (A) (A) (A) (A) (A) (A) (A) (A) (A)
                 (A) (A) (A) (A) (A) (A) (A) (A) (A) (A) (A) (A)
                 (A) (A) (A) (A) (A) (A) (A) (A) (A) (A) (A) (A)
                 (A) (A) (A) (A) (A) (A) (A) (A) (A) (A) (A) (A)
                 (A) (A) (A) (A) (A) (A) (A) (A) (A) (A) (A) (A)
                 (A) (A) (A) (A) (A) (A) (A) (A) (A) (A)
     4 initial guesses have been made.
 Convergence on wavefunction:    0.001000000000000
 Iteration     1 Dimension     4 NMult     0 NNew      4
 CISAX will form     4 AO SS matrices at one time.
 Iteration     2 Dimension     6 NMult     4 NNew      2
 Iteration     3 Dimension     8 NMult     6 NNew      2
 Iteration     4 Dimension    10 NMult     8 NNew      2
 Iteration     5 Dimension    12 NMult    10 NNew      2
 Iteration     6 Dimension    14 NMult    12 NNew      2
 ***********************************************************************
 Excited states from <AA,BB:AA,BB> singles matrix:
 ***********************************************************************
 
 Ground to excited state transition densities written to RWF  633
 Ground to excited state transition electric dipole moments (Au):
       state          X           Y           Z        Dip. S.      Osc.
         1         7.2916      1.3042      0.3013     54.9590      3.5967
 Ground to excited state transition velocity dipole moments (Au):
       state          X           Y           Z        Dip. S.      Osc.
         1        -0.6867     -0.1204     -0.0278      0.4868      3.3060
 Ground to excited state transition magnetic dipole moments (Au):
       state          X           Y           Z
         1         0.0602     -0.1685      0.4867
 Ground to excited state transition velocity quadrupole moments (Au):
       state          XX          YY          ZZ          XY          XZ          YZ
         1         2.6059     -0.0876      0.0207     -0.0017      0.3931     -0.0037
 <0|del|b> * <b|rxdel|0> + <0|del|b> * <b|delr+rdel|0>
 Rotatory Strengths (R) in cgs (10**-40 erg-esu-cm/Gauss)
       state          XX          YY          ZZ    R(velocity)    E-M Angle
         1       195.0243   -188.6123   -255.3223    -82.9701       95.48
 1/2[<0|r|b>*<b|rxdel|0> + (<0|rxdel|b>*<b|r|0>)*]
 Rotatory Strengths (R) in cgs (10**-40 erg-esu-cm/Gauss)
       state          XX          YY          ZZ     R(length)
         1      -310.2657    155.4217   -103.6846    -86.1762
  1/2[<0|del|b>*<b|r|0> + (<0|r|b>*<b|del|0>)*] (Au)
       state          X           Y           Z        Dip. S.   Osc.(frdel)
         1        -5.0069     -0.1570     -0.0084      5.1724      3.4482

 Excitation energies and oscillator strengths:
 
 Excited State   1:      Singlet-A      2.6712 eV  464.15 nm  f=3.5967  <S**2>=0.000
     155 ->158         0.16738
     156 ->157         0.68299
 This state for optimization and/or second-order correction.
 Total Energy, E(TD-HF/TD-DFT) =  -1706.88871448    
 Copying the excited state density for this state as the 1-particle RhoCI density.
 SavETr:  write IOETrn=   770 NScale= 10 NData=  16 NLR=1 NState=    1 LETran=      28.

 **********************************************************************

            Population analysis using the SCF density.

 **********************************************************************

 Orbital symmetries:
       Occupied  (A) (A) (A) (A) (A) (A) (A) (A) (A) (A) (A) (A)
                 (A) (A) (A) (A) (A) (A) (A) (A) (A) (A) (A) (A)
                 (A) (A) (A) (A) (A) (A) (A) (A) (A) (A) (A) (A)
                 (A) (A) (A) (A) (A) (A) (A) (A) (A) (A) (A) (A)
                 (A) (A) (A) (A) (A) (A) (A) (A) (A) (A) (A) (A)
                 (A) (A) (A) (A) (A) (A) (A) (A) (A) (A) (A) (A)
                 (A) (A) (A) (A) (A) (A) (A) (A) (A) (A) (A) (A)
                 (A) (A) (A) (A) (A) (A) (A) (A) (A) (A) (A) (A)
                 (A) (A) (A) (A) (A) (A) (A) (A) (A) (A) (A) (A)
                 (A) (A) (A) (A) (A) (A) (A) (A) (A) (A) (A) (A)
                 (A) (A) (A) (A) (A) (A) (A) (A) (A) (A) (A) (A)
                 (A) (A) (A) (A) (A) (A) (A) (A) (A) (A) (A) (A)
                 (A) (A) (A) (A) (A) (A) (A) (A) (A) (A) (A) (A)
       Virtual   (A) (A) (A) (A) (A) (A) (A) (A) (A) (A) (A) (A)
                 (A) (A) (A) (A) (A) (A) (A) (A) (A) (A) (A) (A)
                 (A) (A) (A) (A) (A) (A) (A) (A) (A) (A) (A) (A)
                 (A) (A) (A) (A) (A) (A) (A) (A) (A) (A) (A) (A)
                 (A) (A) (A) (A) (A) (A) (A) (A) (A) (A) (A) (A)
                 (A) (A) (A) (A) (A) (A) (A) (A) (A) (A) (A) (A)
                 (A) (A) (A) (A) (A) (A) (A) (A) (A) (A) (A) (A)
                 (A) (A) (A) (A) (A) (A) (A) (A) (A) (A) (A) (A)
                 (A) (A) (A) (A) (A) (A) (A) (A) (A) (A) (A) (A)
                 (A) (A) (A) (A) (A) (A) (A) (A) (A) (A) (A) (A)
                 (A) (A) (A) (A) (A) (A) (A) (A) (A) (A) (A) (A)
                 (A) (A) (A) (A) (A) (A) (A) (A) (A) (A) (A) (A)
                 (A) (A) (A) (A) (A) (A) (A) (A) (A) (A) (A) (A)
                 (A) (A) (A) (A) (A) (A) (A) (A) (A) (A) (A) (A)
                 (A) (A) (A) (A) (A) (A) (A) (A) (A) (A) (A) (A)
                 (A) (A) (A) (A) (A) (A) (A) (A) (A) (A) (A) (A)
                 (A) (A) (A) (A) (A) (A) (A) (A) (A) (A) (A) (A)
                 (A) (A) (A) (A) (A) (A) (A) (A) (A) (A) (A) (A)
                 (A) (A) (A) (A) (A) (A) (A) (A) (A) (A) (A) (A)
                 (A) (A) (A) (A) (A) (A) (A) (A) (A) (A) (A) (A)
                 (A) (A) (A) (A) (A) (A) (A) (A) (A) (A) (A) (A)
                 (A) (A) (A) (A) (A) (A) (A) (A) (A) (A) (A) (A)
                 (A) (A) (A) (A) (A) (A) (A) (A) (A) (A) (A) (A)
                 (A) (A) (A) (A) (A) (A) (A) (A) (A) (A) (A) (A)
                 (A) (A) (A) (A) (A) (A) (A) (A) (A) (A) (A) (A)
                 (A) (A) (A) (A) (A) (A) (A) (A) (A) (A) (A) (A)
                 (A) (A) (A) (A) (A) (A) (A) (A) (A) (A) (A) (A)
                 (A) (A) (A) (A) (A) (A) (A) (A) (A) (A) (A) (A)
                 (A) (A) (A) (A) (A) (A) (A) (A) (A) (A) (A) (A)
                 (A) (A) (A) (A) (A) (A) (A) (A) (A) (A) (A) (A)
                 (A) (A) (A) (A) (A) (A) (A) (A) (A) (A) (A) (A)
                 (A) (A) (A) (A) (A) (A) (A) (A) (A) (A) (A) (A)
                 (A) (A) (A) (A) (A) (A) (A) (A) (A) (A) (A) (A)
                 (A) (A) (A) (A) (A) (A) (A) (A) (A) (A) (A) (A)
                 (A) (A) (A) (A) (A) (A) (A) (A) (A) (A) (A) (A)
                 (A) (A) (A) (A) (A) (A) (A) (A) (A) (A) (A) (A)
                 (A) (A) (A) (A) (A) (A) (A) (A) (A) (A) (A) (A)
                 (A) (A) (A) (A) (A) (A) (A) (A) (A) (A) (A) (A)
                 (A) (A) (A) (A) (A) (A) (A) (A) (A) (A) (A) (A)
                 (A) (A) (A) (A) (A) (A) (A) (A) (A) (A) (A) (A)
                 (A) (A) (A) (A) (A) (A) (A) (A) (A) (A) (A) (A)
                 (A) (A) (A) (A) (A) (A) (A) (A) (A) (A) (A) (A)
                 (A) (A) (A) (A) (A) (A) (A) (A) (A) (A) (A) (A)
                 (A) (A) (A) (A) (A) (A) (A) (A) (A) (A) (A) (A)
                 (A) (A) (A) (A) (A) (A) (A) (A) (A) (A) (A) (A)
                 (A) (A) (A) (A) (A) (A) (A) (A) (A) (A) (A) (A)
                 (A) (A) (A) (A) (A) (A) (A) (A) (A) (A) (A) (A)
                 (A) (A) (A) (A) (A) (A) (A) (A) (A) (A) (A) (A)
                 (A) (A) (A) (A) (A) (A) (A) (A) (A) (A) (A) (A)
                 (A) (A) (A) (A) (A) (A) (A) (A) (A) (A) (A) (A)
                 (A) (A) (A) (A) (A) (A) (A) (A) (A) (A) (A) (A)
                 (A) (A) (A) (A) (A) (A) (A) (A) (A) (A) (A) (A)
                 (A) (A) (A) (A) (A) (A) (A) (A) (A) (A) (A) (A)
                 (A) (A) (A) (A) (A) (A) (A) (A) (A) (A) (A) (A)
                 (A) (A) (A) (A) (A) (A) (A) (A) (A) (A) (A) (A)
                 (A) (A) (A) (A) (A) (A) (A) (A) (A) (A) (A) (A)
                 (A) (A) (A) (A) (A) (A) (A) (A) (A) (A) (A) (A)
                 (A) (A) (A) (A) (A) (A) (A) (A) (A) (A) (A) (A)
                 (A) (A) (A) (A) (A) (A) (A) (A) (A) (A) (A) (A)
                 (A) (A) (A) (A) (A) (A) (A) (A) (A) (A) (A) (A)
                 (A) (A) (A) (A) (A) (A) (A) (A) (A) (A) (A) (A)
                 (A) (A) (A) (A) (A) (A) (A) (A) (A) (A) (A) (A)
                 (A) (A) (A) (A) (A) (A) (A) (A) (A) (A)
 The electronic state is 1-A.
 Alpha  occ. eigenvalues --  -19.20714 -19.20495 -10.31336 -10.28651 -10.27968
 Alpha  occ. eigenvalues --  -10.27704 -10.27519 -10.27152 -10.27145 -10.27083
 Alpha  occ. eigenvalues --  -10.26867 -10.26844 -10.26825 -10.26787 -10.26738
 Alpha  occ. eigenvalues --  -10.26636 -10.26460 -10.26303 -10.26200 -10.26065
 Alpha  occ. eigenvalues --  -10.26013 -10.25905 -10.25903 -10.25886 -10.25797
 Alpha  occ. eigenvalues --  -10.25741 -10.25715 -10.25606 -10.25584 -10.25557
 Alpha  occ. eigenvalues --  -10.25428 -10.25409 -10.25252 -10.25136 -10.24838
 Alpha  occ. eigenvalues --  -10.24814 -10.24632 -10.24393 -10.24209 -10.23489
 Alpha  occ. eigenvalues --  -10.23033 -10.22738  -1.15233  -1.08495  -0.94319
 Alpha  occ. eigenvalues --   -0.93733  -0.92059  -0.91297  -0.90575  -0.89320
 Alpha  occ. eigenvalues --   -0.87990  -0.87407  -0.87129  -0.85427  -0.84988
 Alpha  occ. eigenvalues --   -0.83023  -0.81821  -0.80815  -0.79837  -0.78011
 Alpha  occ. eigenvalues --   -0.77070  -0.76493  -0.76235  -0.76100  -0.76071
 Alpha  occ. eigenvalues --   -0.75747  -0.74982  -0.74809  -0.73794  -0.71001
 Alpha  occ. eigenvalues --   -0.69973  -0.67716  -0.66199  -0.65252  -0.64788
 Alpha  occ. eigenvalues --   -0.64069  -0.63110  -0.62508  -0.61756  -0.61272
 Alpha  occ. eigenvalues --   -0.59636  -0.58752  -0.57925  -0.57568  -0.56458
 Alpha  occ. eigenvalues --   -0.56008  -0.55292  -0.54932  -0.54626  -0.53983
 Alpha  occ. eigenvalues --   -0.53204  -0.52974  -0.52774  -0.51927  -0.51612
 Alpha  occ. eigenvalues --   -0.51103  -0.50681  -0.50448  -0.49597  -0.48995
 Alpha  occ. eigenvalues --   -0.48876  -0.48755  -0.48421  -0.48320  -0.47868
 Alpha  occ. eigenvalues --   -0.47679  -0.47191  -0.47068  -0.46961  -0.46772
 Alpha  occ. eigenvalues --   -0.46533  -0.45961  -0.45508  -0.45395  -0.44983
 Alpha  occ. eigenvalues --   -0.44697  -0.44150  -0.43835  -0.43708  -0.43345
 Alpha  occ. eigenvalues --   -0.42871  -0.42797  -0.42621  -0.42337  -0.42295
 Alpha  occ. eigenvalues --   -0.42183  -0.41858  -0.41619  -0.40856  -0.40658
 Alpha  occ. eigenvalues --   -0.40376  -0.40176  -0.40068  -0.39682  -0.39531
 Alpha  occ. eigenvalues --   -0.39149  -0.39084  -0.38586  -0.38246  -0.37908
 Alpha  occ. eigenvalues --   -0.37875  -0.37621  -0.36561  -0.35819  -0.35531
 Alpha  occ. eigenvalues --   -0.35110  -0.34240  -0.33934  -0.32709  -0.31704
 Alpha  occ. eigenvalues --   -0.31553  -0.29442  -0.27741  -0.26499  -0.23736
 Alpha  occ. eigenvalues --   -0.20428
 Alpha virt. eigenvalues --   -0.04332  -0.00204   0.03208   0.05866   0.08349
 Alpha virt. eigenvalues --    0.09334   0.11450   0.11838   0.12112   0.12443
 Alpha virt. eigenvalues --    0.12665   0.13171   0.13311   0.13619   0.14335
 Alpha virt. eigenvalues --    0.14561   0.14813   0.15065   0.15413   0.15529
 Alpha virt. eigenvalues --    0.15850   0.15997   0.16388   0.16684   0.17237
 Alpha virt. eigenvalues --    0.17287   0.17612   0.17731   0.18389   0.18682
 Alpha virt. eigenvalues --    0.18885   0.19449   0.19865   0.19993   0.20064
 Alpha virt. eigenvalues --    0.20413   0.20604   0.20779   0.20803   0.21195
 Alpha virt. eigenvalues --    0.21400   0.21721   0.21969   0.22418   0.22474
 Alpha virt. eigenvalues --    0.22818   0.23359   0.23614   0.23747   0.23782
 Alpha virt. eigenvalues --    0.24366   0.24590   0.24770   0.24915   0.25215
 Alpha virt. eigenvalues --    0.25474   0.25705   0.25930   0.26246   0.26588
 Alpha virt. eigenvalues --    0.26793   0.27439   0.27632   0.27881   0.28152
 Alpha virt. eigenvalues --    0.28209   0.28682   0.28936   0.29346   0.29500
 Alpha virt. eigenvalues --    0.29787   0.29906   0.30124   0.30598   0.30826
 Alpha virt. eigenvalues --    0.31408   0.32028   0.32267   0.32469   0.32810
 Alpha virt. eigenvalues --    0.33508   0.33666   0.34244   0.34595   0.35615
 Alpha virt. eigenvalues --    0.36104   0.36354   0.36730   0.37327   0.38131
 Alpha virt. eigenvalues --    0.39920   0.40603   0.41377   0.41931   0.42215
 Alpha virt. eigenvalues --    0.43107   0.43795   0.44538   0.45782   0.46467
 Alpha virt. eigenvalues --    0.47300   0.47745   0.47981   0.48690   0.49444
 Alpha virt. eigenvalues --    0.50003   0.51045   0.53224   0.53819   0.54218
 Alpha virt. eigenvalues --    0.54512   0.54819   0.55966   0.56482   0.56639
 Alpha virt. eigenvalues --    0.57333   0.57527   0.57872   0.58069   0.58201
 Alpha virt. eigenvalues --    0.58787   0.58971   0.59307   0.59598   0.60015
 Alpha virt. eigenvalues --    0.60642   0.61282   0.61500   0.61877   0.61890
 Alpha virt. eigenvalues --    0.61999   0.62985   0.63104   0.63118   0.63589
 Alpha virt. eigenvalues --    0.63861   0.64284   0.64591   0.64966   0.65423
 Alpha virt. eigenvalues --    0.65884   0.66271   0.66407   0.66731   0.66986
 Alpha virt. eigenvalues --    0.67257   0.67655   0.67769   0.68162   0.68528
 Alpha virt. eigenvalues --    0.68728   0.69126   0.69280   0.69573   0.69876
 Alpha virt. eigenvalues --    0.70093   0.70792   0.71201   0.71403   0.71588
 Alpha virt. eigenvalues --    0.71917   0.72690   0.73094   0.73877   0.73984
 Alpha virt. eigenvalues --    0.74668   0.74725   0.75025   0.75261   0.75942
 Alpha virt. eigenvalues --    0.76022   0.76693   0.77198   0.77718   0.77887
 Alpha virt. eigenvalues --    0.78202   0.78334   0.78844   0.79478   0.79797
 Alpha virt. eigenvalues --    0.80129   0.80419   0.80760   0.81036   0.81682
 Alpha virt. eigenvalues --    0.81747   0.82225   0.83102   0.83578   0.83711
 Alpha virt. eigenvalues --    0.84069   0.84355   0.84832   0.85031   0.85576
 Alpha virt. eigenvalues --    0.85667   0.85888   0.86004   0.86130   0.86489
 Alpha virt. eigenvalues --    0.86609   0.87050   0.87338   0.87497   0.87852
 Alpha virt. eigenvalues --    0.87989   0.88407   0.88765   0.89124   0.89138
 Alpha virt. eigenvalues --    0.89819   0.90199   0.90294   0.90371   0.90970
 Alpha virt. eigenvalues --    0.91637   0.91902   0.92186   0.92705   0.92826
 Alpha virt. eigenvalues --    0.93429   0.93504   0.93763   0.94127   0.94192
 Alpha virt. eigenvalues --    0.94555   0.94750   0.94940   0.95066   0.95588
 Alpha virt. eigenvalues --    0.95715   0.95771   0.96368   0.96659   0.97147
 Alpha virt. eigenvalues --    0.97442   0.97717   0.98064   0.98165   0.98364
 Alpha virt. eigenvalues --    0.98785   0.99153   0.99354   0.99928   1.00253
 Alpha virt. eigenvalues --    1.00426   1.00754   1.02067   1.02161   1.02340
 Alpha virt. eigenvalues --    1.02761   1.03158   1.03368   1.03984   1.04213
 Alpha virt. eigenvalues --    1.04265   1.04546   1.04812   1.05031   1.05713
 Alpha virt. eigenvalues --    1.05888   1.06343   1.06573   1.07202   1.08118
 Alpha virt. eigenvalues --    1.08561   1.09078   1.09153   1.09929   1.10452
 Alpha virt. eigenvalues --    1.10963   1.11145   1.12041   1.12581   1.12789
 Alpha virt. eigenvalues --    1.13217   1.13448   1.13499   1.13788   1.14627
 Alpha virt. eigenvalues --    1.14851   1.15261   1.16013   1.16598   1.17090
 Alpha virt. eigenvalues --    1.17668   1.17948   1.18519   1.19377   1.20606
 Alpha virt. eigenvalues --    1.20983   1.22275   1.24542   1.25167   1.25856
 Alpha virt. eigenvalues --    1.26827   1.27542   1.29100   1.29295   1.30154
 Alpha virt. eigenvalues --    1.30569   1.31801   1.32080   1.33341   1.33950
 Alpha virt. eigenvalues --    1.34331   1.34493   1.34694   1.35546   1.35572
 Alpha virt. eigenvalues --    1.36584   1.38402   1.38954   1.40018   1.40831
 Alpha virt. eigenvalues --    1.41119   1.41429   1.42321   1.42644   1.43863
 Alpha virt. eigenvalues --    1.44433   1.44629   1.45022   1.45421   1.45659
 Alpha virt. eigenvalues --    1.47082   1.47733   1.47905   1.48427   1.48954
 Alpha virt. eigenvalues --    1.50059   1.50938   1.51556   1.52764   1.53256
 Alpha virt. eigenvalues --    1.53665   1.54131   1.55082   1.56112   1.56632
 Alpha virt. eigenvalues --    1.56821   1.57969   1.58615   1.59200   1.59444
 Alpha virt. eigenvalues --    1.60374   1.60493   1.60792   1.61513   1.63269
 Alpha virt. eigenvalues --    1.63920   1.64061   1.65027   1.65354   1.65443
 Alpha virt. eigenvalues --    1.67568   1.68667   1.69229   1.69423   1.70718
 Alpha virt. eigenvalues --    1.71048   1.71101   1.74360   1.74759   1.76729
 Alpha virt. eigenvalues --    1.77254   1.77735   1.77941   1.78774   1.79560
 Alpha virt. eigenvalues --    1.79967   1.80173   1.80439   1.80982   1.81005
 Alpha virt. eigenvalues --    1.82189   1.82380   1.83520   1.83701   1.84124
 Alpha virt. eigenvalues --    1.84401   1.84657   1.84932   1.85096   1.85648
 Alpha virt. eigenvalues --    1.86364   1.88023   1.88330   1.88762   1.89378
 Alpha virt. eigenvalues --    1.89541   1.89687   1.90435   1.90828   1.91139
 Alpha virt. eigenvalues --    1.91481   1.91945   1.92267   1.92485   1.93061
 Alpha virt. eigenvalues --    1.93409   1.94004   1.94197   1.95179   1.95675
 Alpha virt. eigenvalues --    1.96041   1.96277   1.96948   1.97359   1.97667
 Alpha virt. eigenvalues --    1.97751   1.98226   1.98554   1.99293   1.99653
 Alpha virt. eigenvalues --    2.00273   2.00527   2.01081   2.01359   2.01396
 Alpha virt. eigenvalues --    2.02143   2.02379   2.03001   2.03184   2.04238
 Alpha virt. eigenvalues --    2.04448   2.04703   2.05268   2.05715   2.06735
 Alpha virt. eigenvalues --    2.07579   2.07748   2.08172   2.08763   2.09060
 Alpha virt. eigenvalues --    2.09394   2.09714   2.10091   2.10188   2.10577
 Alpha virt. eigenvalues --    2.10932   2.11373   2.11562   2.11701   2.11937
 Alpha virt. eigenvalues --    2.12767   2.13483   2.14060   2.14769   2.15059
 Alpha virt. eigenvalues --    2.15858   2.16313   2.16748   2.17020   2.17293
 Alpha virt. eigenvalues --    2.17630   2.17879   2.18088   2.18702   2.19310
 Alpha virt. eigenvalues --    2.19711   2.20210   2.20288   2.21138   2.21734
 Alpha virt. eigenvalues --    2.21988   2.22346   2.22722   2.23632   2.23730
 Alpha virt. eigenvalues --    2.24654   2.24934   2.25321   2.25561   2.26249
 Alpha virt. eigenvalues --    2.26535   2.26888   2.27164   2.27262   2.28149
 Alpha virt. eigenvalues --    2.28654   2.28898   2.29284   2.29744   2.30984
 Alpha virt. eigenvalues --    2.31007   2.31324   2.32161   2.32388   2.33023
 Alpha virt. eigenvalues --    2.33542   2.34304   2.34441   2.34650   2.34680
 Alpha virt. eigenvalues --    2.34772   2.35181   2.35467   2.35806   2.36491
 Alpha virt. eigenvalues --    2.36622   2.37714   2.38807   2.39176   2.39476
 Alpha virt. eigenvalues --    2.40087   2.40541   2.41415   2.41669   2.41768
 Alpha virt. eigenvalues --    2.42324   2.42931   2.43803   2.44467   2.44675
 Alpha virt. eigenvalues --    2.44836   2.45304   2.45778   2.45958   2.47110
 Alpha virt. eigenvalues --    2.47329   2.47888   2.48406   2.48767   2.49132
 Alpha virt. eigenvalues --    2.49536   2.50211   2.51094   2.51667   2.51994
 Alpha virt. eigenvalues --    2.52012   2.53003   2.53320   2.53996   2.54617
 Alpha virt. eigenvalues --    2.55018   2.55632   2.56168   2.56880   2.57218
 Alpha virt. eigenvalues --    2.58309   2.59035   2.59691   2.60065   2.60205
 Alpha virt. eigenvalues --    2.60898   2.61387   2.62044   2.62242   2.62574
 Alpha virt. eigenvalues --    2.62788   2.63528   2.63771   2.64062   2.64586
 Alpha virt. eigenvalues --    2.65524   2.66155   2.66258   2.66597   2.67475
 Alpha virt. eigenvalues --    2.68506   2.68650   2.69083   2.69687   2.69890
 Alpha virt. eigenvalues --    2.70281   2.71233   2.71622   2.71933   2.72297
 Alpha virt. eigenvalues --    2.72581   2.73623   2.73735   2.74119   2.74196
 Alpha virt. eigenvalues --    2.74988   2.75275   2.75472   2.76080   2.76771
 Alpha virt. eigenvalues --    2.76918   2.77233   2.77354   2.77745   2.78750
 Alpha virt. eigenvalues --    2.79759   2.80050   2.80379   2.81239   2.81566
 Alpha virt. eigenvalues --    2.82164   2.82289   2.83025   2.83288   2.83916
 Alpha virt. eigenvalues --    2.84044   2.84783   2.85876   2.85919   2.86781
 Alpha virt. eigenvalues --    2.87092   2.87786   2.87870   2.88446   2.88532
 Alpha virt. eigenvalues --    2.89328   2.89700   2.89833   2.90446   2.90754
 Alpha virt. eigenvalues --    2.91426   2.92063   2.92432   2.93214   2.93431
 Alpha virt. eigenvalues --    2.93539   2.94203   2.94433   2.94842   2.95846
 Alpha virt. eigenvalues --    2.96397   2.96802   2.97970   2.98484   2.99015
 Alpha virt. eigenvalues --    2.99465   2.99788   3.00206   3.00830   3.01734
 Alpha virt. eigenvalues --    3.01809   3.02565   3.02967   3.03450   3.05441
 Alpha virt. eigenvalues --    3.05679   3.05991   3.06506   3.06706   3.08962
 Alpha virt. eigenvalues --    3.09017   3.09878   3.10312   3.10869   3.11036
 Alpha virt. eigenvalues --    3.13172   3.13437   3.14007   3.14487   3.16498
 Alpha virt. eigenvalues --    3.18298   3.19201   3.20365   3.21026   3.21893
 Alpha virt. eigenvalues --    3.22749   3.23643   3.24250   3.26520   3.27835
 Alpha virt. eigenvalues --    3.28542   3.28934   3.29909   3.30216   3.32299
 Alpha virt. eigenvalues --    3.34403   3.35303   3.35888   3.36719   3.38098
 Alpha virt. eigenvalues --    3.40614   3.41958   3.43075   3.45061   3.45941
 Alpha virt. eigenvalues --    3.46036   3.46897   3.49021   3.49266   3.49663
 Alpha virt. eigenvalues --    3.50515   3.51354   3.52390   3.52520   3.52675
 Alpha virt. eigenvalues --    3.53521   3.54807   3.55018   3.55362   3.56884
 Alpha virt. eigenvalues --    3.57019   3.58026   3.59501   3.59735   3.61334
 Alpha virt. eigenvalues --    3.62578   3.63014   3.63357   3.63598   3.64380
 Alpha virt. eigenvalues --    3.65597   3.67061   3.68776   3.70054   3.72494
 Alpha virt. eigenvalues --    3.73111   3.78696   3.78786   3.81374   3.88063
 Alpha virt. eigenvalues --    3.89656   4.13319   4.16495   4.16746   4.19619
 Alpha virt. eigenvalues --    4.20093   4.21203   4.23119   4.25056   4.27391
 Alpha virt. eigenvalues --    4.28939   4.31218   4.32286   4.34214   4.36636
 Alpha virt. eigenvalues --    4.38987   4.40956   4.42774   4.44109   4.45645
 Alpha virt. eigenvalues --    4.46501   4.48522   4.52884   4.53855   4.55491
 Alpha virt. eigenvalues --    4.55547   4.57859   4.58582   4.59758   4.62100
 Alpha virt. eigenvalues --    4.63746   4.66051   4.70176   4.70724   4.71189
 Alpha virt. eigenvalues --    4.73998   4.75766   4.77884   4.80991   4.81856
 Alpha virt. eigenvalues --    4.84055   4.85584   4.91432   4.92076
          Condensed to atoms (all electrons):
 Mulliken charges:
               1
     1  O   -0.506829
     2  O   -0.561119
     3  C   -0.017101
     4  C   -0.023974
     5  C   -0.190576
     6  C   -0.171847
     7  C    0.206429
     8  C    0.164489
     9  C    0.087598
    10  C    0.044924
    11  C   -0.240132
    12  C   -0.227789
    13  C    0.005712
    14  C    0.072154
    15  C   -0.290470
    16  C   -0.328747
    17  C   -0.286767
    18  C   -0.309006
    19  C   -0.126617
    20  C   -0.140459
    21  C   -0.320173
    22  C   -0.355038
    23  C   -0.102928
    24  C   -0.100356
    25  C    0.104481
    26  C    0.107377
    27  C   -0.381428
    28  C   -0.370177
    29  C   -0.139260
    30  C   -0.120398
    31  C   -0.082195
    32  C   -0.086501
    33  C   -0.109223
    34  C   -0.094833
    35  C    0.140865
    36  C    0.138475
    37  C   -0.386273
    38  C   -0.359503
    39  C   -0.138174
    40  C   -0.158788
    41  C   -0.069428
    42  C   -0.079867
    43  H    0.106443
    44  H    0.058731
    45  H    0.074367
    46  H    0.106225
    47  H    0.079063
    48  H    0.055453
    49  H    0.111069
    50  H    0.091755
    51  H    0.119031
    52  H    0.106187
    53  H    0.110452
    54  H    0.088526
    55  H    0.108223
    56  H    0.104722
    57  H    0.076934
    58  H    0.096580
    59  H    0.099722
    60  H    0.111849
    61  H    0.097208
    62  H    0.102988
    63  H    0.099549
    64  H    0.086061
    65  H    0.101254
    66  H    0.083951
    67  H    0.115713
    68  H    0.104902
    69  H    0.109237
    70  H    0.090188
    71  H    0.124447
    72  H    0.121783
    73  H    0.276947
    74  H    0.303502
    75  H    0.097953
    76  H    0.085795
    77  H    0.114275
    78  H    0.116752
    79  H    0.126227
    80  H    0.082493
    81  H    0.130066
    82  H    0.108758
    83  H    0.060564
    84  H    0.064309
    85  H    0.077312
    86  H    0.075932
    87  H    0.059517
    88  H    0.080891
    89  H    0.132523
    90  H    0.092008
    91  H    0.118304
    92  H    0.105481
    93  H    0.107343
    94  H    0.112157
    95  H    0.067806
    96  H    0.091889
    97  H    0.082014
    98  H    0.090046
 Sum of Mulliken charges =  -0.00000
 Mulliken charges with hydrogens summed into heavy atoms:
               1
     1  O   -0.229882
     2  O   -0.257617
     3  C   -0.017101
     4  C   -0.023974
     5  C   -0.025403
     6  C    0.008744
     7  C    0.285492
     8  C    0.219942
     9  C    0.087598
    10  C    0.044924
    11  C   -0.037308
    12  C   -0.002572
    13  C    0.005712
    14  C    0.072154
    15  C    0.016731
    16  C   -0.050511
    17  C    0.022012
    18  C   -0.020408
    19  C   -0.025364
    20  C   -0.056508
    21  C    0.009680
    22  C   -0.018620
    23  C   -0.004975
    24  C   -0.014561
    25  C    0.104481
    26  C    0.107377
    27  C   -0.024174
    28  C   -0.048860
    29  C   -0.078696
    30  C   -0.056089
    31  C   -0.004884
    32  C   -0.010569
    33  C   -0.049706
    34  C   -0.013942
    35  C    0.140865
    36  C    0.138475
    37  C   -0.043438
    38  C   -0.034522
    39  C   -0.070368
    40  C   -0.066899
    41  C    0.012586
    42  C    0.010179
 Electronic spatial extent (au):  <R**2>=         110569.6006
 Charge=             -0.0000 electrons
 Dipole moment (field-independent basis, Debye):
    X=              1.7806    Y=             -1.4311    Z=              2.1237  Tot=              3.1191
 Quadrupole moment (field-independent basis, Debye-Ang):
   XX=           -264.7811   YY=           -240.8137   ZZ=           -262.2462
   XY=              5.4697   XZ=             -0.4288   YZ=              2.2791
 Traceless Quadrupole moment (field-independent basis, Debye-Ang):
   XX=             -8.8341   YY=             15.1333   ZZ=             -6.2992
   XY=              5.4697   XZ=             -0.4288   YZ=              2.2791
 Octapole moment (field-independent basis, Debye-Ang**2):
  XXX=            537.4645  YYY=            -17.7366  ZZZ=              8.3242  XYY=            102.2422
  XXY=           -296.6894  XXZ=            498.1779  XZZ=            -34.4826  YZZ=              4.3733
  YYZ=              8.8545  XYZ=            -77.6752
 Hexadecapole moment (field-independent basis, Debye-Ang**3):
 XXXX=        -150729.4457 YYYY=          -4463.4376 ZZZZ=          -1967.4279 XXXY=           1004.7565
 XXXZ=           -893.4170 YYYX=           -304.6775 YYYZ=             25.7721 ZZZX=           -201.0190
 ZZZY=             30.8638 XXYY=         -23584.2302 XXZZ=         -23707.6896 YYZZ=          -1093.9185
 XXYZ=           -241.1731 YYXZ=             89.9180 ZZXY=           -271.0188
 N-N= 3.989788995552D+03 E-N=-1.193584492499D+04  KE= 1.691814058790D+03
 1\1\GINC-PADAWAN\SP\RCAM-B3LYP TD-FC\6-31G(d,p)\C40H56O2\PADAWAN\10-Ju
 l-2019\0\\# td=(NStates=1) CAM-B3LYP/6-31G(d,p)\\TD\\0,1\O,0,14.626090
 8281,-2.2571131824,-0.4529041434\O,0,-14.6492615232,2.0061224682,0.711
 150209\C,0,11.5307963736,-0.9314337775,1.0912824892\C,0,-12.3012777598
 ,-0.9536279228,0.6993054525\C,0,12.9433930713,-1.2655395921,0.87857542
 95\C,0,-13.675770186,-0.2124074007,0.6911980158\C,0,13.3228242764,-2.0
 31868714,-0.3156364526\C,0,-13.4190842484,1.2623090289,0.678899674\C,0
 ,10.9236408901,-0.2947836945,-0.0840826543\C,0,-11.3521323142,-0.30492
 15212,-0.3577165257\C,0,12.9331875378,-1.0140521623,-1.4300138744\C,0,
 -12.6588366437,1.7511030873,-0.5745544974\C,0,11.5755022972,-0.2733377
 069,-1.2562441404\C,0,-11.466220212,0.9115974827,-0.9250720462\C,0,11.
 3732080478,-0.1868078389,2.4156120022\C,0,10.6744268837,-2.3004405252,
 1.3686549855\C,0,-11.6241846125,-0.7986316912,2.0746460446\C,0,-12.579
 1686189,-2.3871341564,0.3880007041\C,0,9.5819230183,0.3798290198,0.094
 3261126\C,0,-10.1322445915,-1.1319672817,-0.4477934603\C,0,11.05449821
 48,0.2840128662,-2.5239766047\C,0,-10.6971221512,1.5152619102,-1.98420
 77278\C,0,9.4055305201,1.7060340413,-0.2018355576\C,0,-8.9078812731,-0
 .6216457216,-0.3467057166\C,0,8.0798639724,2.2259023301,0.0727429433\C
 ,0,-7.6126564076,-1.343488682,-0.5377591079\C,0,8.1681672977,3.7491131
 162,0.3036617322\C,0,-7.6312242284,-2.8140911572,-0.994729648\C,0,6.92
 72381308,1.5746274566,0.0321832123\C,0,-6.4093827413,-0.6848239575,-0.
 3996029663\C,0,5.5085114031,2.0237300799,0.1738122972\C,0,-5.113472469
 2,-1.1683767138,-0.4909712711\C,0,4.4132552565,1.2964050544,0.14463883
 49\C,0,-4.0231077308,-0.324768683,-0.128220152\C,0,3.1105636614,1.6786
 084587,0.2542670917\C,0,-2.6710808721,-0.8294072708,-0.2784255026\C,0,
 2.8296532463,3.1212115701,0.8266553745\C,0,-2.3682823222,-2.2083981419
 ,-0.7303340734\C,0,2.0669862736,0.835710735,0.1621470897\C,0,-1.704181
 7412,0.1576254684,0.1304812211\C,0,0.6099781668,0.9299777657,0.3070765
 877\C,0,-0.2173206011,-0.1142735325,0.0994023002\H,0,13.605289801,-0.5
 450179369,1.1597008081\H,0,13.2148367197,-2.0412547066,1.6114312751\H,
 0,-14.3307258496,-0.7278529423,1.5351807241\H,0,-13.9999513621,-0.5841
 953425,-0.3236439844\H,0,12.7763528373,-2.8186966128,-0.4632843934\H,0
 ,-12.7627617372,1.6119457126,1.6410535784\H,0,13.6776286949,-0.1951822
 383,-1.4848243664\H,0,12.9779492879,-1.3428865158,-2.4468653625\H,0,-1
 3.3663021742,1.7389952205,-1.4525631893\H,0,-12.2809266997,2.799852049
 2,-0.3925361366\H,0,11.5243610561,-0.8171224383,3.2366583268\H,0,10.24
 1259991,-0.0338128914,2.5621250935\H,0,11.811010371,0.7180815411,2.373
 9765327\H,0,10.7819772007,-3.2076513452,0.7797233583\H,0,11.0038012971
 ,-2.740558973,2.4081107351\H,0,9.5336793689,-2.1695579489,1.4405689999
 \H,0,-11.3374406441,0.2884544164,2.2517690699\H,0,-10.6600705161,-1.33
 71308681,2.1464106451\H,0,-12.3563867977,-1.1090318082,2.775780174\H,0
 ,-13.299059687,-2.8482860806,1.0746219712\H,0,-11.6281658646,-2.957937
 8218,0.3922142774\H,0,-12.9270030583,-2.7515354615,-0.7223807121\H,0,8
 .7462664506,-0.0909974198,0.5112453085\H,0,-10.3779775298,-2.235077231
 7,-0.5092505581\H,0,9.9470071197,0.3998700849,-2.4647811811\H,0,11.517
 270162,1.3042547164,-2.6926789819\H,0,11.2721114461,-0.3593864257,-3.1
 090380338\H,0,-11.5620072077,1.9186650955,-2.688030296\H,0,-10.0301085
 499,0.8532159586,-2.4705916652\H,0,-10.2302647815,2.4240310161,-1.7327
 768737\H,0,14.9233588889,-2.8067595811,0.1231642094\H,0,-14.9503444694
 ,1.9439493089,1.6307912841\H,0,10.2896544474,2.4246357675,-0.454154730
 5\H,0,-8.7973964366,0.483350433,-0.1356483778\H,0,8.9283456966,4.02167
 20201,-0.4141977228\H,0,7.2731807071,4.3658719961,0.2794637794\H,0,8.8
 028949995,3.87973086,1.1528683048\H,0,-8.23180021,-3.6520121303,-0.316
 0574447\H,0,-8.2672524812,-2.8421932334,-1.8575420842\H,0,-6.658134662
 5,-3.3248561377,-1.1432311151\H,0,6.9508667497,0.4044241853,-0.0330766
 997\H,0,-6.6072009821,0.4606459045,-0.0927216492\H,0,5.4210014841,2.96
 53016781,0.5921614711\H,0,-4.9440982298,-2.1232836355,-0.8671741174\H,
 0,4.5392370227,0.1776060065,-0.3108294939\H,0,-4.0789433983,0.62335745
 26,0.2197147675\H,0,3.2956973547,3.3199560375,1.7222584268\H,0,1.71486
 81398,3.2836170326,1.0989923072\H,0,2.958229845,3.935641398,0.11351085
 51\H,0,-2.8972118582,-3.0636635135,-0.071820226\H,0,-3.0651560236,-2.6
 040315233,-1.6716011271\H,0,-1.428739673,-2.4250426794,-0.7107441104\H
 ,0,2.2446316212,-0.1465833094,-0.0831962236\H,0,-2.1549348945,1.131773
 0952,0.362309618\H,0,0.0957653235,1.9177544813,0.4179175868\H,0,0.1140
 341734,-1.0668566358,-0.1070182858\\Version=ES64L-G16RevA.03\State=1-A
 \HF=-1706.9868791\RMSD=4.472e-09\PG=C01 [X(C40H56O2)]\\@


 I think that all right-thinking people in this
 country are sick and tired of being told that
 ordinary, decent people are fed up in this country
 with being sick and tired.  I'm certainly not!
 But I'm sick and tired of being told that I am!
                               -- Monty Python
 Job cpu time:       0 days  5 hours 55 minutes  5.9 seconds.
 Elapsed time:       0 days  1 hours 29 minutes 17.1 seconds.
 File lengths (MBytes):  RWF=   3127 Int=      0 D2E=      0 Chk=     84 Scr=      1
 Normal termination of Gaussian 16 at Wed Jul 10 16:59:46 2019.
