 Entering Gaussian System, Link 0=g16
 Input=Geometria-312-.com
 Output=Geometria-312-.log
 Initial command:
 /usr/local/g16/l1.exe "/home/padawan/israel-mol/zeaxanthin/spectra/abs/Gau-28984.inp" -scrdir="/home/padawan/israel-mol/zeaxanthin/spectra/abs/"
 Entering Link 1 = /usr/local/g16/l1.exe PID=     28986.
  
 Copyright (c) 1988,1990,1992,1993,1995,1998,2003,2009,2016,
            Gaussian, Inc.  All Rights Reserved.
  
 This is part of the Gaussian(R) 16 program.  It is based on
 the Gaussian(R) 09 system (copyright 2009, Gaussian, Inc.),
 the Gaussian(R) 03 system (copyright 2003, Gaussian, Inc.),
 the Gaussian(R) 98 system (copyright 1998, Gaussian, Inc.),
 the Gaussian(R) 94 system (copyright 1995, Gaussian, Inc.),
 the Gaussian 92(TM) system (copyright 1992, Gaussian, Inc.),
 the Gaussian 90(TM) system (copyright 1990, Gaussian, Inc.),
 the Gaussian 88(TM) system (copyright 1988, Gaussian, Inc.),
 the Gaussian 86(TM) system (copyright 1986, Carnegie Mellon
 University), and the Gaussian 82(TM) system (copyright 1983,
 Carnegie Mellon University). Gaussian is a federally registered
 trademark of Gaussian, Inc.
  
 This software contains proprietary and confidential information,
 including trade secrets, belonging to Gaussian, Inc.
  
 This software is provided under written license and may be
 used, copied, transmitted, or stored only in accord with that
 written license.
  
 The following legend is applicable only to US Government
 contracts under FAR:
  
                    RESTRICTED RIGHTS LEGEND
  
 Use, reproduction and disclosure by the US Government is
 subject to restrictions as set forth in subparagraphs (a)
 and (c) of the Commercial Computer Software - Restricted
 Rights clause in FAR 52.227-19.
  
 Gaussian, Inc.
 340 Quinnipiac St., Bldg. 40, Wallingford CT 06492
  
  
 ---------------------------------------------------------------
 Warning -- This program may not be used in any manner that
 competes with the business of Gaussian, Inc. or will provide
 assistance to any competitor of Gaussian, Inc.  The licensee
 of this program is prohibited from giving any competitor of
 Gaussian, Inc. access to this program.  By using this program,
 the user acknowledges that Gaussian, Inc. is engaged in the
 business of creating and licensing software in the field of
 computational chemistry and represents and warrants to the
 licensee that it is not a competitor of Gaussian, Inc. and that
 it will not use this program in any manner prohibited above.
 ---------------------------------------------------------------
  

 Cite this work as:
 Gaussian 16, Revision A.03,
 M. J. Frisch, G. W. Trucks, H. B. Schlegel, G. E. Scuseria, 
 M. A. Robb, J. R. Cheeseman, G. Scalmani, V. Barone, 
 G. A. Petersson, H. Nakatsuji, X. Li, M. Caricato, A. V. Marenich, 
 J. Bloino, B. G. Janesko, R. Gomperts, B. Mennucci, H. P. Hratchian, 
 J. V. Ortiz, A. F. Izmaylov, J. L. Sonnenberg, D. Williams-Young, 
 F. Ding, F. Lipparini, F. Egidi, J. Goings, B. Peng, A. Petrone, 
 T. Henderson, D. Ranasinghe, V. G. Zakrzewski, J. Gao, N. Rega, 
 G. Zheng, W. Liang, M. Hada, M. Ehara, K. Toyota, R. Fukuda, 
 J. Hasegawa, M. Ishida, T. Nakajima, Y. Honda, O. Kitao, H. Nakai, 
 T. Vreven, K. Throssell, J. A. Montgomery, Jr., J. E. Peralta, 
 F. Ogliaro, M. J. Bearpark, J. J. Heyd, E. N. Brothers, K. N. Kudin, 
 V. N. Staroverov, T. A. Keith, R. Kobayashi, J. Normand, 
 K. Raghavachari, A. P. Rendell, J. C. Burant, S. S. Iyengar, 
 J. Tomasi, M. Cossi, J. M. Millam, M. Klene, C. Adamo, R. Cammi, 
 J. W. Ochterski, R. L. Martin, K. Morokuma, O. Farkas, 
 J. B. Foresman, and D. J. Fox, Gaussian, Inc., Wallingford CT, 2016.
 
 ******************************************
 Gaussian 16:  ES64L-G16RevA.03 25-Dec-2016
                 6-Jul-2019 
 ******************************************
 %nproc=4
 Will use up to    4 processors via shared memory.
 %Mem=2GB
 -------------------------------------
 # td=(NStates=1) CAM-B3LYP/6-31G(d,p)
 -------------------------------------
 1/38=1,172=1/1;
 2/12=2,17=6,18=5,40=1/2;
 3/5=1,6=6,7=101,11=9,25=1,30=1,74=-40/1,2,3,8;
 4//1;
 5/5=2,38=5/2;
 8/6=1,10=2,108=1/1;
 9/41=1,42=1,70=2/14;
 6/7=2,8=2,9=2,10=2/1;
 99/5=1,9=1/99;
 --
 TD
 --
 Symbolic Z-matrix:
 Charge =  0 Multiplicity = 1
 8                     14.63509  -2.31634  -0.32638 
 8                    -14.77556   1.94852   0.66007 
 6                     11.25514  -1.20779   1.15633 
 6                    -12.29772  -0.97278   0.87857 
 6                     12.75857  -1.57366   1.14123 
 6                    -13.66401  -0.23707   0.70626 
 6                     13.31934  -2.05846  -0.21125 
 6                    -13.53576   1.30686   0.67747 
 6                     10.92424  -0.24504  -0.07965 
 6                    -11.38333  -0.27965  -0.20702 
 6                     13.11377  -0.94647  -1.26405 
 6                    -12.70273   1.73136  -0.64907 
 6                     11.74083  -0.15496  -1.13597 
 6                    -11.53123   0.8632   -0.83601 
 6                     11.07278  -0.34381   2.48378 
 6                     10.38189  -2.51576   1.15151 
 6                    -11.79748  -0.92961   2.32321 
 6                    -12.53238  -2.39445   0.56971 
 6                     9.60983   0.39702   0.04383 
 6                    -10.05762  -1.0317   -0.38812 
 6                     11.51554   0.84228  -2.40191 
 6                    -10.57803   1.38088  -1.90262 
 6                     9.34339   1.6436   -0.18425 
 6                    -8.78273  -0.51663  -0.33028 
 6                     7.97069   2.25363  -0.05231 
 6                    -7.55243  -1.3142   -0.48371 
 6                     8.15367   3.65257   0.42055 
 6                    -7.76674  -2.77469  -0.84352 
 6                     6.8599    1.63202  -0.26703 
 6                    -6.33258  -0.73753  -0.24161 
 6                     5.49744   2.101     0.0086 
 6                    -5.00484  -1.17519  -0.37174 
 6                     4.37223   1.37364  -0.04346 
 6                    -3.996    -0.41637  -0.33891 
 6                     3.10913   1.73607   0.08896 
 6                    -2.55069  -0.69735  -0.49199 
 6                     2.80327   3.07253   0.75407 
 6                    -2.22022  -2.1353   -0.67931 
 6                     2.12686   0.8331   -0.12389 
 6                    -1.59646   0.18168  -0.14235 
 6                     0.71827   0.95881   0.09849 
 6                    -0.172    -0.01803  -0.12619 
 1                     13.40396  -0.63674   1.50337 
 1                     13.13114  -2.3666    2.00566 
 1                    -14.3524  -0.52416   1.59982 
 1                    -13.96513  -0.58083  -0.20887 
 1                     12.51724  -2.89857  -0.46655 
 1                    -13.38646   1.62502   1.7358 
 1                     13.78911  -0.17481  -0.90007 
 1                     13.07457  -1.31836  -2.23 
 1                    -13.47411   1.4822   -1.42328 
 1                    -12.44214   2.83432  -0.58835 
 1                     11.6353  -0.82899   3.33401 
 1                     9.99327  -0.18737   2.76005 
 1                     11.6716   0.61136   2.3922 
 1                     10.14241  -3.12937   0.10597 
 1                     10.52426  -3.42245   1.83182 
 1                     9.36656  -2.27416   1.54835 
 1                    -11.54999   0.06005   2.50715 
 1                    -10.95764  -1.59749   2.44199 
 1                    -12.79647  -1.33982   2.82775 
 1                    -13.24027  -2.82801   1.19179 
 1                    -11.62517  -2.99187   0.56685 
 1                    -12.92157  -2.43165  -0.41138 
 1                     8.78007  -0.45264   0.11599 
 1                    -9.94072  -2.14087  -0.53409 
 1                     10.45563   0.77809  -2.51864 
 1                     12.00391   1.92623  -2.29205 
 1                     11.99753   0.30737  -3.16126 
 1                    -11.16806   1.79922  -2.8377 
 1                    -9.99674   0.62765  -2.51606 
 1                    -10.10714   2.15402  -1.57291 
 1                     14.83785  -2.8286    0.43098 
 1                    -15.34082   1.83845   1.56689 
 1                     10.32911   2.3295   -0.44979 
 1                    -8.48174   0.63893  -0.11289 
 1                     8.88109   4.08035  -0.18043 
 1                     7.17675   4.01031   0.06628 
 1                     8.54054   3.77395   1.61438 
 1                    -8.31514  -3.54113  -0.15456 
 1                    -8.18788  -2.77168  -1.95556 
 1                    -6.80426  -3.28162  -0.87859 
 1                     6.83989   0.59723  -0.61978 
 1                    -6.36968   0.48504   0.07917 
 1                     5.25434   3.17073   0.5859 
 1                    -4.84952  -2.28238  -0.78381 
 1                     4.87447   0.34697  -0.43566 
 1                    -4.32836   0.57199  -0.13326 
 1                     3.25169   3.37992   1.8514 
 1                     1.64624   3.39364   0.9998 
 1                     3.27592   4.07511   0.2079 
 1                    -2.68434  -2.79426  -0.02606 
 1                    -2.90421  -2.52623  -1.62568 
 1                    -1.08918  -2.24127  -0.91566 
 1                     2.59457  -0.03892  -0.67619 
 1                    -1.93324   1.23535  -0.0266 
 1                     0.29513   1.98664   0.32403 
 1                     0.31215  -0.87995  -0.4013 
 
 Stoichiometry    C40H56O2
 Framework group  C1[X(C40H56O2)]
 Deg. of freedom   288
 Full point group                 C1      NOp   1
 Largest Abelian subgroup         C1      NOp   1
 Largest concise Abelian subgroup C1      NOp   1
                         Standard orientation:                         
 ---------------------------------------------------------------------
 Center     Atomic      Atomic             Coordinates (Angstroms)
 Number     Number       Type             X           Y           Z
 ---------------------------------------------------------------------
      1          8           0       14.634071   -2.311737   -0.411286
      2          8           0      -14.774202    1.931685    0.726959
      3          6           0       11.252764   -1.270127    1.116196
      4          6           0      -12.299391   -0.999075    0.812973
      5          6           0       12.755885   -1.636386    1.086411
      6          6           0      -13.664729   -0.254781    0.672998
      7          6           0       13.318377   -2.058199   -0.286311
      8          6           0      -13.535013    1.288689    0.716379
      9          6           0       10.924732   -0.250503   -0.074098
     10          6           0      -11.382624   -0.257022   -0.237719
     11          6           0       13.115508   -0.898154   -1.286474
     12          6           0      -12.699473    1.773708   -0.587642
     13          6           0       11.743095   -0.112110   -1.123798
     14          6           0      -11.528467    0.914041   -0.813006
     15          6           0       11.069068   -0.468758    2.482175
     16          6           0       10.378321   -2.575586    1.049079
     17          6           0      -11.801433   -1.023764    2.258831
     18          6           0      -12.534867   -2.404582    0.437836
     19          6           0        9.610710    0.386408    0.077119
     20          6           0      -10.057318   -1.001130   -0.451593
     21          6           0       11.520756    0.943249   -2.342249
     22          6           0      -10.573087    1.479907   -1.852845
     23          6           0        9.345789    1.642522   -0.093048
     24          6           0       -8.782051   -0.490576   -0.367835
     25          6           0        7.973439    2.247100    0.065037
     26          6           0       -7.552241   -1.281351   -0.556343
     27          6           0        8.156937    3.622314    0.602855
     28          6           0       -7.767312   -2.723278   -0.984148
     29          6           0        6.862423    1.637279   -0.180142
     30          6           0       -6.332247   -0.717802   -0.285728
     31          6           0        5.499952    2.094253    0.114908
     32          6           0       -5.004709   -1.150237   -0.434041
     33          6           0        4.374161    1.371230    0.027264
     34          6           0       -3.995220   -0.394772   -0.364319
     35          6           0        3.111186    1.728350    0.174459
     36          6           0       -2.549929   -0.669754   -0.528067
     37          6           0        2.805484    3.032663    0.900638
     38          6           0       -2.220477   -2.097738   -0.781672
     39          6           0        2.128429    0.837249   -0.081768
     40          6           0       -1.595456    0.191086   -0.136360
     41          6           0        0.719597    0.953858    0.144029
     42          6           0       -0.171203   -0.010574   -0.127307
     43          1           0       13.401549   -0.717994    1.492813
     44          1           0       13.126335   -2.469108    1.913534
     45          1           0      -14.354813   -0.582514    1.551133
     46          1           0      -13.964695   -0.555225   -0.257626
     47          1           0       12.515910   -2.884708   -0.581738
     48          1           0      -13.387126    1.557037    1.788619
     49          1           0       13.790976   -0.144966   -0.885880
     50          1           0       13.077519   -1.224602   -2.268770
     51          1           0      -13.469840    1.561655   -1.373821
     52          1           0      -12.437970    2.872376   -0.475183
     53          1           0       11.629782   -0.993584    3.309750
     54          1           0        9.989257   -0.324285    2.763757
     55          1           0       11.668909    0.489052    2.436135
     56          1           0       10.139961   -3.139578   -0.024297
     57          1           0       10.518774   -3.513126    1.686623
     58          1           0        9.362583   -2.351729    1.455158
     59          1           0      -11.553330   -0.043989    2.489075
     60          1           0      -10.962397   -1.697278    2.347671
     61          1           0      -12.801606   -1.456046    2.742146
     62          1           0      -13.244151   -2.865953    1.037939
     63          1           0      -11.628194   -3.002115    0.408559
     64          1           0      -12.922516   -2.395641   -0.544526
     65          1           0        8.780060   -0.464872    0.108311
     66          1           0       -9.941209   -2.102410   -0.648910
     67          1           0       10.460970    0.885618   -2.463488
     68          1           0       12.009939    2.020416   -2.181235
     69          1           0       12.003472    0.443825   -3.124945
     70          1           0      -11.161230    1.941951   -2.768331
     71          1           0       -9.991501    0.755506   -2.499805
     72          1           0      -10.102019    2.236383   -1.486736
     73          1           0       14.835145   -2.858932    0.321704
     74          1           0      -15.341016    1.780045    1.626792
     75          1           0       10.332557    2.339071   -0.324804
     76          1           0       -8.480356    0.653291   -0.096361
     77          1           0        8.885717    4.076905    0.023587
     78          1           0        7.180920    3.997134    0.264115
     79          1           0        8.542006    3.687551    1.801647
     80          1           0       -8.317520   -3.520447   -0.332502
     81          1           0       -8.186672   -2.668039   -2.095493
     82          1           0       -6.805244   -3.228982   -1.041301
     83          1           0        6.842023    0.620070   -0.580755
     84          1           0       -6.368741    0.488528    0.091604
     85          1           0        5.256913    3.136167    0.741051
     86          1           0       -4.849742   -2.237181   -0.897007
     87          1           0        4.876086    0.363452   -0.411567
     88          1           0       -4.327005    0.583262   -0.113357
     89          1           0        3.252428    3.288151    2.011801
     90          1           0        1.648357    3.343123    1.159264
     91          1           0        3.279930    4.059132    0.402517
     92          1           0       -2.686252   -2.785955   -0.160557
     93          1           0       -2.903310   -2.443473   -1.746292
     94          1           0       -1.089156   -2.193705   -1.020945
     95          1           0        2.596218   -0.008557   -0.673364
     96          1           0       -1.931456    1.238557    0.027832
     97          1           0        0.297035    1.970482    0.416559
     98          1           0        0.312596   -0.859214   -0.441521
 ---------------------------------------------------------------------
 Rotational constants (GHZ):           0.2403999           0.0093249           0.0091555
 Standard basis: 6-31G(d,p) (6D, 7F)
 There are   910 symmetry adapted cartesian basis functions of A   symmetry.
 There are   910 symmetry adapted basis functions of A   symmetry.
   910 basis functions,  1568 primitive gaussians,   910 cartesian basis functions
   156 alpha electrons      156 beta electrons
       nuclear repulsion energy      3968.4313868054 Hartrees.
 NAtoms=   98 NActive=   98 NUniq=   98 SFac= 1.00D+00 NAtFMM=   60 NAOKFM=T Big=T
 Integral buffers will be    131072 words long.
 Raffenetti 1 integral format.
 Two-electron integral symmetry is turned on.
 One-electron integrals computed using PRISM.
 NBasis=   910 RedAO= T EigKep=  8.24D-04  NBF=   910
 NBsUse=   910 1.00D-06 EigRej= -1.00D+00 NBFU=   910
 ExpMin= 1.61D-01 ExpMax= 5.48D+03 ExpMxC= 8.25D+02 IAcc=3 IRadAn=         5 AccDes= 0.00D+00
 Harris functional with IExCor=20419 and IRadAn=       5 diagonalized for initial guess.
 HarFok:  IExCor=20419 AccDes= 0.00D+00 IRadAn=         5 IDoV= 1 UseB2=F ITyADJ=14
 ICtDFT=  3500011 ScaDFX=  1.000000  1.000000  1.000000  1.000000
 FoFCou: FMM=F IPFlag=           0 FMFlag=      100000 FMFlg1=        2001
         NFxFlg=           0 DoJE=T BraDBF=F KetDBF=T FulRan=T
         wScrn=  0.000000 ICntrl=       500 IOpCl=  0 I1Cent=   200000004 NGrid=           0
         NMat0=    1 NMatS0=      1 NMatT0=    0 NMatD0=    1 NMtDS0=    0 NMtDT0=    0
 Petite list used in FoFCou.
 Requested convergence on RMS density matrix=1.00D-08 within 128 cycles.
 Requested convergence on MAX density matrix=1.00D-06.
 Requested convergence on             energy=1.00D-06.
 No special actions if energy rises.
 Integral accuracy reduced to 1.0D-05 until final iterations.
 Initial convergence to 1.0D-05 achieved.  Increase integral accuracy.
 SCF Done:  E(RCAM-B3LYP) =  -1706.89710629     A.U. after   13 cycles
            NFock= 13  Conv=0.94D-08     -V/T= 2.0103
 DoSCS=F DFT=T ScalE2(SS,OS)=  1.000000  1.000000
 ExpMin= 1.61D-01 ExpMax= 5.48D+03 ExpMxC= 8.25D+02 IAcc=3 IRadAn=         5 AccDes= 0.00D+00
 HarFok:  IExCor=  205 AccDes= 0.00D+00 IRadAn=         5 IDoV=-2 UseB2=F ITyADJ=14
 ICtDFT= 12500011 ScaDFX=  1.000000  1.000000  1.000000  1.000000
 GSVD:  LWork=       -2100 too small for GESVD, short by        9450 words or        9450 for optimal perf.
 Range of M.O.s used for correlation:    43   910
 NBasis=   910 NAE=   156 NBE=   156 NFC=    42 NFV=     0
 NROrb=    868 NOA=   114 NOB=   114 NVA=   754 NVB=   754
 Orbital symmetries:
       Occupied  (A) (A) (A) (A) (A) (A) (A) (A) (A) (A) (A) (A)
                 (A) (A) (A) (A) (A) (A) (A) (A) (A) (A) (A) (A)
                 (A) (A) (A) (A) (A) (A) (A) (A) (A) (A) (A) (A)
                 (A) (A) (A) (A) (A) (A) (A) (A) (A) (A) (A) (A)
                 (A) (A) (A) (A) (A) (A) (A) (A) (A) (A) (A) (A)
                 (A) (A) (A) (A) (A) (A) (A) (A) (A) (A) (A) (A)
                 (A) (A) (A) (A) (A) (A) (A) (A) (A) (A) (A) (A)
                 (A) (A) (A) (A) (A) (A) (A) (A) (A) (A) (A) (A)
                 (A) (A) (A) (A) (A) (A) (A) (A) (A) (A) (A) (A)
                 (A) (A) (A) (A) (A) (A) (A) (A) (A) (A) (A) (A)
                 (A) (A) (A) (A) (A) (A) (A) (A) (A) (A) (A) (A)
                 (A) (A) (A) (A) (A) (A) (A) (A) (A) (A) (A) (A)
                 (A) (A) (A) (A) (A) (A) (A) (A) (A) (A) (A) (A)
       Virtual   (A) (A) (A) (A) (A) (A) (A) (A) (A) (A) (A) (A)
                 (A) (A) (A) (A) (A) (A) (A) (A) (A) (A) (A) (A)
                 (A) (A) (A) (A) (A) (A) (A) (A) (A) (A) (A) (A)
                 (A) (A) (A) (A) (A) (A) (A) (A) (A) (A) (A) (A)
                 (A) (A) (A) (A) (A) (A) (A) (A) (A) (A) (A) (A)
                 (A) (A) (A) (A) (A) (A) (A) (A) (A) (A) (A) (A)
                 (A) (A) (A) (A) (A) (A) (A) (A) (A) (A) (A) (A)
                 (A) (A) (A) (A) (A) (A) (A) (A) (A) (A) (A) (A)
                 (A) (A) (A) (A) (A) (A) (A) (A) (A) (A) (A) (A)
                 (A) (A) (A) (A) (A) (A) (A) (A) (A) (A) (A) (A)
                 (A) (A) (A) (A) (A) (A) (A) (A) (A) (A) (A) (A)
                 (A) (A) (A) (A) (A) (A) (A) (A) (A) (A) (A) (A)
                 (A) (A) (A) (A) (A) (A) (A) (A) (A) (A) (A) (A)
                 (A) (A) (A) (A) (A) (A) (A) (A) (A) (A) (A) (A)
                 (A) (A) (A) (A) (A) (A) (A) (A) (A) (A) (A) (A)
                 (A) (A) (A) (A) (A) (A) (A) (A) (A) (A) (A) (A)
                 (A) (A) (A) (A) (A) (A) (A) (A) (A) (A) (A) (A)
                 (A) (A) (A) (A) (A) (A) (A) (A) (A) (A) (A) (A)
                 (A) (A) (A) (A) (A) (A) (A) (A) (A) (A) (A) (A)
                 (A) (A) (A) (A) (A) (A) (A) (A) (A) (A) (A) (A)
                 (A) (A) (A) (A) (A) (A) (A) (A) (A) (A) (A) (A)
                 (A) (A) (A) (A) (A) (A) (A) (A) (A) (A) (A) (A)
                 (A) (A) (A) (A) (A) (A) (A) (A) (A) (A) (A) (A)
                 (A) (A) (A) (A) (A) (A) (A) (A) (A) (A) (A) (A)
                 (A) (A) (A) (A) (A) (A) (A) (A) (A) (A) (A) (A)
                 (A) (A) (A) (A) (A) (A) (A) (A) (A) (A) (A) (A)
                 (A) (A) (A) (A) (A) (A) (A) (A) (A) (A) (A) (A)
                 (A) (A) (A) (A) (A) (A) (A) (A) (A) (A) (A) (A)
                 (A) (A) (A) (A) (A) (A) (A) (A) (A) (A) (A) (A)
                 (A) (A) (A) (A) (A) (A) (A) (A) (A) (A) (A) (A)
                 (A) (A) (A) (A) (A) (A) (A) (A) (A) (A) (A) (A)
                 (A) (A) (A) (A) (A) (A) (A) (A) (A) (A) (A) (A)
                 (A) (A) (A) (A) (A) (A) (A) (A) (A) (A) (A) (A)
                 (A) (A) (A) (A) (A) (A) (A) (A) (A) (A) (A) (A)
                 (A) (A) (A) (A) (A) (A) (A) (A) (A) (A) (A) (A)
                 (A) (A) (A) (A) (A) (A) (A) (A) (A) (A) (A) (A)
                 (A) (A) (A) (A) (A) (A) (A) (A) (A) (A) (A) (A)
                 (A) (A) (A) (A) (A) (A) (A) (A) (A) (A) (A) (A)
                 (A) (A) (A) (A) (A) (A) (A) (A) (A) (A) (A) (A)
                 (A) (A) (A) (A) (A) (A) (A) (A) (A) (A) (A) (A)
                 (A) (A) (A) (A) (A) (A) (A) (A) (A) (A) (A) (A)
                 (A) (A) (A) (A) (A) (A) (A) (A) (A) (A) (A) (A)
                 (A) (A) (A) (A) (A) (A) (A) (A) (A) (A) (A) (A)
                 (A) (A) (A) (A) (A) (A) (A) (A) (A) (A) (A) (A)
                 (A) (A) (A) (A) (A) (A) (A) (A) (A) (A) (A) (A)
                 (A) (A) (A) (A) (A) (A) (A) (A) (A) (A) (A) (A)
                 (A) (A) (A) (A) (A) (A) (A) (A) (A) (A) (A) (A)
                 (A) (A) (A) (A) (A) (A) (A) (A) (A) (A) (A) (A)
                 (A) (A) (A) (A) (A) (A) (A) (A) (A) (A) (A) (A)
                 (A) (A) (A) (A) (A) (A) (A) (A) (A) (A) (A) (A)
                 (A) (A) (A) (A) (A) (A) (A) (A) (A) (A) (A) (A)
                 (A) (A) (A) (A) (A) (A) (A) (A) (A) (A) (A) (A)
                 (A) (A) (A) (A) (A) (A) (A) (A) (A) (A) (A) (A)
                 (A) (A) (A) (A) (A) (A) (A) (A) (A) (A) (A) (A)
                 (A) (A) (A) (A) (A) (A) (A) (A) (A) (A) (A) (A)
                 (A) (A) (A) (A) (A) (A) (A) (A) (A) (A) (A) (A)
                 (A) (A) (A) (A) (A) (A) (A) (A) (A) (A) (A) (A)
                 (A) (A) (A) (A) (A) (A) (A) (A) (A) (A) (A) (A)
                 (A) (A) (A) (A) (A) (A) (A) (A) (A) (A) (A) (A)
                 (A) (A) (A) (A) (A) (A) (A) (A) (A) (A) (A) (A)
                 (A) (A) (A) (A) (A) (A) (A) (A) (A) (A) (A) (A)
                 (A) (A) (A) (A) (A) (A) (A) (A) (A) (A) (A) (A)
                 (A) (A) (A) (A) (A) (A) (A) (A) (A) (A)
     4 initial guesses have been made.
 Convergence on wavefunction:    0.001000000000000
 Iteration     1 Dimension     4 NMult     0 NNew      4
 CISAX will form     4 AO SS matrices at one time.
 Iteration     2 Dimension     6 NMult     4 NNew      2
 Iteration     3 Dimension     8 NMult     6 NNew      2
 Iteration     4 Dimension    10 NMult     8 NNew      2
 Iteration     5 Dimension    12 NMult    10 NNew      2
 Iteration     6 Dimension    14 NMult    12 NNew      2
 ***********************************************************************
 Excited states from <AA,BB:AA,BB> singles matrix:
 ***********************************************************************
 
 Ground to excited state transition densities written to RWF  633
 Ground to excited state transition electric dipole moments (Au):
       state          X           Y           Z        Dip. S.      Osc.
         1         6.9517      1.3922      0.4258     50.4455      3.6566
 Ground to excited state transition velocity dipole moments (Au):
       state          X           Y           Z        Dip. S.      Osc.
         1        -0.7297     -0.1440     -0.0458      0.5552      3.4044
 Ground to excited state transition magnetic dipole moments (Au):
       state          X           Y           Z
         1        -0.0750      0.2192      0.7258
 Ground to excited state transition velocity quadrupole moments (Au):
       state          XX          YY          ZZ          XY          XZ          YZ
         1         0.2177     -0.3195     -0.0036     -0.4163      0.1992     -0.0355
 <0|del|b> * <b|rxdel|0> + <0|del|b> * <b|delr+rdel|0>
 Rotatory Strengths (R) in cgs (10**-40 erg-esu-cm/Gauss)
       state          XX          YY          ZZ    R(velocity)    E-M Angle
         1       -55.5031     91.8386   -102.1559    -21.9401       91.02
 1/2[<0|r|b>*<b|rxdel|0> + (<0|rxdel|b>*<b|r|0>)*]
 Rotatory Strengths (R) in cgs (10**-40 erg-esu-cm/Gauss)
       state          XX          YY          ZZ     R(length)
         1       368.5771   -215.8052   -218.5509    -21.9263
  1/2[<0|del|b>*<b|r|0> + (<0|r|b>*<b|del|0>)*] (Au)
       state          X           Y           Z        Dip. S.   Osc.(frdel)
         1        -5.0724     -0.2005     -0.0195      5.2924      3.5282

 Excitation energies and oscillator strengths:
 
 Excited State   1:      Singlet-A      2.9587 eV  419.05 nm  f=3.6566  <S**2>=0.000
     155 ->158         0.16687
     156 ->157         0.68147
 This state for optimization and/or second-order correction.
 Total Energy, E(TD-HF/TD-DFT) =  -1706.78837701    
 Copying the excited state density for this state as the 1-particle RhoCI density.
 SavETr:  write IOETrn=   770 NScale= 10 NData=  16 NLR=1 NState=    1 LETran=      28.

 **********************************************************************

            Population analysis using the SCF density.

 **********************************************************************

 Orbital symmetries:
       Occupied  (A) (A) (A) (A) (A) (A) (A) (A) (A) (A) (A) (A)
                 (A) (A) (A) (A) (A) (A) (A) (A) (A) (A) (A) (A)
                 (A) (A) (A) (A) (A) (A) (A) (A) (A) (A) (A) (A)
                 (A) (A) (A) (A) (A) (A) (A) (A) (A) (A) (A) (A)
                 (A) (A) (A) (A) (A) (A) (A) (A) (A) (A) (A) (A)
                 (A) (A) (A) (A) (A) (A) (A) (A) (A) (A) (A) (A)
                 (A) (A) (A) (A) (A) (A) (A) (A) (A) (A) (A) (A)
                 (A) (A) (A) (A) (A) (A) (A) (A) (A) (A) (A) (A)
                 (A) (A) (A) (A) (A) (A) (A) (A) (A) (A) (A) (A)
                 (A) (A) (A) (A) (A) (A) (A) (A) (A) (A) (A) (A)
                 (A) (A) (A) (A) (A) (A) (A) (A) (A) (A) (A) (A)
                 (A) (A) (A) (A) (A) (A) (A) (A) (A) (A) (A) (A)
                 (A) (A) (A) (A) (A) (A) (A) (A) (A) (A) (A) (A)
       Virtual   (A) (A) (A) (A) (A) (A) (A) (A) (A) (A) (A) (A)
                 (A) (A) (A) (A) (A) (A) (A) (A) (A) (A) (A) (A)
                 (A) (A) (A) (A) (A) (A) (A) (A) (A) (A) (A) (A)
                 (A) (A) (A) (A) (A) (A) (A) (A) (A) (A) (A) (A)
                 (A) (A) (A) (A) (A) (A) (A) (A) (A) (A) (A) (A)
                 (A) (A) (A) (A) (A) (A) (A) (A) (A) (A) (A) (A)
                 (A) (A) (A) (A) (A) (A) (A) (A) (A) (A) (A) (A)
                 (A) (A) (A) (A) (A) (A) (A) (A) (A) (A) (A) (A)
                 (A) (A) (A) (A) (A) (A) (A) (A) (A) (A) (A) (A)
                 (A) (A) (A) (A) (A) (A) (A) (A) (A) (A) (A) (A)
                 (A) (A) (A) (A) (A) (A) (A) (A) (A) (A) (A) (A)
                 (A) (A) (A) (A) (A) (A) (A) (A) (A) (A) (A) (A)
                 (A) (A) (A) (A) (A) (A) (A) (A) (A) (A) (A) (A)
                 (A) (A) (A) (A) (A) (A) (A) (A) (A) (A) (A) (A)
                 (A) (A) (A) (A) (A) (A) (A) (A) (A) (A) (A) (A)
                 (A) (A) (A) (A) (A) (A) (A) (A) (A) (A) (A) (A)
                 (A) (A) (A) (A) (A) (A) (A) (A) (A) (A) (A) (A)
                 (A) (A) (A) (A) (A) (A) (A) (A) (A) (A) (A) (A)
                 (A) (A) (A) (A) (A) (A) (A) (A) (A) (A) (A) (A)
                 (A) (A) (A) (A) (A) (A) (A) (A) (A) (A) (A) (A)
                 (A) (A) (A) (A) (A) (A) (A) (A) (A) (A) (A) (A)
                 (A) (A) (A) (A) (A) (A) (A) (A) (A) (A) (A) (A)
                 (A) (A) (A) (A) (A) (A) (A) (A) (A) (A) (A) (A)
                 (A) (A) (A) (A) (A) (A) (A) (A) (A) (A) (A) (A)
                 (A) (A) (A) (A) (A) (A) (A) (A) (A) (A) (A) (A)
                 (A) (A) (A) (A) (A) (A) (A) (A) (A) (A) (A) (A)
                 (A) (A) (A) (A) (A) (A) (A) (A) (A) (A) (A) (A)
                 (A) (A) (A) (A) (A) (A) (A) (A) (A) (A) (A) (A)
                 (A) (A) (A) (A) (A) (A) (A) (A) (A) (A) (A) (A)
                 (A) (A) (A) (A) (A) (A) (A) (A) (A) (A) (A) (A)
                 (A) (A) (A) (A) (A) (A) (A) (A) (A) (A) (A) (A)
                 (A) (A) (A) (A) (A) (A) (A) (A) (A) (A) (A) (A)
                 (A) (A) (A) (A) (A) (A) (A) (A) (A) (A) (A) (A)
                 (A) (A) (A) (A) (A) (A) (A) (A) (A) (A) (A) (A)
                 (A) (A) (A) (A) (A) (A) (A) (A) (A) (A) (A) (A)
                 (A) (A) (A) (A) (A) (A) (A) (A) (A) (A) (A) (A)
                 (A) (A) (A) (A) (A) (A) (A) (A) (A) (A) (A) (A)
                 (A) (A) (A) (A) (A) (A) (A) (A) (A) (A) (A) (A)
                 (A) (A) (A) (A) (A) (A) (A) (A) (A) (A) (A) (A)
                 (A) (A) (A) (A) (A) (A) (A) (A) (A) (A) (A) (A)
                 (A) (A) (A) (A) (A) (A) (A) (A) (A) (A) (A) (A)
                 (A) (A) (A) (A) (A) (A) (A) (A) (A) (A) (A) (A)
                 (A) (A) (A) (A) (A) (A) (A) (A) (A) (A) (A) (A)
                 (A) (A) (A) (A) (A) (A) (A) (A) (A) (A) (A) (A)
                 (A) (A) (A) (A) (A) (A) (A) (A) (A) (A) (A) (A)
                 (A) (A) (A) (A) (A) (A) (A) (A) (A) (A) (A) (A)
                 (A) (A) (A) (A) (A) (A) (A) (A) (A) (A) (A) (A)
                 (A) (A) (A) (A) (A) (A) (A) (A) (A) (A) (A) (A)
                 (A) (A) (A) (A) (A) (A) (A) (A) (A) (A) (A) (A)
                 (A) (A) (A) (A) (A) (A) (A) (A) (A) (A) (A) (A)
                 (A) (A) (A) (A) (A) (A) (A) (A) (A) (A) (A) (A)
                 (A) (A) (A) (A) (A) (A) (A) (A) (A) (A) (A) (A)
                 (A) (A) (A) (A) (A) (A) (A) (A) (A) (A) (A) (A)
                 (A) (A) (A) (A) (A) (A) (A) (A) (A) (A) (A) (A)
                 (A) (A) (A) (A) (A) (A) (A) (A) (A) (A) (A) (A)
                 (A) (A) (A) (A) (A) (A) (A) (A) (A) (A) (A) (A)
                 (A) (A) (A) (A) (A) (A) (A) (A) (A) (A) (A) (A)
                 (A) (A) (A) (A) (A) (A) (A) (A) (A) (A) (A) (A)
                 (A) (A) (A) (A) (A) (A) (A) (A) (A) (A) (A) (A)
                 (A) (A) (A) (A) (A) (A) (A) (A) (A) (A) (A) (A)
                 (A) (A) (A) (A) (A) (A) (A) (A) (A) (A) (A) (A)
                 (A) (A) (A) (A) (A) (A) (A) (A) (A) (A) (A) (A)
                 (A) (A) (A) (A) (A) (A) (A) (A) (A) (A)
 The electronic state is 1-A.
 Alpha  occ. eigenvalues --  -19.22497 -19.20588 -10.30853 -10.30508 -10.29383
 Alpha  occ. eigenvalues --  -10.29232 -10.27842 -10.27653 -10.27561 -10.27331
 Alpha  occ. eigenvalues --  -10.27322 -10.27259 -10.27132 -10.26988 -10.26897
 Alpha  occ. eigenvalues --  -10.26891 -10.26854 -10.26805 -10.26722 -10.26711
 Alpha  occ. eigenvalues --  -10.26633 -10.26580 -10.26562 -10.26530 -10.26272
 Alpha  occ. eigenvalues --  -10.26233 -10.26177 -10.26096 -10.26031 -10.25972
 Alpha  occ. eigenvalues --  -10.25966 -10.25946 -10.25808 -10.25766 -10.25763
 Alpha  occ. eigenvalues --  -10.25718 -10.25268 -10.24576 -10.24555 -10.24371
 Alpha  occ. eigenvalues --  -10.24312 -10.22753  -1.13685  -1.07930  -0.93437
 Alpha  occ. eigenvalues --   -0.93316  -0.92673  -0.92284  -0.90875  -0.90137
 Alpha  occ. eigenvalues --   -0.88335  -0.87844  -0.85848  -0.85179  -0.84632
 Alpha  occ. eigenvalues --   -0.82623  -0.81942  -0.79660  -0.79348  -0.77859
 Alpha  occ. eigenvalues --   -0.76504  -0.75911  -0.75874  -0.75672  -0.75339
 Alpha  occ. eigenvalues --   -0.75208  -0.75120  -0.74556  -0.74485  -0.70575
 Alpha  occ. eigenvalues --   -0.68396  -0.67363  -0.65922  -0.64407  -0.63935
 Alpha  occ. eigenvalues --   -0.63444  -0.62189  -0.61790  -0.59863  -0.59238
 Alpha  occ. eigenvalues --   -0.58931  -0.58592  -0.57743  -0.57371  -0.56227
 Alpha  occ. eigenvalues --   -0.55483  -0.55231  -0.54562  -0.53974  -0.53405
 Alpha  occ. eigenvalues --   -0.52932  -0.52433  -0.51786  -0.51747  -0.51500
 Alpha  occ. eigenvalues --   -0.50848  -0.50441  -0.50152  -0.49741  -0.49106
 Alpha  occ. eigenvalues --   -0.48725  -0.48048  -0.47918  -0.47802  -0.47446
 Alpha  occ. eigenvalues --   -0.47063  -0.46903  -0.46552  -0.46463  -0.45952
 Alpha  occ. eigenvalues --   -0.45757  -0.45580  -0.45472  -0.45178  -0.44889
 Alpha  occ. eigenvalues --   -0.44521  -0.44102  -0.43950  -0.43708  -0.43403
 Alpha  occ. eigenvalues --   -0.43195  -0.42931  -0.41897  -0.41875  -0.41723
 Alpha  occ. eigenvalues --   -0.41592  -0.41362  -0.40972  -0.40751  -0.40191
 Alpha  occ. eigenvalues --   -0.39769  -0.39715  -0.39603  -0.39338  -0.39229
 Alpha  occ. eigenvalues --   -0.39148  -0.38731  -0.38494  -0.38195  -0.37884
 Alpha  occ. eigenvalues --   -0.37803  -0.36142  -0.35679  -0.35472  -0.35213
 Alpha  occ. eigenvalues --   -0.34560  -0.34095  -0.33538  -0.32483  -0.31941
 Alpha  occ. eigenvalues --   -0.30611  -0.29968  -0.29014  -0.27542  -0.24647
 Alpha  occ. eigenvalues --   -0.21671
 Alpha virt. eigenvalues --   -0.04192   0.00056   0.03654   0.06361   0.08296
 Alpha virt. eigenvalues --    0.09481   0.09690   0.10918   0.11177   0.11910
 Alpha virt. eigenvalues --    0.12360   0.12535   0.12639   0.12945   0.13307
 Alpha virt. eigenvalues --    0.13450   0.13630   0.13747   0.14344   0.14508
 Alpha virt. eigenvalues --    0.15350   0.15401   0.15843   0.15965   0.16391
 Alpha virt. eigenvalues --    0.16726   0.16999   0.17193   0.17506   0.17538
 Alpha virt. eigenvalues --    0.17838   0.18203   0.18494   0.18609   0.18932
 Alpha virt. eigenvalues --    0.19358   0.19603   0.20115   0.20287   0.20439
 Alpha virt. eigenvalues --    0.20943   0.21211   0.21366   0.21804   0.21896
 Alpha virt. eigenvalues --    0.22242   0.22285   0.22568   0.22669   0.22946
 Alpha virt. eigenvalues --    0.23357   0.23658   0.23967   0.24023   0.24102
 Alpha virt. eigenvalues --    0.24255   0.24708   0.25073   0.25147   0.25829
 Alpha virt. eigenvalues --    0.26101   0.26587   0.27131   0.27249   0.27424
 Alpha virt. eigenvalues --    0.27748   0.27936   0.28235   0.28409   0.29083
 Alpha virt. eigenvalues --    0.29375   0.29457   0.29613   0.30112   0.30400
 Alpha virt. eigenvalues --    0.30451   0.30956   0.31120   0.31249   0.32069
 Alpha virt. eigenvalues --    0.32452   0.32699   0.33115   0.33424   0.33891
 Alpha virt. eigenvalues --    0.34374   0.34855   0.36089   0.37459   0.37958
 Alpha virt. eigenvalues --    0.39110   0.39769   0.40512   0.41463   0.42300
 Alpha virt. eigenvalues --    0.43351   0.44207   0.44888   0.45445   0.46851
 Alpha virt. eigenvalues --    0.47178   0.48386   0.48857   0.49488   0.49699
 Alpha virt. eigenvalues --    0.51421   0.51870   0.52462   0.53838   0.54572
 Alpha virt. eigenvalues --    0.55050   0.55350   0.56004   0.56370   0.56859
 Alpha virt. eigenvalues --    0.57170   0.57534   0.57828   0.58203   0.58463
 Alpha virt. eigenvalues --    0.58564   0.59033   0.59195   0.59574   0.59717
 Alpha virt. eigenvalues --    0.60151   0.60656   0.61161   0.61439   0.61963
 Alpha virt. eigenvalues --    0.62159   0.62234   0.62382   0.63031   0.63321
 Alpha virt. eigenvalues --    0.64081   0.64276   0.64510   0.64745   0.65078
 Alpha virt. eigenvalues --    0.65312   0.65747   0.66006   0.66207   0.66477
 Alpha virt. eigenvalues --    0.66583   0.66692   0.66890   0.67582   0.68073
 Alpha virt. eigenvalues --    0.68433   0.68883   0.69338   0.69744   0.70046
 Alpha virt. eigenvalues --    0.70129   0.70468   0.71099   0.71402   0.71935
 Alpha virt. eigenvalues --    0.72116   0.72267   0.72784   0.73473   0.73801
 Alpha virt. eigenvalues --    0.74146   0.74509   0.74717   0.75117   0.75617
 Alpha virt. eigenvalues --    0.75877   0.76289   0.76634   0.76766   0.77126
 Alpha virt. eigenvalues --    0.77432   0.77837   0.79039   0.79504   0.79796
 Alpha virt. eigenvalues --    0.79842   0.80307   0.80332   0.80543   0.81383
 Alpha virt. eigenvalues --    0.82002   0.82003   0.82114   0.82222   0.82387
 Alpha virt. eigenvalues --    0.82683   0.82958   0.83055   0.83351   0.83544
 Alpha virt. eigenvalues --    0.84213   0.84550   0.84837   0.84881   0.85631
 Alpha virt. eigenvalues --    0.85900   0.86098   0.86123   0.86532   0.86604
 Alpha virt. eigenvalues --    0.87002   0.87187   0.87345   0.87554   0.88036
 Alpha virt. eigenvalues --    0.88108   0.88415   0.88694   0.88922   0.89098
 Alpha virt. eigenvalues --    0.89587   0.90058   0.90155   0.90517   0.90850
 Alpha virt. eigenvalues --    0.91563   0.91722   0.92035   0.92373   0.92743
 Alpha virt. eigenvalues --    0.92885   0.92966   0.93179   0.93451   0.94037
 Alpha virt. eigenvalues --    0.94188   0.95023   0.95278   0.95893   0.96159
 Alpha virt. eigenvalues --    0.96267   0.96761   0.97018   0.97905   0.97959
 Alpha virt. eigenvalues --    0.98338   0.98636   0.98747   0.99412   0.99530
 Alpha virt. eigenvalues --    0.99627   0.99864   1.00742   1.00910   1.01319
 Alpha virt. eigenvalues --    1.01654   1.01869   1.02363   1.02409   1.02592
 Alpha virt. eigenvalues --    1.02796   1.03183   1.04086   1.04328   1.04410
 Alpha virt. eigenvalues --    1.04875   1.05383   1.05906   1.06242   1.06561
 Alpha virt. eigenvalues --    1.06880   1.07125   1.07653   1.08115   1.08488
 Alpha virt. eigenvalues --    1.09085   1.09261   1.09808   1.10745   1.11588
 Alpha virt. eigenvalues --    1.11982   1.12195   1.13441   1.13895   1.14422
 Alpha virt. eigenvalues --    1.14879   1.15437   1.15930   1.16340   1.16882
 Alpha virt. eigenvalues --    1.17578   1.19038   1.19145   1.19884   1.21600
 Alpha virt. eigenvalues --    1.21986   1.22099   1.22471   1.23846   1.23996
 Alpha virt. eigenvalues --    1.24528   1.25995   1.27147   1.28226   1.29408
 Alpha virt. eigenvalues --    1.29858   1.30139   1.30612   1.31397   1.32247
 Alpha virt. eigenvalues --    1.32827   1.33403   1.34053   1.34815   1.35747
 Alpha virt. eigenvalues --    1.36137   1.37543   1.38075   1.38712   1.39159
 Alpha virt. eigenvalues --    1.39873   1.41294   1.41767   1.42981   1.43242
 Alpha virt. eigenvalues --    1.43581   1.43982   1.44832   1.45877   1.45998
 Alpha virt. eigenvalues --    1.47250   1.47947   1.48281   1.48927   1.50016
 Alpha virt. eigenvalues --    1.51022   1.51093   1.51941   1.52078   1.53467
 Alpha virt. eigenvalues --    1.53679   1.54004   1.54564   1.55144   1.56180
 Alpha virt. eigenvalues --    1.57783   1.58450   1.59561   1.59601   1.59897
 Alpha virt. eigenvalues --    1.60973   1.61124   1.61984   1.62267   1.62626
 Alpha virt. eigenvalues --    1.63639   1.64883   1.65207   1.65919   1.66060
 Alpha virt. eigenvalues --    1.67651   1.68124   1.68735   1.69854   1.70380
 Alpha virt. eigenvalues --    1.71260   1.72436   1.73090   1.75242   1.75765
 Alpha virt. eigenvalues --    1.76579   1.76945   1.77547   1.77974   1.78463
 Alpha virt. eigenvalues --    1.78957   1.79604   1.80306   1.80514   1.81315
 Alpha virt. eigenvalues --    1.81516   1.81743   1.82772   1.83451   1.83795
 Alpha virt. eigenvalues --    1.84220   1.84486   1.84787   1.84941   1.85055
 Alpha virt. eigenvalues --    1.85469   1.85941   1.86360   1.86732   1.87420
 Alpha virt. eigenvalues --    1.87913   1.88746   1.88973   1.89194   1.89384
 Alpha virt. eigenvalues --    1.89830   1.90536   1.90858   1.91015   1.91442
 Alpha virt. eigenvalues --    1.92181   1.92362   1.92710   1.93525   1.93839
 Alpha virt. eigenvalues --    1.93880   1.94079   1.94581   1.95066   1.96097
 Alpha virt. eigenvalues --    1.96996   1.97624   1.97808   1.97995   1.98562
 Alpha virt. eigenvalues --    1.98818   1.99479   1.99624   1.99824   2.00491
 Alpha virt. eigenvalues --    2.00526   2.01228   2.01637   2.02157   2.02543
 Alpha virt. eigenvalues --    2.03006   2.03122   2.03353   2.03709   2.04245
 Alpha virt. eigenvalues --    2.05184   2.05509   2.06061   2.06560   2.07465
 Alpha virt. eigenvalues --    2.07777   2.07958   2.08370   2.08728   2.08868
 Alpha virt. eigenvalues --    2.09490   2.09755   2.10589   2.11146   2.11582
 Alpha virt. eigenvalues --    2.12002   2.12202   2.12760   2.13200   2.13561
 Alpha virt. eigenvalues --    2.13995   2.14377   2.14536   2.14947   2.15018
 Alpha virt. eigenvalues --    2.15157   2.15624   2.15995   2.16650   2.17293
 Alpha virt. eigenvalues --    2.17607   2.18225   2.18754   2.19143   2.19664
 Alpha virt. eigenvalues --    2.20148   2.20465   2.21360   2.21486   2.21585
 Alpha virt. eigenvalues --    2.21902   2.22421   2.22903   2.23125   2.23500
 Alpha virt. eigenvalues --    2.23884   2.24577   2.25052   2.25328   2.26190
 Alpha virt. eigenvalues --    2.26978   2.27088   2.27351   2.27782   2.28393
 Alpha virt. eigenvalues --    2.29042   2.29278   2.29590   2.29658   2.30801
 Alpha virt. eigenvalues --    2.31274   2.31567   2.32444   2.32853   2.33334
 Alpha virt. eigenvalues --    2.33876   2.34535   2.34604   2.35346   2.35917
 Alpha virt. eigenvalues --    2.36636   2.37074   2.37165   2.37609   2.38057
 Alpha virt. eigenvalues --    2.38431   2.38957   2.39384   2.39749   2.39903
 Alpha virt. eigenvalues --    2.40116   2.40537   2.41321   2.41992   2.42264
 Alpha virt. eigenvalues --    2.42560   2.42641   2.42946   2.43385   2.44171
 Alpha virt. eigenvalues --    2.44244   2.45267   2.45659   2.46140   2.47223
 Alpha virt. eigenvalues --    2.47373   2.47989   2.48895   2.49206   2.49485
 Alpha virt. eigenvalues --    2.49682   2.50494   2.50873   2.52216   2.52661
 Alpha virt. eigenvalues --    2.53059   2.53189   2.53756   2.54135   2.54207
 Alpha virt. eigenvalues --    2.54715   2.55306   2.55841   2.56201   2.56357
 Alpha virt. eigenvalues --    2.56560   2.57411   2.58171   2.58428   2.59660
 Alpha virt. eigenvalues --    2.60219   2.60817   2.60914   2.61128   2.61400
 Alpha virt. eigenvalues --    2.61961   2.62466   2.62734   2.63094   2.63741
 Alpha virt. eigenvalues --    2.63990   2.64326   2.65016   2.66153   2.66345
 Alpha virt. eigenvalues --    2.66475   2.67150   2.67380   2.68035   2.68532
 Alpha virt. eigenvalues --    2.69304   2.69525   2.70311   2.70659   2.70736
 Alpha virt. eigenvalues --    2.71280   2.71510   2.71942   2.72321   2.72892
 Alpha virt. eigenvalues --    2.73067   2.73533   2.74230   2.74352   2.74958
 Alpha virt. eigenvalues --    2.75411   2.75713   2.75976   2.76174   2.76658
 Alpha virt. eigenvalues --    2.77289   2.77394   2.77672   2.78346   2.78572
 Alpha virt. eigenvalues --    2.79304   2.79642   2.79808   2.80225   2.80983
 Alpha virt. eigenvalues --    2.81072   2.81904   2.82354   2.82571   2.83541
 Alpha virt. eigenvalues --    2.83610   2.84078   2.84321   2.85085   2.85989
 Alpha virt. eigenvalues --    2.86506   2.86792   2.87789   2.88811   2.90381
 Alpha virt. eigenvalues --    2.90435   2.90804   2.90953   2.91695   2.92579
 Alpha virt. eigenvalues --    2.93045   2.93674   2.94312   2.94715   2.95909
 Alpha virt. eigenvalues --    2.96122   2.96495   2.96655   2.97074   2.97291
 Alpha virt. eigenvalues --    2.97734   2.98139   2.98552   2.99465   2.99832
 Alpha virt. eigenvalues --    3.00558   3.01461   3.02790   3.03373   3.03702
 Alpha virt. eigenvalues --    3.05371   3.06131   3.06339   3.06771   3.07728
 Alpha virt. eigenvalues --    3.07949   3.08287   3.09307   3.12944   3.13009
 Alpha virt. eigenvalues --    3.13220   3.14276   3.14710   3.15181   3.15767
 Alpha virt. eigenvalues --    3.16479   3.18966   3.19200   3.20498   3.22086
 Alpha virt. eigenvalues --    3.23590   3.24584   3.25590   3.26601   3.27269
 Alpha virt. eigenvalues --    3.30137   3.30276   3.31627   3.31747   3.34747
 Alpha virt. eigenvalues --    3.35096   3.36740   3.37804   3.38337   3.40206
 Alpha virt. eigenvalues --    3.40434   3.41728   3.42307   3.42358   3.43822
 Alpha virt. eigenvalues --    3.44552   3.45396   3.46067   3.46715   3.46834
 Alpha virt. eigenvalues --    3.48492   3.49814   3.49941   3.51134   3.51494
 Alpha virt. eigenvalues --    3.51916   3.52230   3.53065   3.53893   3.55285
 Alpha virt. eigenvalues --    3.56581   3.58368   3.59193   3.59869   3.60526
 Alpha virt. eigenvalues --    3.60917   3.61656   3.61893   3.63638   3.65341
 Alpha virt. eigenvalues --    3.66435   3.66987   3.67577   3.71744   3.72501
 Alpha virt. eigenvalues --    3.77663   3.84472   4.10387   4.16950   4.19647
 Alpha virt. eigenvalues --    4.20210   4.21564   4.22997   4.24773   4.26847
 Alpha virt. eigenvalues --    4.27811   4.28505   4.29908   4.31573   4.34436
 Alpha virt. eigenvalues --    4.37316   4.38909   4.40690   4.43515   4.44653
 Alpha virt. eigenvalues --    4.44847   4.46610   4.46674   4.53787   4.55235
 Alpha virt. eigenvalues --    4.55948   4.56769   4.56961   4.58192   4.63199
 Alpha virt. eigenvalues --    4.64130   4.65079   4.67448   4.68731   4.70098
 Alpha virt. eigenvalues --    4.72950   4.75338   4.78479   4.80261   4.82675
 Alpha virt. eigenvalues --    4.83904   4.84647   4.88595   4.92938
          Condensed to atoms (all electrons):
 Mulliken charges:
               1
     1  O   -0.507374
     2  O   -0.587805
     3  C    0.018442
     4  C   -0.035153
     5  C   -0.194612
     6  C   -0.174768
     7  C    0.167255
     8  C    0.186883
     9  C    0.044093
    10  C    0.058450
    11  C   -0.185912
    12  C   -0.237781
    13  C   -0.028574
    14  C    0.065121
    15  C   -0.311797
    16  C   -0.318549
    17  C   -0.265820
    18  C   -0.290103
    19  C   -0.090059
    20  C   -0.179228
    21  C   -0.341236
    22  C   -0.346459
    23  C   -0.118706
    24  C   -0.068112
    25  C    0.079126
    26  C    0.116037
    27  C   -0.343461
    28  C   -0.383852
    29  C   -0.118615
    30  C   -0.150673
    31  C   -0.092566
    32  C   -0.041885
    33  C   -0.111646
    34  C   -0.098823
    35  C    0.173919
    36  C    0.116029
    37  C   -0.380494
    38  C   -0.368932
    39  C   -0.145344
    40  C   -0.123522
    41  C   -0.087246
    42  C   -0.060256
    43  H    0.070543
    44  H    0.051864
    45  H    0.053622
    46  H    0.101276
    47  H    0.049816
    48  H    0.066726
    49  H    0.126513
    50  H    0.114861
    51  H    0.132521
    52  H    0.111946
    53  H    0.098194
    54  H    0.108909
    55  H    0.110186
    56  H    0.088611
    57  H    0.103609
    58  H    0.100137
    59  H    0.110920
    60  H    0.108677
    61  H    0.077865
    62  H    0.103290
    63  H    0.097851
    64  H    0.099896
    65  H    0.089887
    66  H    0.088926
    67  H    0.133156
    68  H    0.104707
    69  H    0.109995
    70  H    0.079346
    71  H    0.122552
    72  H    0.130869
    73  H    0.300733
    74  H    0.307035
    75  H    0.085313
    76  H    0.065977
    77  H    0.124872
    78  H    0.112170
    79  H    0.103597
    80  H    0.118735
    81  H    0.115656
    82  H    0.107930
    83  H    0.082446
    84  H    0.057750
    85  H    0.064408
    86  H    0.063704
    87  H    0.061656
    88  H    0.071257
    89  H    0.107980
    90  H    0.099375
    91  H    0.098117
    92  H    0.142604
    93  H    0.080613
    94  H    0.108027
    95  H    0.088060
    96  H    0.083461
    97  H    0.084748
    98  H    0.080512
 Sum of Mulliken charges =  -0.00000
 Mulliken charges with hydrogens summed into heavy atoms:
               1
     1  O   -0.206641
     2  O   -0.280770
     3  C    0.018442
     4  C   -0.035153
     5  C   -0.072204
     6  C   -0.019870
     7  C    0.217070
     8  C    0.253609
     9  C    0.044093
    10  C    0.058450
    11  C    0.055461
    12  C    0.006686
    13  C   -0.028574
    14  C    0.065121
    15  C    0.005492
    16  C   -0.026193
    17  C    0.031642
    18  C    0.010934
    19  C   -0.000172
    20  C   -0.090302
    21  C    0.006622
    22  C   -0.013691
    23  C   -0.033393
    24  C   -0.002134
    25  C    0.079126
    26  C    0.116037
    27  C   -0.002822
    28  C   -0.041530
    29  C   -0.036169
    30  C   -0.092923
    31  C   -0.028158
    32  C    0.021820
    33  C   -0.049989
    34  C   -0.027566
    35  C    0.173919
    36  C    0.116029
    37  C   -0.075022
    38  C   -0.037689
    39  C   -0.057284
    40  C   -0.040061
    41  C   -0.002498
    42  C    0.020256
 Electronic spatial extent (au):  <R**2>=         110603.3024
 Charge=             -0.0000 electrons
 Dipole moment (field-independent basis, Debye):
    X=              0.2865    Y=             -1.3680    Z=              1.7010  Tot=              2.2016
 Quadrupole moment (field-independent basis, Debye-Ang):
   XX=           -264.6548   YY=           -248.0647   ZZ=           -260.7123
   XY=              8.2168   XZ=              1.1814   YZ=              2.1725
 Traceless Quadrupole moment (field-independent basis, Debye-Ang):
   XX=             -6.8442   YY=              9.7459   ZZ=             -2.9017
   XY=              8.2168   XZ=              1.1814   YZ=              2.1725
 Octapole moment (field-independent basis, Debye-Ang**2):
  XXX=            -88.6830  YYY=            -22.8754  ZZZ=              2.1039  XYY=             60.0727
  XXY=           -222.6204  XXZ=            494.8298  XZZ=            -40.5263  YZZ=              3.8266
  YYZ=             18.7094  XYZ=            -73.0171
 Hexadecapole moment (field-independent basis, Debye-Ang**3):
 XXXX=        -149041.3689 YYYY=          -4663.3122 ZZZZ=          -1966.0067 XXXY=           1580.4573
 XXXZ=           -848.8239 YYYX=           -253.0277 YYYZ=             -6.7104 ZZZX=           -158.4592
 ZZZY=             44.1990 XXYY=         -24272.7707 XXZZ=         -23607.1790 YYZZ=          -1112.6575
 XXYZ=           -325.3899 YYXZ=            105.1245 ZZXY=           -243.9724
 N-N= 3.968431386805D+03 E-N=-1.189126445032D+04  KE= 1.689544724747D+03
 1\1\GINC-PADAWAN\SP\RCAM-B3LYP TD-FC\6-31G(d,p)\C40H56O2\PADAWAN\06-Ju
 l-2019\0\\# td=(NStates=1) CAM-B3LYP/6-31G(d,p)\\TD\\0,1\O,0,14.635091
 7282,-2.316339105,-0.3263814911\O,0,-14.7755641534,1.9485167077,0.6600
 651005\C,0,11.2551388079,-1.2077914132,1.1563289939\C,0,-12.2977174037
 ,-0.972779838,0.8785733793\C,0,12.7585745895,-1.5736604041,1.141231695
 2\C,0,-13.6640090099,-0.237069867,0.706259522\C,0,13.3193439284,-2.058
 4613732,-0.2112460136\C,0,-13.5357559156,1.3068634843,0.677469531\C,0,
 10.9242409501,-0.24503872,-0.0796522112\C,0,-11.3833254335,-0.27964899
 39,-0.2070214561\C,0,13.1137655956,-0.9464654036,-1.2640472777\C,0,-12
 .7027310331,1.7313611131,-0.6490719492\C,0,11.7408288299,-0.1549558687
 ,-1.1359721132\C,0,-11.5312267127,0.8632026433,-0.8360131403\C,0,11.07
 27780048,-0.3438135395,2.4837788189\C,0,10.3818876298,-2.5157620573,1.
 1515132713\C,0,-11.7974819422,-0.9296147895,2.3232109011\C,0,-12.53238
 39404,-2.3944548885,0.5697088749\C,0,9.6098258086,0.397020739,0.043831
 0631\C,0,-10.0576171287,-1.0316972547,-0.3881174927\C,0,11.5155443194,
 0.8422786928,-2.4019143984\C,0,-10.578030242,1.3808784718,-1.902619569
 \C,0,9.3433943064,1.6435977977,-0.1842537994\C,0,-8.7827287579,-0.5166
 252195,-0.3302840744\C,0,7.9706930553,2.2536251024,-0.052309562\C,0,-7
 .552430385,-1.3141957527,-0.4837137034\C,0,8.1536658476,3.6525734622,0
 .4205534213\C,0,-7.7667377798,-2.7746872168,-0.8435245275\C,0,6.859901
 3971,1.6320231962,-0.2670267087\C,0,-6.3325750605,-0.737529228,-0.2416
 071667\C,0,5.497440296,2.1009978067,0.0085957756\C,0,-5.0048416062,-1.
 1751873948,-0.3717393479\C,0,4.3722311541,1.3736427782,-0.043459975\C,
 0,-3.9959950195,-0.4163678429,-0.3389112211\C,0,3.1091335184,1.7360742
 053,0.0889605611\C,0,-2.5506888329,-0.6973540655,-0.4919868587\C,0,2.8
 032706081,3.0725267016,0.7540681158\C,0,-2.2202175158,-2.1353008322,-0
 .6793089709\C,0,2.1268622612,0.8331004739,-0.1238915142\C,0,-1.5964609
 691,0.1816778737,-0.1423460616\C,0,0.7182689959,0.958810649,0.09848572
 86\C,0,-0.1719960686,-0.0180339085,-0.126190259\H,0,13.403959668,-0.63
 67371088,1.5033651745\H,0,13.1311383498,-2.3665972408,2.0056606981\H,0
 ,-14.3523980168,-0.5241625733,1.5998171877\H,0,-13.9651278798,-0.58082
 50055,-0.2088725073\H,0,12.5172369257,-2.8985746006,-0.4665547205\H,0,
 -13.3864641074,1.6250170197,1.7358030533\H,0,13.789109843,-0.174810201
 1,-0.9000658906\H,0,13.0745689499,-1.3183640635,-2.2300036764\H,0,-13.
 4741129553,1.482199541,-1.423280261\H,0,-12.4421428213,2.8343154955,-0
 .5883457176\H,0,11.6353021502,-0.8289936255,3.3340080618\H,0,9.9932651
 915,-0.1873682469,2.7600548865\H,0,11.6715964296,0.611360869,2.3921983
 548\H,0,10.1424132443,-3.1293735175,0.1059659826\H,0,10.5242633433,-3.
 4224471618,1.8318231063\H,0,9.3665626573,-2.2741584089,1.548349778\H,0
 ,-11.5499918992,0.0600515762,2.5071546085\H,0,-10.957640273,-1.5974869
 037,2.441990203\H,0,-12.7964708061,-1.3398248875,2.8277453705\H,0,-13.
 2402738084,-2.8280140534,1.1917936884\H,0,-11.6251655646,-2.9918712151
 ,0.5668517412\H,0,-12.9215725153,-2.4316534733,-0.411379612\H,0,8.7800
 69831,-0.4526435845,0.1159857826\H,0,-9.9407238044,-2.1408678108,-0.53
 40930423\H,0,10.4556279818,0.7780879067,-2.5186365667\H,0,12.003908825
 9,1.9262269136,-2.2920489189\H,0,11.9975339884,0.3073702499,-3.1612632
 563\H,0,-11.1680578128,1.7992231513,-2.8376952625\H,0,-9.9967352125,0.
 6276534023,-2.5160562116\H,0,-10.1071424692,2.1540240154,-1.5729108871
 \H,0,14.837850338,-2.8286017653,0.4309849915\H,0,-15.3408235174,1.8384
 487589,1.5668948945\H,0,10.3291083928,2.3294962535,-0.4497942944\H,0,-
 8.4817448715,0.6389259906,-0.1128861016\H,0,8.8810909711,4.0803478877,
 -0.1804343464\H,0,7.1767510641,4.0103064395,0.0662824612\H,0,8.5405387
 639,3.7739502819,1.6143844564\H,0,-8.3151385439,-3.5411310422,-0.15456
 12951\H,0,-8.1878845445,-2.7716761817,-1.9555618862\H,0,-6.8042592749,
 -3.2816218143,-0.8785946515\H,0,6.8398856516,0.5972334662,-0.619775369
 5\H,0,-6.3696772297,0.4850383437,0.0791655396\H,0,5.2543448185,3.17073
 22211,0.5859008451\H,0,-4.8495187719,-2.2823795451,-0.7838057806\H,0,4
 .8744705461,0.3469729432,-0.4356619772\H,0,-4.3283583398,0.5719923161,
 -0.1332605301\H,0,3.2516929543,3.3799220341,1.8514013411\H,0,1.6462412
 771,3.3936380347,0.9998023882\H,0,3.2759216142,4.0751053444,0.20790029
 4\H,0,-2.6843405711,-2.7942565728,-0.0260556496\H,0,-2.904209929,-2.52
 62337435,-1.6256765347\H,0,-1.0891757166,-2.2412743025,-0.9156646025\H
 ,0,2.5945666147,-0.0389225434,-0.6761855226\H,0,-1.9332427253,1.235353
 4532,-0.0265992729\H,0,0.2951252595,1.98664137,0.3240281978\H,0,0.3121
 539854,-0.8799479449,-0.4012977138\\Version=ES64L-G16RevA.03\State=1-A
 \HF=-1706.8971063\RMSD=9.396e-09\PG=C01 [X(C40H56O2)]\\@


 I SUPPOSE A BABY LLAMA HAS A MMAMA AND A PPOPA.
     -- RICHARD AMOUR
 Job cpu time:       0 days  5 hours 34 minutes 22.2 seconds.
 Elapsed time:       0 days  1 hours 24 minutes  0.9 seconds.
 File lengths (MBytes):  RWF=   3127 Int=      0 D2E=      0 Chk=     84 Scr=      1
 Normal termination of Gaussian 16 at Sat Jul  6 02:21:31 2019.
