 Entering Gaussian System, Link 0=g16
 Input=Geometria-296-.com
 Output=Geometria-296-.log
 Initial command:
 /usr/local/g16/l1.exe "/home/padawan/israel-mol/zeaxanthin/spectra/abs/Gau-25404.inp" -scrdir="/home/padawan/israel-mol/zeaxanthin/spectra/abs/"
 Entering Link 1 = /usr/local/g16/l1.exe PID=     25406.
  
 Copyright (c) 1988,1990,1992,1993,1995,1998,2003,2009,2016,
            Gaussian, Inc.  All Rights Reserved.
  
 This is part of the Gaussian(R) 16 program.  It is based on
 the Gaussian(R) 09 system (copyright 2009, Gaussian, Inc.),
 the Gaussian(R) 03 system (copyright 2003, Gaussian, Inc.),
 the Gaussian(R) 98 system (copyright 1998, Gaussian, Inc.),
 the Gaussian(R) 94 system (copyright 1995, Gaussian, Inc.),
 the Gaussian 92(TM) system (copyright 1992, Gaussian, Inc.),
 the Gaussian 90(TM) system (copyright 1990, Gaussian, Inc.),
 the Gaussian 88(TM) system (copyright 1988, Gaussian, Inc.),
 the Gaussian 86(TM) system (copyright 1986, Carnegie Mellon
 University), and the Gaussian 82(TM) system (copyright 1983,
 Carnegie Mellon University). Gaussian is a federally registered
 trademark of Gaussian, Inc.
  
 This software contains proprietary and confidential information,
 including trade secrets, belonging to Gaussian, Inc.
  
 This software is provided under written license and may be
 used, copied, transmitted, or stored only in accord with that
 written license.
  
 The following legend is applicable only to US Government
 contracts under FAR:
  
                    RESTRICTED RIGHTS LEGEND
  
 Use, reproduction and disclosure by the US Government is
 subject to restrictions as set forth in subparagraphs (a)
 and (c) of the Commercial Computer Software - Restricted
 Rights clause in FAR 52.227-19.
  
 Gaussian, Inc.
 340 Quinnipiac St., Bldg. 40, Wallingford CT 06492
  
  
 ---------------------------------------------------------------
 Warning -- This program may not be used in any manner that
 competes with the business of Gaussian, Inc. or will provide
 assistance to any competitor of Gaussian, Inc.  The licensee
 of this program is prohibited from giving any competitor of
 Gaussian, Inc. access to this program.  By using this program,
 the user acknowledges that Gaussian, Inc. is engaged in the
 business of creating and licensing software in the field of
 computational chemistry and represents and warrants to the
 licensee that it is not a competitor of Gaussian, Inc. and that
 it will not use this program in any manner prohibited above.
 ---------------------------------------------------------------
  

 Cite this work as:
 Gaussian 16, Revision A.03,
 M. J. Frisch, G. W. Trucks, H. B. Schlegel, G. E. Scuseria, 
 M. A. Robb, J. R. Cheeseman, G. Scalmani, V. Barone, 
 G. A. Petersson, H. Nakatsuji, X. Li, M. Caricato, A. V. Marenich, 
 J. Bloino, B. G. Janesko, R. Gomperts, B. Mennucci, H. P. Hratchian, 
 J. V. Ortiz, A. F. Izmaylov, J. L. Sonnenberg, D. Williams-Young, 
 F. Ding, F. Lipparini, F. Egidi, J. Goings, B. Peng, A. Petrone, 
 T. Henderson, D. Ranasinghe, V. G. Zakrzewski, J. Gao, N. Rega, 
 G. Zheng, W. Liang, M. Hada, M. Ehara, K. Toyota, R. Fukuda, 
 J. Hasegawa, M. Ishida, T. Nakajima, Y. Honda, O. Kitao, H. Nakai, 
 T. Vreven, K. Throssell, J. A. Montgomery, Jr., J. E. Peralta, 
 F. Ogliaro, M. J. Bearpark, J. J. Heyd, E. N. Brothers, K. N. Kudin, 
 V. N. Staroverov, T. A. Keith, R. Kobayashi, J. Normand, 
 K. Raghavachari, A. P. Rendell, J. C. Burant, S. S. Iyengar, 
 J. Tomasi, M. Cossi, J. M. Millam, M. Klene, C. Adamo, R. Cammi, 
 J. W. Ochterski, R. L. Martin, K. Morokuma, O. Farkas, 
 J. B. Foresman, and D. J. Fox, Gaussian, Inc., Wallingford CT, 2016.
 
 ******************************************
 Gaussian 16:  ES64L-G16RevA.03 25-Dec-2016
                 5-Jul-2019 
 ******************************************
 %nproc=4
 Will use up to    4 processors via shared memory.
 %Mem=2GB
 -------------------------------------
 # td=(NStates=1) CAM-B3LYP/6-31G(d,p)
 -------------------------------------
 1/38=1,172=1/1;
 2/12=2,17=6,18=5,40=1/2;
 3/5=1,6=6,7=101,11=9,25=1,30=1,74=-40/1,2,3,8;
 4//1;
 5/5=2,38=5/2;
 8/6=1,10=2,108=1/1;
 9/41=1,42=1,70=2/14;
 6/7=2,8=2,9=2,10=2/1;
 99/5=1,9=1/99;
 --
 TD
 --
 Symbolic Z-matrix:
 Charge =  0 Multiplicity = 1
 8                     14.75128  -2.25137  -0.50993 
 8                    -14.83121   2.0434    0.58626 
 6                     11.57651  -1.01616   1.16521 
 6                    -12.25828  -0.96609   0.75972 
 6                     13.00264  -1.34779   1.02036 
 6                    -13.62193  -0.20683   0.80441 
 6                     13.42121  -1.98931  -0.28005 
 6                    -13.63565   1.28359   0.69045 
 6                     10.9592  -0.20408  -0.03322 
 6                    -11.3737  -0.35716  -0.30137 
 6                     13.03128  -0.99355  -1.44047 
 6                    -12.82951   1.81129  -0.47407 
 6                     11.66305  -0.34497  -1.18139 
 6                    -11.6353   0.9169   -0.75366 
 6                     11.38188  -0.19022   2.35081 
 6                     10.78292  -2.37798   1.53578 
 6                    -11.73473  -1.02194   2.19377 
 6                    -12.64874  -2.42129   0.26591 
 6                     9.72367   0.31918   0.15819 
 6                    -10.02095  -1.11062  -0.41644 
 6                     11.19905   0.51284  -2.35559 
 6                    -10.70424   1.57938  -1.81551 
 6                     9.31831   1.58335  -0.0893 
 6                    -8.8402   -0.51829  -0.24577 
 6                     8.03021   2.27791   0.06164 
 6                    -7.61088  -1.20988  -0.39727 
 6                     8.18333   3.78682   0.45026 
 6                    -7.71754  -2.67747  -0.87897 
 6                     6.85358   1.59092   0.01037 
 6                    -6.49934  -0.53685  -0.31998 
 6                     5.45073   2.07063   0.2153 
 6                    -5.1213   -1.12224  -0.53446 
 6                     4.41364   1.19762   0.02716 
 6                    -4.05227  -0.36491  -0.27108 
 6                     3.05087   1.6233    0.18768 
 6                    -2.64568  -0.75594  -0.37774 
 6                     2.72207   3.06798   0.46617 
 6                    -2.37563  -2.26053  -0.68534 
 6                     2.06979   0.65975  -0.00097 
 6                    -1.57561   0.13829  -0.25792 
 6                     0.6378    0.8723    0.09219 
 6                    -0.12943  -0.1658   -0.19524 
 1                     13.55179  -0.49217   1.23508 
 1                     13.22188  -1.93652   1.83273 
 1                    -14.30325  -0.57911   1.68765 
 1                    -14.29325  -0.55233   0.04266 
 1                     12.97916  -2.87332  -0.56182 
 1                    -13.12123   1.69206   1.70686 
 1                     13.83432  -0.31981  -1.41744 
 1                     13.01281  -1.41995  -2.41652 
 1                    -13.46487   1.96425  -1.48532 
 1                    -12.51049   2.90059  -0.44535 
 1                     11.92801  -0.63668   3.2276 
 1                     10.32006  -0.10062   2.52171 
 1                     11.84028   0.83828   2.06644 
 1                     10.96142  -3.11061   0.72651 
 1                     11.22853  -2.53656   2.48022 
 1                     9.63951  -2.2097    1.71557 
 1                    -11.59146  -0.08956   2.7048 
 1                    -10.76811  -1.58607   2.16255 
 1                    -12.25332  -1.76444   2.80067 
 1                    -13.39431  -2.90407   0.91912 
 1                    -11.94469  -3.12165   0.47729 
 1                    -12.88871  -2.54099  -0.80191 
 1                     9.00371  -0.56307   0.75805 
 1                    -10.01275  -2.15988  -0.40139 
 1                     10.21869   0.45037  -2.33566 
 1                     11.67187   1.50972  -2.67083 
 1                     11.40339  -0.03272  -3.34707 
 1                    -11.22139   2.0594   -2.69524 
 1                    -10.04139   0.6971   -2.09243 
 1                    -9.7562    2.35151  -1.30236 
 1                     15.08538  -2.81465   0.30371 
 1                    -15.45786   1.79526   1.39939 
 1                     9.98272   2.16858  -0.61387 
 1                    -8.62624   0.56301  -0.11314 
 1                     8.74018   4.37055  -0.23399 
 1                     7.19832   4.3539    0.71313 
 1                     8.49902   3.53303   1.49496 
 1                    -8.33937  -3.17562  -0.07062 
 1                    -8.31798  -2.6972   -1.79473 
 1                    -6.70351  -3.05422  -1.06318 
 1                     7.12281   0.45576  -0.19043 
 1                    -6.65192   0.45226  -0.09269 
 1                     5.2383    3.1568    0.35408 
 1                    -5.16341  -2.2931   -0.54101 
 1                     4.48942   0.06832  -0.02031 
 1                    -4.10038   0.65349  -0.26234 
 1                     3.02107   3.47962   1.47377 
 1                     1.695     3.41163   0.1272 
 1                     3.50483   3.53339  -0.06712 
 1                    -2.71266  -2.90404   0.16812 
 1                    -2.9238   -2.49021  -1.65509 
 1                    -1.29934  -2.19654  -0.91043 
 1                     2.3356   -0.30455  -0.37828 
 1                    -1.83856   1.14748   0.13072 
 1                     0.31153   1.81356   0.38623 
 1                     0.18097  -1.11557  -0.67726 
 
 Stoichiometry    C40H56O2
 Framework group  C1[X(C40H56O2)]
 Deg. of freedom   288
 Full point group                 C1      NOp   1
 Largest Abelian subgroup         C1      NOp   1
 Largest concise Abelian subgroup C1      NOp   1
                         Standard orientation:                         
 ---------------------------------------------------------------------
 Center     Atomic      Atomic             Coordinates (Angstroms)
 Number     Number       Type             X           Y           Z
 ---------------------------------------------------------------------
      1          8           0       14.750899   -2.238059   -0.531585
      2          8           0      -14.834062    2.029598    0.603190
      3          6           0       11.575550   -1.018787    1.154105
      4          6           0      -12.259310   -0.979681    0.751285
      5          6           0       13.001863   -1.348333    1.006358
      6          6           0      -13.623413   -0.221639    0.802437
      7          6           0       13.420695   -1.978730   -0.299404
      8          6           0      -13.638032    1.269669    0.700925
      9          6           0       10.957637   -0.197105   -0.037444
     10          6           0      -11.375202   -0.361380   -0.304771
     11          6           0       13.030045   -0.973548   -1.451437
     12          6           0      -12.832332    1.807555   -0.459230
     13          6           0       11.661455   -0.327982   -1.186815
     14          6           0      -11.637606    0.916248   -0.746389
     15          6           0       11.380539   -0.202886    2.346572
     16          6           0       10.782813   -2.384126    1.513370
     17          6           0      -11.735577   -1.047190    2.184766
     18          6           0      -12.648936   -2.430942    0.245378
     19          6           0        9.721804    0.323802    0.158443
     20          6           0      -10.022010   -1.113037   -0.426253
     21          6           0       11.196825    0.539321   -2.353773
     22          6           0      -10.707055    1.588130   -1.802755
     23          6           0        9.315664    1.589749   -0.078454
     24          6           0       -8.841600   -0.521442   -0.250750
     25          6           0        8.027159    2.282245    0.078406
     26          6           0       -7.611871   -1.211003   -0.408133
     27          6           0        8.179410    3.787949    0.479588
     28          6           0       -7.717703   -2.674587   -0.902060
     29          6           0        6.850939    1.595000    0.021512
     30          6           0       -6.500734   -0.537976   -0.325331
     31          6           0        5.447816    2.072143    0.230567
     32          6           0       -5.122365   -1.120728   -0.544820
     33          6           0        4.411232    1.200100    0.035243
     34          6           0       -4.053762   -0.364980   -0.275237
     35          6           0        3.048225    1.623613    0.199443
     36          6           0       -2.646945   -0.754257   -0.385280
     37          6           0        2.718589    3.065713    0.490012
     38          6           0       -2.376026   -2.256067   -0.705459
     39          6           0        2.067705    0.661081    0.002848
     40          6           0       -1.577402    0.139590   -0.258102
     41          6           0        0.635601    0.871982    0.097908
     42          6           0       -0.131036   -0.164145   -0.198098
     43          1           0       13.550525   -0.494209    1.228160
     44          1           0       13.221536   -1.943698    1.813768
     45          1           0      -14.304420   -0.601691    1.682599
     46          1           0      -14.294597   -0.561178    0.037895
     47          1           0       12.979148   -2.860621   -0.588503
     48          1           0      -13.123759    1.669953    1.720660
     49          1           0       13.832689   -0.299545   -1.422852
     50          1           0       13.011741   -1.391801   -2.431008
     51          1           0      -13.467882    1.968567   -1.469101
     52          1           0      -12.513960    2.896772   -0.421445
     53          1           0       11.927026   -0.656326    3.219555
     54          1           0       10.318681   -0.115356    2.518319
     55          1           0       11.838296    0.828230    2.070755
     56          1           0       10.961670   -3.109871    0.697992
     57          1           0       11.228617   -2.550316    2.456408
     58          1           0        9.639322   -2.218045    1.694661
     59          1           0      -11.592818   -0.119021    2.703554
     60          1           0      -10.768627   -1.610449    2.148751
     61          1           0      -12.253661   -1.795035    2.785500
     62          1           0      -13.394155   -2.919610    0.894603
     63          1           0      -11.944446   -3.132624    0.450842
     64          1           0      -12.888943   -2.541875   -0.823379
     65          1           0        9.002439   -0.563865    0.750983
     66          1           0      -10.013175   -2.162385   -0.419962
     67          1           0       10.216506    0.476095   -2.334272
     68          1           0       11.669007    1.539081   -2.660722
     69          1           0       11.401397    0.002180   -3.349794
     70          1           0      -11.224581    2.075166   -2.678399
     71          1           0      -10.043699    0.708593   -2.087096
     72          1           0       -9.759423    2.356525   -1.283270
     73          1           0       15.085410   -2.807908    0.277295
     74          1           0      -15.460478    1.774310    1.414280
     75          1           0        9.979673    2.179735   -0.598179
     76          1           0       -8.628272    0.558836   -0.109119
     77          1           0        8.735839    4.377706   -0.199814
     78          1           0        7.194090    4.352226    0.747276
     79          1           0        8.495362    3.525637    1.522110
     80          1           0       -8.339152   -3.179848   -0.097843
     81          1           0       -8.318216   -2.687034   -1.817894
     82          1           0       -6.703461   -3.049177   -1.089509
     83          1           0        7.120835    0.461718   -0.188785
     84          1           0       -6.653880    0.449105   -0.089785
     85          1           0        5.234754    3.156985    0.378430
     86          1           0       -5.163769   -2.291516   -0.561146
     87          1           0        4.487693    0.071282   -0.021656
     88          1           0       -4.102478    0.653285   -0.257990
     89          1           0        3.017438    3.469113    1.500990
     90          1           0        1.691272    3.411566    0.154015
     91          1           0        3.501018    3.536034   -0.039444
     92          1           0       -2.712585   -2.906876    0.142635
     93          1           0       -2.924152   -2.477971   -1.677041
     94          1           0       -1.299791   -2.189549   -0.930112
     95          1           0        2.334061   -0.299878   -0.382520
     96          1           0       -1.840925    1.145343    0.138967
     97          1           0        0.308790    1.810561    0.399835
     98          1           0        0.179890   -1.109674   -0.688057
 ---------------------------------------------------------------------
 Rotational constants (GHZ):           0.2462338           0.0092257           0.0090632
 Standard basis: 6-31G(d,p) (6D, 7F)
 There are   910 symmetry adapted cartesian basis functions of A   symmetry.
 There are   910 symmetry adapted basis functions of A   symmetry.
   910 basis functions,  1568 primitive gaussians,   910 cartesian basis functions
   156 alpha electrons      156 beta electrons
       nuclear repulsion energy      3971.5562664963 Hartrees.
 NAtoms=   98 NActive=   98 NUniq=   98 SFac= 1.00D+00 NAtFMM=   60 NAOKFM=T Big=T
 Integral buffers will be    131072 words long.
 Raffenetti 1 integral format.
 Two-electron integral symmetry is turned on.
 One-electron integrals computed using PRISM.
 NBasis=   910 RedAO= T EigKep=  1.01D-03  NBF=   910
 NBsUse=   910 1.00D-06 EigRej= -1.00D+00 NBFU=   910
 ExpMin= 1.61D-01 ExpMax= 5.48D+03 ExpMxC= 8.25D+02 IAcc=3 IRadAn=         5 AccDes= 0.00D+00
 Harris functional with IExCor=20419 and IRadAn=       5 diagonalized for initial guess.
 HarFok:  IExCor=20419 AccDes= 0.00D+00 IRadAn=         5 IDoV= 1 UseB2=F ITyADJ=14
 ICtDFT=  3500011 ScaDFX=  1.000000  1.000000  1.000000  1.000000
 FoFCou: FMM=F IPFlag=           0 FMFlag=      100000 FMFlg1=        2001
         NFxFlg=           0 DoJE=T BraDBF=F KetDBF=T FulRan=T
         wScrn=  0.000000 ICntrl=       500 IOpCl=  0 I1Cent=   200000004 NGrid=           0
         NMat0=    1 NMatS0=      1 NMatT0=    0 NMatD0=    1 NMtDS0=    0 NMtDT0=    0
 Petite list used in FoFCou.
 Requested convergence on RMS density matrix=1.00D-08 within 128 cycles.
 Requested convergence on MAX density matrix=1.00D-06.
 Requested convergence on             energy=1.00D-06.
 No special actions if energy rises.
 Integral accuracy reduced to 1.0D-05 until final iterations.
 Initial convergence to 1.0D-05 achieved.  Increase integral accuracy.
 SCF Done:  E(RCAM-B3LYP) =  -1707.01031643     A.U. after   13 cycles
            NFock= 13  Conv=0.97D-08     -V/T= 2.0098
 DoSCS=F DFT=T ScalE2(SS,OS)=  1.000000  1.000000
 ExpMin= 1.61D-01 ExpMax= 5.48D+03 ExpMxC= 8.25D+02 IAcc=3 IRadAn=         5 AccDes= 0.00D+00
 HarFok:  IExCor=  205 AccDes= 0.00D+00 IRadAn=         5 IDoV=-2 UseB2=F ITyADJ=14
 ICtDFT= 12500011 ScaDFX=  1.000000  1.000000  1.000000  1.000000
 GSVD:  LWork=       -2100 too small for GESVD, short by        9450 words or        9450 for optimal perf.
 Range of M.O.s used for correlation:    43   910
 NBasis=   910 NAE=   156 NBE=   156 NFC=    42 NFV=     0
 NROrb=    868 NOA=   114 NOB=   114 NVA=   754 NVB=   754
 Orbital symmetries:
       Occupied  (A) (A) (A) (A) (A) (A) (A) (A) (A) (A) (A) (A)
                 (A) (A) (A) (A) (A) (A) (A) (A) (A) (A) (A) (A)
                 (A) (A) (A) (A) (A) (A) (A) (A) (A) (A) (A) (A)
                 (A) (A) (A) (A) (A) (A) (A) (A) (A) (A) (A) (A)
                 (A) (A) (A) (A) (A) (A) (A) (A) (A) (A) (A) (A)
                 (A) (A) (A) (A) (A) (A) (A) (A) (A) (A) (A) (A)
                 (A) (A) (A) (A) (A) (A) (A) (A) (A) (A) (A) (A)
                 (A) (A) (A) (A) (A) (A) (A) (A) (A) (A) (A) (A)
                 (A) (A) (A) (A) (A) (A) (A) (A) (A) (A) (A) (A)
                 (A) (A) (A) (A) (A) (A) (A) (A) (A) (A) (A) (A)
                 (A) (A) (A) (A) (A) (A) (A) (A) (A) (A) (A) (A)
                 (A) (A) (A) (A) (A) (A) (A) (A) (A) (A) (A) (A)
                 (A) (A) (A) (A) (A) (A) (A) (A) (A) (A) (A) (A)
       Virtual   (A) (A) (A) (A) (A) (A) (A) (A) (A) (A) (A) (A)
                 (A) (A) (A) (A) (A) (A) (A) (A) (A) (A) (A) (A)
                 (A) (A) (A) (A) (A) (A) (A) (A) (A) (A) (A) (A)
                 (A) (A) (A) (A) (A) (A) (A) (A) (A) (A) (A) (A)
                 (A) (A) (A) (A) (A) (A) (A) (A) (A) (A) (A) (A)
                 (A) (A) (A) (A) (A) (A) (A) (A) (A) (A) (A) (A)
                 (A) (A) (A) (A) (A) (A) (A) (A) (A) (A) (A) (A)
                 (A) (A) (A) (A) (A) (A) (A) (A) (A) (A) (A) (A)
                 (A) (A) (A) (A) (A) (A) (A) (A) (A) (A) (A) (A)
                 (A) (A) (A) (A) (A) (A) (A) (A) (A) (A) (A) (A)
                 (A) (A) (A) (A) (A) (A) (A) (A) (A) (A) (A) (A)
                 (A) (A) (A) (A) (A) (A) (A) (A) (A) (A) (A) (A)
                 (A) (A) (A) (A) (A) (A) (A) (A) (A) (A) (A) (A)
                 (A) (A) (A) (A) (A) (A) (A) (A) (A) (A) (A) (A)
                 (A) (A) (A) (A) (A) (A) (A) (A) (A) (A) (A) (A)
                 (A) (A) (A) (A) (A) (A) (A) (A) (A) (A) (A) (A)
                 (A) (A) (A) (A) (A) (A) (A) (A) (A) (A) (A) (A)
                 (A) (A) (A) (A) (A) (A) (A) (A) (A) (A) (A) (A)
                 (A) (A) (A) (A) (A) (A) (A) (A) (A) (A) (A) (A)
                 (A) (A) (A) (A) (A) (A) (A) (A) (A) (A) (A) (A)
                 (A) (A) (A) (A) (A) (A) (A) (A) (A) (A) (A) (A)
                 (A) (A) (A) (A) (A) (A) (A) (A) (A) (A) (A) (A)
                 (A) (A) (A) (A) (A) (A) (A) (A) (A) (A) (A) (A)
                 (A) (A) (A) (A) (A) (A) (A) (A) (A) (A) (A) (A)
                 (A) (A) (A) (A) (A) (A) (A) (A) (A) (A) (A) (A)
                 (A) (A) (A) (A) (A) (A) (A) (A) (A) (A) (A) (A)
                 (A) (A) (A) (A) (A) (A) (A) (A) (A) (A) (A) (A)
                 (A) (A) (A) (A) (A) (A) (A) (A) (A) (A) (A) (A)
                 (A) (A) (A) (A) (A) (A) (A) (A) (A) (A) (A) (A)
                 (A) (A) (A) (A) (A) (A) (A) (A) (A) (A) (A) (A)
                 (A) (A) (A) (A) (A) (A) (A) (A) (A) (A) (A) (A)
                 (A) (A) (A) (A) (A) (A) (A) (A) (A) (A) (A) (A)
                 (A) (A) (A) (A) (A) (A) (A) (A) (A) (A) (A) (A)
                 (A) (A) (A) (A) (A) (A) (A) (A) (A) (A) (A) (A)
                 (A) (A) (A) (A) (A) (A) (A) (A) (A) (A) (A) (A)
                 (A) (A) (A) (A) (A) (A) (A) (A) (A) (A) (A) (A)
                 (A) (A) (A) (A) (A) (A) (A) (A) (A) (A) (A) (A)
                 (A) (A) (A) (A) (A) (A) (A) (A) (A) (A) (A) (A)
                 (A) (A) (A) (A) (A) (A) (A) (A) (A) (A) (A) (A)
                 (A) (A) (A) (A) (A) (A) (A) (A) (A) (A) (A) (A)
                 (A) (A) (A) (A) (A) (A) (A) (A) (A) (A) (A) (A)
                 (A) (A) (A) (A) (A) (A) (A) (A) (A) (A) (A) (A)
                 (A) (A) (A) (A) (A) (A) (A) (A) (A) (A) (A) (A)
                 (A) (A) (A) (A) (A) (A) (A) (A) (A) (A) (A) (A)
                 (A) (A) (A) (A) (A) (A) (A) (A) (A) (A) (A) (A)
                 (A) (A) (A) (A) (A) (A) (A) (A) (A) (A) (A) (A)
                 (A) (A) (A) (A) (A) (A) (A) (A) (A) (A) (A) (A)
                 (A) (A) (A) (A) (A) (A) (A) (A) (A) (A) (A) (A)
                 (A) (A) (A) (A) (A) (A) (A) (A) (A) (A) (A) (A)
                 (A) (A) (A) (A) (A) (A) (A) (A) (A) (A) (A) (A)
                 (A) (A) (A) (A) (A) (A) (A) (A) (A) (A) (A) (A)
                 (A) (A) (A) (A) (A) (A) (A) (A) (A) (A) (A) (A)
                 (A) (A) (A) (A) (A) (A) (A) (A) (A) (A) (A) (A)
                 (A) (A) (A) (A) (A) (A) (A) (A) (A) (A) (A) (A)
                 (A) (A) (A) (A) (A) (A) (A) (A) (A) (A) (A) (A)
                 (A) (A) (A) (A) (A) (A) (A) (A) (A) (A) (A) (A)
                 (A) (A) (A) (A) (A) (A) (A) (A) (A) (A) (A) (A)
                 (A) (A) (A) (A) (A) (A) (A) (A) (A) (A) (A) (A)
                 (A) (A) (A) (A) (A) (A) (A) (A) (A) (A) (A) (A)
                 (A) (A) (A) (A) (A) (A) (A) (A) (A) (A) (A) (A)
                 (A) (A) (A) (A) (A) (A) (A) (A) (A) (A) (A) (A)
                 (A) (A) (A) (A) (A) (A) (A) (A) (A) (A) (A) (A)
                 (A) (A) (A) (A) (A) (A) (A) (A) (A) (A)
     4 initial guesses have been made.
 Convergence on wavefunction:    0.001000000000000
 Iteration     1 Dimension     4 NMult     0 NNew      4
 CISAX will form     4 AO SS matrices at one time.
 Iteration     2 Dimension     6 NMult     4 NNew      2
 Iteration     3 Dimension     8 NMult     6 NNew      2
 Iteration     4 Dimension    10 NMult     8 NNew      2
 Iteration     5 Dimension    12 NMult    10 NNew      2
 Iteration     6 Dimension    14 NMult    12 NNew      2
 ***********************************************************************
 Excited states from <AA,BB:AA,BB> singles matrix:
 ***********************************************************************
 
 Ground to excited state transition densities written to RWF  633
 Ground to excited state transition electric dipole moments (Au):
       state          X           Y           Z        Dip. S.      Osc.
         1         6.9246      1.1501      0.2754     49.3490      3.5487
 Ground to excited state transition velocity dipole moments (Au):
       state          X           Y           Z        Dip. S.      Osc.
         1        -0.7166     -0.1185     -0.0294      0.5284      3.2657
 Ground to excited state transition magnetic dipole moments (Au):
       state          X           Y           Z
         1        -0.0493     -0.0057      0.9620
 Ground to excited state transition velocity quadrupole moments (Au):
       state          XX          YY          ZZ          XY          XZ          YZ
         1        -1.4704     -0.2472     -0.0652     -0.1608      0.3442     -0.0068
 <0|del|b> * <b|rxdel|0> + <0|del|b> * <b|delr+rdel|0>
 Rotatory Strengths (R) in cgs (10**-40 erg-esu-cm/Gauss)
       state          XX          YY          ZZ    R(velocity)    E-M Angle
         1        58.7141     23.6179    -31.5453     16.9289       89.37
 1/2[<0|r|b>*<b|rxdel|0> + (<0|rxdel|b>*<b|r|0>)*]
 Rotatory Strengths (R) in cgs (10**-40 erg-esu-cm/Gauss)
       state          XX          YY          ZZ     R(length)
         1       241.6527      4.6059   -187.3825     19.6254
  1/2[<0|del|b>*<b|r|0> + (<0|r|b>*<b|del|0>)*] (Au)
       state          X           Y           Z        Dip. S.   Osc.(frdel)
         1        -4.9620     -0.1363     -0.0081      5.1064      3.4043

 Excitation energies and oscillator strengths:
 
 Excited State   1:      Singlet-A      2.9352 eV  422.41 nm  f=3.5487  <S**2>=0.000
     155 ->158         0.17976
     156 ->157         0.67598
 This state for optimization and/or second-order correction.
 Total Energy, E(TD-HF/TD-DFT) =  -1706.90244998    
 Copying the excited state density for this state as the 1-particle RhoCI density.
 SavETr:  write IOETrn=   770 NScale= 10 NData=  16 NLR=1 NState=    1 LETran=      28.

 **********************************************************************

            Population analysis using the SCF density.

 **********************************************************************

 Orbital symmetries:
       Occupied  (A) (A) (A) (A) (A) (A) (A) (A) (A) (A) (A) (A)
                 (A) (A) (A) (A) (A) (A) (A) (A) (A) (A) (A) (A)
                 (A) (A) (A) (A) (A) (A) (A) (A) (A) (A) (A) (A)
                 (A) (A) (A) (A) (A) (A) (A) (A) (A) (A) (A) (A)
                 (A) (A) (A) (A) (A) (A) (A) (A) (A) (A) (A) (A)
                 (A) (A) (A) (A) (A) (A) (A) (A) (A) (A) (A) (A)
                 (A) (A) (A) (A) (A) (A) (A) (A) (A) (A) (A) (A)
                 (A) (A) (A) (A) (A) (A) (A) (A) (A) (A) (A) (A)
                 (A) (A) (A) (A) (A) (A) (A) (A) (A) (A) (A) (A)
                 (A) (A) (A) (A) (A) (A) (A) (A) (A) (A) (A) (A)
                 (A) (A) (A) (A) (A) (A) (A) (A) (A) (A) (A) (A)
                 (A) (A) (A) (A) (A) (A) (A) (A) (A) (A) (A) (A)
                 (A) (A) (A) (A) (A) (A) (A) (A) (A) (A) (A) (A)
       Virtual   (A) (A) (A) (A) (A) (A) (A) (A) (A) (A) (A) (A)
                 (A) (A) (A) (A) (A) (A) (A) (A) (A) (A) (A) (A)
                 (A) (A) (A) (A) (A) (A) (A) (A) (A) (A) (A) (A)
                 (A) (A) (A) (A) (A) (A) (A) (A) (A) (A) (A) (A)
                 (A) (A) (A) (A) (A) (A) (A) (A) (A) (A) (A) (A)
                 (A) (A) (A) (A) (A) (A) (A) (A) (A) (A) (A) (A)
                 (A) (A) (A) (A) (A) (A) (A) (A) (A) (A) (A) (A)
                 (A) (A) (A) (A) (A) (A) (A) (A) (A) (A) (A) (A)
                 (A) (A) (A) (A) (A) (A) (A) (A) (A) (A) (A) (A)
                 (A) (A) (A) (A) (A) (A) (A) (A) (A) (A) (A) (A)
                 (A) (A) (A) (A) (A) (A) (A) (A) (A) (A) (A) (A)
                 (A) (A) (A) (A) (A) (A) (A) (A) (A) (A) (A) (A)
                 (A) (A) (A) (A) (A) (A) (A) (A) (A) (A) (A) (A)
                 (A) (A) (A) (A) (A) (A) (A) (A) (A) (A) (A) (A)
                 (A) (A) (A) (A) (A) (A) (A) (A) (A) (A) (A) (A)
                 (A) (A) (A) (A) (A) (A) (A) (A) (A) (A) (A) (A)
                 (A) (A) (A) (A) (A) (A) (A) (A) (A) (A) (A) (A)
                 (A) (A) (A) (A) (A) (A) (A) (A) (A) (A) (A) (A)
                 (A) (A) (A) (A) (A) (A) (A) (A) (A) (A) (A) (A)
                 (A) (A) (A) (A) (A) (A) (A) (A) (A) (A) (A) (A)
                 (A) (A) (A) (A) (A) (A) (A) (A) (A) (A) (A) (A)
                 (A) (A) (A) (A) (A) (A) (A) (A) (A) (A) (A) (A)
                 (A) (A) (A) (A) (A) (A) (A) (A) (A) (A) (A) (A)
                 (A) (A) (A) (A) (A) (A) (A) (A) (A) (A) (A) (A)
                 (A) (A) (A) (A) (A) (A) (A) (A) (A) (A) (A) (A)
                 (A) (A) (A) (A) (A) (A) (A) (A) (A) (A) (A) (A)
                 (A) (A) (A) (A) (A) (A) (A) (A) (A) (A) (A) (A)
                 (A) (A) (A) (A) (A) (A) (A) (A) (A) (A) (A) (A)
                 (A) (A) (A) (A) (A) (A) (A) (A) (A) (A) (A) (A)
                 (A) (A) (A) (A) (A) (A) (A) (A) (A) (A) (A) (A)
                 (A) (A) (A) (A) (A) (A) (A) (A) (A) (A) (A) (A)
                 (A) (A) (A) (A) (A) (A) (A) (A) (A) (A) (A) (A)
                 (A) (A) (A) (A) (A) (A) (A) (A) (A) (A) (A) (A)
                 (A) (A) (A) (A) (A) (A) (A) (A) (A) (A) (A) (A)
                 (A) (A) (A) (A) (A) (A) (A) (A) (A) (A) (A) (A)
                 (A) (A) (A) (A) (A) (A) (A) (A) (A) (A) (A) (A)
                 (A) (A) (A) (A) (A) (A) (A) (A) (A) (A) (A) (A)
                 (A) (A) (A) (A) (A) (A) (A) (A) (A) (A) (A) (A)
                 (A) (A) (A) (A) (A) (A) (A) (A) (A) (A) (A) (A)
                 (A) (A) (A) (A) (A) (A) (A) (A) (A) (A) (A) (A)
                 (A) (A) (A) (A) (A) (A) (A) (A) (A) (A) (A) (A)
                 (A) (A) (A) (A) (A) (A) (A) (A) (A) (A) (A) (A)
                 (A) (A) (A) (A) (A) (A) (A) (A) (A) (A) (A) (A)
                 (A) (A) (A) (A) (A) (A) (A) (A) (A) (A) (A) (A)
                 (A) (A) (A) (A) (A) (A) (A) (A) (A) (A) (A) (A)
                 (A) (A) (A) (A) (A) (A) (A) (A) (A) (A) (A) (A)
                 (A) (A) (A) (A) (A) (A) (A) (A) (A) (A) (A) (A)
                 (A) (A) (A) (A) (A) (A) (A) (A) (A) (A) (A) (A)
                 (A) (A) (A) (A) (A) (A) (A) (A) (A) (A) (A) (A)
                 (A) (A) (A) (A) (A) (A) (A) (A) (A) (A) (A) (A)
                 (A) (A) (A) (A) (A) (A) (A) (A) (A) (A) (A) (A)
                 (A) (A) (A) (A) (A) (A) (A) (A) (A) (A) (A) (A)
                 (A) (A) (A) (A) (A) (A) (A) (A) (A) (A) (A) (A)
                 (A) (A) (A) (A) (A) (A) (A) (A) (A) (A) (A) (A)
                 (A) (A) (A) (A) (A) (A) (A) (A) (A) (A) (A) (A)
                 (A) (A) (A) (A) (A) (A) (A) (A) (A) (A) (A) (A)
                 (A) (A) (A) (A) (A) (A) (A) (A) (A) (A) (A) (A)
                 (A) (A) (A) (A) (A) (A) (A) (A) (A) (A) (A) (A)
                 (A) (A) (A) (A) (A) (A) (A) (A) (A) (A) (A) (A)
                 (A) (A) (A) (A) (A) (A) (A) (A) (A) (A) (A) (A)
                 (A) (A) (A) (A) (A) (A) (A) (A) (A) (A) (A) (A)
                 (A) (A) (A) (A) (A) (A) (A) (A) (A) (A) (A) (A)
                 (A) (A) (A) (A) (A) (A) (A) (A) (A) (A)
 The electronic state is 1-A.
 Alpha  occ. eigenvalues --  -19.21835 -19.21730 -10.30940 -10.29149 -10.28015
 Alpha  occ. eigenvalues --  -10.27460 -10.27350 -10.27327 -10.27312 -10.27297
 Alpha  occ. eigenvalues --  -10.27179 -10.27099 -10.26933 -10.26832 -10.26699
 Alpha  occ. eigenvalues --  -10.26682 -10.26653 -10.26598 -10.26554 -10.26522
 Alpha  occ. eigenvalues --  -10.26307 -10.26288 -10.26100 -10.26004 -10.25954
 Alpha  occ. eigenvalues --  -10.25903 -10.25862 -10.25730 -10.25725 -10.25585
 Alpha  occ. eigenvalues --  -10.25540 -10.25519 -10.25346 -10.25172 -10.25102
 Alpha  occ. eigenvalues --  -10.24956 -10.24493 -10.24416 -10.24332 -10.24110
 Alpha  occ. eigenvalues --  -10.23777 -10.23625  -1.09973  -1.07946  -0.94576
 Alpha  occ. eigenvalues --   -0.93121  -0.92059  -0.91744  -0.90403  -0.89759
 Alpha  occ. eigenvalues --   -0.87980  -0.87249  -0.85856  -0.85292  -0.84621
 Alpha  occ. eigenvalues --   -0.82601  -0.81503  -0.79939  -0.79350  -0.77812
 Alpha  occ. eigenvalues --   -0.77044  -0.76654  -0.76629  -0.76199  -0.75683
 Alpha  occ. eigenvalues --   -0.75634  -0.75209  -0.74126  -0.73606  -0.70567
 Alpha  occ. eigenvalues --   -0.69142  -0.67257  -0.65925  -0.64985  -0.64103
 Alpha  occ. eigenvalues --   -0.63625  -0.62832  -0.62479  -0.60112  -0.59132
 Alpha  occ. eigenvalues --   -0.58885  -0.58354  -0.57745  -0.56949  -0.56531
 Alpha  occ. eigenvalues --   -0.55974  -0.55657  -0.55049  -0.54520  -0.53488
 Alpha  occ. eigenvalues --   -0.52925  -0.52525  -0.51756  -0.51460  -0.51358
 Alpha  occ. eigenvalues --   -0.51006  -0.49879  -0.49628  -0.49266  -0.49032
 Alpha  occ. eigenvalues --   -0.48911  -0.48700  -0.48467  -0.48261  -0.48007
 Alpha  occ. eigenvalues --   -0.47762  -0.47376  -0.47062  -0.46956  -0.46691
 Alpha  occ. eigenvalues --   -0.46072  -0.46018  -0.45575  -0.45555  -0.45186
 Alpha  occ. eigenvalues --   -0.44882  -0.44469  -0.43773  -0.43482  -0.43193
 Alpha  occ. eigenvalues --   -0.43146  -0.42943  -0.42605  -0.42325  -0.42006
 Alpha  occ. eigenvalues --   -0.41776  -0.41622  -0.41431  -0.41264  -0.41016
 Alpha  occ. eigenvalues --   -0.40088  -0.39967  -0.39755  -0.39408  -0.38928
 Alpha  occ. eigenvalues --   -0.38771  -0.38672  -0.38315  -0.38045  -0.37791
 Alpha  occ. eigenvalues --   -0.37636  -0.37123  -0.36778  -0.36170  -0.35933
 Alpha  occ. eigenvalues --   -0.35372  -0.34401  -0.33108  -0.32222  -0.31571
 Alpha  occ. eigenvalues --   -0.31176  -0.29746  -0.28099  -0.26422  -0.24375
 Alpha  occ. eigenvalues --   -0.21254
 Alpha virt. eigenvalues --   -0.03688  -0.00011   0.02694   0.05227   0.07645
 Alpha virt. eigenvalues --    0.08985   0.10584   0.10726   0.11443   0.12371
 Alpha virt. eigenvalues --    0.12482   0.12720   0.12981   0.13155   0.13832
 Alpha virt. eigenvalues --    0.14101   0.14410   0.14873   0.15186   0.15407
 Alpha virt. eigenvalues --    0.15838   0.16134   0.16290   0.16497   0.16539
 Alpha virt. eigenvalues --    0.17027   0.17410   0.17431   0.18264   0.18722
 Alpha virt. eigenvalues --    0.18895   0.19093   0.19283   0.20117   0.20186
 Alpha virt. eigenvalues --    0.20349   0.20671   0.20772   0.21202   0.21486
 Alpha virt. eigenvalues --    0.21589   0.21654   0.21803   0.21989   0.22294
 Alpha virt. eigenvalues --    0.22613   0.22738   0.22879   0.23191   0.23440
 Alpha virt. eigenvalues --    0.23471   0.23843   0.24397   0.24520   0.24634
 Alpha virt. eigenvalues --    0.24801   0.25386   0.25554   0.25639   0.26075
 Alpha virt. eigenvalues --    0.26291   0.26464   0.26888   0.27102   0.27345
 Alpha virt. eigenvalues --    0.27784   0.28238   0.28581   0.28931   0.29024
 Alpha virt. eigenvalues --    0.29233   0.29699   0.29820   0.30224   0.30460
 Alpha virt. eigenvalues --    0.31202   0.31548   0.31638   0.31934   0.32985
 Alpha virt. eigenvalues --    0.33273   0.33647   0.33651   0.33867   0.34710
 Alpha virt. eigenvalues --    0.35579   0.35665   0.37154   0.38255   0.38552
 Alpha virt. eigenvalues --    0.38623   0.40076   0.40647   0.41316   0.42301
 Alpha virt. eigenvalues --    0.43449   0.43746   0.44191   0.44713   0.45423
 Alpha virt. eigenvalues --    0.45911   0.46327   0.46906   0.48345   0.49136
 Alpha virt. eigenvalues --    0.50186   0.51429   0.51746   0.53723   0.54810
 Alpha virt. eigenvalues --    0.55362   0.55725   0.56119   0.56413   0.56575
 Alpha virt. eigenvalues --    0.57277   0.57340   0.57440   0.58066   0.58298
 Alpha virt. eigenvalues --    0.58824   0.59178   0.59829   0.60046   0.60307
 Alpha virt. eigenvalues --    0.60383   0.60994   0.61205   0.61652   0.61983
 Alpha virt. eigenvalues --    0.62329   0.62776   0.63254   0.63324   0.63567
 Alpha virt. eigenvalues --    0.63637   0.64358   0.64572   0.64930   0.65127
 Alpha virt. eigenvalues --    0.65279   0.65466   0.65896   0.66121   0.66586
 Alpha virt. eigenvalues --    0.67330   0.67429   0.67767   0.67960   0.67999
 Alpha virt. eigenvalues --    0.68857   0.69300   0.69515   0.70071   0.70483
 Alpha virt. eigenvalues --    0.70578   0.71041   0.71150   0.71486   0.71814
 Alpha virt. eigenvalues --    0.71850   0.72173   0.72636   0.72805   0.73485
 Alpha virt. eigenvalues --    0.73774   0.74144   0.74320   0.74798   0.75127
 Alpha virt. eigenvalues --    0.75859   0.76045   0.76361   0.76808   0.76985
 Alpha virt. eigenvalues --    0.77537   0.77873   0.79014   0.79340   0.79553
 Alpha virt. eigenvalues --    0.79858   0.80108   0.80377   0.80758   0.80925
 Alpha virt. eigenvalues --    0.81381   0.81717   0.82435   0.82767   0.82936
 Alpha virt. eigenvalues --    0.83140   0.83464   0.83584   0.83689   0.84195
 Alpha virt. eigenvalues --    0.84668   0.84896   0.84930   0.85492   0.85583
 Alpha virt. eigenvalues --    0.86983   0.87422   0.87479   0.87669   0.87801
 Alpha virt. eigenvalues --    0.88237   0.88312   0.89345   0.89618   0.89946
 Alpha virt. eigenvalues --    0.90203   0.90430   0.90480   0.90673   0.91287
 Alpha virt. eigenvalues --    0.91653   0.92131   0.92387   0.92544   0.92653
 Alpha virt. eigenvalues --    0.92817   0.93020   0.93312   0.93793   0.94006
 Alpha virt. eigenvalues --    0.94233   0.94884   0.95067   0.95386   0.95769
 Alpha virt. eigenvalues --    0.96001   0.96271   0.96460   0.96526   0.96665
 Alpha virt. eigenvalues --    0.96817   0.96850   0.97142   0.97335   0.97521
 Alpha virt. eigenvalues --    0.97705   0.98430   0.98615   0.99516   0.99654
 Alpha virt. eigenvalues --    1.00181   1.00341   1.00995   1.01491   1.01988
 Alpha virt. eigenvalues --    1.02043   1.02418   1.02688   1.02834   1.03084
 Alpha virt. eigenvalues --    1.03261   1.03797   1.03920   1.04239   1.04908
 Alpha virt. eigenvalues --    1.05180   1.05807   1.06203   1.06332   1.06530
 Alpha virt. eigenvalues --    1.07351   1.07728   1.07958   1.08209   1.08486
 Alpha virt. eigenvalues --    1.09901   1.10113   1.10469   1.10904   1.11143
 Alpha virt. eigenvalues --    1.11859   1.12029   1.13198   1.13350   1.13436
 Alpha virt. eigenvalues --    1.13929   1.14537   1.14852   1.16221   1.16455
 Alpha virt. eigenvalues --    1.17508   1.18148   1.18783   1.19374   1.20399
 Alpha virt. eigenvalues --    1.21151   1.22086   1.22227   1.23648   1.24348
 Alpha virt. eigenvalues --    1.25293   1.25686   1.25922   1.26945   1.26999
 Alpha virt. eigenvalues --    1.27830   1.29126   1.29732   1.30692   1.31432
 Alpha virt. eigenvalues --    1.32470   1.33178   1.34627   1.35498   1.36044
 Alpha virt. eigenvalues --    1.36434   1.38394   1.39052   1.39671   1.40749
 Alpha virt. eigenvalues --    1.41152   1.41797   1.41979   1.42532   1.42926
 Alpha virt. eigenvalues --    1.43354   1.43375   1.43925   1.44123   1.45078
 Alpha virt. eigenvalues --    1.45853   1.46128   1.47254   1.49128   1.49768
 Alpha virt. eigenvalues --    1.50151   1.51578   1.52383   1.52536   1.53009
 Alpha virt. eigenvalues --    1.53535   1.54207   1.54449   1.56216   1.57005
 Alpha virt. eigenvalues --    1.57402   1.57894   1.58350   1.59632   1.59775
 Alpha virt. eigenvalues --    1.59834   1.61374   1.61972   1.62256   1.62568
 Alpha virt. eigenvalues --    1.64132   1.64992   1.65325   1.66202   1.66729
 Alpha virt. eigenvalues --    1.66994   1.68338   1.69087   1.69793   1.70407
 Alpha virt. eigenvalues --    1.71366   1.72378   1.73137   1.74214   1.74235
 Alpha virt. eigenvalues --    1.75934   1.76040   1.77097   1.78623   1.78861
 Alpha virt. eigenvalues --    1.80030   1.80138   1.80775   1.80909   1.81616
 Alpha virt. eigenvalues --    1.82064   1.82650   1.82774   1.84030   1.84573
 Alpha virt. eigenvalues --    1.84857   1.85248   1.85700   1.86669   1.87012
 Alpha virt. eigenvalues --    1.87371   1.87466   1.87486   1.88219   1.88401
 Alpha virt. eigenvalues --    1.88583   1.89235   1.89368   1.89670   1.90411
 Alpha virt. eigenvalues --    1.91022   1.91453   1.91679   1.92788   1.92846
 Alpha virt. eigenvalues --    1.93290   1.93891   1.94462   1.95239   1.95618
 Alpha virt. eigenvalues --    1.95897   1.96079   1.96735   1.97220   1.97357
 Alpha virt. eigenvalues --    1.97984   1.98186   1.98320   1.98501   1.98854
 Alpha virt. eigenvalues --    1.99150   1.99952   2.00213   2.00548   2.01255
 Alpha virt. eigenvalues --    2.01298   2.01940   2.02768   2.02932   2.03382
 Alpha virt. eigenvalues --    2.03869   2.04369   2.04729   2.05000   2.05589
 Alpha virt. eigenvalues --    2.06118   2.06185   2.06352   2.06774   2.07380
 Alpha virt. eigenvalues --    2.07925   2.08327   2.08700   2.09306   2.09457
 Alpha virt. eigenvalues --    2.10626   2.10689   2.10954   2.11204   2.11348
 Alpha virt. eigenvalues --    2.12459   2.13143   2.13588   2.13770   2.14380
 Alpha virt. eigenvalues --    2.15003   2.15216   2.15674   2.16365   2.16467
 Alpha virt. eigenvalues --    2.17027   2.17362   2.17517   2.17600   2.17999
 Alpha virt. eigenvalues --    2.18404   2.18709   2.19494   2.19568   2.20014
 Alpha virt. eigenvalues --    2.20371   2.21598   2.21766   2.21961   2.22513
 Alpha virt. eigenvalues --    2.23280   2.23356   2.23729   2.24441   2.24678
 Alpha virt. eigenvalues --    2.25473   2.25652   2.26547   2.27141   2.27587
 Alpha virt. eigenvalues --    2.28041   2.28449   2.28879   2.29235   2.29658
 Alpha virt. eigenvalues --    2.29851   2.30475   2.31065   2.31275   2.31513
 Alpha virt. eigenvalues --    2.31840   2.32486   2.33599   2.33813   2.34664
 Alpha virt. eigenvalues --    2.35823   2.36118   2.36249   2.36864   2.37570
 Alpha virt. eigenvalues --    2.37805   2.38255   2.38443   2.39340   2.39416
 Alpha virt. eigenvalues --    2.39942   2.40026   2.40361   2.40819   2.40957
 Alpha virt. eigenvalues --    2.41722   2.42449   2.42965   2.43114   2.43511
 Alpha virt. eigenvalues --    2.43708   2.44773   2.44883   2.45526   2.45772
 Alpha virt. eigenvalues --    2.47071   2.47136   2.47482   2.48248   2.48439
 Alpha virt. eigenvalues --    2.48565   2.49321   2.50135   2.50446   2.51119
 Alpha virt. eigenvalues --    2.51443   2.52310   2.52724   2.52864   2.53124
 Alpha virt. eigenvalues --    2.53149   2.54248   2.54671   2.55774   2.56783
 Alpha virt. eigenvalues --    2.57122   2.57719   2.58052   2.58841   2.59454
 Alpha virt. eigenvalues --    2.59625   2.60249   2.60494   2.61062   2.61307
 Alpha virt. eigenvalues --    2.61592   2.61858   2.62815   2.62838   2.63068
 Alpha virt. eigenvalues --    2.64002   2.64186   2.64442   2.64821   2.65145
 Alpha virt. eigenvalues --    2.65649   2.65713   2.66384   2.66645   2.67190
 Alpha virt. eigenvalues --    2.67643   2.67832   2.68780   2.69132   2.69624
 Alpha virt. eigenvalues --    2.70004   2.70541   2.71079   2.71530   2.71982
 Alpha virt. eigenvalues --    2.72342   2.72618   2.73049   2.73447   2.74033
 Alpha virt. eigenvalues --    2.74478   2.74833   2.75744   2.76060   2.76244
 Alpha virt. eigenvalues --    2.77280   2.77659   2.77966   2.78530   2.78821
 Alpha virt. eigenvalues --    2.79366   2.80081   2.80550   2.80940   2.81329
 Alpha virt. eigenvalues --    2.81489   2.82308   2.83153   2.84427   2.84593
 Alpha virt. eigenvalues --    2.84779   2.85091   2.85514   2.85631   2.86218
 Alpha virt. eigenvalues --    2.86979   2.87008   2.88160   2.88310   2.88933
 Alpha virt. eigenvalues --    2.89265   2.89542   2.90368   2.90808   2.91113
 Alpha virt. eigenvalues --    2.91365   2.91795   2.92184   2.92925   2.93023
 Alpha virt. eigenvalues --    2.93799   2.93889   2.95314   2.95941   2.96698
 Alpha virt. eigenvalues --    2.96901   2.97354   2.98260   2.98443   2.98832
 Alpha virt. eigenvalues --    2.99155   2.99887   3.00533   3.01567   3.03091
 Alpha virt. eigenvalues --    3.03972   3.04490   3.05290   3.05677   3.05931
 Alpha virt. eigenvalues --    3.06926   3.07329   3.09471   3.10055   3.10391
 Alpha virt. eigenvalues --    3.10748   3.11302   3.14670   3.16243   3.16415
 Alpha virt. eigenvalues --    3.16828   3.17617   3.18740   3.19984   3.22030
 Alpha virt. eigenvalues --    3.22956   3.23817   3.24673   3.27089   3.28977
 Alpha virt. eigenvalues --    3.29391   3.29517   3.29934   3.30579   3.32095
 Alpha virt. eigenvalues --    3.33077   3.33689   3.34110   3.35537   3.37081
 Alpha virt. eigenvalues --    3.40107   3.41646   3.43359   3.43599   3.44600
 Alpha virt. eigenvalues --    3.45255   3.45566   3.45666   3.45828   3.45960
 Alpha virt. eigenvalues --    3.47206   3.48013   3.48606   3.49121   3.49472
 Alpha virt. eigenvalues --    3.49976   3.51176   3.51507   3.51625   3.51924
 Alpha virt. eigenvalues --    3.52791   3.53399   3.54709   3.57342   3.57667
 Alpha virt. eigenvalues --    3.58121   3.58972   3.59117   3.61949   3.62413
 Alpha virt. eigenvalues --    3.62834   3.63075   3.66311   3.67984   3.69762
 Alpha virt. eigenvalues --    3.70106   3.72513   3.74470   3.75541   3.76762
 Alpha virt. eigenvalues --    3.80759   3.81073   4.10839   4.14171   4.18292
 Alpha virt. eigenvalues --    4.19822   4.20643   4.21744   4.24974   4.25057
 Alpha virt. eigenvalues --    4.26499   4.27910   4.28671   4.30677   4.34563
 Alpha virt. eigenvalues --    4.37411   4.40688   4.41938   4.42525   4.45211
 Alpha virt. eigenvalues --    4.46772   4.47651   4.49511   4.51711   4.55198
 Alpha virt. eigenvalues --    4.55603   4.56855   4.58771   4.59471   4.62290
 Alpha virt. eigenvalues --    4.63450   4.66151   4.67387   4.69076   4.70384
 Alpha virt. eigenvalues --    4.73952   4.76148   4.78095   4.79262   4.80753
 Alpha virt. eigenvalues --    4.83194   4.85390   4.86764   4.92664
          Condensed to atoms (all electrons):
 Mulliken charges:
               1
     1  O   -0.565209
     2  O   -0.563213
     3  C   -0.047373
     4  C    0.001071
     5  C   -0.184279
     6  C   -0.194487
     7  C    0.185428
     8  C    0.199059
     9  C    0.119194
    10  C    0.062049
    11  C   -0.217367
    12  C   -0.212818
    13  C    0.009159
    14  C    0.044124
    15  C   -0.285260
    16  C   -0.296357
    17  C   -0.303839
    18  C   -0.326939
    19  C   -0.130426
    20  C   -0.169860
    21  C   -0.364177
    22  C   -0.348007
    23  C   -0.099203
    24  C   -0.051546
    25  C    0.039739
    26  C    0.124043
    27  C   -0.359039
    28  C   -0.364207
    29  C   -0.115501
    30  C   -0.128791
    31  C   -0.124916
    32  C   -0.111461
    33  C   -0.079825
    34  C   -0.073505
    35  C    0.112541
    36  C    0.057225
    37  C   -0.381651
    38  C   -0.350785
    39  C   -0.150719
    40  C   -0.146326
    41  C   -0.048639
    42  C   -0.084230
    43  H    0.105319
    44  H    0.078821
    45  H    0.064081
    46  H    0.104078
    47  H    0.080164
    48  H    0.042611
    49  H    0.129099
    50  H    0.109786
    51  H    0.103812
    52  H    0.120459
    53  H    0.083572
    54  H    0.109942
    55  H    0.089386
    56  H    0.106114
    57  H    0.106254
    58  H    0.085562
    59  H    0.116983
    60  H    0.093067
    61  H    0.102620
    62  H    0.092715
    63  H    0.102832
    64  H    0.114950
    65  H    0.068836
    66  H    0.085352
    67  H    0.130762
    68  H    0.109468
    69  H    0.073118
    70  H    0.109472
    71  H    0.118088
    72  H    0.060252
    73  H    0.301225
    74  H    0.300745
    75  H    0.095996
    76  H    0.085336
    77  H    0.127415
    78  H    0.095784
    79  H    0.140020
    80  H    0.113109
    81  H    0.131782
    82  H    0.099641
    83  H    0.075898
    84  H    0.070142
    85  H    0.091419
    86  H    0.090318
    87  H    0.094368
    88  H    0.081043
    89  H    0.118702
    90  H    0.111909
    91  H    0.125726
    92  H    0.124704
    93  H    0.113568
    94  H    0.095508
    95  H    0.076471
    96  H    0.076197
    97  H    0.088841
    98  H    0.102878
 Sum of Mulliken charges =  -0.00000
 Mulliken charges with hydrogens summed into heavy atoms:
               1
     1  O   -0.263985
     2  O   -0.262468
     3  C   -0.047373
     4  C    0.001071
     5  C   -0.000139
     6  C   -0.026328
     7  C    0.265591
     8  C    0.241670
     9  C    0.119194
    10  C    0.062049
    11  C    0.021518
    12  C    0.011453
    13  C    0.009159
    14  C    0.044124
    15  C   -0.002360
    16  C    0.001574
    17  C    0.008831
    18  C   -0.016442
    19  C   -0.061590
    20  C   -0.084508
    21  C   -0.050828
    22  C   -0.060196
    23  C   -0.003206
    24  C    0.033790
    25  C    0.039739
    26  C    0.124043
    27  C    0.004180
    28  C   -0.019677
    29  C   -0.039603
    30  C   -0.058648
    31  C   -0.033497
    32  C   -0.021143
    33  C    0.014544
    34  C    0.007538
    35  C    0.112541
    36  C    0.057225
    37  C   -0.025314
    38  C   -0.017004
    39  C   -0.074248
    40  C   -0.070128
    41  C    0.040201
    42  C    0.018649
 Electronic spatial extent (au):  <R**2>=         111653.9385
 Charge=             -0.0000 electrons
 Dipole moment (field-independent basis, Debye):
    X=              0.6998    Y=             -1.3095    Z=              2.3387  Tot=              2.7702
 Quadrupole moment (field-independent basis, Debye-Ang):
   XX=           -265.8805   YY=           -245.5712   ZZ=           -261.5340
   XY=             14.7221   XZ=              1.4191   YZ=             -1.4039
 Traceless Quadrupole moment (field-independent basis, Debye-Ang):
   XX=             -8.2186   YY=             12.0907   ZZ=             -3.8721
   XY=             14.7221   XZ=              1.4191   YZ=             -1.4039
 Octapole moment (field-independent basis, Debye-Ang**2):
  XXX=            -39.1484  YYY=             -1.0249  ZZZ=              4.3422  XYY=             89.5648
  XXY=           -350.8280  XXZ=            546.1131  XZZ=            -26.7989  YZZ=             -2.1149
  YYZ=              9.8018  XYZ=            -65.0835
 Hexadecapole moment (field-independent basis, Debye-Ang**3):
 XXXX=        -148651.0265 YYYY=          -4514.0807 ZZZZ=          -1905.6364 XXXY=           1680.9792
 XXXZ=            -70.7143 YYYX=            -61.3394 YYYZ=            -14.0602 ZZZX=           -204.9179
 ZZZY=              8.5359 XXYY=         -24414.2956 XXZZ=         -24029.9418 YYZZ=          -1076.2475
 XXYZ=           -842.1712 YYXZ=             66.7735 ZZXY=           -195.0703
 N-N= 3.971556266496D+03 E-N=-1.189861369177D+04  KE= 1.690494499358D+03
 1\1\GINC-PADAWAN\SP\RCAM-B3LYP TD-FC\6-31G(d,p)\C40H56O2\PADAWAN\05-Ju
 l-2019\0\\# td=(NStates=1) CAM-B3LYP/6-31G(d,p)\\TD\\0,1\O,0,14.751283
 3473,-2.2513726084,-0.509929846\O,0,-14.831209718,2.0433961956,0.58625
 77198\C,0,11.5765109451,-1.0161622503,1.165209882\C,0,-12.2582834603,-
 0.9660891689,0.7597214941\C,0,13.0026389959,-1.3477878169,1.020359608\
 C,0,-13.6219348025,-0.2068268427,0.8044093369\C,0,13.4212141154,-1.989
 3144585,-0.2800528943\C,0,-13.6356459046,1.2835911571,0.6904508291\C,0
 ,10.9592044464,-0.2040846246,-0.0332175678\C,0,-11.3737044714,-0.35715
 67447,-0.3013708911\C,0,13.0312773467,-0.9935501121,-1.4404749205\C,0,
 -12.8295137114,1.8112891059,-0.4740744494\C,0,11.6630510521,-0.3449748
 706,-1.1813866547\C,0,-11.6352971197,0.9168980128,-0.7536649055\C,0,11
 .3818789149,-0.1902181799,2.3508055216\C,0,10.7829177328,-2.3779782789
 ,1.5357816982\C,0,-11.7347256666,-1.0219440224,2.1937679568\C,0,-12.64
 87355756,-2.4212875718,0.2659084948\C,0,9.7236671927,0.3191829552,0.15
 81924992\C,0,-10.0209534623,-1.1106151465,-0.416440325\C,0,11.19905267
 03,0.5128357485,-2.355589766\C,0,-10.7042428633,1.5793783218,-1.815510
 8581\C,0,9.3183117982,1.5833517731,-0.0893043044\C,0,-8.8402045055,-0.
 5182853855,-0.2457656226\C,0,8.0302090069,2.2779075307,0.0616418332\C,
 0,-7.6108762296,-1.2098753206,-0.3972650585\C,0,8.1833288139,3.7868168
 866,0.4502563916\C,0,-7.7175428603,-2.6774674948,-0.8789680718\C,0,6.8
 535807651,1.5909190858,0.0103710311\C,0,-6.4993417372,-0.53684916,-0.3
 199750035\C,0,5.4507256246,2.0706347704,0.2152964456\C,0,-5.1213032523
 ,-1.1222421003,-0.5344556196\C,0,4.4136352945,1.1976151754,0.027157086
 7\C,0,-4.0522706471,-0.3649126974,-0.2710844384\C,0,3.0508676918,1.623
 3029282,0.187680433\C,0,-2.6456783318,-0.7559399241,-0.3777354335\C,0,
 2.7220724882,3.0679762465,0.4661693259\C,0,-2.3756330573,-2.2605333554
 ,-0.685339574\C,0,2.0697865537,0.6597531392,-0.0009692219\C,0,-1.57560
 88839,0.1382935353,-0.2579176188\C,0,0.6378009491,0.8723019981,0.09218
 50985\C,0,-0.1294318122,-0.165798685,-0.1952371637\H,0,13.5517944514,-
 0.4921726524,1.2350783458\H,0,13.2218774237,-1.9365242335,1.8327334053
 \H,0,-14.3032531023,-0.5791080678,1.6876459706\H,0,-14.2932506921,-0.5
 523321562,0.0426626463\H,0,12.9791631183,-2.8733220753,-0.5618242474\H
 ,0,-13.1212275838,1.6920637244,1.706860159\H,0,13.8343243644,-0.319814
 7016,-1.4174376278\H,0,13.0128127743,-1.4199542225,-2.4165223282\H,0,-
 13.4648720312,1.9642477458,-1.4853164646\H,0,-12.510489656,2.900592123
 2,-0.4453514181\H,0,11.9280114211,-0.6366843945,3.2275974207\H,0,10.32
 00578708,-0.1006195721,2.5217110521\H,0,11.8402832983,0.8382835613,2.0
 664357786\H,0,10.9614151445,-3.1106116413,0.7265080368\H,0,11.22853377
 04,-2.536558573,2.4802179458\H,0,9.639509952,-2.2097019633,1.715566499
 6\H,0,-11.5914560456,-0.0895633853,2.7048043734\H,0,-10.7681113201,-1.
 5860657616,2.1625522592\H,0,-12.2533164906,-1.7644373487,2.8006726633\
 H,0,-13.3943092119,-2.9040716592,0.9191164206\H,0,-11.9446875168,-3.12
 16541934,0.4772927853\H,0,-12.8887092289,-2.5409944074,-0.8019086649\H
 ,0,9.0037121952,-0.5630746276,0.758049989\H,0,-10.0127510071,-2.159879
 712,-0.401389772\H,0,10.2186942884,0.4503651344,-2.3356582688\H,0,11.6
 718656216,1.5097152624,-2.6708267967\H,0,11.4033945745,-0.0327237595,-
 3.3470718372\H,0,-11.2213931463,2.0593991689,-2.6952410171\H,0,-10.041
 389678,0.697100347,-2.0924338494\H,0,-9.7561973747,2.3515137644,-1.302
 3638324\H,0,15.0853750905,-2.8146503701,0.3037122642\H,0,-15.457855220
 5,1.7952644404,1.3993881438\H,0,9.9827237544,2.1685801619,-0.613870702
 1\H,0,-8.6262393209,0.5630083988,-0.1131361266\H,0,8.7401768797,4.3705
 469076,-0.233989702\H,0,7.1983232213,4.353900799,0.7131271457\H,0,8.49
 90246125,3.5330261895,1.4949625143\H,0,-8.3393709671,-3.1756244915,-0.
 0706229013\H,0,-8.3179775538,-2.697198734,-1.7947258026\H,0,-6.7035091
 999,-3.054219074,-1.0631831103\H,0,7.1228139444,0.4557593188,-0.190432
 4352\H,0,-6.6519154535,0.4522550654,-0.0926916462\H,0,5.2383032143,3.1
 56800828,0.3540776628\H,0,-5.163410161,-2.2931006172,-0.5410115012\H,0
 ,4.4894220412,0.0683150774,-0.020310442\H,0,-4.1003755416,0.6534904659
 ,-0.2623434383\H,0,3.021069892,3.4796220041,1.4737735784\H,0,1.6949961
 526,3.4116298339,0.1271951275\H,0,3.5048345055,3.533391173,-0.06711720
 77\H,0,-2.7126634033,-2.9040375509,0.1681237684\H,0,-2.9238018882,-2.4
 902101411,-1.6550894759\H,0,-1.2993367327,-2.1965398291,-0.9104340794\
 H,0,2.3356007181,-0.304549106,-0.3782757316\H,0,-1.8385632573,1.147484
 6664,0.1307164586\H,0,0.3115268997,1.8135640623,0.3862344184\H,0,0.180
 9708671,-1.1155715073,-0.6772553095\\Version=ES64L-G16RevA.03\State=1-
 A\HF=-1707.0103164\RMSD=9.740e-09\PG=C01 [X(C40H56O2)]\\@


 Luck is a matter of preparation meeting opportunity.
                                    -- Oprah Winfrey
 Job cpu time:       0 days  6 hours  0 minutes 27.0 seconds.
 Elapsed time:       0 days  1 hours 30 minutes 45.0 seconds.
 File lengths (MBytes):  RWF=   3127 Int=      0 D2E=      0 Chk=     84 Scr=      1
 Normal termination of Gaussian 16 at Fri Jul  5 14:38:20 2019.
