 Entering Gaussian System, Link 0=g16
 Input=Geometria-277-.com
 Output=Geometria-277-.log
 Initial command:
 /usr/local/g16/l1.exe "/home/padawan/israel-mol/zeaxanthin/spectra/abs/Gau-21883.inp" -scrdir="/home/padawan/israel-mol/zeaxanthin/spectra/abs/"
 Entering Link 1 = /usr/local/g16/l1.exe PID=     21885.
  
 Copyright (c) 1988,1990,1992,1993,1995,1998,2003,2009,2016,
            Gaussian, Inc.  All Rights Reserved.
  
 This is part of the Gaussian(R) 16 program.  It is based on
 the Gaussian(R) 09 system (copyright 2009, Gaussian, Inc.),
 the Gaussian(R) 03 system (copyright 2003, Gaussian, Inc.),
 the Gaussian(R) 98 system (copyright 1998, Gaussian, Inc.),
 the Gaussian(R) 94 system (copyright 1995, Gaussian, Inc.),
 the Gaussian 92(TM) system (copyright 1992, Gaussian, Inc.),
 the Gaussian 90(TM) system (copyright 1990, Gaussian, Inc.),
 the Gaussian 88(TM) system (copyright 1988, Gaussian, Inc.),
 the Gaussian 86(TM) system (copyright 1986, Carnegie Mellon
 University), and the Gaussian 82(TM) system (copyright 1983,
 Carnegie Mellon University). Gaussian is a federally registered
 trademark of Gaussian, Inc.
  
 This software contains proprietary and confidential information,
 including trade secrets, belonging to Gaussian, Inc.
  
 This software is provided under written license and may be
 used, copied, transmitted, or stored only in accord with that
 written license.
  
 The following legend is applicable only to US Government
 contracts under FAR:
  
                    RESTRICTED RIGHTS LEGEND
  
 Use, reproduction and disclosure by the US Government is
 subject to restrictions as set forth in subparagraphs (a)
 and (c) of the Commercial Computer Software - Restricted
 Rights clause in FAR 52.227-19.
  
 Gaussian, Inc.
 340 Quinnipiac St., Bldg. 40, Wallingford CT 06492
  
  
 ---------------------------------------------------------------
 Warning -- This program may not be used in any manner that
 competes with the business of Gaussian, Inc. or will provide
 assistance to any competitor of Gaussian, Inc.  The licensee
 of this program is prohibited from giving any competitor of
 Gaussian, Inc. access to this program.  By using this program,
 the user acknowledges that Gaussian, Inc. is engaged in the
 business of creating and licensing software in the field of
 computational chemistry and represents and warrants to the
 licensee that it is not a competitor of Gaussian, Inc. and that
 it will not use this program in any manner prohibited above.
 ---------------------------------------------------------------
  

 Cite this work as:
 Gaussian 16, Revision A.03,
 M. J. Frisch, G. W. Trucks, H. B. Schlegel, G. E. Scuseria, 
 M. A. Robb, J. R. Cheeseman, G. Scalmani, V. Barone, 
 G. A. Petersson, H. Nakatsuji, X. Li, M. Caricato, A. V. Marenich, 
 J. Bloino, B. G. Janesko, R. Gomperts, B. Mennucci, H. P. Hratchian, 
 J. V. Ortiz, A. F. Izmaylov, J. L. Sonnenberg, D. Williams-Young, 
 F. Ding, F. Lipparini, F. Egidi, J. Goings, B. Peng, A. Petrone, 
 T. Henderson, D. Ranasinghe, V. G. Zakrzewski, J. Gao, N. Rega, 
 G. Zheng, W. Liang, M. Hada, M. Ehara, K. Toyota, R. Fukuda, 
 J. Hasegawa, M. Ishida, T. Nakajima, Y. Honda, O. Kitao, H. Nakai, 
 T. Vreven, K. Throssell, J. A. Montgomery, Jr., J. E. Peralta, 
 F. Ogliaro, M. J. Bearpark, J. J. Heyd, E. N. Brothers, K. N. Kudin, 
 V. N. Staroverov, T. A. Keith, R. Kobayashi, J. Normand, 
 K. Raghavachari, A. P. Rendell, J. C. Burant, S. S. Iyengar, 
 J. Tomasi, M. Cossi, J. M. Millam, M. Klene, C. Adamo, R. Cammi, 
 J. W. Ochterski, R. L. Martin, K. Morokuma, O. Farkas, 
 J. B. Foresman, and D. J. Fox, Gaussian, Inc., Wallingford CT, 2016.
 
 ******************************************
 Gaussian 16:  ES64L-G16RevA.03 25-Dec-2016
                 4-Jul-2019 
 ******************************************
 %nproc=4
 Will use up to    4 processors via shared memory.
 %Mem=2GB
 -------------------------------------
 # td=(NStates=1) CAM-B3LYP/6-31G(d,p)
 -------------------------------------
 1/38=1,172=1/1;
 2/12=2,17=6,18=5,40=1/2;
 3/5=1,6=6,7=101,11=9,25=1,30=1,74=-40/1,2,3,8;
 4//1;
 5/5=2,38=5/2;
 8/6=1,10=2,108=1/1;
 9/41=1,42=1,70=2/14;
 6/7=2,8=2,9=2,10=2/1;
 99/5=1,9=1/99;
 --
 TD
 --
 Symbolic Z-matrix:
 Charge =  0 Multiplicity = 1
 8                     14.738   -2.20435  -0.62633 
 8                    -14.80227   2.04217   0.58852 
 6                     11.53813  -1.05597   1.23881 
 6                    -12.392   -0.78688   0.89032 
 6                     13.05656  -1.33573   0.9675 
 6                    -13.60513  -0.19695   0.67476 
 6                     13.30762  -1.86985  -0.41915 
 6                    -13.54069   1.41628   0.60969 
 6                     11.03956  -0.26141   0.07774 
 6                    -11.27907  -0.22014  -0.1519 
 6                     13.02779  -0.74836  -1.36856 
 6                    -12.72756   1.78122  -0.52493 
 6                     11.63818  -0.13171  -1.12725 
 6                    -11.52269   0.86974  -0.80476 
 6                     11.35151  -0.06433   2.48049 
 6                     10.66478  -2.2357    1.36376 
 6                    -11.7679  -0.62624   2.31319 
 6                    -12.51469  -2.2803    0.6407 
 6                     9.72971   0.32876   0.24495 
 6                    -10.08285  -1.07303  -0.54872 
 6                     11.06474   0.51368  -2.36836 
 6                    -10.57371   1.35347  -1.97811 
 6                     9.28762   1.6234   -0.06438 
 6                    -8.85064  -0.5138   -0.25188 
 6                     7.96628   2.18562   0.20926 
 6                    -7.62867  -1.29934  -0.53088 
 6                     8.06577   3.64078   0.55735 
 6                    -7.71868  -2.83984  -0.96206 
 6                     6.82274   1.50106   0.05186 
 6                    -6.44573  -0.65078  -0.27526 
 6                     5.49366   1.85486   0.25245 
 6                    -5.10314  -1.15047  -0.51244 
 6                     4.45546   1.04814   0.0496 
 6                    -4.04155  -0.44096  -0.26703 
 6                     3.01167   1.63476   0.19887 
 6                    -2.67189  -0.84839  -0.47943 
 6                     2.7546    2.94591   0.63228 
 6                    -2.32916  -2.35764  -0.81539 
 6                     2.11068   0.69525  -0.09152 
 6                    -1.60296   0.05129  -0.32449 
 6                     0.60865   0.77248  -0.04718 
 6                    -0.19375  -0.18481  -0.346 
 1                     13.61027  -0.25008   0.8845 
 1                     13.52711  -1.97463   1.82288 
 1                    -14.08118  -0.60859   1.74634 
 1                    -14.17096  -0.67261  -0.03485 
 1                     12.56028  -2.77557  -0.85502 
 1                    -12.93628   1.571     1.52207 
 1                     13.79107  -0.02613  -1.47412 
 1                     12.90427  -1.22093  -2.5031 
 1                    -13.52958   1.68169  -1.47632 
 1                    -12.35314   2.82145  -0.30628 
 1                     11.66397  -0.78813   3.16435 
 1                     10.36965   0.1764    2.59001 
 1                     12.1559   0.78588   2.3102 
 1                     10.57495  -2.78292   0.35161 
 1                     11.10624  -3.02811   2.16715 
 1                     9.57637  -2.09064   1.85998 
 1                    -11.76206   0.35986   2.77074 
 1                    -10.94234  -1.26604   2.51143 
 1                    -12.68256  -1.07728   2.97349 
 1                    -13.58359  -2.62125   1.02242 
 1                    -11.67205  -2.72232   1.04262 
 1                    -12.68609  -2.54635  -0.37365 
 1                     8.99542  -0.40235   0.7084 
 1                    -10.27823  -2.07026  -0.93641 
 1                     10.08265   0.72748  -2.27582 
 1                     11.59603   1.57824  -2.45799 
 1                     11.38177  -0.0043   -3.18935 
 1                    -11.20869   2.04363  -2.63584 
 1                    -10.1818   0.39045  -2.51196 
 1                    -9.59042   2.01507  -1.58773 
 1                     14.80199  -3.029    -0.13004 
 1                    -15.37467   1.86847   1.48916 
 1                     9.98837   2.32486  -0.46533 
 1                    -8.6704    0.54055  -0.00326 
 1                     9.11594   4.15176   0.03755 
 1                     7.20463   4.38919   0.33683 
 1                     8.3548    3.85587   1.66107 
 1                    -8.26186  -3.31456  -0.08025 
 1                    -8.11568  -3.06565  -1.9219 
 1                    -6.67117  -3.24082  -0.77302 
 1                     6.83391   0.27917  -0.12551 
 1                    -6.50448   0.37251   0.11606 
 1                     5.27068   2.81377   0.72683 
 1                    -4.89999  -2.21641  -0.69196 
 1                     4.60847   0.23797  -0.65338 
 1                    -4.20011   0.69841  -0.06979 
 1                     3.26084   3.14388   1.60882 
 1                     1.56886   3.14099   0.85086 
 1                     3.25763   3.62637   0.02636 
 1                    -2.93987  -2.9432   -0.10035 
 1                    -2.59268  -2.50625  -1.96205 
 1                    -1.27569  -2.51066  -0.5487 
 1                     2.34353  -0.35119  -0.46097 
 1                    -1.87813   1.08083  -0.12613 
 1                     0.3019    1.77801   0.30829 
 1                     0.19583  -1.25498  -0.65637 
 
 Stoichiometry    C40H56O2
 Framework group  C1[X(C40H56O2)]
 Deg. of freedom   288
 Full point group                 C1      NOp   1
 Largest Abelian subgroup         C1      NOp   1
 Largest concise Abelian subgroup C1      NOp   1
                         Standard orientation:                         
 ---------------------------------------------------------------------
 Center     Atomic      Atomic             Coordinates (Angstroms)
 Number     Number       Type             X           Y           Z
 ---------------------------------------------------------------------
      1          8           0       14.738908   -2.231423   -0.509323
      2          8           0      -14.802276    2.067128    0.479183
      3          6           0       11.538203   -0.991009    1.294445
      4          6           0      -12.391816   -0.742835    0.923923
      5          6           0       13.056773   -1.283881    1.038137
      6          6           0      -13.604934   -0.164653    0.678478
      7          6           0       13.308414   -1.887102   -0.319774
      8          6           0      -13.540636    1.443265    0.532310
      9          6           0       11.039993   -0.255973    0.094669
     10          6           0      -11.278550   -0.229140   -0.145090
     11          6           0       13.028818   -0.814857   -1.324543
     12          6           0      -12.727122    1.750719   -0.618941
     13          6           0       11.639052   -0.187025   -1.115103
     14          6           0      -11.522041    0.826468   -0.852083
     15          6           0       11.351004    0.061857    2.484563
     16          6           0       10.664931   -2.163072    1.478307
     17          6           0      -11.768275   -0.510695    2.337131
     18          6           0      -12.514256   -2.246946    0.749745
     19          6           0        9.730011    0.341705    0.231466
     20          6           0      -10.082093   -1.100773   -0.498033
     21          6           0       11.066014    0.394996   -2.387343
     22          6           0      -10.572672    1.250630   -2.047939
     23          6           0        9.287901    1.619067   -0.142813
     24          6           0       -8.850051   -0.527156   -0.229254
     25          6           0        7.966400    2.194185    0.101683
     26          6           0       -7.627894   -1.325590   -0.467901
     27          6           0        8.065596    3.665040    0.376115
     28          6           0       -7.717579   -2.885853   -0.821016
     29          6           0        6.822989    1.502427   -0.021485
     30          6           0       -6.445119   -0.664831   -0.244815
     31          6           0        5.493797    1.865711    0.160549
     32          6           0       -5.102390   -1.175662   -0.456041
     33          6           0        4.455760    1.049668   -0.001821
     34          6           0       -4.040968   -0.454559   -0.246264
     35          6           0        3.011855    1.642880    0.117191
     36          6           0       -2.671185   -0.871990   -0.437364
     37          6           0        2.754472    2.974153    0.483946
     38          6           0       -2.328163   -2.396199   -0.696800
     39          6           0        2.111073    0.689821   -0.125871
     40          6           0       -1.602411    0.034488   -0.327521
     41          6           0        0.609016    0.769001   -0.086036
     42          6           0       -0.193164   -0.202222   -0.336590
     43          1           0       13.610393   -0.203717    0.900795
     44          1           0       13.527061   -1.878852    1.924769
     45          1           0      -14.081344   -0.521892    1.769249
     46          1           0      -14.170439   -0.675511   -0.006490
     47          1           0       12.561336   -2.813711   -0.709783
     48          1           0      -12.936592    1.643792    1.435969
     49          1           0       13.792064   -0.098760   -1.466047
     50          1           0       12.905784   -1.343966   -2.433904
     51          1           0      -13.528766    1.603324   -1.564410
     52          1           0      -12.352897    2.800693   -0.452793
     53          1           0       11.663281   -0.626563    3.204111
     54          1           0       10.369083    0.307665    2.581458
     55          1           0       12.155376    0.902513    2.271991
     56          1           0       10.575544   -2.760556    0.494950
     57          1           0       11.106177   -2.913972    2.320725
     58          1           0        9.576325   -1.993349    1.966185
     59          1           0      -11.762719    0.497195    2.744463
     60          1           0      -10.942722   -1.139599    2.567633
     61          1           0      -12.683138   -0.928033    3.018958
     62          1           0      -13.583260   -2.568382    1.147747
     63          1           0      -11.671719   -2.668066    1.173725
     64          1           0      -12.685240   -2.563744   -0.249981
     65          1           0        8.995628   -0.365243    0.730853
     66          1           0      -10.277216   -2.116279   -0.835103
     67          1           0       10.083868    0.613066   -2.306051
     68          1           0       11.597222    1.453768   -2.530246
     69          1           0       11.383414   -0.163613   -3.181093
     70          1           0      -11.207478    1.906726   -2.739813
     71          1           0      -10.180459    0.262010   -2.532485
     72          1           0       -9.589602    1.931171   -1.690997
     73          1           0       14.802793   -3.030039    0.027875
     74          1           0      -15.374999    1.938920    1.387211
     75          1           0        9.988733    2.299543   -0.578298
     76          1           0       -8.670027    0.538397   -0.033957
     77          1           0        9.115916    4.149330   -0.168356
     78          1           0        7.204466    4.401293    0.117880
     79          1           0        8.354188    3.935452    1.467718
     80          1           0       -8.261043   -3.315644    0.083363
     81          1           0       -8.114185   -3.159738   -1.768423
     82          1           0       -6.670091   -3.276670   -0.611647
     83          1           0        6.834355    0.273160   -0.137106
     84          1           0       -6.504132    0.376851    0.094474
     85          1           0        5.270531    2.847251    0.585977
     86          1           0       -4.899060   -2.249260   -0.581591
     87          1           0        4.609129    0.205158   -0.663072
     88          1           0       -4.199721    0.693281   -0.106690
     89          1           0        3.260328    3.221090    1.449472
     90          1           0        1.568636    3.179838    0.691987
     91          1           0        3.257662    3.623308   -0.155266
     92          1           0       -2.939079   -2.945097    0.046582
     93          1           0       -2.591232   -2.602376   -1.834621
     94          1           0       -1.274784   -2.535465   -0.422348
     95          1           0        2.344177   -0.373861   -0.442093
     96          1           0       -1.877763    1.072667   -0.181338
     97          1           0        0.302021    1.791110    0.218245
     98          1           0        0.196649   -1.286605   -0.592549
 ---------------------------------------------------------------------
 Rotational constants (GHZ):           0.2508149           0.0092744           0.0091287
 Standard basis: 6-31G(d,p) (6D, 7F)
 There are   910 symmetry adapted cartesian basis functions of A   symmetry.
 There are   910 symmetry adapted basis functions of A   symmetry.
   910 basis functions,  1568 primitive gaussians,   910 cartesian basis functions
   156 alpha electrons      156 beta electrons
       nuclear repulsion energy      3977.8605216684 Hartrees.
 NAtoms=   98 NActive=   98 NUniq=   98 SFac= 1.00D+00 NAtFMM=   60 NAOKFM=T Big=T
 Integral buffers will be    131072 words long.
 Raffenetti 1 integral format.
 Two-electron integral symmetry is turned on.
 One-electron integrals computed using PRISM.
 NBasis=   910 RedAO= T EigKep=  8.77D-04  NBF=   910
 NBsUse=   910 1.00D-06 EigRej= -1.00D+00 NBFU=   910
 ExpMin= 1.61D-01 ExpMax= 5.48D+03 ExpMxC= 8.25D+02 IAcc=3 IRadAn=         5 AccDes= 0.00D+00
 Harris functional with IExCor=20419 and IRadAn=       5 diagonalized for initial guess.
 HarFok:  IExCor=20419 AccDes= 0.00D+00 IRadAn=         5 IDoV= 1 UseB2=F ITyADJ=14
 ICtDFT=  3500011 ScaDFX=  1.000000  1.000000  1.000000  1.000000
 FoFCou: FMM=F IPFlag=           0 FMFlag=      100000 FMFlg1=        2001
         NFxFlg=           0 DoJE=T BraDBF=F KetDBF=T FulRan=T
         wScrn=  0.000000 ICntrl=       500 IOpCl=  0 I1Cent=   200000004 NGrid=           0
         NMat0=    1 NMatS0=      1 NMatT0=    0 NMatD0=    1 NMtDS0=    0 NMtDT0=    0
 Petite list used in FoFCou.
 Requested convergence on RMS density matrix=1.00D-08 within 128 cycles.
 Requested convergence on MAX density matrix=1.00D-06.
 Requested convergence on             energy=1.00D-06.
 No special actions if energy rises.
 Integral accuracy reduced to 1.0D-05 until final iterations.
 Initial convergence to 1.0D-05 achieved.  Increase integral accuracy.
 SCF Done:  E(RCAM-B3LYP) =  -1706.96347373     A.U. after   14 cycles
            NFock= 14  Conv=0.34D-08     -V/T= 2.0104
 DoSCS=F DFT=T ScalE2(SS,OS)=  1.000000  1.000000
 ExpMin= 1.61D-01 ExpMax= 5.48D+03 ExpMxC= 8.25D+02 IAcc=3 IRadAn=         5 AccDes= 0.00D+00
 HarFok:  IExCor=  205 AccDes= 0.00D+00 IRadAn=         5 IDoV=-2 UseB2=F ITyADJ=14
 ICtDFT= 12500011 ScaDFX=  1.000000  1.000000  1.000000  1.000000
 GSVD:  LWork=       -2100 too small for GESVD, short by        9450 words or        9450 for optimal perf.
 Range of M.O.s used for correlation:    43   910
 NBasis=   910 NAE=   156 NBE=   156 NFC=    42 NFV=     0
 NROrb=    868 NOA=   114 NOB=   114 NVA=   754 NVB=   754
 Orbital symmetries:
       Occupied  (A) (A) (A) (A) (A) (A) (A) (A) (A) (A) (A) (A)
                 (A) (A) (A) (A) (A) (A) (A) (A) (A) (A) (A) (A)
                 (A) (A) (A) (A) (A) (A) (A) (A) (A) (A) (A) (A)
                 (A) (A) (A) (A) (A) (A) (A) (A) (A) (A) (A) (A)
                 (A) (A) (A) (A) (A) (A) (A) (A) (A) (A) (A) (A)
                 (A) (A) (A) (A) (A) (A) (A) (A) (A) (A) (A) (A)
                 (A) (A) (A) (A) (A) (A) (A) (A) (A) (A) (A) (A)
                 (A) (A) (A) (A) (A) (A) (A) (A) (A) (A) (A) (A)
                 (A) (A) (A) (A) (A) (A) (A) (A) (A) (A) (A) (A)
                 (A) (A) (A) (A) (A) (A) (A) (A) (A) (A) (A) (A)
                 (A) (A) (A) (A) (A) (A) (A) (A) (A) (A) (A) (A)
                 (A) (A) (A) (A) (A) (A) (A) (A) (A) (A) (A) (A)
                 (A) (A) (A) (A) (A) (A) (A) (A) (A) (A) (A) (A)
       Virtual   (A) (A) (A) (A) (A) (A) (A) (A) (A) (A) (A) (A)
                 (A) (A) (A) (A) (A) (A) (A) (A) (A) (A) (A) (A)
                 (A) (A) (A) (A) (A) (A) (A) (A) (A) (A) (A) (A)
                 (A) (A) (A) (A) (A) (A) (A) (A) (A) (A) (A) (A)
                 (A) (A) (A) (A) (A) (A) (A) (A) (A) (A) (A) (A)
                 (A) (A) (A) (A) (A) (A) (A) (A) (A) (A) (A) (A)
                 (A) (A) (A) (A) (A) (A) (A) (A) (A) (A) (A) (A)
                 (A) (A) (A) (A) (A) (A) (A) (A) (A) (A) (A) (A)
                 (A) (A) (A) (A) (A) (A) (A) (A) (A) (A) (A) (A)
                 (A) (A) (A) (A) (A) (A) (A) (A) (A) (A) (A) (A)
                 (A) (A) (A) (A) (A) (A) (A) (A) (A) (A) (A) (A)
                 (A) (A) (A) (A) (A) (A) (A) (A) (A) (A) (A) (A)
                 (A) (A) (A) (A) (A) (A) (A) (A) (A) (A) (A) (A)
                 (A) (A) (A) (A) (A) (A) (A) (A) (A) (A) (A) (A)
                 (A) (A) (A) (A) (A) (A) (A) (A) (A) (A) (A) (A)
                 (A) (A) (A) (A) (A) (A) (A) (A) (A) (A) (A) (A)
                 (A) (A) (A) (A) (A) (A) (A) (A) (A) (A) (A) (A)
                 (A) (A) (A) (A) (A) (A) (A) (A) (A) (A) (A) (A)
                 (A) (A) (A) (A) (A) (A) (A) (A) (A) (A) (A) (A)
                 (A) (A) (A) (A) (A) (A) (A) (A) (A) (A) (A) (A)
                 (A) (A) (A) (A) (A) (A) (A) (A) (A) (A) (A) (A)
                 (A) (A) (A) (A) (A) (A) (A) (A) (A) (A) (A) (A)
                 (A) (A) (A) (A) (A) (A) (A) (A) (A) (A) (A) (A)
                 (A) (A) (A) (A) (A) (A) (A) (A) (A) (A) (A) (A)
                 (A) (A) (A) (A) (A) (A) (A) (A) (A) (A) (A) (A)
                 (A) (A) (A) (A) (A) (A) (A) (A) (A) (A) (A) (A)
                 (A) (A) (A) (A) (A) (A) (A) (A) (A) (A) (A) (A)
                 (A) (A) (A) (A) (A) (A) (A) (A) (A) (A) (A) (A)
                 (A) (A) (A) (A) (A) (A) (A) (A) (A) (A) (A) (A)
                 (A) (A) (A) (A) (A) (A) (A) (A) (A) (A) (A) (A)
                 (A) (A) (A) (A) (A) (A) (A) (A) (A) (A) (A) (A)
                 (A) (A) (A) (A) (A) (A) (A) (A) (A) (A) (A) (A)
                 (A) (A) (A) (A) (A) (A) (A) (A) (A) (A) (A) (A)
                 (A) (A) (A) (A) (A) (A) (A) (A) (A) (A) (A) (A)
                 (A) (A) (A) (A) (A) (A) (A) (A) (A) (A) (A) (A)
                 (A) (A) (A) (A) (A) (A) (A) (A) (A) (A) (A) (A)
                 (A) (A) (A) (A) (A) (A) (A) (A) (A) (A) (A) (A)
                 (A) (A) (A) (A) (A) (A) (A) (A) (A) (A) (A) (A)
                 (A) (A) (A) (A) (A) (A) (A) (A) (A) (A) (A) (A)
                 (A) (A) (A) (A) (A) (A) (A) (A) (A) (A) (A) (A)
                 (A) (A) (A) (A) (A) (A) (A) (A) (A) (A) (A) (A)
                 (A) (A) (A) (A) (A) (A) (A) (A) (A) (A) (A) (A)
                 (A) (A) (A) (A) (A) (A) (A) (A) (A) (A) (A) (A)
                 (A) (A) (A) (A) (A) (A) (A) (A) (A) (A) (A) (A)
                 (A) (A) (A) (A) (A) (A) (A) (A) (A) (A) (A) (A)
                 (A) (A) (A) (A) (A) (A) (A) (A) (A) (A) (A) (A)
                 (A) (A) (A) (A) (A) (A) (A) (A) (A) (A) (A) (A)
                 (A) (A) (A) (A) (A) (A) (A) (A) (A) (A) (A) (A)
                 (A) (A) (A) (A) (A) (A) (A) (A) (A) (A) (A) (A)
                 (A) (A) (A) (A) (A) (A) (A) (A) (A) (A) (A) (A)
                 (A) (A) (A) (A) (A) (A) (A) (A) (A) (A) (A) (A)
                 (A) (A) (A) (A) (A) (A) (A) (A) (A) (A) (A) (A)
                 (A) (A) (A) (A) (A) (A) (A) (A) (A) (A) (A) (A)
                 (A) (A) (A) (A) (A) (A) (A) (A) (A) (A) (A) (A)
                 (A) (A) (A) (A) (A) (A) (A) (A) (A) (A) (A) (A)
                 (A) (A) (A) (A) (A) (A) (A) (A) (A) (A) (A) (A)
                 (A) (A) (A) (A) (A) (A) (A) (A) (A) (A) (A) (A)
                 (A) (A) (A) (A) (A) (A) (A) (A) (A) (A) (A) (A)
                 (A) (A) (A) (A) (A) (A) (A) (A) (A) (A) (A) (A)
                 (A) (A) (A) (A) (A) (A) (A) (A) (A) (A) (A) (A)
                 (A) (A) (A) (A) (A) (A) (A) (A) (A) (A) (A) (A)
                 (A) (A) (A) (A) (A) (A) (A) (A) (A) (A) (A) (A)
                 (A) (A) (A) (A) (A) (A) (A) (A) (A) (A)
     4 initial guesses have been made.
 Convergence on wavefunction:    0.001000000000000
 Iteration     1 Dimension     4 NMult     0 NNew      4
 CISAX will form     4 AO SS matrices at one time.
 Iteration     2 Dimension     6 NMult     4 NNew      2
 Iteration     3 Dimension     8 NMult     6 NNew      2
 Iteration     4 Dimension    10 NMult     8 NNew      2
 Iteration     5 Dimension    12 NMult    10 NNew      2
 Iteration     6 Dimension    14 NMult    12 NNew      2
 ***********************************************************************
 Excited states from <AA,BB:AA,BB> singles matrix:
 ***********************************************************************
 
 Ground to excited state transition densities written to RWF  633
 Ground to excited state transition electric dipole moments (Au):
       state          X           Y           Z        Dip. S.      Osc.
         1         6.9041      1.0884      0.2578     48.9172      3.7287
 Ground to excited state transition velocity dipole moments (Au):
       state          X           Y           Z        Dip. S.      Osc.
         1        -0.7579     -0.1198     -0.0295      0.5896      3.4378
 Ground to excited state transition magnetic dipole moments (Au):
       state          X           Y           Z
         1        -0.1093      0.1545      0.7908
 Ground to excited state transition velocity quadrupole moments (Au):
       state          XX          YY          ZZ          XY          XZ          YZ
         1         0.6073     -0.1549     -0.0225      0.1243      0.3528      0.0121
 <0|del|b> * <b|rxdel|0> + <0|del|b> * <b|delr+rdel|0>
 Rotatory Strengths (R) in cgs (10**-40 erg-esu-cm/Gauss)
       state          XX          YY          ZZ    R(velocity)    E-M Angle
         1       -10.0536    166.8351     96.5542     84.4452       86.24
 1/2[<0|r|b>*<b|rxdel|0> + (<0|rxdel|b>*<b|r|0>)*]
 Rotatory Strengths (R) in cgs (10**-40 erg-esu-cm/Gauss)
       state          XX          YY          ZZ     R(length)
         1       533.4399   -118.9135   -144.1488     90.1259
  1/2[<0|del|b>*<b|r|0> + (<0|r|b>*<b|del|0>)*] (Au)
       state          X           Y           Z        Dip. S.   Osc.(frdel)
         1        -5.2325     -0.1304     -0.0076      5.3704      3.5803

 Excitation energies and oscillator strengths:
 
 Excited State   1:      Singlet-A      3.1113 eV  398.50 nm  f=3.7287  <S**2>=0.000
     155 ->158        -0.22170
     156 ->157         0.66055
 This state for optimization and/or second-order correction.
 Total Energy, E(TD-HF/TD-DFT) =  -1706.84913686    
 Copying the excited state density for this state as the 1-particle RhoCI density.
 SavETr:  write IOETrn=   770 NScale= 10 NData=  16 NLR=1 NState=    1 LETran=      28.

 **********************************************************************

            Population analysis using the SCF density.

 **********************************************************************

 Orbital symmetries:
       Occupied  (A) (A) (A) (A) (A) (A) (A) (A) (A) (A) (A) (A)
                 (A) (A) (A) (A) (A) (A) (A) (A) (A) (A) (A) (A)
                 (A) (A) (A) (A) (A) (A) (A) (A) (A) (A) (A) (A)
                 (A) (A) (A) (A) (A) (A) (A) (A) (A) (A) (A) (A)
                 (A) (A) (A) (A) (A) (A) (A) (A) (A) (A) (A) (A)
                 (A) (A) (A) (A) (A) (A) (A) (A) (A) (A) (A) (A)
                 (A) (A) (A) (A) (A) (A) (A) (A) (A) (A) (A) (A)
                 (A) (A) (A) (A) (A) (A) (A) (A) (A) (A) (A) (A)
                 (A) (A) (A) (A) (A) (A) (A) (A) (A) (A) (A) (A)
                 (A) (A) (A) (A) (A) (A) (A) (A) (A) (A) (A) (A)
                 (A) (A) (A) (A) (A) (A) (A) (A) (A) (A) (A) (A)
                 (A) (A) (A) (A) (A) (A) (A) (A) (A) (A) (A) (A)
                 (A) (A) (A) (A) (A) (A) (A) (A) (A) (A) (A) (A)
       Virtual   (A) (A) (A) (A) (A) (A) (A) (A) (A) (A) (A) (A)
                 (A) (A) (A) (A) (A) (A) (A) (A) (A) (A) (A) (A)
                 (A) (A) (A) (A) (A) (A) (A) (A) (A) (A) (A) (A)
                 (A) (A) (A) (A) (A) (A) (A) (A) (A) (A) (A) (A)
                 (A) (A) (A) (A) (A) (A) (A) (A) (A) (A) (A) (A)
                 (A) (A) (A) (A) (A) (A) (A) (A) (A) (A) (A) (A)
                 (A) (A) (A) (A) (A) (A) (A) (A) (A) (A) (A) (A)
                 (A) (A) (A) (A) (A) (A) (A) (A) (A) (A) (A) (A)
                 (A) (A) (A) (A) (A) (A) (A) (A) (A) (A) (A) (A)
                 (A) (A) (A) (A) (A) (A) (A) (A) (A) (A) (A) (A)
                 (A) (A) (A) (A) (A) (A) (A) (A) (A) (A) (A) (A)
                 (A) (A) (A) (A) (A) (A) (A) (A) (A) (A) (A) (A)
                 (A) (A) (A) (A) (A) (A) (A) (A) (A) (A) (A) (A)
                 (A) (A) (A) (A) (A) (A) (A) (A) (A) (A) (A) (A)
                 (A) (A) (A) (A) (A) (A) (A) (A) (A) (A) (A) (A)
                 (A) (A) (A) (A) (A) (A) (A) (A) (A) (A) (A) (A)
                 (A) (A) (A) (A) (A) (A) (A) (A) (A) (A) (A) (A)
                 (A) (A) (A) (A) (A) (A) (A) (A) (A) (A) (A) (A)
                 (A) (A) (A) (A) (A) (A) (A) (A) (A) (A) (A) (A)
                 (A) (A) (A) (A) (A) (A) (A) (A) (A) (A) (A) (A)
                 (A) (A) (A) (A) (A) (A) (A) (A) (A) (A) (A) (A)
                 (A) (A) (A) (A) (A) (A) (A) (A) (A) (A) (A) (A)
                 (A) (A) (A) (A) (A) (A) (A) (A) (A) (A) (A) (A)
                 (A) (A) (A) (A) (A) (A) (A) (A) (A) (A) (A) (A)
                 (A) (A) (A) (A) (A) (A) (A) (A) (A) (A) (A) (A)
                 (A) (A) (A) (A) (A) (A) (A) (A) (A) (A) (A) (A)
                 (A) (A) (A) (A) (A) (A) (A) (A) (A) (A) (A) (A)
                 (A) (A) (A) (A) (A) (A) (A) (A) (A) (A) (A) (A)
                 (A) (A) (A) (A) (A) (A) (A) (A) (A) (A) (A) (A)
                 (A) (A) (A) (A) (A) (A) (A) (A) (A) (A) (A) (A)
                 (A) (A) (A) (A) (A) (A) (A) (A) (A) (A) (A) (A)
                 (A) (A) (A) (A) (A) (A) (A) (A) (A) (A) (A) (A)
                 (A) (A) (A) (A) (A) (A) (A) (A) (A) (A) (A) (A)
                 (A) (A) (A) (A) (A) (A) (A) (A) (A) (A) (A) (A)
                 (A) (A) (A) (A) (A) (A) (A) (A) (A) (A) (A) (A)
                 (A) (A) (A) (A) (A) (A) (A) (A) (A) (A) (A) (A)
                 (A) (A) (A) (A) (A) (A) (A) (A) (A) (A) (A) (A)
                 (A) (A) (A) (A) (A) (A) (A) (A) (A) (A) (A) (A)
                 (A) (A) (A) (A) (A) (A) (A) (A) (A) (A) (A) (A)
                 (A) (A) (A) (A) (A) (A) (A) (A) (A) (A) (A) (A)
                 (A) (A) (A) (A) (A) (A) (A) (A) (A) (A) (A) (A)
                 (A) (A) (A) (A) (A) (A) (A) (A) (A) (A) (A) (A)
                 (A) (A) (A) (A) (A) (A) (A) (A) (A) (A) (A) (A)
                 (A) (A) (A) (A) (A) (A) (A) (A) (A) (A) (A) (A)
                 (A) (A) (A) (A) (A) (A) (A) (A) (A) (A) (A) (A)
                 (A) (A) (A) (A) (A) (A) (A) (A) (A) (A) (A) (A)
                 (A) (A) (A) (A) (A) (A) (A) (A) (A) (A) (A) (A)
                 (A) (A) (A) (A) (A) (A) (A) (A) (A) (A) (A) (A)
                 (A) (A) (A) (A) (A) (A) (A) (A) (A) (A) (A) (A)
                 (A) (A) (A) (A) (A) (A) (A) (A) (A) (A) (A) (A)
                 (A) (A) (A) (A) (A) (A) (A) (A) (A) (A) (A) (A)
                 (A) (A) (A) (A) (A) (A) (A) (A) (A) (A) (A) (A)
                 (A) (A) (A) (A) (A) (A) (A) (A) (A) (A) (A) (A)
                 (A) (A) (A) (A) (A) (A) (A) (A) (A) (A) (A) (A)
                 (A) (A) (A) (A) (A) (A) (A) (A) (A) (A) (A) (A)
                 (A) (A) (A) (A) (A) (A) (A) (A) (A) (A) (A) (A)
                 (A) (A) (A) (A) (A) (A) (A) (A) (A) (A) (A) (A)
                 (A) (A) (A) (A) (A) (A) (A) (A) (A) (A) (A) (A)
                 (A) (A) (A) (A) (A) (A) (A) (A) (A) (A) (A) (A)
                 (A) (A) (A) (A) (A) (A) (A) (A) (A) (A) (A) (A)
                 (A) (A) (A) (A) (A) (A) (A) (A) (A) (A) (A) (A)
                 (A) (A) (A) (A) (A) (A) (A) (A) (A) (A) (A) (A)
                 (A) (A) (A) (A) (A) (A) (A) (A) (A) (A)
 The electronic state is 1-A.
 Alpha  occ. eigenvalues --  -19.22238 -19.21536 -10.32169 -10.30260 -10.28520
 Alpha  occ. eigenvalues --  -10.27854 -10.27778 -10.27667 -10.27546 -10.27538
 Alpha  occ. eigenvalues --  -10.27512 -10.27253 -10.27022 -10.26888 -10.26885
 Alpha  occ. eigenvalues --  -10.26627 -10.26626 -10.26554 -10.26539 -10.26488
 Alpha  occ. eigenvalues --  -10.26439 -10.26428 -10.26339 -10.26268 -10.26231
 Alpha  occ. eigenvalues --  -10.26202 -10.26105 -10.26030 -10.25981 -10.25969
 Alpha  occ. eigenvalues --  -10.25849 -10.25764 -10.25487 -10.25442 -10.25399
 Alpha  occ. eigenvalues --  -10.25310 -10.25014 -10.24695 -10.24447 -10.24346
 Alpha  occ. eigenvalues --  -10.24124 -10.24048  -1.08309  -1.07860  -0.94505
 Alpha  occ. eigenvalues --   -0.94129  -0.92296  -0.91335  -0.90458  -0.89412
 Alpha  occ. eigenvalues --   -0.87942  -0.87175  -0.86877  -0.85801  -0.84364
 Alpha  occ. eigenvalues --   -0.83760  -0.81979  -0.79728  -0.78531  -0.77949
 Alpha  occ. eigenvalues --   -0.76336  -0.76269  -0.76057  -0.75767  -0.75725
 Alpha  occ. eigenvalues --   -0.75447  -0.74938  -0.74147  -0.73332  -0.69720
 Alpha  occ. eigenvalues --   -0.68535  -0.66570  -0.64825  -0.64029  -0.63685
 Alpha  occ. eigenvalues --   -0.62634  -0.61997  -0.61213  -0.60250  -0.60049
 Alpha  occ. eigenvalues --   -0.59475  -0.58838  -0.57901  -0.57292  -0.55900
 Alpha  occ. eigenvalues --   -0.55383  -0.55120  -0.54212  -0.53704  -0.53105
 Alpha  occ. eigenvalues --   -0.52990  -0.52772  -0.51641  -0.51446  -0.51037
 Alpha  occ. eigenvalues --   -0.50421  -0.50306  -0.49942  -0.49862  -0.49283
 Alpha  occ. eigenvalues --   -0.49057  -0.48779  -0.48472  -0.48189  -0.47919
 Alpha  occ. eigenvalues --   -0.47522  -0.47249  -0.47152  -0.46578  -0.45809
 Alpha  occ. eigenvalues --   -0.45768  -0.45548  -0.45310  -0.44876  -0.44591
 Alpha  occ. eigenvalues --   -0.44170  -0.43938  -0.43843  -0.43454  -0.43225
 Alpha  occ. eigenvalues --   -0.42909  -0.42521  -0.42442  -0.42056  -0.41807
 Alpha  occ. eigenvalues --   -0.41581  -0.41430  -0.41059  -0.40911  -0.40876
 Alpha  occ. eigenvalues --   -0.40433  -0.40055  -0.39860  -0.39514  -0.39368
 Alpha  occ. eigenvalues --   -0.39203  -0.38879  -0.38067  -0.37918  -0.37763
 Alpha  occ. eigenvalues --   -0.37544  -0.36917  -0.36764  -0.36418  -0.35723
 Alpha  occ. eigenvalues --   -0.35165  -0.33855  -0.32819  -0.32788  -0.31727
 Alpha  occ. eigenvalues --   -0.30850  -0.29482  -0.28339  -0.26644  -0.23930
 Alpha  occ. eigenvalues --   -0.21495
 Alpha virt. eigenvalues --   -0.03069  -0.00353   0.03407   0.06259   0.08704
 Alpha virt. eigenvalues --    0.09843   0.10167   0.10814   0.10913   0.11337
 Alpha virt. eigenvalues --    0.11519   0.12203   0.12408   0.12903   0.13321
 Alpha virt. eigenvalues --    0.13546   0.13676   0.13979   0.14674   0.14730
 Alpha virt. eigenvalues --    0.14949   0.15230   0.15533   0.15705   0.15772
 Alpha virt. eigenvalues --    0.16083   0.16670   0.16706   0.17265   0.17602
 Alpha virt. eigenvalues --    0.17668   0.18405   0.18600   0.18770   0.18826
 Alpha virt. eigenvalues --    0.19401   0.19591   0.20035   0.20179   0.20539
 Alpha virt. eigenvalues --    0.20618   0.21103   0.21390   0.21766   0.22023
 Alpha virt. eigenvalues --    0.22190   0.22427   0.22623   0.22700   0.22967
 Alpha virt. eigenvalues --    0.23557   0.23588   0.23820   0.23965   0.24142
 Alpha virt. eigenvalues --    0.24912   0.25006   0.25101   0.25340   0.25834
 Alpha virt. eigenvalues --    0.25979   0.26171   0.26543   0.26769   0.27017
 Alpha virt. eigenvalues --    0.27079   0.27514   0.27585   0.27929   0.28294
 Alpha virt. eigenvalues --    0.28916   0.29692   0.29766   0.29926   0.30488
 Alpha virt. eigenvalues --    0.30914   0.31272   0.31681   0.31856   0.32840
 Alpha virt. eigenvalues --    0.33495   0.33562   0.33618   0.34339   0.34682
 Alpha virt. eigenvalues --    0.35660   0.35723   0.36436   0.37135   0.38402
 Alpha virt. eigenvalues --    0.38788   0.39377   0.40237   0.41062   0.41703
 Alpha virt. eigenvalues --    0.42585   0.43503   0.43800   0.44507   0.45402
 Alpha virt. eigenvalues --    0.46736   0.47382   0.47486   0.49498   0.49589
 Alpha virt. eigenvalues --    0.50544   0.50853   0.52092   0.52652   0.53088
 Alpha virt. eigenvalues --    0.54026   0.56070   0.56370   0.56489   0.56570
 Alpha virt. eigenvalues --    0.57013   0.57641   0.58041   0.58406   0.58517
 Alpha virt. eigenvalues --    0.58793   0.59328   0.59552   0.59788   0.60201
 Alpha virt. eigenvalues --    0.60388   0.60565   0.61317   0.61547   0.61618
 Alpha virt. eigenvalues --    0.62207   0.62558   0.63431   0.63902   0.64115
 Alpha virt. eigenvalues --    0.64388   0.64678   0.65166   0.65227   0.65403
 Alpha virt. eigenvalues --    0.65609   0.65926   0.66124   0.66385   0.66731
 Alpha virt. eigenvalues --    0.67185   0.67613   0.67898   0.68256   0.68934
 Alpha virt. eigenvalues --    0.69166   0.69341   0.69541   0.70066   0.70584
 Alpha virt. eigenvalues --    0.70981   0.71253   0.71530   0.71737   0.72104
 Alpha virt. eigenvalues --    0.72455   0.72538   0.72785   0.73369   0.73460
 Alpha virt. eigenvalues --    0.73741   0.73766   0.74588   0.74687   0.75000
 Alpha virt. eigenvalues --    0.75885   0.76425   0.76597   0.76764   0.76942
 Alpha virt. eigenvalues --    0.77792   0.78051   0.78154   0.78304   0.79130
 Alpha virt. eigenvalues --    0.79261   0.79707   0.79844   0.80400   0.80830
 Alpha virt. eigenvalues --    0.81117   0.81503   0.81786   0.82288   0.82663
 Alpha virt. eigenvalues --    0.82898   0.83035   0.83318   0.83607   0.83806
 Alpha virt. eigenvalues --    0.84344   0.84527   0.85093   0.85379   0.85464
 Alpha virt. eigenvalues --    0.85587   0.85906   0.86254   0.86476   0.86738
 Alpha virt. eigenvalues --    0.86882   0.87073   0.87147   0.88181   0.88331
 Alpha virt. eigenvalues --    0.88539   0.89070   0.89200   0.89632   0.90044
 Alpha virt. eigenvalues --    0.90164   0.90275   0.90738   0.90920   0.91164
 Alpha virt. eigenvalues --    0.91434   0.91738   0.91983   0.92231   0.92397
 Alpha virt. eigenvalues --    0.92542   0.92883   0.93434   0.93580   0.93950
 Alpha virt. eigenvalues --    0.94054   0.94312   0.94672   0.94791   0.95145
 Alpha virt. eigenvalues --    0.95251   0.95373   0.95758   0.96546   0.96953
 Alpha virt. eigenvalues --    0.96986   0.97394   0.98021   0.98121   0.99009
 Alpha virt. eigenvalues --    0.99317   0.99554   1.00055   1.00700   1.00928
 Alpha virt. eigenvalues --    1.01260   1.01745   1.02016   1.02260   1.02632
 Alpha virt. eigenvalues --    1.02719   1.03218   1.03592   1.03950   1.04338
 Alpha virt. eigenvalues --    1.04349   1.04478   1.04967   1.05726   1.06442
 Alpha virt. eigenvalues --    1.07197   1.07233   1.07813   1.08574   1.08791
 Alpha virt. eigenvalues --    1.09425   1.10460   1.10829   1.11122   1.11578
 Alpha virt. eigenvalues --    1.12268   1.13010   1.13317   1.13938   1.14055
 Alpha virt. eigenvalues --    1.14746   1.15269   1.15853   1.16477   1.16817
 Alpha virt. eigenvalues --    1.16965   1.17266   1.18006   1.18523   1.19094
 Alpha virt. eigenvalues --    1.20327   1.21424   1.22221   1.23303   1.23728
 Alpha virt. eigenvalues --    1.24492   1.24857   1.28020   1.28389   1.28760
 Alpha virt. eigenvalues --    1.29560   1.31128   1.31978   1.32938   1.33368
 Alpha virt. eigenvalues --    1.33975   1.34607   1.34906   1.35472   1.36821
 Alpha virt. eigenvalues --    1.37887   1.38125   1.38934   1.39691   1.39999
 Alpha virt. eigenvalues --    1.40731   1.41445   1.41914   1.42433   1.42989
 Alpha virt. eigenvalues --    1.43456   1.44395   1.44556   1.45832   1.46473
 Alpha virt. eigenvalues --    1.47201   1.47981   1.48141   1.48820   1.49017
 Alpha virt. eigenvalues --    1.49582   1.50228   1.51319   1.52212   1.53193
 Alpha virt. eigenvalues --    1.54294   1.55130   1.55827   1.57114   1.57254
 Alpha virt. eigenvalues --    1.57748   1.58572   1.58952   1.59427   1.60448
 Alpha virt. eigenvalues --    1.60846   1.61153   1.62005   1.62725   1.62875
 Alpha virt. eigenvalues --    1.63513   1.63706   1.64846   1.65134   1.65943
 Alpha virt. eigenvalues --    1.67118   1.68234   1.68796   1.69909   1.70502
 Alpha virt. eigenvalues --    1.70726   1.71821   1.72543   1.73930   1.74483
 Alpha virt. eigenvalues --    1.74807   1.75454   1.78129   1.78137   1.78646
 Alpha virt. eigenvalues --    1.79527   1.81217   1.81666   1.81987   1.82347
 Alpha virt. eigenvalues --    1.82968   1.83072   1.83491   1.83643   1.84125
 Alpha virt. eigenvalues --    1.84753   1.85082   1.85400   1.86155   1.86647
 Alpha virt. eigenvalues --    1.87531   1.87598   1.87709   1.88603   1.88982
 Alpha virt. eigenvalues --    1.89653   1.90203   1.90304   1.91408   1.91672
 Alpha virt. eigenvalues --    1.91721   1.92317   1.92359   1.92640   1.93167
 Alpha virt. eigenvalues --    1.93249   1.93499   1.93904   1.94216   1.94712
 Alpha virt. eigenvalues --    1.95000   1.95207   1.95442   1.95876   1.96102
 Alpha virt. eigenvalues --    1.96806   1.97110   1.97508   1.98249   1.98369
 Alpha virt. eigenvalues --    1.98871   1.99204   1.99703   2.00040   2.00339
 Alpha virt. eigenvalues --    2.00690   2.01002   2.01775   2.01863   2.02001
 Alpha virt. eigenvalues --    2.03298   2.03766   2.04020   2.04512   2.04677
 Alpha virt. eigenvalues --    2.05483   2.05764   2.06082   2.06478   2.06890
 Alpha virt. eigenvalues --    2.07299   2.07911   2.08312   2.08413   2.08720
 Alpha virt. eigenvalues --    2.08856   2.09471   2.09541   2.09932   2.10334
 Alpha virt. eigenvalues --    2.10607   2.10951   2.11706   2.11949   2.12190
 Alpha virt. eigenvalues --    2.13115   2.13657   2.13953   2.14626   2.14911
 Alpha virt. eigenvalues --    2.15244   2.15403   2.15476   2.15533   2.15952
 Alpha virt. eigenvalues --    2.16325   2.16443   2.17487   2.17570   2.18362
 Alpha virt. eigenvalues --    2.18942   2.19491   2.19871   2.20125   2.20545
 Alpha virt. eigenvalues --    2.21047   2.21605   2.22259   2.22907   2.23577
 Alpha virt. eigenvalues --    2.24037   2.24286   2.24508   2.24827   2.25374
 Alpha virt. eigenvalues --    2.26221   2.26230   2.26752   2.27262   2.27560
 Alpha virt. eigenvalues --    2.28042   2.28287   2.29254   2.29946   2.30820
 Alpha virt. eigenvalues --    2.31090   2.31266   2.31987   2.32883   2.33203
 Alpha virt. eigenvalues --    2.33543   2.33643   2.34144   2.34822   2.35312
 Alpha virt. eigenvalues --    2.35814   2.36261   2.36767   2.36999   2.37152
 Alpha virt. eigenvalues --    2.38539   2.39355   2.39726   2.40040   2.40262
 Alpha virt. eigenvalues --    2.40415   2.40868   2.41566   2.41752   2.43033
 Alpha virt. eigenvalues --    2.43303   2.43783   2.44863   2.45068   2.45648
 Alpha virt. eigenvalues --    2.46063   2.46214   2.46739   2.47106   2.47834
 Alpha virt. eigenvalues --    2.48646   2.49446   2.49821   2.50177   2.50923
 Alpha virt. eigenvalues --    2.51321   2.51539   2.52017   2.52447   2.52524
 Alpha virt. eigenvalues --    2.52670   2.54312   2.55136   2.55703   2.56015
 Alpha virt. eigenvalues --    2.56468   2.57325   2.57586   2.57760   2.58166
 Alpha virt. eigenvalues --    2.58599   2.59001   2.59166   2.59781   2.59852
 Alpha virt. eigenvalues --    2.60749   2.61352   2.61459   2.61473   2.61681
 Alpha virt. eigenvalues --    2.62203   2.62616   2.63232   2.63793   2.64360
 Alpha virt. eigenvalues --    2.64583   2.64749   2.65200   2.66146   2.66682
 Alpha virt. eigenvalues --    2.66846   2.68045   2.68092   2.68251   2.68746
 Alpha virt. eigenvalues --    2.68952   2.69362   2.69704   2.70108   2.70546
 Alpha virt. eigenvalues --    2.70787   2.70932   2.71498   2.71949   2.72135
 Alpha virt. eigenvalues --    2.73330   2.73480   2.73698   2.74142   2.74565
 Alpha virt. eigenvalues --    2.74805   2.75148   2.75832   2.76274   2.76411
 Alpha virt. eigenvalues --    2.77154   2.77285   2.77937   2.78140   2.78617
 Alpha virt. eigenvalues --    2.78968   2.79670   2.79923   2.80425   2.81126
 Alpha virt. eigenvalues --    2.81443   2.81964   2.82170   2.83050   2.83669
 Alpha virt. eigenvalues --    2.84322   2.84763   2.85415   2.85930   2.86808
 Alpha virt. eigenvalues --    2.87226   2.87456   2.87908   2.88662   2.89029
 Alpha virt. eigenvalues --    2.89475   2.89784   2.90367   2.90623   2.91052
 Alpha virt. eigenvalues --    2.91513   2.93108   2.93544   2.94287   2.94724
 Alpha virt. eigenvalues --    2.95184   2.95654   2.95871   2.96204   2.96867
 Alpha virt. eigenvalues --    2.98504   2.99529   2.99911   3.00496   3.00591
 Alpha virt. eigenvalues --    3.01417   3.01939   3.03356   3.03702   3.04409
 Alpha virt. eigenvalues --    3.04945   3.06525   3.06875   3.07492   3.07712
 Alpha virt. eigenvalues --    3.08342   3.08695   3.08731   3.11328   3.12326
 Alpha virt. eigenvalues --    3.13032   3.13178   3.14290   3.14725   3.16012
 Alpha virt. eigenvalues --    3.17519   3.19497   3.20449   3.21689   3.22366
 Alpha virt. eigenvalues --    3.23380   3.23889   3.25162   3.25205   3.25470
 Alpha virt. eigenvalues --    3.28665   3.29658   3.29967   3.32857   3.33222
 Alpha virt. eigenvalues --    3.33458   3.34229   3.37908   3.39093   3.39523
 Alpha virt. eigenvalues --    3.40256   3.40399   3.40622   3.41024   3.42498
 Alpha virt. eigenvalues --    3.42649   3.43639   3.44651   3.45156   3.45500
 Alpha virt. eigenvalues --    3.46981   3.47458   3.50243   3.51267   3.51975
 Alpha virt. eigenvalues --    3.52121   3.52493   3.52609   3.53128   3.54339
 Alpha virt. eigenvalues --    3.56307   3.57008   3.57896   3.59555   3.60116
 Alpha virt. eigenvalues --    3.60410   3.61958   3.63265   3.63936   3.66357
 Alpha virt. eigenvalues --    3.67197   3.67932   3.68657   3.68810   3.72178
 Alpha virt. eigenvalues --    3.73182   3.76948   4.09652   4.11787   4.19014
 Alpha virt. eigenvalues --    4.19597   4.20629   4.23166   4.25082   4.25974
 Alpha virt. eigenvalues --    4.28294   4.28623   4.29536   4.31393   4.37222
 Alpha virt. eigenvalues --    4.39324   4.41303   4.42349   4.42999   4.45671
 Alpha virt. eigenvalues --    4.47839   4.48765   4.49198   4.54279   4.54887
 Alpha virt. eigenvalues --    4.55710   4.56399   4.57733   4.59120   4.60539
 Alpha virt. eigenvalues --    4.62586   4.64651   4.66452   4.68390   4.71131
 Alpha virt. eigenvalues --    4.72096   4.72804   4.77203   4.80409   4.81684
 Alpha virt. eigenvalues --    4.84568   4.85442   4.89339   4.92215
          Condensed to atoms (all electrons):
 Mulliken charges:
               1
     1  O   -0.553292
     2  O   -0.573592
     3  C   -0.024227
     4  C    0.021938
     5  C   -0.184033
     6  C   -0.198225
     7  C    0.158547
     8  C    0.196104
     9  C    0.088193
    10  C    0.043436
    11  C   -0.217546
    12  C   -0.202989
    13  C    0.028846
    14  C    0.052300
    15  C   -0.278932
    16  C   -0.298574
    17  C   -0.296064
    18  C   -0.307724
    19  C   -0.134609
    20  C   -0.182277
    21  C   -0.332303
    22  C   -0.331811
    23  C   -0.123792
    24  C   -0.066746
    25  C    0.112091
    26  C    0.088386
    27  C   -0.374992
    28  C   -0.367324
    29  C   -0.126079
    30  C   -0.137194
    31  C   -0.055037
    32  C   -0.078359
    33  C   -0.120277
    34  C   -0.092703
    35  C    0.125430
    36  C    0.060727
    37  C   -0.392266
    38  C   -0.357312
    39  C   -0.135668
    40  C   -0.127196
    41  C   -0.071736
    42  C   -0.072163
    43  H    0.098502
    44  H    0.077865
    45  H    0.038708
    46  H    0.101596
    47  H    0.065364
    48  H    0.070281
    49  H    0.130376
    50  H    0.070632
    51  H    0.091673
    52  H    0.110007
    53  H    0.101663
    54  H    0.122164
    55  H    0.096540
    56  H    0.110103
    57  H    0.076525
    58  H    0.102508
    59  H    0.112993
    60  H    0.118902
    61  H    0.060480
    62  H    0.079852
    63  H    0.108804
    64  H    0.110244
    65  H    0.083136
    66  H    0.105671
    67  H    0.129242
    68  H    0.087707
    69  H    0.113432
    70  H    0.098661
    71  H    0.116267
    72  H    0.080834
    73  H    0.304945
    74  H    0.316578
    75  H    0.091904
    76  H    0.099952
    77  H    0.080246
    78  H    0.111657
    79  H    0.122153
    80  H    0.118396
    81  H    0.132758
    82  H    0.107654
    83  H    0.066567
    84  H    0.079309
    85  H    0.070216
    86  H    0.081072
    87  H    0.098179
    88  H    0.070987
    89  H    0.126117
    90  H    0.102411
    91  H    0.138438
    92  H    0.117815
    93  H    0.117465
    94  H    0.111781
    95  H    0.070295
    96  H    0.076668
    97  H    0.070582
    98  H    0.084163
 Sum of Mulliken charges =  -0.00000
 Mulliken charges with hydrogens summed into heavy atoms:
               1
     1  O   -0.248346
     2  O   -0.257015
     3  C   -0.024227
     4  C    0.021938
     5  C   -0.007666
     6  C   -0.057921
     7  C    0.223911
     8  C    0.266385
     9  C    0.088193
    10  C    0.043436
    11  C   -0.016538
    12  C   -0.001309
    13  C    0.028846
    14  C    0.052300
    15  C    0.041435
    16  C   -0.009438
    17  C   -0.003689
    18  C   -0.008824
    19  C   -0.051473
    20  C   -0.076606
    21  C   -0.001921
    22  C   -0.036049
    23  C   -0.031888
    24  C    0.033206
    25  C    0.112091
    26  C    0.088386
    27  C   -0.060936
    28  C   -0.008515
    29  C   -0.059513
    30  C   -0.057885
    31  C    0.015180
    32  C    0.002713
    33  C   -0.022098
    34  C   -0.021716
    35  C    0.125430
    36  C    0.060727
    37  C   -0.025300
    38  C   -0.010251
    39  C   -0.065372
    40  C   -0.050528
    41  C   -0.001154
    42  C    0.012000
 Electronic spatial extent (au):  <R**2>=         110951.9060
 Charge=             -0.0000 electrons
 Dipole moment (field-independent basis, Debye):
    X=              0.0010    Y=             -1.2923    Z=              2.2153  Tot=              2.5647
 Quadrupole moment (field-independent basis, Debye-Ang):
   XX=           -287.3810   YY=           -243.8997   ZZ=           -263.2574
   XY=              9.8533   XZ=             -3.3968   YZ=              4.0403
 Traceless Quadrupole moment (field-independent basis, Debye-Ang):
   XX=            -22.5349   YY=             20.9463   ZZ=              1.5886
   XY=              9.8533   XZ=             -3.3968   YZ=              4.0403
 Octapole moment (field-independent basis, Debye-Ang**2):
  XXX=           -444.0755  YYY=            -10.2383  ZZZ=              0.7562  XYY=            108.8846
  XXY=           -266.0184  XXZ=            465.1005  XZZ=            -32.5233  YZZ=             -2.4785
  YYZ=             13.7921  XYZ=           -106.4535
 Hexadecapole moment (field-independent basis, Debye-Ang**3):
 XXXX=        -157501.5956 YYYY=          -4308.7090 ZZZZ=          -2061.4465 XXXY=           1374.4945
 XXXZ=          -1305.5596 YYYX=           -273.1446 YYYZ=             41.9606 ZZZX=           -193.4263
 ZZZY=             38.5277 XXYY=         -24072.3964 XXZZ=         -24348.0766 YYZZ=          -1066.6494
 XXYZ=            134.9085 YYXZ=             99.6175 ZZXY=           -219.8040
 N-N= 3.977860521668D+03 E-N=-1.191030493409D+04  KE= 1.689370970535D+03
 1\1\GINC-PADAWAN\SP\RCAM-B3LYP TD-FC\6-31G(d,p)\C40H56O2\PADAWAN\05-Ju
 l-2019\0\\# td=(NStates=1) CAM-B3LYP/6-31G(d,p)\\TD\\0,1\O,0,14.738002
 0192,-2.2043479059,-0.6263314861\O,0,-14.8022668237,2.0421660726,0.588
 5179458\C,0,11.5381271067,-1.0559662307,1.2388072417\C,0,-12.391996831
 7,-0.7868812481,0.8903245545\C,0,13.0565643884,-1.3357266108,0.9675043
 224\C,0,-13.6051331223,-0.1969458546,0.6747563716\C,0,13.3076227563,-1
 .8698525124,-0.4191468037\C,0,-13.5406864086,1.4162844264,0.6096927533
 \C,0,11.0395624822,-0.2614103571,0.0777435284\C,0,-11.2790650075,-0.22
 01430433,-0.1518959436\C,0,13.0277869977,-0.7483555927,-1.3685577288\C
 ,0,-12.7275635164,1.7812160986,-0.524929535\C,0,11.6381785649,-0.13171
 35445,-1.1272512411\C,0,-11.5226858586,0.8697432973,-0.804760015\C,0,1
 1.3515058776,-0.0643255907,2.4804884898\C,0,10.6647759186,-2.235704051
 5,1.3637644964\C,0,-11.7678989839,-0.6262444524,2.313189899\C,0,-12.51
 46921712,-2.2803034733,0.6406959736\C,0,9.7297077968,0.3287639133,0.24
 49511751\C,0,-10.082849652,-1.0730313881,-0.5487235534\C,0,11.06473923
 89,0.5136758325,-2.3683610431\C,0,-10.57370981,1.3534657306,-1.9781071
 177\C,0,9.2876187289,1.6233957775,-0.0643818122\C,0,-8.8506355486,-0.5
 138049375,-0.2518762336\C,0,7.9662826143,2.1856183017,0.2092565947\C,0
 ,-7.6286680088,-1.2993442675,-0.5308784198\C,0,8.0657670577,3.64078228
 31,0.5573471007\C,0,-7.7186829743,-2.8398437325,-0.9620563806\C,0,6.82
 27376808,1.5010600999,0.0518551795\C,0,-6.4457263756,-0.6507805532,-0.
 2752605321\C,0,5.493659918,1.8548631932,0.252450161\C,0,-5.1031414361,
 -1.1504749236,-0.5124434183\C,0,4.4554594769,1.0481402279,0.0495993309
 \C,0,-4.041549575,-0.4409603021,-0.2670340334\C,0,3.0116737724,1.63476
 40743,0.1988715522\C,0,-2.6718909531,-0.848389169,-0.4794256026\C,0,2.
 7545957406,2.9459140403,0.6322759366\C,0,-2.3291584098,-2.3576430664,-
 0.8153925793\C,0,2.1106806431,0.6952466886,-0.0915182768\C,0,-1.602961
 6192,0.0512948354,-0.3244942764\C,0,0.6086480338,0.7724820161,-0.04717
 88379\C,0,-0.1937482438,-0.1848105862,-0.3460022402\H,0,13.610270299,-
 0.2500784429,0.8845032883\H,0,13.5271079468,-1.9746280439,1.8228824202
 \H,0,-14.0811808951,-0.6085910161,1.7463418402\H,0,-14.1709584628,-0.6
 726141844,-0.0348451045\H,0,12.5602812301,-2.7755723003,-0.8550235674\
 H,0,-12.9362790889,1.5710016182,1.5220716802\H,0,13.791070039,-0.02612
 53326,-1.4741232963\H,0,12.9042719202,-1.2209343205,-2.5031009861\H,0,
 -13.5295785019,1.6816894899,-1.4763155646\H,0,-12.3531439214,2.8214542
 094,-0.3062775108\H,0,11.6639650165,-0.7881295391,3.1643510961\H,0,10.
 3696528303,0.1763981297,2.5900078818\H,0,12.1559048605,0.7858783207,2.
 310200155\H,0,10.5749464976,-2.782918872,0.3516105471\H,0,11.106241541
 2,-3.0281077279,2.1671466387\H,0,9.5763736384,-2.0906400571,1.85998094
 11\H,0,-11.7620631063,0.3598615572,2.7707409671\H,0,-10.9423387429,-1.
 2660437594,2.5114271467\H,0,-12.6825594149,-1.0772786329,2.973489945\H
 ,0,-13.5835881398,-2.6212533773,1.0224167507\H,0,-11.672050253,-2.7223
 242604,1.0426193179\H,0,-12.6860889669,-2.5463549435,-0.3736458386\H,0
 ,8.9954213661,-0.402348555,0.7083950235\H,0,-10.2782275548,-2.07026075
 01,-0.9364132743\H,0,10.0826506841,0.7274828462,-2.2758222852\H,0,11.5
 960280378,1.5782421151,-2.4579855126\H,0,11.3817724122,-0.0043009172,-
 3.1893460646\H,0,-11.2086918762,2.0436275918,-2.6358350765\H,0,-10.181
 8037194,0.390449682,-2.5119558016\H,0,-9.5904207971,2.01507012,-1.5877
 323692\H,0,14.8019867517,-3.0290018053,-0.1300411111\H,0,-15.374666901
 7,1.8684717612,1.4891571207\H,0,9.9883743194,2.3248557895,-0.465325847
 6\H,0,-8.6704037374,0.5405461526,-0.0032551385\H,0,9.1159444564,4.1517
 550284,0.0375474517\H,0,7.2046338524,4.3891943283,0.336829516\H,0,8.35
 480019,3.8558684737,1.6610691249\H,0,-8.2618632163,-3.3145583849,-0.08
 02538644\H,0,-8.1156773237,-3.0656455787,-1.9218985199\H,0,-6.67116596
 56,-3.2408177339,-0.7730240944\H,0,6.8339050535,0.2791716601,-0.125505
 9426\H,0,-6.5044807101,0.3725070906,0.1160592289\H,0,5.2706764516,2.81
 37665246,0.7268349385\H,0,-4.8999938194,-2.2164129484,-0.6919565957\H,
 0,4.6084739464,0.2379720431,-0.6533837494\H,0,-4.2001055146,0.69841495
 84,-0.0697941834\H,0,3.2608438694,3.1438784297,1.6088170827\H,0,1.5688
 635394,3.1409927702,0.8508574937\H,0,3.257629785,3.6263704709,0.026362
 1402\H,0,-2.9398661236,-2.9432014672,-0.1003530793\H,0,-2.5926787759,-
 2.5062517453,-1.962050172\H,0,-1.2756943684,-2.5106612412,-0.548697905
 8\H,0,2.3435315112,-0.3511937705,-0.4609740014\H,0,-1.8781272137,1.080
 8280007,-0.1261292259\H,0,0.3018959366,1.778010507,0.3082866237\H,0,0.
 1958323532,-1.2549754476,-0.6563732213\\Version=ES64L-G16RevA.03\State
 =1-A\HF=-1706.9634737\RMSD=3.411e-09\PG=C01 [X(C40H56O2)]\\@


 IF YOU GIVE EVERYONE A PIECE OF YOUR MIND,
 PRETTY SOON IT WILL BE ALL GONE.
 Job cpu time:       0 days  5 hours 51 minutes 17.1 seconds.
 Elapsed time:       0 days  1 hours 28 minutes 24.6 seconds.
 File lengths (MBytes):  RWF=   3127 Int=      0 D2E=      0 Chk=     84 Scr=      1
 Normal termination of Gaussian 16 at Fri Jul  5 01:21:31 2019.
