 Entering Gaussian System, Link 0=g16
 Input=Geometria-254-.com
 Output=Geometria-254-.log
 Initial command:
 /usr/local/g16/l1.exe "/home/padawan/israel-mol/zeaxanthin/spectra/abs/Gau-18342.inp" -scrdir="/home/padawan/israel-mol/zeaxanthin/spectra/abs/"
 Entering Link 1 = /usr/local/g16/l1.exe PID=     18344.
  
 Copyright (c) 1988,1990,1992,1993,1995,1998,2003,2009,2016,
            Gaussian, Inc.  All Rights Reserved.
  
 This is part of the Gaussian(R) 16 program.  It is based on
 the Gaussian(R) 09 system (copyright 2009, Gaussian, Inc.),
 the Gaussian(R) 03 system (copyright 2003, Gaussian, Inc.),
 the Gaussian(R) 98 system (copyright 1998, Gaussian, Inc.),
 the Gaussian(R) 94 system (copyright 1995, Gaussian, Inc.),
 the Gaussian 92(TM) system (copyright 1992, Gaussian, Inc.),
 the Gaussian 90(TM) system (copyright 1990, Gaussian, Inc.),
 the Gaussian 88(TM) system (copyright 1988, Gaussian, Inc.),
 the Gaussian 86(TM) system (copyright 1986, Carnegie Mellon
 University), and the Gaussian 82(TM) system (copyright 1983,
 Carnegie Mellon University). Gaussian is a federally registered
 trademark of Gaussian, Inc.
  
 This software contains proprietary and confidential information,
 including trade secrets, belonging to Gaussian, Inc.
  
 This software is provided under written license and may be
 used, copied, transmitted, or stored only in accord with that
 written license.
  
 The following legend is applicable only to US Government
 contracts under FAR:
  
                    RESTRICTED RIGHTS LEGEND
  
 Use, reproduction and disclosure by the US Government is
 subject to restrictions as set forth in subparagraphs (a)
 and (c) of the Commercial Computer Software - Restricted
 Rights clause in FAR 52.227-19.
  
 Gaussian, Inc.
 340 Quinnipiac St., Bldg. 40, Wallingford CT 06492
  
  
 ---------------------------------------------------------------
 Warning -- This program may not be used in any manner that
 competes with the business of Gaussian, Inc. or will provide
 assistance to any competitor of Gaussian, Inc.  The licensee
 of this program is prohibited from giving any competitor of
 Gaussian, Inc. access to this program.  By using this program,
 the user acknowledges that Gaussian, Inc. is engaged in the
 business of creating and licensing software in the field of
 computational chemistry and represents and warrants to the
 licensee that it is not a competitor of Gaussian, Inc. and that
 it will not use this program in any manner prohibited above.
 ---------------------------------------------------------------
  

 Cite this work as:
 Gaussian 16, Revision A.03,
 M. J. Frisch, G. W. Trucks, H. B. Schlegel, G. E. Scuseria, 
 M. A. Robb, J. R. Cheeseman, G. Scalmani, V. Barone, 
 G. A. Petersson, H. Nakatsuji, X. Li, M. Caricato, A. V. Marenich, 
 J. Bloino, B. G. Janesko, R. Gomperts, B. Mennucci, H. P. Hratchian, 
 J. V. Ortiz, A. F. Izmaylov, J. L. Sonnenberg, D. Williams-Young, 
 F. Ding, F. Lipparini, F. Egidi, J. Goings, B. Peng, A. Petrone, 
 T. Henderson, D. Ranasinghe, V. G. Zakrzewski, J. Gao, N. Rega, 
 G. Zheng, W. Liang, M. Hada, M. Ehara, K. Toyota, R. Fukuda, 
 J. Hasegawa, M. Ishida, T. Nakajima, Y. Honda, O. Kitao, H. Nakai, 
 T. Vreven, K. Throssell, J. A. Montgomery, Jr., J. E. Peralta, 
 F. Ogliaro, M. J. Bearpark, J. J. Heyd, E. N. Brothers, K. N. Kudin, 
 V. N. Staroverov, T. A. Keith, R. Kobayashi, J. Normand, 
 K. Raghavachari, A. P. Rendell, J. C. Burant, S. S. Iyengar, 
 J. Tomasi, M. Cossi, J. M. Millam, M. Klene, C. Adamo, R. Cammi, 
 J. W. Ochterski, R. L. Martin, K. Morokuma, O. Farkas, 
 J. B. Foresman, and D. J. Fox, Gaussian, Inc., Wallingford CT, 2016.
 
 ******************************************
 Gaussian 16:  ES64L-G16RevA.03 25-Dec-2016
                 4-Jul-2019 
 ******************************************
 %nproc=4
 Will use up to    4 processors via shared memory.
 %Mem=2GB
 -------------------------------------
 # td=(NStates=1) CAM-B3LYP/6-31G(d,p)
 -------------------------------------
 1/38=1,172=1/1;
 2/12=2,17=6,18=5,40=1/2;
 3/5=1,6=6,7=101,11=9,25=1,30=1,74=-40/1,2,3,8;
 4//1;
 5/5=2,38=5/2;
 8/6=1,10=2,108=1/1;
 9/41=1,42=1,70=2/14;
 6/7=2,8=2,9=2,10=2/1;
 99/5=1,9=1/99;
 --
 TD
 --
 Symbolic Z-matrix:
 Charge =  0 Multiplicity = 1
 8                     14.76849  -2.02803  -0.55303 
 8                    -14.52656   2.29478   0.82383 
 6                     11.56211  -0.86937   1.2262 
 6                    -12.43101  -0.84631   0.71152 
 6                     13.05661  -1.25032   1.08501 
 6                    -13.69532   0.00568   0.67375 
 6                     13.37501  -1.78376  -0.38484 
 6                    -13.44135   1.50875   0.69289 
 6                     10.99375  -0.19842  -0.02925 
 6                    -11.34641  -0.23793  -0.22195 
 6                     13.00585  -0.87839  -1.46576 
 6                    -12.62597   1.88279  -0.45998 
 6                     11.6017  -0.22322  -1.33979 
 6                    -11.49235   1.00869  -0.74639 
 6                     11.5355  -0.13394   2.48763 
 6                     10.78109  -2.22889   1.59053 
 6                    -11.87606  -1.0357    2.12358 
 6                    -12.7928  -2.24495   0.1271 
 6                     9.67625   0.38731   0.16683 
 6                    -10.16039  -1.11051  -0.56747 
 6                     10.98941   0.37101  -2.47865 
 6                    -10.49253   1.58305  -1.73386 
 6                     9.26002   1.61991  -0.15948 
 6                    -8.84204  -0.64734  -0.25535 
 6                     7.96332   2.21177   0.02547 
 6                    -7.6804   -1.41076  -0.4808 
 6                     7.98368   3.66846   0.47128 
 6                    -7.74745  -2.79746  -1.06282 
 6                     6.82624   1.45191  -0.08175 
 6                    -6.47204  -0.80898  -0.35605 
 6                     5.55153   1.87321   0.09247 
 6                    -5.10114  -1.29275  -0.60431 
 6                     4.42086   1.06851   0.0723 
 6                    -3.94701  -0.55168  -0.22956 
 6                     3.01899   1.52536   0.23374 
 6                    -2.60592  -0.95229  -0.25208 
 6                     2.75539   3.04177   0.38484 
 6                    -2.18755  -2.38673  -0.62373 
 6                     2.02223   0.5833    0.1325 
 6                    -1.73815  -0.04024   0.01081 
 6                     0.61057   0.81801   0.2524 
 6                    -0.28255  -0.17541   0.02672 
 1                     13.92359  -0.3332    1.25931 
 1                     13.33194  -1.97679   1.79869 
 1                    -14.32907  -0.27873   1.50429 
 1                    -14.23273  -0.20862  -0.37214 
 1                     12.92322  -2.78931  -0.46013 
 1                    -12.60411   1.64167   1.61469 
 1                     13.80037  -0.12203  -1.52064 
 1                     12.98162  -1.59862  -2.31368 
 1                    -13.13681   1.78555  -1.543 
 1                    -12.37418   2.90625  -0.49966 
 1                     12.1036  -0.71912   3.33154 
 1                     10.48302   0.2419    2.90052 
 1                     12.06439   0.96807   2.34926 
 1                     10.89314  -3.05147   0.95379 
 1                     11.38392  -2.44659   2.4595 
 1                     9.66843  -2.13997   1.87494 
 1                    -12.0692  -0.29433   3.04303 
 1                    -10.9139  -1.58097   2.02473 
 1                    -12.38396  -2.04942   2.6148 
 1                    -13.83843  -2.52463   0.69319 
 1                    -11.94067  -2.93583   0.25046 
 1                    -12.88996  -2.22172  -1.02921 
 1                     8.99855  -0.12141   0.8798 
 1                    -10.48162  -2.12436  -1.12518 
 1                     9.83195   1.00023  -2.3234 
 1                     11.68007   1.15076  -2.84861 
 1                     10.94559  -0.42258  -3.38606 
 1                    -11.20318   1.92395  -2.5272 
 1                    -9.99807   0.87172  -2.25407 
 1                    -9.97836   2.40968  -1.40776 
 1                     15.308   -2.66821   0.10656 
 1                    -14.92118   1.98107   1.75544 
 1                     10.0454   2.30749  -0.81398 
 1                    -8.80767   0.44253   0.11578 
 1                     8.97766   4.09177  -0.06798 
 1                     7.03743   4.24392   0.09666 
 1                     8.01468   3.87567   1.5602 
 1                    -8.69642  -3.44456  -0.64636 
 1                    -8.11912  -2.77601  -2.20263 
 1                    -6.84489  -3.4087   -1.07548 
 1                     6.94065   0.37731  -0.31838 
 1                    -6.55423   0.24408  -0.04858 
 1                     5.32276   3.00074   0.2781 
 1                    -4.89642  -2.27784  -0.74793 
 1                     4.63027  -0.20276   0.0463 
 1                    -4.01795   0.6021    0.03385 
 1                     2.91483   3.16375   1.48928 
 1                     1.81817   3.39976   0.2225 
 1                     3.61897   3.50785  -0.23299 
 1                    -2.36171  -3.128     0.27811 
 1                    -2.62639  -2.90654  -1.47777 
 1                    -1.07444  -2.25726  -0.87794 
 1                     2.26335  -0.38958  -0.04977 
 1                    -1.94089   0.9681    0.33423 
 1                     0.10157   1.65431   0.52447 
 1                     0.09931  -1.09846  -0.21199 
 
 Stoichiometry    C40H56O2
 Framework group  C1[X(C40H56O2)]
 Deg. of freedom   288
 Full point group                 C1      NOp   1
 Largest Abelian subgroup         C1      NOp   1
 Largest concise Abelian subgroup C1      NOp   1
                         Standard orientation:                         
 ---------------------------------------------------------------------
 Center     Atomic      Atomic             Coordinates (Angstroms)
 Number     Number       Type             X           Y           Z
 ---------------------------------------------------------------------
      1          8           0       14.764864   -2.046290   -0.488218
      2          8           0      -14.529100    2.326946    0.744891
      3          6           0       11.559995   -0.819319    1.247397
      4          6           0      -12.433562   -0.816146    0.752956
      5          6           0       13.054388   -1.205478    1.119830
      6          6           0      -13.697929    0.033741    0.683187
      7          6           0       13.371527   -1.795662   -0.328446
      8          6           0      -13.443979    1.536417    0.643668
      9          6           0       10.990529   -0.197683   -0.032688
     10          6           0      -11.349787   -0.244527   -0.204395
     11          6           0       13.001413   -0.932988   -1.443419
     12          6           0      -12.629613    1.865345   -0.523580
     13          6           0       11.597354   -0.273413   -1.341804
     14          6           0      -11.496216    0.980766   -0.776775
     15          6           0       11.534459   -0.035412    2.479310
     16          6           0       10.779326   -2.163649    1.664978
     17          6           0      -11.877386   -0.950501    2.170835
     18          6           0      -12.795817   -2.236448    0.223670
     19          6           0        9.673188    0.395238    0.141614
     20          6           0      -10.164038   -1.129876   -0.516751
     21          6           0       10.984061    0.276104   -2.502373
     22          6           0      -10.497265    1.516301   -1.786689
     23          6           0        9.256635    1.614219   -0.232010
     24          6           0       -8.845439   -0.654934   -0.224014
     25          6           0        7.960085    2.212834   -0.069088
     26          6           0       -7.683971   -1.426545   -0.420627
     27          6           0        7.980786    3.685748    0.319741
     28          6           0       -7.751478   -2.834826   -0.948235
     29          6           0        6.822930    1.449382   -0.145701
     30          6           0       -6.475516   -0.820378   -0.320405
     31          6           0        5.548357    1.877143    0.013114
     32          6           0       -5.104820   -1.313444   -0.550861
     33          6           0        4.417692    1.072281    0.025216
     34          6           0       -3.950386   -0.558375   -0.206198
     35          6           0        3.015958    1.535070    0.169980
     36          6           0       -2.609309   -0.959563   -0.214290
     37          6           0        2.752438    3.056210    0.262251
     38          6           0       -2.191221   -2.407366   -0.530259
     39          6           0        2.019135    0.589785    0.106310
     40          6           0       -1.741329   -0.037993    0.012198
     41          6           0        0.607569    0.828987    0.218213
     42          6           0       -0.285714   -0.172446    0.032088
     43          1           0       13.921489   -0.282279    1.257601
     44          1           0       13.330349   -1.903657    1.860977
     45          1           0      -14.330947   -0.218167    1.524705
     46          1           0      -14.236240   -0.221054   -0.353111
     47          1           0       12.919698   -2.803376   -0.364199
     48          1           0      -12.605946    1.705060    1.558880
     49          1           0       13.795860   -0.179344   -1.528347
     50          1           0       12.976465   -1.685640   -2.262683
     51          1           0      -13.141382    1.726083   -1.601558
     52          1           0      -12.377879    2.886494   -0.603228
     53          1           0       12.103299   -0.587347    3.344837
     54          1           0       10.482326    0.356208    2.878187
     55          1           0       12.063190    1.060382    2.297753
     56          1           0       10.890849   -3.010353    1.060603
     57          1           0       11.382914   -2.347404    2.541231
     58          1           0        9.666915   -2.063735    1.946684
     59          1           0      -12.069756   -0.173956    3.060934
     60          1           0      -10.915292   -1.499207    2.092422
     61          1           0      -12.384833   -1.944357    2.701534
     62          1           0      -13.840954   -2.493908    0.801108
     63          1           0      -11.943559   -2.922011    0.373053
     64          1           0      -12.893977   -2.258188   -0.932590
     65          1           0        8.996117   -0.085378    0.874405
     66          1           0      -10.485722   -2.164640   -1.034356
     67          1           0        9.826711    0.910889   -2.370695
     68          1           0       11.674374    1.040876   -2.902965
     69          1           0       10.939476   -0.552165   -3.378202
     70          1           0      -11.208609    1.826104   -2.592068
     71          1           0      -10.003229    0.785282   -2.279278
     72          1           0       -9.982834    2.354981   -1.493416
     73          1           0       15.304964   -2.660343    0.195299
     74          1           0      -14.922909    2.049693    1.688335
     75          1           0       10.041434    2.275840   -0.913423
     76          1           0       -8.810771    0.448534    0.104432
     77          1           0        8.974290    4.087773   -0.236429
     78          1           0        7.034195    4.246220   -0.076152
     79          1           0        8.012719    3.935137    1.399756
     80          1           0       -8.700071   -3.465244   -0.506118
     81          1           0       -8.124135   -2.857696   -2.087696
     82          1           0       -6.848920   -3.446106   -0.937912
     83          1           0        6.937163    0.366401   -0.340474
     84          1           0       -6.557467    0.243840   -0.054032
     85          1           0        5.319722    3.011038    0.154966
     86          1           0       -4.900199   -2.303374   -0.656254
     87          1           0        4.627115   -0.199045    0.048469
     88          1           0       -4.021128    0.604770    0.012219
     89          1           0        2.912832    3.221027    1.360970
     90          1           0        1.815071    3.407619    0.086931
     91          1           0        3.615471    3.497910   -0.373982
     92          1           0       -2.364574   -3.113020    0.399874
     93          1           0       -2.630782   -2.959986   -1.363064
     94          1           0       -1.078334   -2.287882   -0.790269
     95          1           0        2.260126   -0.389440   -0.038218
     96          1           0       -1.943825    0.982160    0.296348
     97          1           0        0.098778    1.675236    0.458004
     98          1           0        0.095966   -1.104080   -0.170883
 ---------------------------------------------------------------------
 Rotational constants (GHZ):           0.2454618           0.0092646           0.0091109
 Standard basis: 6-31G(d,p) (6D, 7F)
 There are   910 symmetry adapted cartesian basis functions of A   symmetry.
 There are   910 symmetry adapted basis functions of A   symmetry.
   910 basis functions,  1568 primitive gaussians,   910 cartesian basis functions
   156 alpha electrons      156 beta electrons
       nuclear repulsion energy      3965.9609762369 Hartrees.
 NAtoms=   98 NActive=   98 NUniq=   98 SFac= 1.00D+00 NAtFMM=   60 NAOKFM=T Big=T
 Integral buffers will be    131072 words long.
 Raffenetti 1 integral format.
 Two-electron integral symmetry is turned on.
 One-electron integrals computed using PRISM.
 NBasis=   910 RedAO= T EigKep=  8.43D-04  NBF=   910
 NBsUse=   910 1.00D-06 EigRej= -1.00D+00 NBFU=   910
 ExpMin= 1.61D-01 ExpMax= 5.48D+03 ExpMxC= 8.25D+02 IAcc=3 IRadAn=         5 AccDes= 0.00D+00
 Harris functional with IExCor=20419 and IRadAn=       5 diagonalized for initial guess.
 HarFok:  IExCor=20419 AccDes= 0.00D+00 IRadAn=         5 IDoV= 1 UseB2=F ITyADJ=14
 ICtDFT=  3500011 ScaDFX=  1.000000  1.000000  1.000000  1.000000
 FoFCou: FMM=F IPFlag=           0 FMFlag=      100000 FMFlg1=        2001
         NFxFlg=           0 DoJE=T BraDBF=F KetDBF=T FulRan=T
         wScrn=  0.000000 ICntrl=       500 IOpCl=  0 I1Cent=   200000004 NGrid=           0
         NMat0=    1 NMatS0=      1 NMatT0=    0 NMatD0=    1 NMtDS0=    0 NMtDT0=    0
 Petite list used in FoFCou.
 Requested convergence on RMS density matrix=1.00D-08 within 128 cycles.
 Requested convergence on MAX density matrix=1.00D-06.
 Requested convergence on             energy=1.00D-06.
 No special actions if energy rises.
 Integral accuracy reduced to 1.0D-05 until final iterations.
 Initial convergence to 1.0D-05 achieved.  Increase integral accuracy.
 SCF Done:  E(RCAM-B3LYP) =  -1706.95894374     A.U. after   14 cycles
            NFock= 14  Conv=0.93D-08     -V/T= 2.0108
 DoSCS=F DFT=T ScalE2(SS,OS)=  1.000000  1.000000
 ExpMin= 1.61D-01 ExpMax= 5.48D+03 ExpMxC= 8.25D+02 IAcc=3 IRadAn=         5 AccDes= 0.00D+00
 HarFok:  IExCor=  205 AccDes= 0.00D+00 IRadAn=         5 IDoV=-2 UseB2=F ITyADJ=14
 ICtDFT= 12500011 ScaDFX=  1.000000  1.000000  1.000000  1.000000
 GSVD:  LWork=       -2100 too small for GESVD, short by        9450 words or        9450 for optimal perf.
 Range of M.O.s used for correlation:    43   910
 NBasis=   910 NAE=   156 NBE=   156 NFC=    42 NFV=     0
 NROrb=    868 NOA=   114 NOB=   114 NVA=   754 NVB=   754
 Orbital symmetries:
       Occupied  (A) (A) (A) (A) (A) (A) (A) (A) (A) (A) (A) (A)
                 (A) (A) (A) (A) (A) (A) (A) (A) (A) (A) (A) (A)
                 (A) (A) (A) (A) (A) (A) (A) (A) (A) (A) (A) (A)
                 (A) (A) (A) (A) (A) (A) (A) (A) (A) (A) (A) (A)
                 (A) (A) (A) (A) (A) (A) (A) (A) (A) (A) (A) (A)
                 (A) (A) (A) (A) (A) (A) (A) (A) (A) (A) (A) (A)
                 (A) (A) (A) (A) (A) (A) (A) (A) (A) (A) (A) (A)
                 (A) (A) (A) (A) (A) (A) (A) (A) (A) (A) (A) (A)
                 (A) (A) (A) (A) (A) (A) (A) (A) (A) (A) (A) (A)
                 (A) (A) (A) (A) (A) (A) (A) (A) (A) (A) (A) (A)
                 (A) (A) (A) (A) (A) (A) (A) (A) (A) (A) (A) (A)
                 (A) (A) (A) (A) (A) (A) (A) (A) (A) (A) (A) (A)
                 (A) (A) (A) (A) (A) (A) (A) (A) (A) (A) (A) (A)
       Virtual   (A) (A) (A) (A) (A) (A) (A) (A) (A) (A) (A) (A)
                 (A) (A) (A) (A) (A) (A) (A) (A) (A) (A) (A) (A)
                 (A) (A) (A) (A) (A) (A) (A) (A) (A) (A) (A) (A)
                 (A) (A) (A) (A) (A) (A) (A) (A) (A) (A) (A) (A)
                 (A) (A) (A) (A) (A) (A) (A) (A) (A) (A) (A) (A)
                 (A) (A) (A) (A) (A) (A) (A) (A) (A) (A) (A) (A)
                 (A) (A) (A) (A) (A) (A) (A) (A) (A) (A) (A) (A)
                 (A) (A) (A) (A) (A) (A) (A) (A) (A) (A) (A) (A)
                 (A) (A) (A) (A) (A) (A) (A) (A) (A) (A) (A) (A)
                 (A) (A) (A) (A) (A) (A) (A) (A) (A) (A) (A) (A)
                 (A) (A) (A) (A) (A) (A) (A) (A) (A) (A) (A) (A)
                 (A) (A) (A) (A) (A) (A) (A) (A) (A) (A) (A) (A)
                 (A) (A) (A) (A) (A) (A) (A) (A) (A) (A) (A) (A)
                 (A) (A) (A) (A) (A) (A) (A) (A) (A) (A) (A) (A)
                 (A) (A) (A) (A) (A) (A) (A) (A) (A) (A) (A) (A)
                 (A) (A) (A) (A) (A) (A) (A) (A) (A) (A) (A) (A)
                 (A) (A) (A) (A) (A) (A) (A) (A) (A) (A) (A) (A)
                 (A) (A) (A) (A) (A) (A) (A) (A) (A) (A) (A) (A)
                 (A) (A) (A) (A) (A) (A) (A) (A) (A) (A) (A) (A)
                 (A) (A) (A) (A) (A) (A) (A) (A) (A) (A) (A) (A)
                 (A) (A) (A) (A) (A) (A) (A) (A) (A) (A) (A) (A)
                 (A) (A) (A) (A) (A) (A) (A) (A) (A) (A) (A) (A)
                 (A) (A) (A) (A) (A) (A) (A) (A) (A) (A) (A) (A)
                 (A) (A) (A) (A) (A) (A) (A) (A) (A) (A) (A) (A)
                 (A) (A) (A) (A) (A) (A) (A) (A) (A) (A) (A) (A)
                 (A) (A) (A) (A) (A) (A) (A) (A) (A) (A) (A) (A)
                 (A) (A) (A) (A) (A) (A) (A) (A) (A) (A) (A) (A)
                 (A) (A) (A) (A) (A) (A) (A) (A) (A) (A) (A) (A)
                 (A) (A) (A) (A) (A) (A) (A) (A) (A) (A) (A) (A)
                 (A) (A) (A) (A) (A) (A) (A) (A) (A) (A) (A) (A)
                 (A) (A) (A) (A) (A) (A) (A) (A) (A) (A) (A) (A)
                 (A) (A) (A) (A) (A) (A) (A) (A) (A) (A) (A) (A)
                 (A) (A) (A) (A) (A) (A) (A) (A) (A) (A) (A) (A)
                 (A) (A) (A) (A) (A) (A) (A) (A) (A) (A) (A) (A)
                 (A) (A) (A) (A) (A) (A) (A) (A) (A) (A) (A) (A)
                 (A) (A) (A) (A) (A) (A) (A) (A) (A) (A) (A) (A)
                 (A) (A) (A) (A) (A) (A) (A) (A) (A) (A) (A) (A)
                 (A) (A) (A) (A) (A) (A) (A) (A) (A) (A) (A) (A)
                 (A) (A) (A) (A) (A) (A) (A) (A) (A) (A) (A) (A)
                 (A) (A) (A) (A) (A) (A) (A) (A) (A) (A) (A) (A)
                 (A) (A) (A) (A) (A) (A) (A) (A) (A) (A) (A) (A)
                 (A) (A) (A) (A) (A) (A) (A) (A) (A) (A) (A) (A)
                 (A) (A) (A) (A) (A) (A) (A) (A) (A) (A) (A) (A)
                 (A) (A) (A) (A) (A) (A) (A) (A) (A) (A) (A) (A)
                 (A) (A) (A) (A) (A) (A) (A) (A) (A) (A) (A) (A)
                 (A) (A) (A) (A) (A) (A) (A) (A) (A) (A) (A) (A)
                 (A) (A) (A) (A) (A) (A) (A) (A) (A) (A) (A) (A)
                 (A) (A) (A) (A) (A) (A) (A) (A) (A) (A) (A) (A)
                 (A) (A) (A) (A) (A) (A) (A) (A) (A) (A) (A) (A)
                 (A) (A) (A) (A) (A) (A) (A) (A) (A) (A) (A) (A)
                 (A) (A) (A) (A) (A) (A) (A) (A) (A) (A) (A) (A)
                 (A) (A) (A) (A) (A) (A) (A) (A) (A) (A) (A) (A)
                 (A) (A) (A) (A) (A) (A) (A) (A) (A) (A) (A) (A)
                 (A) (A) (A) (A) (A) (A) (A) (A) (A) (A) (A) (A)
                 (A) (A) (A) (A) (A) (A) (A) (A) (A) (A) (A) (A)
                 (A) (A) (A) (A) (A) (A) (A) (A) (A) (A) (A) (A)
                 (A) (A) (A) (A) (A) (A) (A) (A) (A) (A) (A) (A)
                 (A) (A) (A) (A) (A) (A) (A) (A) (A) (A) (A) (A)
                 (A) (A) (A) (A) (A) (A) (A) (A) (A) (A) (A) (A)
                 (A) (A) (A) (A) (A) (A) (A) (A) (A) (A) (A) (A)
                 (A) (A) (A) (A) (A) (A) (A) (A) (A) (A) (A) (A)
                 (A) (A) (A) (A) (A) (A) (A) (A) (A) (A) (A) (A)
                 (A) (A) (A) (A) (A) (A) (A) (A) (A) (A)
     4 initial guesses have been made.
 Convergence on wavefunction:    0.001000000000000
 Iteration     1 Dimension     4 NMult     0 NNew      4
 CISAX will form     4 AO SS matrices at one time.
 Iteration     2 Dimension     6 NMult     4 NNew      2
 Iteration     3 Dimension     8 NMult     6 NNew      2
 Iteration     4 Dimension    10 NMult     8 NNew      2
 Iteration     5 Dimension    12 NMult    10 NNew      2
 Iteration     6 Dimension    14 NMult    12 NNew      2
 ***********************************************************************
 Excited states from <AA,BB:AA,BB> singles matrix:
 ***********************************************************************
 
 Ground to excited state transition densities written to RWF  633
 Ground to excited state transition electric dipole moments (Au):
       state          X           Y           Z        Dip. S.      Osc.
         1         7.6422      1.1782      0.1703     59.8203      3.8361
 Ground to excited state transition velocity dipole moments (Au):
       state          X           Y           Z        Dip. S.      Osc.
         1        -0.7057     -0.1087     -0.0177      0.5101      3.5353
 Ground to excited state transition magnetic dipole moments (Au):
       state          X           Y           Z
         1         0.0113     -0.1876      0.5763
 Ground to excited state transition velocity quadrupole moments (Au):
       state          XX          YY          ZZ          XY          XZ          YZ
         1        -0.0846     -0.1546     -0.0443     -0.0274      0.4860      0.0147
 <0|del|b> * <b|rxdel|0> + <0|del|b> * <b|delr+rdel|0>
 Rotatory Strengths (R) in cgs (10**-40 erg-esu-cm/Gauss)
       state          XX          YY          ZZ    R(velocity)    E-M Angle
         1       233.4306   -106.7701   -110.3505      5.4367       89.71
 1/2[<0|r|b>*<b|rxdel|0> + (<0|rxdel|b>*<b|r|0>)*]
 Rotatory Strengths (R) in cgs (10**-40 erg-esu-cm/Gauss)
       state          XX          YY          ZZ     R(length)
         1       -61.1231    156.2936    -69.4015      8.5897
  1/2[<0|del|b>*<b|r|0> + (<0|r|b>*<b|del|0>)*] (Au)
       state          X           Y           Z        Dip. S.   Osc.(frdel)
         1        -5.3928     -0.1280     -0.0030      5.5239      3.6826

 Excitation energies and oscillator strengths:
 
 Excited State   1:      Singlet-A      2.6175 eV  473.68 nm  f=3.8361  <S**2>=0.000
     155 ->158         0.19363
     156 ->157         0.67308
 This state for optimization and/or second-order correction.
 Total Energy, E(TD-HF/TD-DFT) =  -1706.86275327    
 Copying the excited state density for this state as the 1-particle RhoCI density.
 SavETr:  write IOETrn=   770 NScale= 10 NData=  16 NLR=1 NState=    1 LETran=      28.

 **********************************************************************

            Population analysis using the SCF density.

 **********************************************************************

 Orbital symmetries:
       Occupied  (A) (A) (A) (A) (A) (A) (A) (A) (A) (A) (A) (A)
                 (A) (A) (A) (A) (A) (A) (A) (A) (A) (A) (A) (A)
                 (A) (A) (A) (A) (A) (A) (A) (A) (A) (A) (A) (A)
                 (A) (A) (A) (A) (A) (A) (A) (A) (A) (A) (A) (A)
                 (A) (A) (A) (A) (A) (A) (A) (A) (A) (A) (A) (A)
                 (A) (A) (A) (A) (A) (A) (A) (A) (A) (A) (A) (A)
                 (A) (A) (A) (A) (A) (A) (A) (A) (A) (A) (A) (A)
                 (A) (A) (A) (A) (A) (A) (A) (A) (A) (A) (A) (A)
                 (A) (A) (A) (A) (A) (A) (A) (A) (A) (A) (A) (A)
                 (A) (A) (A) (A) (A) (A) (A) (A) (A) (A) (A) (A)
                 (A) (A) (A) (A) (A) (A) (A) (A) (A) (A) (A) (A)
                 (A) (A) (A) (A) (A) (A) (A) (A) (A) (A) (A) (A)
                 (A) (A) (A) (A) (A) (A) (A) (A) (A) (A) (A) (A)
       Virtual   (A) (A) (A) (A) (A) (A) (A) (A) (A) (A) (A) (A)
                 (A) (A) (A) (A) (A) (A) (A) (A) (A) (A) (A) (A)
                 (A) (A) (A) (A) (A) (A) (A) (A) (A) (A) (A) (A)
                 (A) (A) (A) (A) (A) (A) (A) (A) (A) (A) (A) (A)
                 (A) (A) (A) (A) (A) (A) (A) (A) (A) (A) (A) (A)
                 (A) (A) (A) (A) (A) (A) (A) (A) (A) (A) (A) (A)
                 (A) (A) (A) (A) (A) (A) (A) (A) (A) (A) (A) (A)
                 (A) (A) (A) (A) (A) (A) (A) (A) (A) (A) (A) (A)
                 (A) (A) (A) (A) (A) (A) (A) (A) (A) (A) (A) (A)
                 (A) (A) (A) (A) (A) (A) (A) (A) (A) (A) (A) (A)
                 (A) (A) (A) (A) (A) (A) (A) (A) (A) (A) (A) (A)
                 (A) (A) (A) (A) (A) (A) (A) (A) (A) (A) (A) (A)
                 (A) (A) (A) (A) (A) (A) (A) (A) (A) (A) (A) (A)
                 (A) (A) (A) (A) (A) (A) (A) (A) (A) (A) (A) (A)
                 (A) (A) (A) (A) (A) (A) (A) (A) (A) (A) (A) (A)
                 (A) (A) (A) (A) (A) (A) (A) (A) (A) (A) (A) (A)
                 (A) (A) (A) (A) (A) (A) (A) (A) (A) (A) (A) (A)
                 (A) (A) (A) (A) (A) (A) (A) (A) (A) (A) (A) (A)
                 (A) (A) (A) (A) (A) (A) (A) (A) (A) (A) (A) (A)
                 (A) (A) (A) (A) (A) (A) (A) (A) (A) (A) (A) (A)
                 (A) (A) (A) (A) (A) (A) (A) (A) (A) (A) (A) (A)
                 (A) (A) (A) (A) (A) (A) (A) (A) (A) (A) (A) (A)
                 (A) (A) (A) (A) (A) (A) (A) (A) (A) (A) (A) (A)
                 (A) (A) (A) (A) (A) (A) (A) (A) (A) (A) (A) (A)
                 (A) (A) (A) (A) (A) (A) (A) (A) (A) (A) (A) (A)
                 (A) (A) (A) (A) (A) (A) (A) (A) (A) (A) (A) (A)
                 (A) (A) (A) (A) (A) (A) (A) (A) (A) (A) (A) (A)
                 (A) (A) (A) (A) (A) (A) (A) (A) (A) (A) (A) (A)
                 (A) (A) (A) (A) (A) (A) (A) (A) (A) (A) (A) (A)
                 (A) (A) (A) (A) (A) (A) (A) (A) (A) (A) (A) (A)
                 (A) (A) (A) (A) (A) (A) (A) (A) (A) (A) (A) (A)
                 (A) (A) (A) (A) (A) (A) (A) (A) (A) (A) (A) (A)
                 (A) (A) (A) (A) (A) (A) (A) (A) (A) (A) (A) (A)
                 (A) (A) (A) (A) (A) (A) (A) (A) (A) (A) (A) (A)
                 (A) (A) (A) (A) (A) (A) (A) (A) (A) (A) (A) (A)
                 (A) (A) (A) (A) (A) (A) (A) (A) (A) (A) (A) (A)
                 (A) (A) (A) (A) (A) (A) (A) (A) (A) (A) (A) (A)
                 (A) (A) (A) (A) (A) (A) (A) (A) (A) (A) (A) (A)
                 (A) (A) (A) (A) (A) (A) (A) (A) (A) (A) (A) (A)
                 (A) (A) (A) (A) (A) (A) (A) (A) (A) (A) (A) (A)
                 (A) (A) (A) (A) (A) (A) (A) (A) (A) (A) (A) (A)
                 (A) (A) (A) (A) (A) (A) (A) (A) (A) (A) (A) (A)
                 (A) (A) (A) (A) (A) (A) (A) (A) (A) (A) (A) (A)
                 (A) (A) (A) (A) (A) (A) (A) (A) (A) (A) (A) (A)
                 (A) (A) (A) (A) (A) (A) (A) (A) (A) (A) (A) (A)
                 (A) (A) (A) (A) (A) (A) (A) (A) (A) (A) (A) (A)
                 (A) (A) (A) (A) (A) (A) (A) (A) (A) (A) (A) (A)
                 (A) (A) (A) (A) (A) (A) (A) (A) (A) (A) (A) (A)
                 (A) (A) (A) (A) (A) (A) (A) (A) (A) (A) (A) (A)
                 (A) (A) (A) (A) (A) (A) (A) (A) (A) (A) (A) (A)
                 (A) (A) (A) (A) (A) (A) (A) (A) (A) (A) (A) (A)
                 (A) (A) (A) (A) (A) (A) (A) (A) (A) (A) (A) (A)
                 (A) (A) (A) (A) (A) (A) (A) (A) (A) (A) (A) (A)
                 (A) (A) (A) (A) (A) (A) (A) (A) (A) (A) (A) (A)
                 (A) (A) (A) (A) (A) (A) (A) (A) (A) (A) (A) (A)
                 (A) (A) (A) (A) (A) (A) (A) (A) (A) (A) (A) (A)
                 (A) (A) (A) (A) (A) (A) (A) (A) (A) (A) (A) (A)
                 (A) (A) (A) (A) (A) (A) (A) (A) (A) (A) (A) (A)
                 (A) (A) (A) (A) (A) (A) (A) (A) (A) (A) (A) (A)
                 (A) (A) (A) (A) (A) (A) (A) (A) (A) (A) (A) (A)
                 (A) (A) (A) (A) (A) (A) (A) (A) (A) (A) (A) (A)
                 (A) (A) (A) (A) (A) (A) (A) (A) (A) (A) (A) (A)
                 (A) (A) (A) (A) (A) (A) (A) (A) (A) (A)
 The electronic state is 1-A.
 Alpha  occ. eigenvalues --  -19.23013 -19.20949 -10.30912 -10.30460 -10.28627
 Alpha  occ. eigenvalues --  -10.28280 -10.28064 -10.27916 -10.27565 -10.27517
 Alpha  occ. eigenvalues --  -10.27422 -10.27413 -10.27398 -10.27299 -10.27229
 Alpha  occ. eigenvalues --  -10.27170 -10.27107 -10.26940 -10.26928 -10.26822
 Alpha  occ. eigenvalues --  -10.26720 -10.26708 -10.26678 -10.26433 -10.26379
 Alpha  occ. eigenvalues --  -10.26364 -10.26358 -10.26337 -10.26191 -10.25930
 Alpha  occ. eigenvalues --  -10.25792 -10.25779 -10.25704 -10.25702 -10.25645
 Alpha  occ. eigenvalues --  -10.25541 -10.25348 -10.25334 -10.25067 -10.24970
 Alpha  occ. eigenvalues --  -10.24779 -10.22962  -1.11586  -1.07096  -0.93168
 Alpha  occ. eigenvalues --   -0.93135  -0.92966  -0.91635  -0.90562  -0.90043
 Alpha  occ. eigenvalues --   -0.87826  -0.87152  -0.87105  -0.85259  -0.84159
 Alpha  occ. eigenvalues --   -0.82818  -0.81915  -0.80088  -0.78984  -0.77906
 Alpha  occ. eigenvalues --   -0.76388  -0.75857  -0.75665  -0.75491  -0.75323
 Alpha  occ. eigenvalues --   -0.74947  -0.74511  -0.74103  -0.73745  -0.70499
 Alpha  occ. eigenvalues --   -0.68435  -0.67027  -0.65452  -0.64320  -0.63695
 Alpha  occ. eigenvalues --   -0.63160  -0.62763  -0.62330  -0.60071  -0.59232
 Alpha  occ. eigenvalues --   -0.58989  -0.58220  -0.57913  -0.57861  -0.56095
 Alpha  occ. eigenvalues --   -0.55610  -0.55081  -0.54925  -0.54427  -0.53635
 Alpha  occ. eigenvalues --   -0.53142  -0.52532  -0.52215  -0.51304  -0.50705
 Alpha  occ. eigenvalues --   -0.50603  -0.50446  -0.49834  -0.49102  -0.48755
 Alpha  occ. eigenvalues --   -0.48624  -0.48433  -0.48179  -0.47864  -0.47592
 Alpha  occ. eigenvalues --   -0.47371  -0.47240  -0.46481  -0.46219  -0.45578
 Alpha  occ. eigenvalues --   -0.45451  -0.45293  -0.44898  -0.44436  -0.44319
 Alpha  occ. eigenvalues --   -0.44198  -0.44049  -0.43895  -0.43598  -0.43504
 Alpha  occ. eigenvalues --   -0.43073  -0.42297  -0.42250  -0.41962  -0.41890
 Alpha  occ. eigenvalues --   -0.41612  -0.41322  -0.41259  -0.41188  -0.40857
 Alpha  occ. eigenvalues --   -0.40438  -0.40303  -0.39931  -0.39363  -0.39201
 Alpha  occ. eigenvalues --   -0.38980  -0.38715  -0.38604  -0.38151  -0.37595
 Alpha  occ. eigenvalues --   -0.37425  -0.37310  -0.36904  -0.36374  -0.35796
 Alpha  occ. eigenvalues --   -0.35195  -0.34677  -0.33464  -0.31871  -0.31093
 Alpha  occ. eigenvalues --   -0.30911  -0.29210  -0.27314  -0.26014  -0.23268
 Alpha  occ. eigenvalues --   -0.20607
 Alpha virt. eigenvalues --   -0.04692  -0.01074   0.02818   0.05395   0.08098
 Alpha virt. eigenvalues --    0.09286   0.09826   0.10169   0.10405   0.11442
 Alpha virt. eigenvalues --    0.12097   0.12241   0.12475   0.13548   0.14071
 Alpha virt. eigenvalues --    0.14240   0.14499   0.14512   0.14621   0.14713
 Alpha virt. eigenvalues --    0.14858   0.15110   0.15298   0.15641   0.15960
 Alpha virt. eigenvalues --    0.16372   0.16401   0.16556   0.16611   0.17149
 Alpha virt. eigenvalues --    0.17408   0.18147   0.18171   0.18524   0.18920
 Alpha virt. eigenvalues --    0.19474   0.19550   0.19843   0.20121   0.20189
 Alpha virt. eigenvalues --    0.20577   0.20902   0.21481   0.21566   0.21845
 Alpha virt. eigenvalues --    0.22135   0.22369   0.22661   0.22779   0.23102
 Alpha virt. eigenvalues --    0.23328   0.23414   0.23654   0.23772   0.24177
 Alpha virt. eigenvalues --    0.24512   0.24628   0.25100   0.25367   0.25604
 Alpha virt. eigenvalues --    0.26128   0.26350   0.26581   0.27050   0.27129
 Alpha virt. eigenvalues --    0.27394   0.27553   0.28322   0.28545   0.28760
 Alpha virt. eigenvalues --    0.29433   0.29499   0.29778   0.30229   0.30409
 Alpha virt. eigenvalues --    0.30887   0.31095   0.31827   0.32166   0.32709
 Alpha virt. eigenvalues --    0.32964   0.34163   0.34402   0.34670   0.35195
 Alpha virt. eigenvalues --    0.35233   0.36556   0.37553   0.37975   0.38280
 Alpha virt. eigenvalues --    0.39087   0.39495   0.40798   0.41318   0.42150
 Alpha virt. eigenvalues --    0.42806   0.44034   0.44694   0.45336   0.45894
 Alpha virt. eigenvalues --    0.46399   0.46765   0.47515   0.48137   0.48661
 Alpha virt. eigenvalues --    0.49646   0.50107   0.52101   0.53089   0.53158
 Alpha virt. eigenvalues --    0.55189   0.55505   0.56275   0.56658   0.56850
 Alpha virt. eigenvalues --    0.57117   0.57284   0.57786   0.58075   0.58451
 Alpha virt. eigenvalues --    0.59274   0.59484   0.59966   0.60159   0.60765
 Alpha virt. eigenvalues --    0.60831   0.61029   0.61255   0.61745   0.61890
 Alpha virt. eigenvalues --    0.62271   0.62874   0.63153   0.63275   0.63320
 Alpha virt. eigenvalues --    0.63978   0.64124   0.64454   0.64848   0.64965
 Alpha virt. eigenvalues --    0.65454   0.66019   0.66199   0.66373   0.66771
 Alpha virt. eigenvalues --    0.66897   0.67142   0.67530   0.67681   0.68254
 Alpha virt. eigenvalues --    0.68705   0.69156   0.69310   0.69644   0.69722
 Alpha virt. eigenvalues --    0.69947   0.70315   0.71106   0.71428   0.71988
 Alpha virt. eigenvalues --    0.72572   0.72675   0.72871   0.73079   0.73405
 Alpha virt. eigenvalues --    0.74048   0.74492   0.74678   0.74864   0.75200
 Alpha virt. eigenvalues --    0.75464   0.75725   0.76048   0.76433   0.76736
 Alpha virt. eigenvalues --    0.77087   0.77153   0.78107   0.78308   0.78651
 Alpha virt. eigenvalues --    0.79199   0.79241   0.79768   0.80095   0.80220
 Alpha virt. eigenvalues --    0.80713   0.80975   0.81601   0.81798   0.81904
 Alpha virt. eigenvalues --    0.82195   0.82249   0.82785   0.83119   0.83611
 Alpha virt. eigenvalues --    0.83941   0.83978   0.84362   0.85074   0.85290
 Alpha virt. eigenvalues --    0.85819   0.86091   0.86503   0.86625   0.86779
 Alpha virt. eigenvalues --    0.87424   0.87759   0.87811   0.87967   0.88358
 Alpha virt. eigenvalues --    0.88730   0.88802   0.89452   0.89481   0.90062
 Alpha virt. eigenvalues --    0.90230   0.90550   0.90688   0.91182   0.91339
 Alpha virt. eigenvalues --    0.91882   0.92186   0.92590   0.92703   0.92789
 Alpha virt. eigenvalues --    0.93354   0.93444   0.93595   0.93979   0.94162
 Alpha virt. eigenvalues --    0.94428   0.94703   0.94797   0.95379   0.95723
 Alpha virt. eigenvalues --    0.96071   0.96092   0.96500   0.96815   0.97203
 Alpha virt. eigenvalues --    0.97410   0.97699   0.98267   0.98563   0.98609
 Alpha virt. eigenvalues --    0.99038   0.99079   0.99184   1.00272   1.00384
 Alpha virt. eigenvalues --    1.00748   1.01106   1.01609   1.01773   1.02195
 Alpha virt. eigenvalues --    1.02274   1.03052   1.03095   1.03587   1.04197
 Alpha virt. eigenvalues --    1.04339   1.04970   1.05453   1.05884   1.05933
 Alpha virt. eigenvalues --    1.06466   1.07165   1.07381   1.07577   1.08240
 Alpha virt. eigenvalues --    1.08639   1.09166   1.09872   1.10226   1.10750
 Alpha virt. eigenvalues --    1.11162   1.12018   1.12753   1.12971   1.13454
 Alpha virt. eigenvalues --    1.14046   1.14373   1.14923   1.15520   1.15725
 Alpha virt. eigenvalues --    1.15942   1.17287   1.17576   1.19725   1.20146
 Alpha virt. eigenvalues --    1.21537   1.22273   1.23349   1.24134   1.25517
 Alpha virt. eigenvalues --    1.26565   1.27163   1.27514   1.28104   1.28243
 Alpha virt. eigenvalues --    1.28531   1.30315   1.31100   1.31912   1.32219
 Alpha virt. eigenvalues --    1.32263   1.33751   1.36244   1.36429   1.37235
 Alpha virt. eigenvalues --    1.37601   1.37877   1.38396   1.38630   1.39903
 Alpha virt. eigenvalues --    1.40789   1.41109   1.41937   1.42294   1.42546
 Alpha virt. eigenvalues --    1.43471   1.43696   1.44272   1.45571   1.46367
 Alpha virt. eigenvalues --    1.46846   1.47696   1.48078   1.48260   1.48620
 Alpha virt. eigenvalues --    1.48990   1.50442   1.51048   1.52286   1.52385
 Alpha virt. eigenvalues --    1.53293   1.54827   1.55062   1.55305   1.56945
 Alpha virt. eigenvalues --    1.57167   1.57461   1.57719   1.58998   1.59073
 Alpha virt. eigenvalues --    1.59847   1.60000   1.60996   1.62119   1.62633
 Alpha virt. eigenvalues --    1.62979   1.64310   1.64582   1.65432   1.65729
 Alpha virt. eigenvalues --    1.66241   1.67442   1.67803   1.68876   1.70608
 Alpha virt. eigenvalues --    1.71350   1.71808   1.72859   1.75083   1.75753
 Alpha virt. eigenvalues --    1.76641   1.77130   1.77212   1.77509   1.78800
 Alpha virt. eigenvalues --    1.79276   1.79694   1.80525   1.80811   1.81291
 Alpha virt. eigenvalues --    1.81774   1.82366   1.83313   1.83487   1.83749
 Alpha virt. eigenvalues --    1.84483   1.84599   1.85667   1.86349   1.86474
 Alpha virt. eigenvalues --    1.87311   1.87576   1.87981   1.88118   1.88249
 Alpha virt. eigenvalues --    1.88864   1.89147   1.89319   1.90130   1.90275
 Alpha virt. eigenvalues --    1.90460   1.91001   1.91226   1.91821   1.92615
 Alpha virt. eigenvalues --    1.93017   1.93258   1.93540   1.94114   1.94285
 Alpha virt. eigenvalues --    1.94621   1.95396   1.95686   1.95984   1.96674
 Alpha virt. eigenvalues --    1.96777   1.97161   1.97461   1.97983   1.98144
 Alpha virt. eigenvalues --    1.98858   1.99272   1.99429   1.99745   2.00227
 Alpha virt. eigenvalues --    2.00897   2.01165   2.01553   2.02377   2.02442
 Alpha virt. eigenvalues --    2.02959   2.03368   2.03882   2.04949   2.05255
 Alpha virt. eigenvalues --    2.05614   2.05961   2.06292   2.06524   2.07076
 Alpha virt. eigenvalues --    2.07331   2.07818   2.07952   2.08406   2.08607
 Alpha virt. eigenvalues --    2.09187   2.09660   2.10081   2.10667   2.10869
 Alpha virt. eigenvalues --    2.11519   2.12195   2.12396   2.12634   2.12883
 Alpha virt. eigenvalues --    2.13225   2.13365   2.13722   2.14278   2.14531
 Alpha virt. eigenvalues --    2.14680   2.14963   2.15452   2.15710   2.16020
 Alpha virt. eigenvalues --    2.16371   2.17109   2.17262   2.17731   2.18168
 Alpha virt. eigenvalues --    2.18789   2.19146   2.19755   2.20249   2.20387
 Alpha virt. eigenvalues --    2.20778   2.21067   2.21500   2.21546   2.22391
 Alpha virt. eigenvalues --    2.22764   2.22909   2.24196   2.24459   2.25326
 Alpha virt. eigenvalues --    2.26256   2.26610   2.27227   2.28158   2.28287
 Alpha virt. eigenvalues --    2.28971   2.29439   2.29658   2.29830   2.29926
 Alpha virt. eigenvalues --    2.30319   2.30837   2.31371   2.31839   2.32381
 Alpha virt. eigenvalues --    2.32992   2.33462   2.33952   2.34396   2.35308
 Alpha virt. eigenvalues --    2.35623   2.35759   2.36652   2.37111   2.37322
 Alpha virt. eigenvalues --    2.37782   2.39332   2.39744   2.40213   2.40237
 Alpha virt. eigenvalues --    2.40683   2.41089   2.41263   2.41467   2.41911
 Alpha virt. eigenvalues --    2.42546   2.42790   2.43609   2.44136   2.44375
 Alpha virt. eigenvalues --    2.44686   2.44900   2.45284   2.46553   2.46755
 Alpha virt. eigenvalues --    2.46925   2.47208   2.47612   2.48342   2.49133
 Alpha virt. eigenvalues --    2.49679   2.50306   2.50453   2.50635   2.51475
 Alpha virt. eigenvalues --    2.51677   2.52106   2.52783   2.53485   2.53872
 Alpha virt. eigenvalues --    2.54285   2.54805   2.55094   2.56598   2.56796
 Alpha virt. eigenvalues --    2.57307   2.57901   2.58679   2.58824   2.59211
 Alpha virt. eigenvalues --    2.59688   2.60138   2.60521   2.61308   2.61713
 Alpha virt. eigenvalues --    2.62471   2.63291   2.63503   2.63851   2.64155
 Alpha virt. eigenvalues --    2.64386   2.65196   2.65461   2.65933   2.66275
 Alpha virt. eigenvalues --    2.66580   2.66796   2.67395   2.67629   2.68455
 Alpha virt. eigenvalues --    2.68483   2.69034   2.69701   2.69748   2.70398
 Alpha virt. eigenvalues --    2.70695   2.71355   2.71433   2.71755   2.72021
 Alpha virt. eigenvalues --    2.72130   2.73079   2.74192   2.74616   2.74896
 Alpha virt. eigenvalues --    2.75086   2.75809   2.76766   2.76958   2.77246
 Alpha virt. eigenvalues --    2.77497   2.77700   2.77941   2.78237   2.78629
 Alpha virt. eigenvalues --    2.79332   2.79846   2.79928   2.80134   2.80882
 Alpha virt. eigenvalues --    2.81630   2.82089   2.82175   2.82596   2.82825
 Alpha virt. eigenvalues --    2.83193   2.83955   2.84122   2.84405   2.84901
 Alpha virt. eigenvalues --    2.86155   2.86579   2.87090   2.87557   2.88099
 Alpha virt. eigenvalues --    2.88890   2.89349   2.89782   2.90319   2.90920
 Alpha virt. eigenvalues --    2.91330   2.91783   2.93023   2.93118   2.93752
 Alpha virt. eigenvalues --    2.94318   2.94413   2.94813   2.95496   2.96275
 Alpha virt. eigenvalues --    2.96865   2.97861   2.98386   2.99357   2.99971
 Alpha virt. eigenvalues --    3.00641   3.01397   3.02888   3.02904   3.03659
 Alpha virt. eigenvalues --    3.04026   3.05880   3.06228   3.06921   3.08054
 Alpha virt. eigenvalues --    3.08612   3.08894   3.09524   3.09752   3.11140
 Alpha virt. eigenvalues --    3.12267   3.14096   3.14445   3.16035   3.17349
 Alpha virt. eigenvalues --    3.17356   3.18512   3.18969   3.20086   3.20828
 Alpha virt. eigenvalues --    3.21472   3.21727   3.24456   3.25680   3.26170
 Alpha virt. eigenvalues --    3.27379   3.28794   3.32628   3.32940   3.35119
 Alpha virt. eigenvalues --    3.35740   3.36030   3.36750   3.37111   3.37251
 Alpha virt. eigenvalues --    3.37629   3.38565   3.40142   3.40375   3.40433
 Alpha virt. eigenvalues --    3.41104   3.42276   3.43435   3.43987   3.44446
 Alpha virt. eigenvalues --    3.45661   3.45957   3.46887   3.48361   3.48899
 Alpha virt. eigenvalues --    3.49661   3.51476   3.51817   3.51975   3.53027
 Alpha virt. eigenvalues --    3.55117   3.55897   3.56842   3.58558   3.59869
 Alpha virt. eigenvalues --    3.61709   3.63432   3.63630   3.64769   3.65483
 Alpha virt. eigenvalues --    3.65965   3.66528   3.68896   3.73126   3.73919
 Alpha virt. eigenvalues --    3.79705   3.85728   4.08599   4.17303   4.18097
 Alpha virt. eigenvalues --    4.18248   4.21100   4.22442   4.22956   4.24700
 Alpha virt. eigenvalues --    4.25362   4.28068   4.30992   4.31600   4.36317
 Alpha virt. eigenvalues --    4.38177   4.39960   4.41545   4.43443   4.44675
 Alpha virt. eigenvalues --    4.45477   4.46830   4.49023   4.52550   4.52892
 Alpha virt. eigenvalues --    4.54196   4.55965   4.56110   4.57525   4.61082
 Alpha virt. eigenvalues --    4.61622   4.63159   4.67042   4.67859   4.69779
 Alpha virt. eigenvalues --    4.71132   4.74024   4.79121   4.80308   4.81519
 Alpha virt. eigenvalues --    4.83439   4.87840   4.88635   4.90835
          Condensed to atoms (all electrons):
 Mulliken charges:
               1
     1  O   -0.597177
     2  O   -0.537350
     3  C   -0.021437
     4  C    0.023090
     5  C   -0.184873
     6  C   -0.191732
     7  C    0.185841
     8  C    0.198616
     9  C    0.052748
    10  C    0.031487
    11  C   -0.201830
    12  C   -0.207317
    13  C    0.080493
    14  C    0.052421
    15  C   -0.271154
    16  C   -0.293396
    17  C   -0.304850
    18  C   -0.299917
    19  C   -0.108104
    20  C   -0.170193
    21  C   -0.368861
    22  C   -0.348294
    23  C   -0.128449
    24  C   -0.112313
    25  C    0.075942
    26  C    0.164034
    27  C   -0.353659
    28  C   -0.367472
    29  C   -0.093657
    30  C   -0.133385
    31  C   -0.082528
    32  C   -0.108433
    33  C   -0.117023
    34  C   -0.116946
    35  C    0.083566
    36  C    0.158227
    37  C   -0.354197
    38  C   -0.369780
    39  C   -0.119785
    40  C   -0.128831
    41  C   -0.060205
    42  C   -0.091940
    43  H    0.069024
    44  H    0.086044
    45  H    0.075650
    46  H    0.085159
    47  H    0.077563
    48  H    0.027000
    49  H    0.131092
    50  H    0.113293
    51  H    0.088540
    52  H    0.115479
    53  H    0.094003
    54  H    0.084886
    55  H    0.079861
    56  H    0.108690
    57  H    0.096873
    58  H    0.099668
    59  H    0.102155
    60  H    0.120722
    61  H    0.057533
    62  H    0.086284
    63  H    0.103623
    64  H    0.094899
    65  H    0.088808
    66  H    0.091802
    67  H    0.103077
    68  H    0.121017
    69  H    0.091941
    70  H    0.086495
    71  H    0.128065
    72  H    0.121644
    73  H    0.311676
    74  H    0.315354
    75  H    0.075668
    76  H    0.104551
    77  H    0.094599
    78  H    0.100512
    79  H    0.134286
    80  H    0.087445
    81  H    0.103718
    82  H    0.117047
    83  H    0.086270
    84  H    0.076207
    85  H    0.077947
    86  H    0.078771
    87  H    0.065588
    88  H    0.073643
    89  H    0.125983
    90  H    0.124137
    91  H    0.113610
    92  H    0.113953
    93  H    0.124633
    94  H    0.107405
    95  H    0.079801
    96  H    0.080562
    97  H    0.067192
    98  H    0.067171
 Sum of Mulliken charges =  -0.00000
 Mulliken charges with hydrogens summed into heavy atoms:
               1
     1  O   -0.285501
     2  O   -0.221996
     3  C   -0.021437
     4  C    0.023090
     5  C   -0.029805
     6  C   -0.030923
     7  C    0.263404
     8  C    0.225617
     9  C    0.052748
    10  C    0.031487
    11  C    0.042556
    12  C   -0.003298
    13  C    0.080493
    14  C    0.052421
    15  C   -0.012404
    16  C    0.011834
    17  C   -0.024439
    18  C   -0.015111
    19  C   -0.019296
    20  C   -0.078392
    21  C   -0.052826
    22  C   -0.012090
    23  C   -0.052781
    24  C   -0.007762
    25  C    0.075942
    26  C    0.164034
    27  C   -0.024261
    28  C   -0.059262
    29  C   -0.007387
    30  C   -0.057178
    31  C   -0.004580
    32  C   -0.029662
    33  C   -0.051434
    34  C   -0.043303
    35  C    0.083566
    36  C    0.158227
    37  C    0.009533
    38  C   -0.023788
    39  C   -0.039984
    40  C   -0.048270
    41  C    0.006987
    42  C   -0.024770
 Electronic spatial extent (au):  <R**2>=         111222.9294
 Charge=              0.0000 electrons
 Dipole moment (field-independent basis, Debye):
    X=              1.7798    Y=             -1.2902    Z=              1.8947  Tot=              2.9021
 Quadrupole moment (field-independent basis, Debye-Ang):
   XX=           -266.4605   YY=           -247.4900   ZZ=           -261.4202
   XY=             -1.5423   XZ=              2.8787   YZ=              1.9470
 Traceless Quadrupole moment (field-independent basis, Debye-Ang):
   XX=             -8.0036   YY=             10.9670   ZZ=             -2.9633
   XY=             -1.5423   XZ=              2.8787   YZ=              1.9470
 Octapole moment (field-independent basis, Debye-Ang**2):
  XXX=            243.3889  YYY=            -17.4937  ZZZ=              8.8211  XYY=            122.0085
  XXY=           -347.8128  XXZ=            467.6422  XZZ=            -45.6596  YZZ=              4.2780
  YYZ=              2.9917  XYZ=            -94.7215
 Hexadecapole moment (field-independent basis, Debye-Ang**3):
 XXXX=        -147799.9547 YYYY=          -4500.1359 ZZZZ=          -2033.2176 XXXY=          -1192.2441
 XXXZ=           -252.8347 YYYX=           -346.3564 YYYZ=             30.6530 ZZZX=           -208.7129
 ZZZY=             45.2055 XXYY=         -24707.7888 XXZZ=         -23920.5149 YYZZ=          -1085.2194
 XXYZ=           -292.2885 YYXZ=            133.7233 ZZXY=           -256.8206
 N-N= 3.965960976237D+03 E-N=-1.188585088711D+04  KE= 1.688752900080D+03
 1\1\GINC-PADAWAN\SP\RCAM-B3LYP TD-FC\6-31G(d,p)\C40H56O2\PADAWAN\04-Ju
 l-2019\0\\# td=(NStates=1) CAM-B3LYP/6-31G(d,p)\\TD\\0,1\O,0,14.768485
 0675,-2.0280302741,-0.5530341564\O,0,-14.5265592529,2.2947813341,0.823
 8314771\C,0,11.562109505,-0.8693675709,1.2261959806\C,0,-12.4310107331
 ,-0.8463071907,0.7115166737\C,0,13.0566143934,-1.2503180699,1.08500607
 26\C,0,-13.6953221412,0.0056844084,0.6737462706\C,0,13.3750094949,-1.7
 837639035,-0.3848433733\C,0,-13.4413464746,1.5087536734,0.6928910731\C
 ,0,10.9937479008,-0.1984240585,-0.0292471707\C,0,-11.3464117422,-0.237
 9348225,-0.2219529493\C,0,13.0058548045,-0.878388596,-1.4657574487\C,0
 ,-12.6259733573,1.8827862556,-0.4599830403\C,0,11.6017049175,-0.223222
 6954,-1.3397924952\C,0,-11.4923528253,1.0086871917,-0.7463941784\C,0,1
 1.5355042774,-0.1339425524,2.4876292039\C,0,10.7810875498,-2.228893370
 4,1.5905271727\C,0,-11.8760598,-1.0356953975,2.1235809381\C,0,-12.7927
 99982,-2.244949938,0.1271046145\C,0,9.6762524512,0.3873097679,0.166833
 3633\C,0,-10.1603874057,-1.1105051355,-0.5674654275\C,0,10.9894117062,
 0.3710115661,-2.4786520722\C,0,-10.4925316922,1.5830486889,-1.73386269
 33\C,0,9.2600159686,1.6199054284,-0.1594813221\C,0,-8.8420446895,-0.64
 73382908,-0.2553465807\C,0,7.9633223182,2.211770917,0.0254682158\C,0,-
 7.6804031823,-1.4107554086,-0.4808034123\C,0,7.9836788489,3.6684550504
 ,0.4712784938\C,0,-7.7474458506,-2.797459494,-1.0628164566\C,0,6.82623
 80308,1.4519051844,-0.0817481808\C,0,-6.4720390069,-0.8089763727,-0.35
 60486109\C,0,5.5515257046,1.8732050274,0.0924741634\C,0,-5.1011412361,
 -1.292749151,-0.6043126053\C,0,4.4208560166,1.0685122651,0.0723016012\
 C,0,-3.947010121,-0.5516813742,-0.229560286\C,0,3.0189945045,1.5253631
 342,0.2337350385\C,0,-2.6059243564,-0.9522895591,-0.2520828683\C,0,2.7
 553858196,3.0417736263,0.3848411931\C,0,-2.1875542494,-2.3867259747,-0
 .6237334133\C,0,2.0222317982,0.5832954934,0.1325041254\C,0,-1.73814513
 75,-0.0402443185,0.0108092539\C,0,0.6105682258,0.8180065686,0.25240112
 01\C,0,-0.2825471237,-0.1754096461,0.0267150315\H,0,13.9235916312,-0.3
 331967548,1.2593107691\H,0,13.3319384298,-1.9767882599,1.798690001\H,0
 ,-14.3290656836,-0.2787280298,1.5042876348\H,0,-14.2327346405,-0.20861
 77848,-0.3721388339\H,0,12.9232175238,-2.7893136745,-0.4601340784\H,0,
 -12.6041058716,1.6416686849,1.6146909421\H,0,13.8003709691,-0.12203492
 36,-1.5206379478\H,0,12.981619655,-1.5986220893,-2.3136820442\H,0,-13.
 1368092249,1.785549876,-1.5430022332\H,0,-12.3741760246,2.9062526893,-
 0.4996568487\H,0,12.1035989799,-0.7191226384,3.3315378148\H,0,10.48302
 41674,0.2419046804,2.9005189329\H,0,12.0643857086,0.9680665396,2.34926
 40614\H,0,10.8931383168,-3.0514657267,0.9537907651\H,0,11.3839193089,-
 2.4465895761,2.4594958736\H,0,9.6684328443,-2.1399749906,1.8749424372\
 H,0,-12.0692038204,-0.2943338624,3.0430281958\H,0,-10.9138958986,-1.58
 09652515,2.0247284768\H,0,-12.383959555,-2.0494158466,2.6148040764\H,0
 ,-13.8384336244,-2.5246337154,0.6931938284\H,0,-11.9406671147,-2.93582
 56106,0.250460102\H,0,-12.8899593539,-2.2217224802,-1.0292113951\H,0,8
 .9985516792,-0.1214104611,0.8798021642\H,0,-10.4816178938,-2.124356159
 6,-1.1251821512\H,0,9.8319456136,1.0002301209,-2.3233970427\H,0,11.680
 0664416,1.1507593668,-2.8486145755\H,0,10.9455887939,-0.4225827454,-3.
 3860557356\H,0,-11.2031813251,1.9239456236,-2.5272042134\H,0,-9.998065
 3455,0.8717178088,-2.254070013\H,0,-9.978359591,2.409679581,-1.4077643
 724\H,0,15.3079973527,-2.6682057257,0.1065625493\H,0,-14.9211815532,1.
 9810730213,1.7554437494\H,0,10.045400022,2.3074940533,-0.8139807131\H,
 0,-8.8076674637,0.4425263506,0.1157767647\H,0,8.9776606281,4.091769029
 8,-0.0679831013\H,0,7.0374271317,4.2439198009,0.0966554985\H,0,8.01467
 61776,3.8756704539,1.5601990379\H,0,-8.6964166717,-3.4445613852,-0.646
 360475\H,0,-8.1191176678,-2.7760066148,-2.2026265927\H,0,-6.8448933383
 ,-3.4087045226,-1.0754843404\H,0,6.9406457276,0.377311474,-0.318375229
 5\H,0,-6.5542256846,0.2440842483,-0.0485772347\H,0,5.3227616602,3.0007
 352214,0.278100065\H,0,-4.8964234623,-2.277839091,-0.7479321932\H,0,4.
 6302661256,-0.2027620303,0.0462962186\H,0,-4.0179472987,0.6020953264,0
 .0338461806\H,0,2.9148292679,3.1637504169,1.4892751285\H,0,1.818168469
 8,3.3997586468,0.2225046585\H,0,3.6189659186,3.5078486188,-0.232993795
 4\H,0,-2.3617083078,-3.1279999471,0.2781147675\H,0,-2.6263921472,-2.90
 65417743,-1.4777717442\H,0,-1.0744442434,-2.2572559007,-0.8779408301\H
 ,0,2.2633534933,-0.3895776089,-0.0497728813\H,0,-1.9408934903,0.968096
 7276,0.3342268097\H,0,0.1015659036,1.6543081367,0.5244682418\H,0,0.099
 3127013,-1.0984597961,-0.2119887829\\Version=ES64L-G16RevA.03\State=1-
 A\HF=-1706.9589437\RMSD=9.322e-09\PG=C01 [X(C40H56O2)]\\@


 THE WORLD OF CHEMICAL REACTIONS IS LIKE A STAGE,
 ON WHICH SCENE AFTER SCENE IS CEASELESSLY PLAYED.
 THE ACTORS ON IT ARE THE ELEMENTS.
   -- CLEMENS WINKLER   BER. 30,13(1897)
 (DISCOVERER OF GERMANIUM, FEB 6, 1886)
 Job cpu time:       0 days  5 hours 49 minutes 15.2 seconds.
 Elapsed time:       0 days  1 hours 27 minutes 46.5 seconds.
 File lengths (MBytes):  RWF=   3127 Int=      0 D2E=      0 Chk=     84 Scr=      1
 Normal termination of Gaussian 16 at Thu Jul  4 08:01:07 2019.
