 Entering Gaussian System, Link 0=g16
 Input=Geometria-309-.com
 Output=Geometria-309-.log
 Initial command:
 /usr/local/g16/l1.exe "/home/padawan/israel-mol/zeaxanthin/spectra/abs/Gau-28188.inp" -scrdir="/home/padawan/israel-mol/zeaxanthin/spectra/abs/"
 Entering Link 1 = /usr/local/g16/l1.exe PID=     28190.
  
 Copyright (c) 1988,1990,1992,1993,1995,1998,2003,2009,2016,
            Gaussian, Inc.  All Rights Reserved.
  
 This is part of the Gaussian(R) 16 program.  It is based on
 the Gaussian(R) 09 system (copyright 2009, Gaussian, Inc.),
 the Gaussian(R) 03 system (copyright 2003, Gaussian, Inc.),
 the Gaussian(R) 98 system (copyright 1998, Gaussian, Inc.),
 the Gaussian(R) 94 system (copyright 1995, Gaussian, Inc.),
 the Gaussian 92(TM) system (copyright 1992, Gaussian, Inc.),
 the Gaussian 90(TM) system (copyright 1990, Gaussian, Inc.),
 the Gaussian 88(TM) system (copyright 1988, Gaussian, Inc.),
 the Gaussian 86(TM) system (copyright 1986, Carnegie Mellon
 University), and the Gaussian 82(TM) system (copyright 1983,
 Carnegie Mellon University). Gaussian is a federally registered
 trademark of Gaussian, Inc.
  
 This software contains proprietary and confidential information,
 including trade secrets, belonging to Gaussian, Inc.
  
 This software is provided under written license and may be
 used, copied, transmitted, or stored only in accord with that
 written license.
  
 The following legend is applicable only to US Government
 contracts under FAR:
  
                    RESTRICTED RIGHTS LEGEND
  
 Use, reproduction and disclosure by the US Government is
 subject to restrictions as set forth in subparagraphs (a)
 and (c) of the Commercial Computer Software - Restricted
 Rights clause in FAR 52.227-19.
  
 Gaussian, Inc.
 340 Quinnipiac St., Bldg. 40, Wallingford CT 06492
  
  
 ---------------------------------------------------------------
 Warning -- This program may not be used in any manner that
 competes with the business of Gaussian, Inc. or will provide
 assistance to any competitor of Gaussian, Inc.  The licensee
 of this program is prohibited from giving any competitor of
 Gaussian, Inc. access to this program.  By using this program,
 the user acknowledges that Gaussian, Inc. is engaged in the
 business of creating and licensing software in the field of
 computational chemistry and represents and warrants to the
 licensee that it is not a competitor of Gaussian, Inc. and that
 it will not use this program in any manner prohibited above.
 ---------------------------------------------------------------
  

 Cite this work as:
 Gaussian 16, Revision A.03,
 M. J. Frisch, G. W. Trucks, H. B. Schlegel, G. E. Scuseria, 
 M. A. Robb, J. R. Cheeseman, G. Scalmani, V. Barone, 
 G. A. Petersson, H. Nakatsuji, X. Li, M. Caricato, A. V. Marenich, 
 J. Bloino, B. G. Janesko, R. Gomperts, B. Mennucci, H. P. Hratchian, 
 J. V. Ortiz, A. F. Izmaylov, J. L. Sonnenberg, D. Williams-Young, 
 F. Ding, F. Lipparini, F. Egidi, J. Goings, B. Peng, A. Petrone, 
 T. Henderson, D. Ranasinghe, V. G. Zakrzewski, J. Gao, N. Rega, 
 G. Zheng, W. Liang, M. Hada, M. Ehara, K. Toyota, R. Fukuda, 
 J. Hasegawa, M. Ishida, T. Nakajima, Y. Honda, O. Kitao, H. Nakai, 
 T. Vreven, K. Throssell, J. A. Montgomery, Jr., J. E. Peralta, 
 F. Ogliaro, M. J. Bearpark, J. J. Heyd, E. N. Brothers, K. N. Kudin, 
 V. N. Staroverov, T. A. Keith, R. Kobayashi, J. Normand, 
 K. Raghavachari, A. P. Rendell, J. C. Burant, S. S. Iyengar, 
 J. Tomasi, M. Cossi, J. M. Millam, M. Klene, C. Adamo, R. Cammi, 
 J. W. Ochterski, R. L. Martin, K. Morokuma, O. Farkas, 
 J. B. Foresman, and D. J. Fox, Gaussian, Inc., Wallingford CT, 2016.
 
 ******************************************
 Gaussian 16:  ES64L-G16RevA.03 25-Dec-2016
                 5-Jul-2019 
 ******************************************
 %nproc=4
 Will use up to    4 processors via shared memory.
 %Mem=2GB
 -------------------------------------
 # td=(NStates=1) CAM-B3LYP/6-31G(d,p)
 -------------------------------------
 1/38=1,172=1/1;
 2/12=2,17=6,18=5,40=1/2;
 3/5=1,6=6,7=101,11=9,25=1,30=1,74=-40/1,2,3,8;
 4//1;
 5/5=2,38=5/2;
 8/6=1,10=2,108=1/1;
 9/41=1,42=1,70=2/14;
 6/7=2,8=2,9=2,10=2/1;
 99/5=1,9=1/99;
 --
 TD
 --
 Symbolic Z-matrix:
 Charge =  0 Multiplicity = 1
 8                     14.89935  -2.05521  -0.39587 
 8                    -14.83787   2.00306   0.64506 
 6                     11.52918  -0.99798   1.14481 
 6                    -12.36477  -1.0137    0.73481 
 6                     13.0461  -1.34676   1.03727 
 6                    -13.68961  -0.14325   0.68672 
 6                     13.41893  -1.95828  -0.19926 
 6                    -13.60554   1.39209   0.68926 
 6                     11.00676  -0.27286  -0.04343 
 6                    -11.3908  -0.25129  -0.21274 
 6                     13.08989  -0.90457  -1.27251 
 6                    -12.72613   1.88762  -0.57936 
 6                     11.65437  -0.21092  -1.21238 
 6                    -11.48473   1.00885  -0.71818 
 6                     11.31891  -0.17411   2.44957 
 6                     10.62413  -2.36077   1.33695 
 6                    -11.70612  -0.87248   2.09722 
 6                    -12.51679  -2.3965    0.3723 
 6                     9.60097   0.3958    0.0466 
 6                    -10.10154  -1.07063  -0.36921 
 6                     11.19736   0.47739  -2.47864 
 6                    -10.58777   1.6655   -1.77456 
 6                     9.3498    1.64541  -0.15586 
 6                    -8.86075  -0.55796  -0.21272 
 6                     8.01558   2.25029   0.11377 
 6                    -7.65188  -1.33432  -0.50073 
 6                     7.961     3.59331   0.43815 
 6                    -7.81092  -2.69728  -0.92048 
 6                     6.80641   1.50701  -0.06001 
 6                    -6.49666  -0.6686   -0.3377 
 6                     5.43972   1.95183   0.08514 
 6                    -5.09069  -1.19656  -0.46697 
 6                     4.36162   1.22622  -0.1179 
 6                    -3.92859  -0.50744  -0.14633 
 6                     3.04086   1.58044   0.20077 
 6                    -2.6545   -0.88051  -0.31496 
 6                     2.90274   3.01045   0.49981 
 6                    -2.28646  -2.32868  -0.75098 
 6                     2.04557   0.67127   0.02739 
 6                    -1.66368  -0.05972   0.01631 
 6                     0.63157   0.92498   0.07166 
 6                    -0.22664  -0.10732  -0.24801 
 1                     13.81102  -0.43618   1.31487 
 1                     13.45272  -1.91695   1.95337 
 1                    -14.42629  -0.48548   1.38421 
 1                    -14.17396  -0.41082  -0.23469 
 1                     12.93373  -2.91571  -0.34545 
 1                    -13.01648   1.83192   1.42497 
 1                     13.7337  -0.11835  -0.9935 
 1                     13.29723  -1.32577  -2.36683 
 1                    -13.5045   1.89809  -1.29207 
 1                    -12.29588   2.87782  -0.48476 
 1                     11.7815  -0.74382   3.16864 
 1                     10.2691   0.1619    2.80603 
 1                     12.06245   0.79149   2.55224 
 1                     10.67412  -2.99166   0.3259 
 1                     11.30198  -3.05504   2.20532 
 1                     9.61967  -1.96393   1.56168 
 1                    -11.6962   0.12654   2.39355 
 1                    -10.80048  -1.42825   2.1745 
 1                    -12.35066  -1.46771   2.74695 
 1                    -13.57354  -2.73321   1.09282 
 1                    -11.68676  -3.00882   0.56051 
 1                    -12.58873  -2.52992  -0.77097 
 1                     8.9333   -0.17382   0.71567 
 1                    -10.25908  -2.17864  -0.74293 
 1                     10.15684   0.66697  -2.66301 
 1                     11.78945   1.35289  -2.77137 
 1                     11.1911  -0.16856  -3.41274 
 1                    -11.30659   1.98333  -2.61724 
 1                    -9.73486   0.90332  -1.90523 
 1                    -10.12823   2.69772  -1.27615 
 1                     15.26186  -2.87972   0.10225 
 1                    -15.3421   1.54148   1.36015 
 1                     10.04203   2.3514   -0.52233 
 1                    -8.76224   0.40307   0.27082 
 1                     8.58314   4.27226  -0.24441 
 1                     6.90645   4.02758   0.77283 
 1                     8.14126   3.77819   1.56265 
 1                    -8.37135  -3.15937   0.00903 
 1                    -8.51497  -2.44981  -1.81621 
 1                    -6.93813  -3.26078  -1.36245 
 1                     6.80746   0.49992  -0.61895 
 1                    -6.45916   0.41504  -0.14717 
 1                     5.40212   3.08109   0.60243 
 1                    -4.85199  -2.31962  -0.91751 
 1                     4.5037    0.12144  -0.41876 
 1                    -4.11364   0.50452   0.30483 
 1                     3.56041   3.17625   1.40847 
 1                     1.76625   3.326     0.65762 
 1                     3.33537   3.50106  -0.17544 
 1                    -2.6531   -3.05932  -0.03771 
 1                    -2.71662  -2.57268  -1.82543 
 1                    -1.3874   -2.6425   -0.99357 
 1                     2.37053  -0.38686  -0.35819 
 1                    -2.17719   0.99803   0.37501 
 1                     0.22298   1.82377   0.36542 
 1                     0.14215  -1.09286  -0.48116 
 
 Stoichiometry    C40H56O2
 Framework group  C1[X(C40H56O2)]
 Deg. of freedom   288
 Full point group                 C1      NOp   1
 Largest Abelian subgroup         C1      NOp   1
 Largest concise Abelian subgroup C1      NOp   1
                         Standard orientation:                         
 ---------------------------------------------------------------------
 Center     Atomic      Atomic             Coordinates (Angstroms)
 Number     Number       Type             X           Y           Z
 ---------------------------------------------------------------------
      1          8           0       14.901252   -2.044127   -0.395660
      2          8           0      -14.839051    1.991754    0.644231
      3          6           0       11.530379   -0.988206    1.144383
      4          6           0      -12.363585   -1.022996    0.736372
      5          6           0       13.047570   -1.335888    1.037022
      6          6           0      -13.689108   -0.153622    0.687640
      7          6           0       13.420778   -1.948185   -0.199018
      8          6           0      -13.606241    1.381788    0.688853
      9          6           0       11.007297   -0.264521   -0.044435
     10          6           0      -11.390282   -0.260632   -0.211916
     11          6           0       13.090824   -0.895658   -1.273142
     12          6           0      -12.727324    1.876907   -0.580272
     13          6           0       11.654764   -0.203082   -1.213493
     14          6           0      -11.485246    0.998991   -0.718434
     15          6           0       11.319577   -0.163373    2.448447
     16          6           0       10.626418   -2.351534    1.337776
     17          6           0      -11.704933   -0.880081    2.098605
     18          6           0      -12.514550   -2.406217    0.375067
     19          6           0        9.600997    0.403117    0.045135
     20          6           0      -10.100399   -1.079102   -0.367780
     21          6           0       11.197113    0.483782   -2.480310
     22          6           0      -10.588887    1.655432   -1.775449
     23          6           0        9.348832    1.652353   -0.158384
     24          6           0       -8.859993   -0.565324   -0.211841
     25          6           0        8.014153    2.256426    0.110833
     26          6           0       -7.650543   -1.340983   -0.499275
     27          6           0        7.958547    3.599675    0.434058
     28          6           0       -7.808552   -2.704431   -0.917844
     29          6           0        6.805550    1.512046   -0.062200
     30          6           0       -6.495832   -0.674223   -0.336916
     31          6           0        5.438532    1.955923    0.082679
     32          6           0       -5.089459   -1.201190   -0.465849
     33          6           0        4.360980    1.229289   -0.119647
     34          6           0       -3.927870   -0.510882   -0.145902
     35          6           0        3.039965    1.582750    0.198826
     36          6           0       -2.653503   -0.883104   -0.314313
     37          6           0        2.900754    3.012910    0.496646
     38          6           0       -2.284370   -2.331359   -0.749112
     39          6           0        2.045381    0.672657    0.026314
     40          6           0       -1.663298   -0.061247    0.016167
     41          6           0        0.631183    0.925291    0.070481
     42          6           0       -0.226247   -0.107956   -0.248233
     43          1           0       13.811797   -0.424469    1.313768
     44          1           0       13.454709   -1.904974    1.953573
     45          1           0      -14.425456   -0.495825    1.385484
     46          1           0      -14.173321   -0.422363   -0.233492
     47          1           0       12.936311   -2.906115   -0.344340
     48          1           0      -13.017460    1.822709    1.424136
     49          1           0       13.734042   -0.108698   -0.994860
     50          1           0       13.298403   -1.317643   -2.367115
     51          1           0      -13.505753    1.886158   -1.292919
     52          1           0      -12.297837    2.867528   -0.486552
     53          1           0       11.782667   -0.732099    3.167976
     54          1           0       10.269534    0.172115    2.804708
     55          1           0       12.062362    0.802893    2.550232
     56          1           0       10.676814   -2.983260    0.327262
     57          1           0       11.304882   -3.044528    2.206687
     58          1           0        9.621662   -1.955288    1.562246
     59          1           0      -11.695765    0.119199    2.394078
     60          1           0      -10.798853   -1.435075    2.176294
     61          1           0      -12.348947   -1.475253    2.748900
     62          1           0      -13.570972   -2.743143    1.095969
     63          1           0      -11.684024   -3.017732    0.563738
     64          1           0      -12.586476   -2.540687   -0.768076
     65          1           0        8.933818   -0.166445    0.714745
     66          1           0      -10.257096   -2.187557   -0.740540
     67          1           0       10.156425    0.672383   -2.664756
     68          1           0       11.788488    1.359490   -2.773838
     69          1           0       11.191283   -0.162977   -3.413849
     70          1           0      -11.308025    1.971977   -2.618350
     71          1           0       -9.735389    0.893812   -1.905531
     72          1           0      -10.130118    2.688442   -1.277971
     73          1           0       15.264453   -2.867917    0.103141
     74          1           0      -15.342864    1.530393    1.359761
     75          1           0       10.040473    2.358569   -0.525520
     76          1           0       -8.762203    0.396201    0.270867
     77          1           0        8.580103    4.278523   -0.249135
     78          1           0        6.903692    4.033408    0.768458
     79          1           0        8.138756    3.785669    1.558387
     80          1           0       -8.368545   -3.166161    0.012108
     81          1           0       -8.512864   -2.458289   -1.813724
     82          1           0       -6.935357   -3.267628   -1.359401
     83          1           0        6.807349    0.504479   -0.620271
     84          1           0       -6.459160    0.409613   -0.147323
     85          1           0        5.400085    3.085599    0.598998
     86          1           0       -4.849915   -2.324455   -0.915441
     87          1           0        4.503904    0.124364   -0.419569
     88          1           0       -4.113675    0.501314    0.304406
     89          1           0        3.558372    3.180010    1.405102
     90          1           0        1.764033    3.327707    0.654273
     91          1           0        3.332941    3.503274   -0.179064
     92          1           0       -2.650372   -3.061674   -0.035183
     93          1           0       -2.714424   -2.576620   -1.823316
     94          1           0       -1.385076   -2.644688   -0.991512
     95          1           0        2.371138   -0.385552   -0.358388
     96          1           0       -2.177606    0.996405    0.373998
     97          1           0        0.221911    1.824011    0.363500
     98          1           0        0.143295   -1.093404   -0.480557
 ---------------------------------------------------------------------
 Rotational constants (GHZ):           0.2506005           0.0092434           0.0090840
 Standard basis: 6-31G(d,p) (6D, 7F)
 There are   910 symmetry adapted cartesian basis functions of A   symmetry.
 There are   910 symmetry adapted basis functions of A   symmetry.
   910 basis functions,  1568 primitive gaussians,   910 cartesian basis functions
   156 alpha electrons      156 beta electrons
       nuclear repulsion energy      3970.8233283811 Hartrees.
 NAtoms=   98 NActive=   98 NUniq=   98 SFac= 1.00D+00 NAtFMM=   60 NAOKFM=T Big=T
 Integral buffers will be    131072 words long.
 Raffenetti 1 integral format.
 Two-electron integral symmetry is turned on.
 One-electron integrals computed using PRISM.
 NBasis=   910 RedAO= T EigKep=  8.74D-04  NBF=   910
 NBsUse=   910 1.00D-06 EigRej= -1.00D+00 NBFU=   910
 ExpMin= 1.61D-01 ExpMax= 5.48D+03 ExpMxC= 8.25D+02 IAcc=3 IRadAn=         5 AccDes= 0.00D+00
 Harris functional with IExCor=20419 and IRadAn=       5 diagonalized for initial guess.
 HarFok:  IExCor=20419 AccDes= 0.00D+00 IRadAn=         5 IDoV= 1 UseB2=F ITyADJ=14
 ICtDFT=  3500011 ScaDFX=  1.000000  1.000000  1.000000  1.000000
 FoFCou: FMM=F IPFlag=           0 FMFlag=      100000 FMFlg1=        2001
         NFxFlg=           0 DoJE=T BraDBF=F KetDBF=T FulRan=T
         wScrn=  0.000000 ICntrl=       500 IOpCl=  0 I1Cent=   200000004 NGrid=           0
         NMat0=    1 NMatS0=      1 NMatT0=    0 NMatD0=    1 NMtDS0=    0 NMtDT0=    0
 Petite list used in FoFCou.
 Requested convergence on RMS density matrix=1.00D-08 within 128 cycles.
 Requested convergence on MAX density matrix=1.00D-06.
 Requested convergence on             energy=1.00D-06.
 No special actions if energy rises.
 Integral accuracy reduced to 1.0D-05 until final iterations.
 Initial convergence to 1.0D-05 achieved.  Increase integral accuracy.
 SCF Done:  E(RCAM-B3LYP) =  -1706.92221741     A.U. after   14 cycles
            NFock= 14  Conv=0.41D-08     -V/T= 2.0102
 DoSCS=F DFT=T ScalE2(SS,OS)=  1.000000  1.000000
 ExpMin= 1.61D-01 ExpMax= 5.48D+03 ExpMxC= 8.25D+02 IAcc=3 IRadAn=         5 AccDes= 0.00D+00
 HarFok:  IExCor=  205 AccDes= 0.00D+00 IRadAn=         5 IDoV=-2 UseB2=F ITyADJ=14
 ICtDFT= 12500011 ScaDFX=  1.000000  1.000000  1.000000  1.000000
 GSVD:  LWork=       -2100 too small for GESVD, short by        9450 words or        9450 for optimal perf.
 Range of M.O.s used for correlation:    43   910
 NBasis=   910 NAE=   156 NBE=   156 NFC=    42 NFV=     0
 NROrb=    868 NOA=   114 NOB=   114 NVA=   754 NVB=   754
 Orbital symmetries:
       Occupied  (A) (A) (A) (A) (A) (A) (A) (A) (A) (A) (A) (A)
                 (A) (A) (A) (A) (A) (A) (A) (A) (A) (A) (A) (A)
                 (A) (A) (A) (A) (A) (A) (A) (A) (A) (A) (A) (A)
                 (A) (A) (A) (A) (A) (A) (A) (A) (A) (A) (A) (A)
                 (A) (A) (A) (A) (A) (A) (A) (A) (A) (A) (A) (A)
                 (A) (A) (A) (A) (A) (A) (A) (A) (A) (A) (A) (A)
                 (A) (A) (A) (A) (A) (A) (A) (A) (A) (A) (A) (A)
                 (A) (A) (A) (A) (A) (A) (A) (A) (A) (A) (A) (A)
                 (A) (A) (A) (A) (A) (A) (A) (A) (A) (A) (A) (A)
                 (A) (A) (A) (A) (A) (A) (A) (A) (A) (A) (A) (A)
                 (A) (A) (A) (A) (A) (A) (A) (A) (A) (A) (A) (A)
                 (A) (A) (A) (A) (A) (A) (A) (A) (A) (A) (A) (A)
                 (A) (A) (A) (A) (A) (A) (A) (A) (A) (A) (A) (A)
       Virtual   (A) (A) (A) (A) (A) (A) (A) (A) (A) (A) (A) (A)
                 (A) (A) (A) (A) (A) (A) (A) (A) (A) (A) (A) (A)
                 (A) (A) (A) (A) (A) (A) (A) (A) (A) (A) (A) (A)
                 (A) (A) (A) (A) (A) (A) (A) (A) (A) (A) (A) (A)
                 (A) (A) (A) (A) (A) (A) (A) (A) (A) (A) (A) (A)
                 (A) (A) (A) (A) (A) (A) (A) (A) (A) (A) (A) (A)
                 (A) (A) (A) (A) (A) (A) (A) (A) (A) (A) (A) (A)
                 (A) (A) (A) (A) (A) (A) (A) (A) (A) (A) (A) (A)
                 (A) (A) (A) (A) (A) (A) (A) (A) (A) (A) (A) (A)
                 (A) (A) (A) (A) (A) (A) (A) (A) (A) (A) (A) (A)
                 (A) (A) (A) (A) (A) (A) (A) (A) (A) (A) (A) (A)
                 (A) (A) (A) (A) (A) (A) (A) (A) (A) (A) (A) (A)
                 (A) (A) (A) (A) (A) (A) (A) (A) (A) (A) (A) (A)
                 (A) (A) (A) (A) (A) (A) (A) (A) (A) (A) (A) (A)
                 (A) (A) (A) (A) (A) (A) (A) (A) (A) (A) (A) (A)
                 (A) (A) (A) (A) (A) (A) (A) (A) (A) (A) (A) (A)
                 (A) (A) (A) (A) (A) (A) (A) (A) (A) (A) (A) (A)
                 (A) (A) (A) (A) (A) (A) (A) (A) (A) (A) (A) (A)
                 (A) (A) (A) (A) (A) (A) (A) (A) (A) (A) (A) (A)
                 (A) (A) (A) (A) (A) (A) (A) (A) (A) (A) (A) (A)
                 (A) (A) (A) (A) (A) (A) (A) (A) (A) (A) (A) (A)
                 (A) (A) (A) (A) (A) (A) (A) (A) (A) (A) (A) (A)
                 (A) (A) (A) (A) (A) (A) (A) (A) (A) (A) (A) (A)
                 (A) (A) (A) (A) (A) (A) (A) (A) (A) (A) (A) (A)
                 (A) (A) (A) (A) (A) (A) (A) (A) (A) (A) (A) (A)
                 (A) (A) (A) (A) (A) (A) (A) (A) (A) (A) (A) (A)
                 (A) (A) (A) (A) (A) (A) (A) (A) (A) (A) (A) (A)
                 (A) (A) (A) (A) (A) (A) (A) (A) (A) (A) (A) (A)
                 (A) (A) (A) (A) (A) (A) (A) (A) (A) (A) (A) (A)
                 (A) (A) (A) (A) (A) (A) (A) (A) (A) (A) (A) (A)
                 (A) (A) (A) (A) (A) (A) (A) (A) (A) (A) (A) (A)
                 (A) (A) (A) (A) (A) (A) (A) (A) (A) (A) (A) (A)
                 (A) (A) (A) (A) (A) (A) (A) (A) (A) (A) (A) (A)
                 (A) (A) (A) (A) (A) (A) (A) (A) (A) (A) (A) (A)
                 (A) (A) (A) (A) (A) (A) (A) (A) (A) (A) (A) (A)
                 (A) (A) (A) (A) (A) (A) (A) (A) (A) (A) (A) (A)
                 (A) (A) (A) (A) (A) (A) (A) (A) (A) (A) (A) (A)
                 (A) (A) (A) (A) (A) (A) (A) (A) (A) (A) (A) (A)
                 (A) (A) (A) (A) (A) (A) (A) (A) (A) (A) (A) (A)
                 (A) (A) (A) (A) (A) (A) (A) (A) (A) (A) (A) (A)
                 (A) (A) (A) (A) (A) (A) (A) (A) (A) (A) (A) (A)
                 (A) (A) (A) (A) (A) (A) (A) (A) (A) (A) (A) (A)
                 (A) (A) (A) (A) (A) (A) (A) (A) (A) (A) (A) (A)
                 (A) (A) (A) (A) (A) (A) (A) (A) (A) (A) (A) (A)
                 (A) (A) (A) (A) (A) (A) (A) (A) (A) (A) (A) (A)
                 (A) (A) (A) (A) (A) (A) (A) (A) (A) (A) (A) (A)
                 (A) (A) (A) (A) (A) (A) (A) (A) (A) (A) (A) (A)
                 (A) (A) (A) (A) (A) (A) (A) (A) (A) (A) (A) (A)
                 (A) (A) (A) (A) (A) (A) (A) (A) (A) (A) (A) (A)
                 (A) (A) (A) (A) (A) (A) (A) (A) (A) (A) (A) (A)
                 (A) (A) (A) (A) (A) (A) (A) (A) (A) (A) (A) (A)
                 (A) (A) (A) (A) (A) (A) (A) (A) (A) (A) (A) (A)
                 (A) (A) (A) (A) (A) (A) (A) (A) (A) (A) (A) (A)
                 (A) (A) (A) (A) (A) (A) (A) (A) (A) (A) (A) (A)
                 (A) (A) (A) (A) (A) (A) (A) (A) (A) (A) (A) (A)
                 (A) (A) (A) (A) (A) (A) (A) (A) (A) (A) (A) (A)
                 (A) (A) (A) (A) (A) (A) (A) (A) (A) (A) (A) (A)
                 (A) (A) (A) (A) (A) (A) (A) (A) (A) (A) (A) (A)
                 (A) (A) (A) (A) (A) (A) (A) (A) (A) (A) (A) (A)
                 (A) (A) (A) (A) (A) (A) (A) (A) (A) (A) (A) (A)
                 (A) (A) (A) (A) (A) (A) (A) (A) (A) (A) (A) (A)
                 (A) (A) (A) (A) (A) (A) (A) (A) (A) (A) (A) (A)
                 (A) (A) (A) (A) (A) (A) (A) (A) (A) (A)
     4 initial guesses have been made.
 Convergence on wavefunction:    0.001000000000000
 Iteration     1 Dimension     4 NMult     0 NNew      4
 CISAX will form     4 AO SS matrices at one time.
 Iteration     2 Dimension     6 NMult     4 NNew      2
 Iteration     3 Dimension     8 NMult     6 NNew      2
 Iteration     4 Dimension    10 NMult     8 NNew      2
 Iteration     5 Dimension    12 NMult    10 NNew      2
 Iteration     6 Dimension    14 NMult    12 NNew      2
 ***********************************************************************
 Excited states from <AA,BB:AA,BB> singles matrix:
 ***********************************************************************
 
 Ground to excited state transition densities written to RWF  633
 Ground to excited state transition electric dipole moments (Au):
       state          X           Y           Z        Dip. S.      Osc.
         1         7.3485      1.3826      0.3603     56.0412      3.6956
 Ground to excited state transition velocity dipole moments (Au):
       state          X           Y           Z        Dip. S.      Osc.
         1        -0.7005     -0.1298     -0.0361      0.5088      3.4293
 Ground to excited state transition magnetic dipole moments (Au):
       state          X           Y           Z
         1        -0.0533      0.1046      0.5628
 Ground to excited state transition velocity quadrupole moments (Au):
       state          XX          YY          ZZ          XY          XZ          YZ
         1         0.0489     -0.2324     -0.0328     -0.2305      0.2140     -0.0256
 <0|del|b> * <b|rxdel|0> + <0|del|b> * <b|delr+rdel|0>
 Rotatory Strengths (R) in cgs (10**-40 erg-esu-cm/Gauss)
       state          XX          YY          ZZ    R(velocity)    E-M Angle
         1         7.8331     95.3188    -78.4392      8.2376       89.52
 1/2[<0|r|b>*<b|rxdel|0> + (<0|rxdel|b>*<b|r|0>)*]
 Rotatory Strengths (R) in cgs (10**-40 erg-esu-cm/Gauss)
       state          XX          YY          ZZ     R(length)
         1       277.1654   -102.2686   -143.3745     10.5074
  1/2[<0|del|b>*<b|r|0> + (<0|r|b>*<b|del|0>)*] (Au)
       state          X           Y           Z        Dip. S.   Osc.(frdel)
         1        -5.1475     -0.1794     -0.0130      5.3399      3.5599

 Excitation energies and oscillator strengths:
 
 Excited State   1:      Singlet-A      2.6917 eV  460.62 nm  f=3.6956  <S**2>=0.000
     155 ->158        -0.16820
     156 ->157         0.68341
 This state for optimization and/or second-order correction.
 Total Energy, E(TD-HF/TD-DFT) =  -1706.82329962    
 Copying the excited state density for this state as the 1-particle RhoCI density.
 SavETr:  write IOETrn=   770 NScale= 10 NData=  16 NLR=1 NState=    1 LETran=      28.

 **********************************************************************

            Population analysis using the SCF density.

 **********************************************************************

 Orbital symmetries:
       Occupied  (A) (A) (A) (A) (A) (A) (A) (A) (A) (A) (A) (A)
                 (A) (A) (A) (A) (A) (A) (A) (A) (A) (A) (A) (A)
                 (A) (A) (A) (A) (A) (A) (A) (A) (A) (A) (A) (A)
                 (A) (A) (A) (A) (A) (A) (A) (A) (A) (A) (A) (A)
                 (A) (A) (A) (A) (A) (A) (A) (A) (A) (A) (A) (A)
                 (A) (A) (A) (A) (A) (A) (A) (A) (A) (A) (A) (A)
                 (A) (A) (A) (A) (A) (A) (A) (A) (A) (A) (A) (A)
                 (A) (A) (A) (A) (A) (A) (A) (A) (A) (A) (A) (A)
                 (A) (A) (A) (A) (A) (A) (A) (A) (A) (A) (A) (A)
                 (A) (A) (A) (A) (A) (A) (A) (A) (A) (A) (A) (A)
                 (A) (A) (A) (A) (A) (A) (A) (A) (A) (A) (A) (A)
                 (A) (A) (A) (A) (A) (A) (A) (A) (A) (A) (A) (A)
                 (A) (A) (A) (A) (A) (A) (A) (A) (A) (A) (A) (A)
       Virtual   (A) (A) (A) (A) (A) (A) (A) (A) (A) (A) (A) (A)
                 (A) (A) (A) (A) (A) (A) (A) (A) (A) (A) (A) (A)
                 (A) (A) (A) (A) (A) (A) (A) (A) (A) (A) (A) (A)
                 (A) (A) (A) (A) (A) (A) (A) (A) (A) (A) (A) (A)
                 (A) (A) (A) (A) (A) (A) (A) (A) (A) (A) (A) (A)
                 (A) (A) (A) (A) (A) (A) (A) (A) (A) (A) (A) (A)
                 (A) (A) (A) (A) (A) (A) (A) (A) (A) (A) (A) (A)
                 (A) (A) (A) (A) (A) (A) (A) (A) (A) (A) (A) (A)
                 (A) (A) (A) (A) (A) (A) (A) (A) (A) (A) (A) (A)
                 (A) (A) (A) (A) (A) (A) (A) (A) (A) (A) (A) (A)
                 (A) (A) (A) (A) (A) (A) (A) (A) (A) (A) (A) (A)
                 (A) (A) (A) (A) (A) (A) (A) (A) (A) (A) (A) (A)
                 (A) (A) (A) (A) (A) (A) (A) (A) (A) (A) (A) (A)
                 (A) (A) (A) (A) (A) (A) (A) (A) (A) (A) (A) (A)
                 (A) (A) (A) (A) (A) (A) (A) (A) (A) (A) (A) (A)
                 (A) (A) (A) (A) (A) (A) (A) (A) (A) (A) (A) (A)
                 (A) (A) (A) (A) (A) (A) (A) (A) (A) (A) (A) (A)
                 (A) (A) (A) (A) (A) (A) (A) (A) (A) (A) (A) (A)
                 (A) (A) (A) (A) (A) (A) (A) (A) (A) (A) (A) (A)
                 (A) (A) (A) (A) (A) (A) (A) (A) (A) (A) (A) (A)
                 (A) (A) (A) (A) (A) (A) (A) (A) (A) (A) (A) (A)
                 (A) (A) (A) (A) (A) (A) (A) (A) (A) (A) (A) (A)
                 (A) (A) (A) (A) (A) (A) (A) (A) (A) (A) (A) (A)
                 (A) (A) (A) (A) (A) (A) (A) (A) (A) (A) (A) (A)
                 (A) (A) (A) (A) (A) (A) (A) (A) (A) (A) (A) (A)
                 (A) (A) (A) (A) (A) (A) (A) (A) (A) (A) (A) (A)
                 (A) (A) (A) (A) (A) (A) (A) (A) (A) (A) (A) (A)
                 (A) (A) (A) (A) (A) (A) (A) (A) (A) (A) (A) (A)
                 (A) (A) (A) (A) (A) (A) (A) (A) (A) (A) (A) (A)
                 (A) (A) (A) (A) (A) (A) (A) (A) (A) (A) (A) (A)
                 (A) (A) (A) (A) (A) (A) (A) (A) (A) (A) (A) (A)
                 (A) (A) (A) (A) (A) (A) (A) (A) (A) (A) (A) (A)
                 (A) (A) (A) (A) (A) (A) (A) (A) (A) (A) (A) (A)
                 (A) (A) (A) (A) (A) (A) (A) (A) (A) (A) (A) (A)
                 (A) (A) (A) (A) (A) (A) (A) (A) (A) (A) (A) (A)
                 (A) (A) (A) (A) (A) (A) (A) (A) (A) (A) (A) (A)
                 (A) (A) (A) (A) (A) (A) (A) (A) (A) (A) (A) (A)
                 (A) (A) (A) (A) (A) (A) (A) (A) (A) (A) (A) (A)
                 (A) (A) (A) (A) (A) (A) (A) (A) (A) (A) (A) (A)
                 (A) (A) (A) (A) (A) (A) (A) (A) (A) (A) (A) (A)
                 (A) (A) (A) (A) (A) (A) (A) (A) (A) (A) (A) (A)
                 (A) (A) (A) (A) (A) (A) (A) (A) (A) (A) (A) (A)
                 (A) (A) (A) (A) (A) (A) (A) (A) (A) (A) (A) (A)
                 (A) (A) (A) (A) (A) (A) (A) (A) (A) (A) (A) (A)
                 (A) (A) (A) (A) (A) (A) (A) (A) (A) (A) (A) (A)
                 (A) (A) (A) (A) (A) (A) (A) (A) (A) (A) (A) (A)
                 (A) (A) (A) (A) (A) (A) (A) (A) (A) (A) (A) (A)
                 (A) (A) (A) (A) (A) (A) (A) (A) (A) (A) (A) (A)
                 (A) (A) (A) (A) (A) (A) (A) (A) (A) (A) (A) (A)
                 (A) (A) (A) (A) (A) (A) (A) (A) (A) (A) (A) (A)
                 (A) (A) (A) (A) (A) (A) (A) (A) (A) (A) (A) (A)
                 (A) (A) (A) (A) (A) (A) (A) (A) (A) (A) (A) (A)
                 (A) (A) (A) (A) (A) (A) (A) (A) (A) (A) (A) (A)
                 (A) (A) (A) (A) (A) (A) (A) (A) (A) (A) (A) (A)
                 (A) (A) (A) (A) (A) (A) (A) (A) (A) (A) (A) (A)
                 (A) (A) (A) (A) (A) (A) (A) (A) (A) (A) (A) (A)
                 (A) (A) (A) (A) (A) (A) (A) (A) (A) (A) (A) (A)
                 (A) (A) (A) (A) (A) (A) (A) (A) (A) (A) (A) (A)
                 (A) (A) (A) (A) (A) (A) (A) (A) (A) (A) (A) (A)
                 (A) (A) (A) (A) (A) (A) (A) (A) (A) (A) (A) (A)
                 (A) (A) (A) (A) (A) (A) (A) (A) (A) (A) (A) (A)
                 (A) (A) (A) (A) (A) (A) (A) (A) (A) (A) (A) (A)
                 (A) (A) (A) (A) (A) (A) (A) (A) (A) (A)
 The electronic state is 1-A.
 Alpha  occ. eigenvalues --  -19.21779 -19.21556 -10.30445 -10.29670 -10.28822
 Alpha  occ. eigenvalues --  -10.28690 -10.27699 -10.27517 -10.27240 -10.27069
 Alpha  occ. eigenvalues --  -10.26959 -10.26920 -10.26852 -10.26847 -10.26824
 Alpha  occ. eigenvalues --  -10.26752 -10.26704 -10.26649 -10.26639 -10.26610
 Alpha  occ. eigenvalues --  -10.26604 -10.26602 -10.26481 -10.26378 -10.26295
 Alpha  occ. eigenvalues --  -10.26281 -10.26268 -10.26215 -10.25910 -10.25903
 Alpha  occ. eigenvalues --  -10.25782 -10.25765 -10.25708 -10.25654 -10.25493
 Alpha  occ. eigenvalues --  -10.25452 -10.25179 -10.25038 -10.24998 -10.24796
 Alpha  occ. eigenvalues --  -10.24351 -10.23265  -1.10927  -1.06390  -0.93472
 Alpha  occ. eigenvalues --   -0.93288  -0.92766  -0.92141  -0.91241  -0.90828
 Alpha  occ. eigenvalues --   -0.87382  -0.87107  -0.85863  -0.84981  -0.84179
 Alpha  occ. eigenvalues --   -0.83168  -0.81798  -0.81215  -0.79587  -0.78362
 Alpha  occ. eigenvalues --   -0.77346  -0.76843  -0.76464  -0.76001  -0.75628
 Alpha  occ. eigenvalues --   -0.74646  -0.74584  -0.73989  -0.73617  -0.70152
 Alpha  occ. eigenvalues --   -0.68411  -0.67194  -0.65505  -0.64656  -0.64328
 Alpha  occ. eigenvalues --   -0.63456  -0.62769  -0.61706  -0.59685  -0.59122
 Alpha  occ. eigenvalues --   -0.58719  -0.58535  -0.58099  -0.57736  -0.56008
 Alpha  occ. eigenvalues --   -0.55548  -0.55351  -0.54389  -0.54185  -0.53434
 Alpha  occ. eigenvalues --   -0.52666  -0.52519  -0.52005  -0.51730  -0.51294
 Alpha  occ. eigenvalues --   -0.50531  -0.50182  -0.50076  -0.50017  -0.49617
 Alpha  occ. eigenvalues --   -0.49153  -0.48941  -0.48681  -0.48411  -0.48126
 Alpha  occ. eigenvalues --   -0.48002  -0.47450  -0.47343  -0.46806  -0.46708
 Alpha  occ. eigenvalues --   -0.45735  -0.45570  -0.45293  -0.44991  -0.44882
 Alpha  occ. eigenvalues --   -0.44452  -0.44089  -0.43400  -0.43181  -0.43113
 Alpha  occ. eigenvalues --   -0.43025  -0.42601  -0.42454  -0.41728  -0.41454
 Alpha  occ. eigenvalues --   -0.41325  -0.41160  -0.40843  -0.40522  -0.40457
 Alpha  occ. eigenvalues --   -0.40182  -0.40097  -0.39566  -0.39363  -0.38923
 Alpha  occ. eigenvalues --   -0.38688  -0.38384  -0.38291  -0.38153  -0.37769
 Alpha  occ. eigenvalues --   -0.37268  -0.36792  -0.35916  -0.35753  -0.35385
 Alpha  occ. eigenvalues --   -0.35172  -0.34158  -0.33764  -0.33129  -0.32161
 Alpha  occ. eigenvalues --   -0.31292  -0.29455  -0.27987  -0.26845  -0.24092
 Alpha  occ. eigenvalues --   -0.20489
 Alpha virt. eigenvalues --   -0.04292  -0.00054   0.03415   0.06285   0.08007
 Alpha virt. eigenvalues --    0.09310   0.10397   0.10640   0.11080   0.11257
 Alpha virt. eigenvalues --    0.11876   0.12367   0.12567   0.13092   0.13646
 Alpha virt. eigenvalues --    0.14006   0.14408   0.14469   0.14697   0.14955
 Alpha virt. eigenvalues --    0.15210   0.15343   0.15574   0.15791   0.16374
 Alpha virt. eigenvalues --    0.16562   0.16753   0.17173   0.17310   0.17459
 Alpha virt. eigenvalues --    0.17859   0.18094   0.18292   0.18636   0.18944
 Alpha virt. eigenvalues --    0.19280   0.19423   0.19575   0.20005   0.20347
 Alpha virt. eigenvalues --    0.21045   0.21185   0.21749   0.21776   0.22126
 Alpha virt. eigenvalues --    0.22389   0.22438   0.23128   0.23356   0.23505
 Alpha virt. eigenvalues --    0.23585   0.24017   0.24112   0.24349   0.24474
 Alpha virt. eigenvalues --    0.24933   0.25172   0.25270   0.25343   0.25566
 Alpha virt. eigenvalues --    0.25611   0.25790   0.26027   0.26457   0.26807
 Alpha virt. eigenvalues --    0.27151   0.27355   0.27626   0.27676   0.28383
 Alpha virt. eigenvalues --    0.28775   0.29525   0.29631   0.30360   0.30925
 Alpha virt. eigenvalues --    0.31283   0.31586   0.31809   0.32151   0.32348
 Alpha virt. eigenvalues --    0.32485   0.33105   0.33336   0.33892   0.34708
 Alpha virt. eigenvalues --    0.34849   0.35215   0.36489   0.36958   0.37393
 Alpha virt. eigenvalues --    0.38304   0.38925   0.39610   0.41136   0.41975
 Alpha virt. eigenvalues --    0.42611   0.43580   0.44053   0.44797   0.46256
 Alpha virt. eigenvalues --    0.46844   0.47498   0.48059   0.48549   0.49425
 Alpha virt. eigenvalues --    0.50251   0.50957   0.52280   0.53340   0.54013
 Alpha virt. eigenvalues --    0.54185   0.55312   0.56054   0.56231   0.56543
 Alpha virt. eigenvalues --    0.57100   0.57436   0.57689   0.58078   0.58257
 Alpha virt. eigenvalues --    0.58379   0.59447   0.59705   0.59861   0.60007
 Alpha virt. eigenvalues --    0.60094   0.61129   0.61359   0.61742   0.62067
 Alpha virt. eigenvalues --    0.62441   0.62706   0.62865   0.63061   0.63252
 Alpha virt. eigenvalues --    0.63837   0.64136   0.64520   0.64940   0.65016
 Alpha virt. eigenvalues --    0.65591   0.65688   0.66083   0.66429   0.66648
 Alpha virt. eigenvalues --    0.66934   0.67489   0.67942   0.68167   0.68314
 Alpha virt. eigenvalues --    0.68386   0.68590   0.69037   0.69402   0.70277
 Alpha virt. eigenvalues --    0.70896   0.71243   0.71372   0.71798   0.72049
 Alpha virt. eigenvalues --    0.72129   0.72501   0.72700   0.73071   0.73347
 Alpha virt. eigenvalues --    0.73864   0.74371   0.74965   0.75574   0.75732
 Alpha virt. eigenvalues --    0.76263   0.76557   0.76805   0.77231   0.77311
 Alpha virt. eigenvalues --    0.77634   0.78185   0.78386   0.78485   0.79373
 Alpha virt. eigenvalues --    0.79511   0.79737   0.80352   0.80491   0.81364
 Alpha virt. eigenvalues --    0.81659   0.81850   0.82473   0.83072   0.83099
 Alpha virt. eigenvalues --    0.83671   0.83781   0.83850   0.84239   0.84499
 Alpha virt. eigenvalues --    0.84872   0.85162   0.85438   0.85486   0.85916
 Alpha virt. eigenvalues --    0.86238   0.86277   0.86365   0.87042   0.87132
 Alpha virt. eigenvalues --    0.87396   0.87715   0.87959   0.88328   0.88488
 Alpha virt. eigenvalues --    0.88696   0.89049   0.89812   0.89946   0.90152
 Alpha virt. eigenvalues --    0.90644   0.90784   0.91017   0.91372   0.91580
 Alpha virt. eigenvalues --    0.91693   0.92244   0.92372   0.92409   0.92810
 Alpha virt. eigenvalues --    0.92897   0.93626   0.93642   0.94053   0.94224
 Alpha virt. eigenvalues --    0.94486   0.94770   0.94851   0.94997   0.95373
 Alpha virt. eigenvalues --    0.96098   0.96261   0.96843   0.96940   0.97145
 Alpha virt. eigenvalues --    0.97456   0.98117   0.98498   0.99157   0.99393
 Alpha virt. eigenvalues --    0.99480   1.00232   1.00356   1.00871   1.01187
 Alpha virt. eigenvalues --    1.01308   1.01561   1.01967   1.02393   1.03168
 Alpha virt. eigenvalues --    1.03398   1.03597   1.04145   1.04365   1.04558
 Alpha virt. eigenvalues --    1.04778   1.05314   1.05654   1.06504   1.06880
 Alpha virt. eigenvalues --    1.07430   1.08127   1.08496   1.08882   1.09582
 Alpha virt. eigenvalues --    1.10145   1.10758   1.11047   1.11976   1.12192
 Alpha virt. eigenvalues --    1.12543   1.12647   1.13529   1.13878   1.13929
 Alpha virt. eigenvalues --    1.14593   1.15345   1.15696   1.15841   1.16573
 Alpha virt. eigenvalues --    1.17278   1.17679   1.18617   1.19349   1.20064
 Alpha virt. eigenvalues --    1.21065   1.22890   1.22986   1.23375   1.23541
 Alpha virt. eigenvalues --    1.23944   1.25379   1.26038   1.26224   1.28018
 Alpha virt. eigenvalues --    1.29606   1.30331   1.31545   1.32025   1.32126
 Alpha virt. eigenvalues --    1.32756   1.33198   1.34542   1.35082   1.36003
 Alpha virt. eigenvalues --    1.36369   1.37078   1.38043   1.38565   1.39243
 Alpha virt. eigenvalues --    1.39692   1.40040   1.40804   1.42136   1.43122
 Alpha virt. eigenvalues --    1.43400   1.44310   1.45225   1.45724   1.45949
 Alpha virt. eigenvalues --    1.46240   1.47545   1.47771   1.48505   1.49889
 Alpha virt. eigenvalues --    1.50432   1.50941   1.51882   1.52840   1.53771
 Alpha virt. eigenvalues --    1.54503   1.55191   1.55387   1.55868   1.56134
 Alpha virt. eigenvalues --    1.56793   1.57558   1.58025   1.58651   1.59062
 Alpha virt. eigenvalues --    1.59649   1.59899   1.60898   1.61375   1.63012
 Alpha virt. eigenvalues --    1.64600   1.65520   1.66051   1.66950   1.67215
 Alpha virt. eigenvalues --    1.67741   1.68748   1.69279   1.70113   1.70931
 Alpha virt. eigenvalues --    1.71306   1.73329   1.73562   1.74373   1.74549
 Alpha virt. eigenvalues --    1.75809   1.75999   1.76450   1.77447   1.78933
 Alpha virt. eigenvalues --    1.78989   1.80885   1.80978   1.81619   1.81693
 Alpha virt. eigenvalues --    1.81796   1.82638   1.83013   1.83552   1.83633
 Alpha virt. eigenvalues --    1.84548   1.85333   1.85460   1.85618   1.85841
 Alpha virt. eigenvalues --    1.86080   1.86689   1.86967   1.87196   1.87927
 Alpha virt. eigenvalues --    1.87972   1.88134   1.89129   1.89266   1.89839
 Alpha virt. eigenvalues --    1.90122   1.90389   1.90729   1.91239   1.91744
 Alpha virt. eigenvalues --    1.92062   1.92381   1.93358   1.93591   1.93767
 Alpha virt. eigenvalues --    1.94611   1.95159   1.95427   1.95636   1.96453
 Alpha virt. eigenvalues --    1.96687   1.97338   1.97621   1.97842   1.98125
 Alpha virt. eigenvalues --    1.98445   1.98626   1.99231   1.99977   2.00309
 Alpha virt. eigenvalues --    2.00552   2.00967   2.01409   2.02040   2.02132
 Alpha virt. eigenvalues --    2.02404   2.02723   2.03335   2.04125   2.04795
 Alpha virt. eigenvalues --    2.05183   2.05692   2.06171   2.06535   2.06950
 Alpha virt. eigenvalues --    2.07311   2.07681   2.07982   2.08253   2.08385
 Alpha virt. eigenvalues --    2.09192   2.09465   2.10435   2.10741   2.10901
 Alpha virt. eigenvalues --    2.11562   2.11638   2.12350   2.12825   2.13090
 Alpha virt. eigenvalues --    2.13290   2.13737   2.14260   2.14675   2.14857
 Alpha virt. eigenvalues --    2.15145   2.15990   2.16590   2.17091   2.17507
 Alpha virt. eigenvalues --    2.17872   2.18094   2.18543   2.18974   2.19295
 Alpha virt. eigenvalues --    2.20182   2.20314   2.20567   2.21417   2.21992
 Alpha virt. eigenvalues --    2.22048   2.22418   2.22678   2.23345   2.23771
 Alpha virt. eigenvalues --    2.24915   2.25128   2.25210   2.25430   2.26584
 Alpha virt. eigenvalues --    2.26999   2.27893   2.28348   2.28729   2.29490
 Alpha virt. eigenvalues --    2.29870   2.30251   2.30937   2.31618   2.31799
 Alpha virt. eigenvalues --    2.32442   2.32943   2.33030   2.33247   2.33821
 Alpha virt. eigenvalues --    2.34397   2.34918   2.35526   2.36277   2.36985
 Alpha virt. eigenvalues --    2.37107   2.37737   2.38145   2.38636   2.39125
 Alpha virt. eigenvalues --    2.39599   2.40142   2.40250   2.40392   2.40655
 Alpha virt. eigenvalues --    2.41770   2.41991   2.42257   2.43212   2.43406
 Alpha virt. eigenvalues --    2.43693   2.43815   2.44773   2.45624   2.45874
 Alpha virt. eigenvalues --    2.46529   2.46844   2.47446   2.47909   2.48039
 Alpha virt. eigenvalues --    2.48316   2.48603   2.48756   2.49033   2.49563
 Alpha virt. eigenvalues --    2.50144   2.50339   2.50836   2.51207   2.51505
 Alpha virt. eigenvalues --    2.52963   2.53287   2.53685   2.54105   2.54239
 Alpha virt. eigenvalues --    2.54671   2.54985   2.55768   2.56301   2.56818
 Alpha virt. eigenvalues --    2.57346   2.57618   2.58394   2.59159   2.59611
 Alpha virt. eigenvalues --    2.60067   2.60491   2.60609   2.60920   2.61319
 Alpha virt. eigenvalues --    2.61865   2.62630   2.62761   2.62846   2.63736
 Alpha virt. eigenvalues --    2.64126   2.64893   2.65678   2.65874   2.66494
 Alpha virt. eigenvalues --    2.66865   2.67189   2.67752   2.67987   2.68745
 Alpha virt. eigenvalues --    2.69083   2.69858   2.70052   2.70690   2.70947
 Alpha virt. eigenvalues --    2.71054   2.72196   2.72518   2.72829   2.73244
 Alpha virt. eigenvalues --    2.73603   2.73885   2.73912   2.74102   2.75052
 Alpha virt. eigenvalues --    2.75480   2.75781   2.76080   2.76474   2.76606
 Alpha virt. eigenvalues --    2.77395   2.77879   2.78160   2.78461   2.79124
 Alpha virt. eigenvalues --    2.79903   2.80103   2.80973   2.81430   2.81446
 Alpha virt. eigenvalues --    2.81647   2.82206   2.82965   2.83389   2.84106
 Alpha virt. eigenvalues --    2.84893   2.85520   2.86332   2.86892   2.87260
 Alpha virt. eigenvalues --    2.88061   2.88463   2.89154   2.89994   2.90407
 Alpha virt. eigenvalues --    2.91106   2.91504   2.91856   2.93207   2.94065
 Alpha virt. eigenvalues --    2.94337   2.95117   2.95434   2.96067   2.96452
 Alpha virt. eigenvalues --    2.96713   2.97587   2.97715   2.97908   2.98661
 Alpha virt. eigenvalues --    2.99762   2.99932   3.00141   3.01824   3.02136
 Alpha virt. eigenvalues --    3.02296   3.02519   3.02846   3.04171   3.04693
 Alpha virt. eigenvalues --    3.05922   3.06898   3.07126   3.08465   3.08497
 Alpha virt. eigenvalues --    3.08922   3.09314   3.10250   3.12935   3.13120
 Alpha virt. eigenvalues --    3.13308   3.13747   3.13888   3.15182   3.16049
 Alpha virt. eigenvalues --    3.17721   3.18244   3.19909   3.20497   3.23490
 Alpha virt. eigenvalues --    3.24471   3.25108   3.26738   3.27494   3.28260
 Alpha virt. eigenvalues --    3.29317   3.32832   3.33093   3.34174   3.35094
 Alpha virt. eigenvalues --    3.36052   3.36796   3.37122   3.38268   3.41066
 Alpha virt. eigenvalues --    3.41199   3.41507   3.42344   3.43180   3.43197
 Alpha virt. eigenvalues --    3.43356   3.43609   3.45614   3.46273   3.46544
 Alpha virt. eigenvalues --    3.47762   3.48096   3.48974   3.49333   3.50248
 Alpha virt. eigenvalues --    3.50503   3.50922   3.51769   3.52603   3.54144
 Alpha virt. eigenvalues --    3.58049   3.59713   3.60256   3.60913   3.60974
 Alpha virt. eigenvalues --    3.61649   3.63001   3.64290   3.65248   3.65927
 Alpha virt. eigenvalues --    3.66472   3.67556   3.71140   3.73399   3.76151
 Alpha virt. eigenvalues --    3.84713   3.93113   4.04458   4.11625   4.20030
 Alpha virt. eigenvalues --    4.20480   4.20562   4.23404   4.26372   4.26601
 Alpha virt. eigenvalues --    4.27812   4.28577   4.29873   4.32342   4.36651
 Alpha virt. eigenvalues --    4.37646   4.38868   4.41597   4.43645   4.44593
 Alpha virt. eigenvalues --    4.47396   4.48906   4.50276   4.54073   4.54381
 Alpha virt. eigenvalues --    4.55731   4.55893   4.56580   4.58063   4.60700
 Alpha virt. eigenvalues --    4.61705   4.63206   4.66823   4.68287   4.71539
 Alpha virt. eigenvalues --    4.73440   4.75734   4.78477   4.80342   4.81487
 Alpha virt. eigenvalues --    4.84254   4.86217   4.86702   4.89226
          Condensed to atoms (all electrons):
 Mulliken charges:
               1
     1  O   -0.571383
     2  O   -0.547986
     3  C   -0.034159
     4  C    0.010038
     5  C   -0.188183
     6  C   -0.214435
     7  C    0.151339
     8  C    0.168000
     9  C    0.080576
    10  C    0.050207
    11  C   -0.203315
    12  C   -0.235255
    13  C    0.042217
    14  C    0.024186
    15  C   -0.296728
    16  C   -0.280136
    17  C   -0.279316
    18  C   -0.295527
    19  C   -0.125661
    20  C   -0.176575
    21  C   -0.378074
    22  C   -0.336155
    23  C   -0.053733
    24  C   -0.085465
    25  C    0.105216
    26  C    0.132111
    27  C   -0.392107
    28  C   -0.361264
    29  C   -0.141069
    30  C   -0.150003
    31  C   -0.068813
    32  C   -0.112893
    33  C   -0.117832
    34  C   -0.125532
    35  C    0.134548
    36  C    0.183894
    37  C   -0.354937
    38  C   -0.374156
    39  C   -0.150638
    40  C   -0.157290
    41  C   -0.055936
    42  C   -0.094817
    43  H    0.091662
    44  H    0.072063
    45  H    0.069511
    46  H    0.108849
    47  H    0.092701
    48  H    0.082299
    49  H    0.134266
    50  H    0.088906
    51  H    0.123733
    52  H    0.101448
    53  H    0.112596
    54  H    0.102412
    55  H    0.078306
    56  H    0.098379
    57  H    0.073380
    58  H    0.119054
    59  H    0.110431
    60  H    0.110548
    61  H    0.084140
    62  H    0.062641
    63  H    0.119223
    64  H    0.102423
    65  H    0.083896
    66  H    0.086729
    67  H    0.124700
    68  H    0.118764
    69  H    0.096104
    70  H    0.119196
    71  H    0.115256
    72  H    0.082024
    73  H    0.301371
    74  H    0.307264
    75  H    0.092192
    76  H    0.103299
    77  H    0.122445
    78  H    0.094511
    79  H    0.115192
    80  H    0.116273
    81  H    0.119536
    82  H    0.116609
    83  H    0.079076
    84  H    0.082903
    85  H    0.054694
    86  H    0.066469
    87  H    0.075673
    88  H    0.078481
    89  H    0.113856
    90  H    0.088137
    91  H    0.144256
    92  H    0.125618
    93  H    0.091036
    94  H    0.118098
    95  H    0.077088
    96  H    0.051385
    97  H    0.088607
    98  H    0.087332
 Sum of Mulliken charges =  -0.00000
 Mulliken charges with hydrogens summed into heavy atoms:
               1
     1  O   -0.270012
     2  O   -0.240722
     3  C   -0.034159
     4  C    0.010038
     5  C   -0.024457
     6  C   -0.036075
     7  C    0.244040
     8  C    0.250300
     9  C    0.080576
    10  C    0.050207
    11  C    0.019857
    12  C   -0.010073
    13  C    0.042217
    14  C    0.024186
    15  C   -0.003415
    16  C    0.010677
    17  C    0.025802
    18  C   -0.011240
    19  C   -0.041765
    20  C   -0.089846
    21  C   -0.038506
    22  C   -0.019679
    23  C    0.038459
    24  C    0.017834
    25  C    0.105216
    26  C    0.132111
    27  C   -0.059959
    28  C   -0.008846
    29  C   -0.061992
    30  C   -0.067100
    31  C   -0.014119
    32  C   -0.046424
    33  C   -0.042159
    34  C   -0.047050
    35  C    0.134548
    36  C    0.183894
    37  C   -0.008689
    38  C   -0.039405
    39  C   -0.073550
    40  C   -0.105905
    41  C    0.032671
    42  C   -0.007485
 Electronic spatial extent (au):  <R**2>=         111413.4327
 Charge=             -0.0000 electrons
 Dipole moment (field-independent basis, Debye):
    X=              0.6126    Y=             -1.9180    Z=              1.8169  Tot=              2.7120
 Quadrupole moment (field-independent basis, Debye-Ang):
   XX=           -267.6306   YY=           -245.1120   ZZ=           -261.1042
   XY=              9.8660   XZ=              1.2768   YZ=              3.0413
 Traceless Quadrupole moment (field-independent basis, Debye-Ang):
   XX=             -9.6817   YY=             12.8370   ZZ=             -3.1553
   XY=              9.8660   XZ=              1.2768   YZ=              3.0413
 Octapole moment (field-independent basis, Debye-Ang**2):
  XXX=           -196.3756  YYY=            -14.4495  ZZZ=             -0.9708  XYY=            154.8766
  XXY=           -432.0915  XXZ=            459.7399  XZZ=             -6.5773  YZZ=              2.5552
  YYZ=              3.4763  XYZ=            -50.2811
 Hexadecapole moment (field-independent basis, Debye-Ang**3):
 XXXX=        -152148.6740 YYYY=          -4456.2529 ZZZZ=          -1898.6543 XXXY=            713.4194
 XXXZ=            -58.2010 YYYX=           -308.6092 YYYZ=             28.2495 ZZZX=           -195.9181
 ZZZY=             29.8193 XXYY=         -24191.0441 XXZZ=         -24160.5510 YYZZ=          -1069.6896
 XXYZ=           -452.3878 YYXZ=             80.5269 ZZXY=           -117.1015
 N-N= 3.970823328381D+03 E-N=-1.189627717131D+04  KE= 1.689679206431D+03
 1\1\GINC-PADAWAN\SP\RCAM-B3LYP TD-FC\6-31G(d,p)\C40H56O2\PADAWAN\06-Ju
 l-2019\0\\# td=(NStates=1) CAM-B3LYP/6-31G(d,p)\\TD\\0,1\O,0,14.899348
 1538,-2.0552129924,-0.3958684398\O,0,-14.837870384,2.0030621622,0.6450
 636004\C,0,11.5291762116,-0.9979804321,1.1448078418\C,0,-12.3647741094
 ,-1.0137039304,0.7348090029\C,0,13.0461033423,-1.3467577139,1.03727129
 91\C,0,-13.6896115702,-0.143250485,0.6867175678\C,0,13.4189338874,-1.9
 582813552,-0.1992648155\C,0,-13.6055428943,1.3920920072,0.6892607101\C
 ,0,11.0067592019,-0.2728615023,-0.0434285889\C,0,-11.3907961806,-0.251
 2861576,-0.2127420282\C,0,13.0898932083,-0.9045712142,-1.2725081238\C,
 0,-12.7261333733,1.8876167387,-0.5793649785\C,0,11.654370184,-0.210921
 4652,-1.212379754\C,0,-11.4847320632,1.0088472077,-0.7181813571\C,0,11
 .3189126183,-0.1741065688,2.4495653975\C,0,10.6241318542,-2.3607665578
 ,1.3369518152\C,0,-11.7061228063,-0.8724790759,2.0972183018\C,0,-12.51
 67923812,-2.3964950925,0.3722991339\C,0,9.6009749235,0.395800617,0.046
 6013401\C,0,-10.1015415212,-1.0706311481,-0.3692056016\C,0,11.19736250
 13,0.4773922041,-2.4786420712\C,0,-10.5877712161,1.6654969337,-1.77455
 67627\C,0,9.3498049475,1.6454079787,-0.1558609601\C,0,-8.8607465597,-0
 .5579593529,-0.2127223182\C,0,8.0155775438,2.2502947694,0.1137670457\C
 ,0,-7.65188033,-1.3343177649,-0.5007254045\C,0,7.9609965807,3.59330753
 57,0.4381451805\C,0,-7.8109221982,-2.697279476,-0.9204822232\C,0,6.806
 4060476,1.507010695,-0.0600060066\C,0,-6.4966614691,-0.6686023353,-0.3
 376967757\C,0,5.4397245245,1.9518328902,0.0851434303\C,0,-5.090690191,
 -1.1965595321,-0.4669688709\C,0,4.361620093,1.2262180357,-0.1178974187
 \C,0,-3.9285882788,-0.5074369498,-0.1463319632\C,0,3.0408566907,1.5804
 386418,0.2007717422\C,0,-2.6544992139,-0.8805123813,-0.3149591559\C,0,
 2.9027405551,3.0104504939,0.4998126903\C,0,-2.2864641404,-2.3286801701
 ,-0.7509761376\C,0,2.0455741324,0.6712742913,0.0273936144\C,0,-1.66367
 76908,-0.0597162657,0.016309804\C,0,0.631570326,0.9249772656,0.0716630
 463\C,0,-0.2266415332,-0.1073228374,-0.2480124412\H,0,13.811020374,-0.
 4361770528,1.3148663246\H,0,13.4527205081,-1.9169522763,1.9533654685\H
 ,0,-14.4262854055,-0.4854787049,1.3842056266\H,0,-14.1739587629,-0.410
 8180048,-0.2346850885\H,0,12.9337285749,-2.9157063137,-0.3454526103\H,
 0,-13.0164771087,1.8319177098,1.4249719702\H,0,13.7337043024,-0.118354
 5556,-0.9934952335\H,0,13.2972312161,-1.3257748046,-2.3668273587\H,0,-
 13.5044959936,1.8980911301,-1.2920671397\H,0,-12.2958781948,2.87781984
 6,-0.4847553585\H,0,11.7814967697,-0.7438151076,3.1686415252\H,0,10.26
 91027753,0.1618966796,2.8060294839\H,0,12.0624455146,0.7914888818,2.55
 22443594\H,0,10.6741164146,-2.9916597461,0.3258979758\H,0,11.301981115
 1,-3.0550404211,2.205320456\H,0,9.6196679678,-1.9639273858,1.561681111
 1\H,0,-11.6961965197,0.1265382248,2.3935532483\H,0,-10.8004845575,-1.4
 2824998,2.1745034543\H,0,-12.3506562246,-1.4677076758,2.7469472907\H,0
 ,-13.5735371347,-2.7332145735,1.0928237914\H,0,-11.6867617242,-3.00882
 29103,0.5605111071\H,0,-12.5887292309,-2.5299233003,-0.7709655706\H,0,
 8.9332951535,-0.1738157017,0.7156657506\H,0,-10.2590756396,-2.17864158
 82,-0.7429339264\H,0,10.1568381028,0.6669667946,-2.6630110041\H,0,11.7
 894473797,1.3528895799,-2.7713668507\H,0,11.1911033453,-0.1685573428,-
 3.4127384038\H,0,-11.3065916662,1.9833315622,-2.6172432173\H,0,-9.7348
 590249,0.9033209691,-1.9052251285\H,0,-10.1282345785,2.6977183848,-1.2
 761512111\H,0,15.2618627393,-2.8797168768,0.1022521182\H,0,-15.3421036
 454,1.5414790619,1.3601542204\H,0,10.042029685,2.3513984437,-0.5223315
 482\H,0,-8.7622429213,0.4030724052,0.2708222692\H,0,8.5831411761,4.272
 2570786,-0.2444107441\H,0,6.9064540344,4.0275781667,0.7728331163\H,0,8
 .1412588359,3.778190706,1.5626492829\H,0,-8.3713541654,-3.1593728664,0
 .0090250635\H,0,-8.5149672527,-2.4498139955,-1.8162079508\H,0,-6.93813
 26623,-3.2607797301,-1.3624530373\H,0,6.8074624092,0.4999237353,-0.618
 9452865\H,0,-6.4591561776,0.415041344,-0.1471670937\H,0,5.402119596,3.
 0810932572,0.6024324982\H,0,-4.8519890189,-2.3196232694,-0.9175091509\
 H,0,4.5037034693,0.1214403899,-0.418760287\H,0,-4.1136368677,0.5045155
 685,0.3048332793\H,0,3.5604138264,3.1762516671,1.4084670477\H,0,1.7662
 532783,3.326001271,0.6576181698\H,0,3.3353675588,3.5010579397,-0.17543
 80398\H,0,-2.6530974467,-3.0593230794,-0.0377068147\H,0,-2.7166211701,
 -2.5726783879,-1.8254265097\H,0,-1.3873955386,-2.6425044255,-0.9935723
 932\H,0,2.3705342114,-0.3868573368,-0.3581937234\H,0,-2.1771871197,0.9
 980297209,0.3750108881\H,0,0.2229780448,1.8237650824,0.3654223372\H,0,
 0.1421469847,-1.092859236,-0.4811556996\\Version=ES64L-G16RevA.03\Stat
 e=1-A\HF=-1706.9222174\RMSD=4.055e-09\PG=C01 [X(C40H56O2)]\\@


 DO NOT LET SELFISH MEN OR GREEDY INTERESTS SKIN YOUR COUNTRY OF ITS
 BEAUTY, ITS RICHES, OR ITS ROMANCE. -- THEODORE ROOSEVELT
 Job cpu time:       0 days  5 hours 47 minutes  0.8 seconds.
 Elapsed time:       0 days  1 hours 27 minutes 15.4 seconds.
 File lengths (MBytes):  RWF=   3127 Int=      0 D2E=      0 Chk=     84 Scr=      1
 Normal termination of Gaussian 16 at Sat Jul  6 00:51:38 2019.
