 Entering Gaussian System, Link 0=g16
 Input=Geometria-58-.com
 Output=Geometria-58-.log
 Initial command:
 /usr/local/g16/l1.exe "/home/padawan/israel-mol/zeaxanthin/spectra/abs/Gau-19221.inp" -scrdir="/home/padawan/israel-mol/zeaxanthin/spectra/abs/"
 Entering Link 1 = /usr/local/g16/l1.exe PID=     19223.
  
 Copyright (c) 1988,1990,1992,1993,1995,1998,2003,2009,2016,
            Gaussian, Inc.  All Rights Reserved.
  
 This is part of the Gaussian(R) 16 program.  It is based on
 the Gaussian(R) 09 system (copyright 2009, Gaussian, Inc.),
 the Gaussian(R) 03 system (copyright 2003, Gaussian, Inc.),
 the Gaussian(R) 98 system (copyright 1998, Gaussian, Inc.),
 the Gaussian(R) 94 system (copyright 1995, Gaussian, Inc.),
 the Gaussian 92(TM) system (copyright 1992, Gaussian, Inc.),
 the Gaussian 90(TM) system (copyright 1990, Gaussian, Inc.),
 the Gaussian 88(TM) system (copyright 1988, Gaussian, Inc.),
 the Gaussian 86(TM) system (copyright 1986, Carnegie Mellon
 University), and the Gaussian 82(TM) system (copyright 1983,
 Carnegie Mellon University). Gaussian is a federally registered
 trademark of Gaussian, Inc.
  
 This software contains proprietary and confidential information,
 including trade secrets, belonging to Gaussian, Inc.
  
 This software is provided under written license and may be
 used, copied, transmitted, or stored only in accord with that
 written license.
  
 The following legend is applicable only to US Government
 contracts under FAR:
  
                    RESTRICTED RIGHTS LEGEND
  
 Use, reproduction and disclosure by the US Government is
 subject to restrictions as set forth in subparagraphs (a)
 and (c) of the Commercial Computer Software - Restricted
 Rights clause in FAR 52.227-19.
  
 Gaussian, Inc.
 340 Quinnipiac St., Bldg. 40, Wallingford CT 06492
  
  
 ---------------------------------------------------------------
 Warning -- This program may not be used in any manner that
 competes with the business of Gaussian, Inc. or will provide
 assistance to any competitor of Gaussian, Inc.  The licensee
 of this program is prohibited from giving any competitor of
 Gaussian, Inc. access to this program.  By using this program,
 the user acknowledges that Gaussian, Inc. is engaged in the
 business of creating and licensing software in the field of
 computational chemistry and represents and warrants to the
 licensee that it is not a competitor of Gaussian, Inc. and that
 it will not use this program in any manner prohibited above.
 ---------------------------------------------------------------
  

 Cite this work as:
 Gaussian 16, Revision A.03,
 M. J. Frisch, G. W. Trucks, H. B. Schlegel, G. E. Scuseria, 
 M. A. Robb, J. R. Cheeseman, G. Scalmani, V. Barone, 
 G. A. Petersson, H. Nakatsuji, X. Li, M. Caricato, A. V. Marenich, 
 J. Bloino, B. G. Janesko, R. Gomperts, B. Mennucci, H. P. Hratchian, 
 J. V. Ortiz, A. F. Izmaylov, J. L. Sonnenberg, D. Williams-Young, 
 F. Ding, F. Lipparini, F. Egidi, J. Goings, B. Peng, A. Petrone, 
 T. Henderson, D. Ranasinghe, V. G. Zakrzewski, J. Gao, N. Rega, 
 G. Zheng, W. Liang, M. Hada, M. Ehara, K. Toyota, R. Fukuda, 
 J. Hasegawa, M. Ishida, T. Nakajima, Y. Honda, O. Kitao, H. Nakai, 
 T. Vreven, K. Throssell, J. A. Montgomery, Jr., J. E. Peralta, 
 F. Ogliaro, M. J. Bearpark, J. J. Heyd, E. N. Brothers, K. N. Kudin, 
 V. N. Staroverov, T. A. Keith, R. Kobayashi, J. Normand, 
 K. Raghavachari, A. P. Rendell, J. C. Burant, S. S. Iyengar, 
 J. Tomasi, M. Cossi, J. M. Millam, M. Klene, C. Adamo, R. Cammi, 
 J. W. Ochterski, R. L. Martin, K. Morokuma, O. Farkas, 
 J. B. Foresman, and D. J. Fox, Gaussian, Inc., Wallingford CT, 2016.
 
 ******************************************
 Gaussian 16:  ES64L-G16RevA.03 25-Dec-2016
                28-Jun-2019 
 ******************************************
 %nproc=4
 Will use up to    4 processors via shared memory.
 %Mem=2GB
 -------------------------------------
 # td=(NStates=1) CAM-B3LYP/6-31G(d,p)
 -------------------------------------
 1/38=1,172=1/1;
 2/12=2,17=6,18=5,40=1/2;
 3/5=1,6=6,7=101,11=9,25=1,30=1,74=-40/1,2,3,8;
 4//1;
 5/5=2,38=5/2;
 8/6=1,10=2,108=1/1;
 9/41=1,42=1,70=2/14;
 6/7=2,8=2,9=2,10=2/1;
 99/5=1,9=1/99;
 --
 TD
 --
 Symbolic Z-matrix:
 Charge =  0 Multiplicity = 1
 8                     14.85274  -2.21879  -0.38813 
 8                    -14.86457   1.97735   0.74536 
 6                     11.60699  -1.13948   1.24264 
 6                    -12.38808  -1.0041    0.72403 
 6                     13.01326  -1.40211   1.14716 
 6                    -13.75411  -0.25081   0.6904 
 6                     13.40944  -1.76349  -0.3037 
 6                    -13.5872   1.241     0.76111 
 6                     10.97928  -0.39724   0.04276 
 6                    -11.31745  -0.32531  -0.18103 
 6                     13.12909  -0.74015  -1.24838 
 6                    -12.78276   1.73136  -0.52172 
 6                     11.73455  -0.21343  -1.10635 
 6                    -11.63104   0.87181  -0.69341 
 6                     11.23148  -0.36819   2.55348 
 6                     10.79087  -2.43062   1.37636 
 6                    -11.83273  -1.02941   2.17737 
 6                    -12.65432  -2.4796    0.39012 
 6                     9.61321   0.2806    0.21686 
 6                    -10.10381  -1.0756   -0.36039 
 6                     11.22147   0.31598  -2.43923 
 6                    -10.57097   1.56359  -1.70868 
 6                     9.33786   1.44244  -0.1011 
 6                    -8.87433  -0.6218   -0.30499 
 6                     8.00272   2.11468   0.06222 
 6                    -7.63211  -1.25985  -0.54845 
 6                     8.18519   3.62241   0.19968 
 6                    -7.60648  -2.61024  -1.02388 
 6                     6.88857   1.49545  -0.04195 
 6                    -6.44208  -0.56013  -0.10732 
 6                     5.51101   2.10447   0.15702 
 6                    -5.06826  -1.08948  -0.3379 
 6                     4.49686   1.37981  -0.04477 
 6                    -4.06834  -0.27684  -0.15523 
 6                     3.08783   1.77444   0.05734 
 6                    -2.64775  -0.73087  -0.42983 
 6                     2.76196   3.12919   0.36482 
 6                    -2.44141  -2.13977  -0.83998 
 6                     2.12804   0.79981  -0.22498 
 6                    -1.68243   0.18104  -0.10246 
 6                     0.64062   0.95577  -0.06737 
 6                    -0.2444    0.03582  -0.4207 
 1                     13.85576  -0.67219   1.4948 
 1                     13.32164  -2.09439   2.01726 
 1                    -14.48952  -0.51451   1.45081 
 1                    -14.3866  -0.39614  -0.38464 
 1                     12.75656  -2.56782  -0.65523 
 1                    -13.18512   1.48584   1.67282 
 1                     13.6346   0.26578  -1.03642 
 1                     13.33907  -1.2928   -2.21884 
 1                    -13.40087   1.83119  -1.4469 
 1                    -12.58472   2.72682  -0.23721 
 1                     11.42917  -0.7314    3.58952 
 1                     10.32716  -0.12507   2.64696 
 1                     11.83616   0.46291   2.48344 
 1                     10.93469  -2.87633   0.23274 
 1                     11.11133  -2.9317    2.21801 
 1                     9.72283  -2.26876   1.31046 
 1                    -11.66087  -0.05116   2.62236 
 1                    -10.90475  -1.49155   2.14514 
 1                    -12.50586  -1.52195   2.95687 
 1                    -13.57729  -2.76743   0.93553 
 1                    -11.60515  -2.98254   0.40666 
 1                    -13.1497  -2.6521   -0.57013 
 1                     9.0511   -0.44901   0.78607 
 1                    -10.18715  -2.20837  -0.59423 
 1                     10.15656   0.998    -2.21605 
 1                     11.91692   1.16366  -2.98012 
 1                     11.20914  -0.6332   -3.17914 
 1                    -11.33172   2.20613  -2.30537 
 1                    -9.84371   0.82774  -2.24347 
 1                    -10.11613   2.41926  -1.12088 
 1                     15.03861  -3.02836   0.14688 
 1                    -15.20433   1.55597   1.55961 
 1                     10.1844   2.10414  -0.62583 
 1                    -8.83939   0.48739  -0.13881 
 1                     8.69167   4.21317  -0.62163 
 1                     7.19699   4.24806  -0.0104 
 1                     8.46468   3.86804   1.42709 
 1                    -7.89677  -3.27804  -0.24826 
 1                    -8.11584  -2.63015  -1.99767 
 1                    -6.55482  -3.10071  -1.41156 
 1                     7.05939   0.35185   0.0505 
 1                    -6.64302   0.51973   0.20915 
 1                     5.3242    3.14993   0.31261 
 1                    -4.92005  -2.12589  -0.84514 
 1                     4.63721   0.33725  -0.23897 
 1                    -4.15884   0.82966  -0.09458 
 1                     3.4154    3.5488    1.17237 
 1                     1.60475   3.45801   0.77807 
 1                     2.88189   3.8007   -0.53984 
 1                    -2.51617  -2.78361   0.21561 
 1                    -3.34496  -2.51828  -1.58959 
 1                    -1.49616  -2.36488  -1.03395 
 1                     2.57207  -0.24341  -0.24898 
 1                    -2.08154   1.1831    0.13619 
 1                     0.24341   1.95274   0.42858 
 1                     0.12109  -0.82256  -0.84786 
 
 Stoichiometry    C40H56O2
 Framework group  C1[X(C40H56O2)]
 Deg. of freedom   288
 Full point group                 C1      NOp   1
 Largest Abelian subgroup         C1      NOp   1
 Largest concise Abelian subgroup C1      NOp   1
                         Standard orientation:                         
 ---------------------------------------------------------------------
 Center     Atomic      Atomic             Coordinates (Angstroms)
 Number     Number       Type             X           Y           Z
 ---------------------------------------------------------------------
      1          8           0       14.854652   -2.196306   -0.462361
      2          8           0      -14.865786    1.936810    0.812096
      3          6           0       11.607377   -1.181230    1.206174
      4          6           0      -12.387488   -1.040274    0.679587
      5          6           0       13.013851   -1.439250    1.101639
      6          6           0      -13.753953   -0.287042    0.673659
      7          6           0       13.411033   -1.745358   -0.361607
      8          6           0      -13.587981    1.201129    0.800742
      9          6           0       10.979860   -0.394576    0.034826
     10          6           0      -11.316781   -0.327174   -0.198593
     11          6           0       13.130571   -0.687243   -1.267131
     12          6           0      -12.783142    1.740049   -0.462204
     13          6           0       11.735640   -0.167067   -1.106099
     14          6           0      -11.630812    0.888265   -0.665581
     15          6           0       11.230697   -0.460195    2.544990
     16          6           0       10.791955   -2.476970    1.290586
     17          6           0      -11.832905   -1.120123    2.131245
     18          6           0      -12.652662   -2.502268    0.290056
     19          6           0        9.613289    0.275418    0.233629
     20          6           0      -10.102597   -1.069450   -0.405480
     21          6           0       11.222967    0.411995   -2.418325
     22          6           0      -10.570613    1.618495   -1.653412
     23          6           0        9.337420    1.448274   -0.040382
     24          6           0       -8.873416   -0.617347   -0.332292
     25          6           0        8.001782    2.113097    0.147453
     26          6           0       -7.630683   -1.245033   -0.598972
     27          6           0        8.183275    3.614666    0.341847
     28          6           0       -7.603989   -2.576494   -1.125041
     29          6           0        6.888068    1.497595    0.019345
     30          6           0       -6.441308   -0.561780   -0.131072
     31          6           0        5.510033    2.097867    0.240401
     32          6           0       -5.067049   -1.081247   -0.380697
     33          6           0        4.496429    1.380761    0.010823
     34          6           0       -4.067720   -0.275510   -0.166919
     35          6           0        3.087105    1.770432    0.126968
     36          6           0       -2.646706   -0.718017   -0.457668
     37          6           0        2.760251    3.112420    0.485202
     38          6           0       -2.439300   -2.110309   -0.920603
     39          6           0        2.128054    0.806600   -0.192489
     40          6           0       -1.682111    0.181436   -0.095558
     41          6           0        0.640455    0.955638   -0.029936
     42          6           0       -0.243827    0.049174   -0.418246
     43          1           0       13.855730   -0.722487    1.477067
     44          1           0       13.322176   -2.163709    1.945151
     45          1           0      -14.489618   -0.579693    1.423161
     46          1           0      -14.385779   -0.392037   -0.406454
     47          1           0       12.758823   -2.536219   -0.743632
     48          1           0      -13.186542    1.411608    1.721271
     49          1           0       13.635370    0.310268   -1.017059
     50          1           0       13.341404   -1.202729   -2.257655
     51          1           0      -13.400810    1.874387   -1.383304
     52          1           0      -12.585851    2.724174   -0.140199
     53          1           0       11.428045   -0.862160    3.566695
     54          1           0       10.326176   -0.221309    2.647084
     55          1           0       11.834915    0.373299    2.506722
     56          1           0       10.936662   -2.879091    0.131036
     57          1           0       11.112266   -3.009282    2.112902
     58          1           0        9.723853   -2.313351    1.230247
     59          1           0      -11.661880   -0.159269    2.612952
     60          1           0      -10.904640   -1.580170    2.082113
     61          1           0      -12.506165   -1.642134    2.891216
     62          1           0      -13.575754   -2.811017    0.823688
     63          1           0      -11.603206   -3.004862    0.288177
     64          1           0      -13.147420   -2.638666   -0.676297
     65          1           0        9.051312   -0.475493    0.774573
     66          1           0      -10.185128   -2.192634   -0.681967
     67          1           0       10.157520    1.084487   -2.170147
     68          1           0       11.918194    1.279902   -2.926431
     69          1           0       11.211595   -0.508577   -3.193551
     70          1           0      -11.331432    2.282674   -2.225843
     71          1           0       -9.842624    0.903792   -2.215197
     72          1           0      -10.116608    2.451627   -1.033463
     73          1           0       15.040716   -3.025394    0.041797
     74          1           0      -15.205728    1.484789    1.609664
     75          1           0       10.183845    2.129813   -0.539284
     76          1           0       -8.839234    0.484794   -0.124326
     77          1           0        8.689845    4.236312   -0.456286
     78          1           0        7.194817    4.247229    0.154990
     79          1           0        8.461958    3.813936    1.577808
     80          1           0       -7.894290   -3.273277   -0.375351
     81          1           0       -8.112808   -2.559916   -2.099167
     82          1           0       -6.551828   -3.051369   -1.530370
     83          1           0        7.059518    0.351418    0.068649
     84          1           0       -6.643076    0.505246    0.225836
     85          1           0        5.322511    3.136600    0.435254
     86          1           0       -4.917941   -2.097684   -0.926632
     87          1           0        4.637503    0.346357   -0.222528
     88          1           0       -4.158916    0.827860   -0.064576
     89          1           0        3.413007    3.501614    1.308391
     90          1           0        1.602622    3.424733    0.909925
     91          1           0        2.880271    3.817676   -0.393394
     92          1           0       -2.514246   -2.793586    0.109875
     93          1           0       -3.342223   -2.460770   -1.684485
     94          1           0       -1.493808   -2.327382   -1.122405
     95          1           0        2.572725   -0.234713   -0.255615
     96          1           0       -2.081949    1.173539    0.180534
     97          1           0        0.242378    1.932937    0.503082
     98          1           0        0.122417   -0.792256   -0.877311
 ---------------------------------------------------------------------
 Rotational constants (GHZ):           0.2496981           0.0091990           0.0090442
 Standard basis: 6-31G(d,p) (6D, 7F)
 There are   910 symmetry adapted cartesian basis functions of A   symmetry.
 There are   910 symmetry adapted basis functions of A   symmetry.
   910 basis functions,  1568 primitive gaussians,   910 cartesian basis functions
   156 alpha electrons      156 beta electrons
       nuclear repulsion energy      3971.5205905448 Hartrees.
 NAtoms=   98 NActive=   98 NUniq=   98 SFac= 1.00D+00 NAtFMM=   60 NAOKFM=T Big=T
 Integral buffers will be    131072 words long.
 Raffenetti 1 integral format.
 Two-electron integral symmetry is turned on.
 One-electron integrals computed using PRISM.
 NBasis=   910 RedAO= T EigKep=  9.05D-04  NBF=   910
 NBsUse=   910 1.00D-06 EigRej= -1.00D+00 NBFU=   910
 ExpMin= 1.61D-01 ExpMax= 5.48D+03 ExpMxC= 8.25D+02 IAcc=3 IRadAn=         5 AccDes= 0.00D+00
 Harris functional with IExCor=20419 and IRadAn=       5 diagonalized for initial guess.
 HarFok:  IExCor=20419 AccDes= 0.00D+00 IRadAn=         5 IDoV= 1 UseB2=F ITyADJ=14
 ICtDFT=  3500011 ScaDFX=  1.000000  1.000000  1.000000  1.000000
 FoFCou: FMM=F IPFlag=           0 FMFlag=      100000 FMFlg1=        2001
         NFxFlg=           0 DoJE=T BraDBF=F KetDBF=T FulRan=T
         wScrn=  0.000000 ICntrl=       500 IOpCl=  0 I1Cent=   200000004 NGrid=           0
         NMat0=    1 NMatS0=      1 NMatT0=    0 NMatD0=    1 NMtDS0=    0 NMtDT0=    0
 Petite list used in FoFCou.
 Requested convergence on RMS density matrix=1.00D-08 within 128 cycles.
 Requested convergence on MAX density matrix=1.00D-06.
 Requested convergence on             energy=1.00D-06.
 No special actions if energy rises.
 Integral accuracy reduced to 1.0D-05 until final iterations.
 Initial convergence to 1.0D-05 achieved.  Increase integral accuracy.
 SCF Done:  E(RCAM-B3LYP) =  -1706.89256345     A.U. after   13 cycles
            NFock= 13  Conv=0.92D-08     -V/T= 2.0100
 DoSCS=F DFT=T ScalE2(SS,OS)=  1.000000  1.000000
 ExpMin= 1.61D-01 ExpMax= 5.48D+03 ExpMxC= 8.25D+02 IAcc=3 IRadAn=         5 AccDes= 0.00D+00
 HarFok:  IExCor=  205 AccDes= 0.00D+00 IRadAn=         5 IDoV=-2 UseB2=F ITyADJ=14
 ICtDFT= 12500011 ScaDFX=  1.000000  1.000000  1.000000  1.000000
 GSVD:  LWork=       -2100 too small for GESVD, short by        9450 words or        9450 for optimal perf.
 Range of M.O.s used for correlation:    43   910
 NBasis=   910 NAE=   156 NBE=   156 NFC=    42 NFV=     0
 NROrb=    868 NOA=   114 NOB=   114 NVA=   754 NVB=   754
 Orbital symmetries:
       Occupied  (A) (A) (A) (A) (A) (A) (A) (A) (A) (A) (A) (A)
                 (A) (A) (A) (A) (A) (A) (A) (A) (A) (A) (A) (A)
                 (A) (A) (A) (A) (A) (A) (A) (A) (A) (A) (A) (A)
                 (A) (A) (A) (A) (A) (A) (A) (A) (A) (A) (A) (A)
                 (A) (A) (A) (A) (A) (A) (A) (A) (A) (A) (A) (A)
                 (A) (A) (A) (A) (A) (A) (A) (A) (A) (A) (A) (A)
                 (A) (A) (A) (A) (A) (A) (A) (A) (A) (A) (A) (A)
                 (A) (A) (A) (A) (A) (A) (A) (A) (A) (A) (A) (A)
                 (A) (A) (A) (A) (A) (A) (A) (A) (A) (A) (A) (A)
                 (A) (A) (A) (A) (A) (A) (A) (A) (A) (A) (A) (A)
                 (A) (A) (A) (A) (A) (A) (A) (A) (A) (A) (A) (A)
                 (A) (A) (A) (A) (A) (A) (A) (A) (A) (A) (A) (A)
                 (A) (A) (A) (A) (A) (A) (A) (A) (A) (A) (A) (A)
       Virtual   (A) (A) (A) (A) (A) (A) (A) (A) (A) (A) (A) (A)
                 (A) (A) (A) (A) (A) (A) (A) (A) (A) (A) (A) (A)
                 (A) (A) (A) (A) (A) (A) (A) (A) (A) (A) (A) (A)
                 (A) (A) (A) (A) (A) (A) (A) (A) (A) (A) (A) (A)
                 (A) (A) (A) (A) (A) (A) (A) (A) (A) (A) (A) (A)
                 (A) (A) (A) (A) (A) (A) (A) (A) (A) (A) (A) (A)
                 (A) (A) (A) (A) (A) (A) (A) (A) (A) (A) (A) (A)
                 (A) (A) (A) (A) (A) (A) (A) (A) (A) (A) (A) (A)
                 (A) (A) (A) (A) (A) (A) (A) (A) (A) (A) (A) (A)
                 (A) (A) (A) (A) (A) (A) (A) (A) (A) (A) (A) (A)
                 (A) (A) (A) (A) (A) (A) (A) (A) (A) (A) (A) (A)
                 (A) (A) (A) (A) (A) (A) (A) (A) (A) (A) (A) (A)
                 (A) (A) (A) (A) (A) (A) (A) (A) (A) (A) (A) (A)
                 (A) (A) (A) (A) (A) (A) (A) (A) (A) (A) (A) (A)
                 (A) (A) (A) (A) (A) (A) (A) (A) (A) (A) (A) (A)
                 (A) (A) (A) (A) (A) (A) (A) (A) (A) (A) (A) (A)
                 (A) (A) (A) (A) (A) (A) (A) (A) (A) (A) (A) (A)
                 (A) (A) (A) (A) (A) (A) (A) (A) (A) (A) (A) (A)
                 (A) (A) (A) (A) (A) (A) (A) (A) (A) (A) (A) (A)
                 (A) (A) (A) (A) (A) (A) (A) (A) (A) (A) (A) (A)
                 (A) (A) (A) (A) (A) (A) (A) (A) (A) (A) (A) (A)
                 (A) (A) (A) (A) (A) (A) (A) (A) (A) (A) (A) (A)
                 (A) (A) (A) (A) (A) (A) (A) (A) (A) (A) (A) (A)
                 (A) (A) (A) (A) (A) (A) (A) (A) (A) (A) (A) (A)
                 (A) (A) (A) (A) (A) (A) (A) (A) (A) (A) (A) (A)
                 (A) (A) (A) (A) (A) (A) (A) (A) (A) (A) (A) (A)
                 (A) (A) (A) (A) (A) (A) (A) (A) (A) (A) (A) (A)
                 (A) (A) (A) (A) (A) (A) (A) (A) (A) (A) (A) (A)
                 (A) (A) (A) (A) (A) (A) (A) (A) (A) (A) (A) (A)
                 (A) (A) (A) (A) (A) (A) (A) (A) (A) (A) (A) (A)
                 (A) (A) (A) (A) (A) (A) (A) (A) (A) (A) (A) (A)
                 (A) (A) (A) (A) (A) (A) (A) (A) (A) (A) (A) (A)
                 (A) (A) (A) (A) (A) (A) (A) (A) (A) (A) (A) (A)
                 (A) (A) (A) (A) (A) (A) (A) (A) (A) (A) (A) (A)
                 (A) (A) (A) (A) (A) (A) (A) (A) (A) (A) (A) (A)
                 (A) (A) (A) (A) (A) (A) (A) (A) (A) (A) (A) (A)
                 (A) (A) (A) (A) (A) (A) (A) (A) (A) (A) (A) (A)
                 (A) (A) (A) (A) (A) (A) (A) (A) (A) (A) (A) (A)
                 (A) (A) (A) (A) (A) (A) (A) (A) (A) (A) (A) (A)
                 (A) (A) (A) (A) (A) (A) (A) (A) (A) (A) (A) (A)
                 (A) (A) (A) (A) (A) (A) (A) (A) (A) (A) (A) (A)
                 (A) (A) (A) (A) (A) (A) (A) (A) (A) (A) (A) (A)
                 (A) (A) (A) (A) (A) (A) (A) (A) (A) (A) (A) (A)
                 (A) (A) (A) (A) (A) (A) (A) (A) (A) (A) (A) (A)
                 (A) (A) (A) (A) (A) (A) (A) (A) (A) (A) (A) (A)
                 (A) (A) (A) (A) (A) (A) (A) (A) (A) (A) (A) (A)
                 (A) (A) (A) (A) (A) (A) (A) (A) (A) (A) (A) (A)
                 (A) (A) (A) (A) (A) (A) (A) (A) (A) (A) (A) (A)
                 (A) (A) (A) (A) (A) (A) (A) (A) (A) (A) (A) (A)
                 (A) (A) (A) (A) (A) (A) (A) (A) (A) (A) (A) (A)
                 (A) (A) (A) (A) (A) (A) (A) (A) (A) (A) (A) (A)
                 (A) (A) (A) (A) (A) (A) (A) (A) (A) (A) (A) (A)
                 (A) (A) (A) (A) (A) (A) (A) (A) (A) (A) (A) (A)
                 (A) (A) (A) (A) (A) (A) (A) (A) (A) (A) (A) (A)
                 (A) (A) (A) (A) (A) (A) (A) (A) (A) (A) (A) (A)
                 (A) (A) (A) (A) (A) (A) (A) (A) (A) (A) (A) (A)
                 (A) (A) (A) (A) (A) (A) (A) (A) (A) (A) (A) (A)
                 (A) (A) (A) (A) (A) (A) (A) (A) (A) (A) (A) (A)
                 (A) (A) (A) (A) (A) (A) (A) (A) (A) (A) (A) (A)
                 (A) (A) (A) (A) (A) (A) (A) (A) (A) (A) (A) (A)
                 (A) (A) (A) (A) (A) (A) (A) (A) (A) (A) (A) (A)
                 (A) (A) (A) (A) (A) (A) (A) (A) (A) (A) (A) (A)
                 (A) (A) (A) (A) (A) (A) (A) (A) (A) (A)
     4 initial guesses have been made.
 Convergence on wavefunction:    0.001000000000000
 Iteration     1 Dimension     4 NMult     0 NNew      4
 CISAX will form     4 AO SS matrices at one time.
 Iteration     2 Dimension     6 NMult     4 NNew      2
 Iteration     3 Dimension     8 NMult     6 NNew      2
 Iteration     4 Dimension    10 NMult     8 NNew      2
 Iteration     5 Dimension    12 NMult    10 NNew      2
 Iteration     6 Dimension    14 NMult    12 NNew      2
 ***********************************************************************
 Excited states from <AA,BB:AA,BB> singles matrix:
 ***********************************************************************
 
 Ground to excited state transition densities written to RWF  633
 Ground to excited state transition electric dipole moments (Au):
       state          X           Y           Z        Dip. S.      Osc.
         1         6.3449      1.1552      0.4210     41.7695      3.3112
 Ground to excited state transition velocity dipole moments (Au):
       state          X           Y           Z        Dip. S.      Osc.
         1        -0.7250     -0.1323     -0.0481      0.5455      3.0584
 Ground to excited state transition magnetic dipole moments (Au):
       state          X           Y           Z
         1        -0.0719      0.0932      0.0518
 Ground to excited state transition velocity quadrupole moments (Au):
       state          XX          YY          ZZ          XY          XZ          YZ
         1         5.5476     -0.1236      0.0517     -0.2156      0.4053     -0.0255
 <0|del|b> * <b|rxdel|0> + <0|del|b> * <b|delr+rdel|0>
 Rotatory Strengths (R) in cgs (10**-40 erg-esu-cm/Gauss)
       state          XX          YY          ZZ    R(velocity)    E-M Angle
         1       146.2336    171.8610    -96.0734     74.0071       66.86
 1/2[<0|r|b>*<b|rxdel|0> + (<0|rxdel|b>*<b|r|0>)*]
 Rotatory Strengths (R) in cgs (10**-40 erg-esu-cm/Gauss)
       state          XX          YY          ZZ     R(length)
         1       322.7569    -76.1411    -15.4152     77.0669
  1/2[<0|del|b>*<b|r|0> + (<0|r|b>*<b|del|0>)*] (Au)
       state          X           Y           Z        Dip. S.   Osc.(frdel)
         1        -4.6004     -0.1528     -0.0203      4.7735      3.1823

 Excitation energies and oscillator strengths:
 
 Excited State   1:      Singlet-A      3.2357 eV  383.18 nm  f=3.3112  <S**2>=0.000
     155 ->158         0.19019
     156 ->157         0.67269
 This state for optimization and/or second-order correction.
 Total Energy, E(TD-HF/TD-DFT) =  -1706.77365432    
 Copying the excited state density for this state as the 1-particle RhoCI density.
 SavETr:  write IOETrn=   770 NScale= 10 NData=  16 NLR=1 NState=    1 LETran=      28.

 **********************************************************************

            Population analysis using the SCF density.

 **********************************************************************

 Orbital symmetries:
       Occupied  (A) (A) (A) (A) (A) (A) (A) (A) (A) (A) (A) (A)
                 (A) (A) (A) (A) (A) (A) (A) (A) (A) (A) (A) (A)
                 (A) (A) (A) (A) (A) (A) (A) (A) (A) (A) (A) (A)
                 (A) (A) (A) (A) (A) (A) (A) (A) (A) (A) (A) (A)
                 (A) (A) (A) (A) (A) (A) (A) (A) (A) (A) (A) (A)
                 (A) (A) (A) (A) (A) (A) (A) (A) (A) (A) (A) (A)
                 (A) (A) (A) (A) (A) (A) (A) (A) (A) (A) (A) (A)
                 (A) (A) (A) (A) (A) (A) (A) (A) (A) (A) (A) (A)
                 (A) (A) (A) (A) (A) (A) (A) (A) (A) (A) (A) (A)
                 (A) (A) (A) (A) (A) (A) (A) (A) (A) (A) (A) (A)
                 (A) (A) (A) (A) (A) (A) (A) (A) (A) (A) (A) (A)
                 (A) (A) (A) (A) (A) (A) (A) (A) (A) (A) (A) (A)
                 (A) (A) (A) (A) (A) (A) (A) (A) (A) (A) (A) (A)
       Virtual   (A) (A) (A) (A) (A) (A) (A) (A) (A) (A) (A) (A)
                 (A) (A) (A) (A) (A) (A) (A) (A) (A) (A) (A) (A)
                 (A) (A) (A) (A) (A) (A) (A) (A) (A) (A) (A) (A)
                 (A) (A) (A) (A) (A) (A) (A) (A) (A) (A) (A) (A)
                 (A) (A) (A) (A) (A) (A) (A) (A) (A) (A) (A) (A)
                 (A) (A) (A) (A) (A) (A) (A) (A) (A) (A) (A) (A)
                 (A) (A) (A) (A) (A) (A) (A) (A) (A) (A) (A) (A)
                 (A) (A) (A) (A) (A) (A) (A) (A) (A) (A) (A) (A)
                 (A) (A) (A) (A) (A) (A) (A) (A) (A) (A) (A) (A)
                 (A) (A) (A) (A) (A) (A) (A) (A) (A) (A) (A) (A)
                 (A) (A) (A) (A) (A) (A) (A) (A) (A) (A) (A) (A)
                 (A) (A) (A) (A) (A) (A) (A) (A) (A) (A) (A) (A)
                 (A) (A) (A) (A) (A) (A) (A) (A) (A) (A) (A) (A)
                 (A) (A) (A) (A) (A) (A) (A) (A) (A) (A) (A) (A)
                 (A) (A) (A) (A) (A) (A) (A) (A) (A) (A) (A) (A)
                 (A) (A) (A) (A) (A) (A) (A) (A) (A) (A) (A) (A)
                 (A) (A) (A) (A) (A) (A) (A) (A) (A) (A) (A) (A)
                 (A) (A) (A) (A) (A) (A) (A) (A) (A) (A) (A) (A)
                 (A) (A) (A) (A) (A) (A) (A) (A) (A) (A) (A) (A)
                 (A) (A) (A) (A) (A) (A) (A) (A) (A) (A) (A) (A)
                 (A) (A) (A) (A) (A) (A) (A) (A) (A) (A) (A) (A)
                 (A) (A) (A) (A) (A) (A) (A) (A) (A) (A) (A) (A)
                 (A) (A) (A) (A) (A) (A) (A) (A) (A) (A) (A) (A)
                 (A) (A) (A) (A) (A) (A) (A) (A) (A) (A) (A) (A)
                 (A) (A) (A) (A) (A) (A) (A) (A) (A) (A) (A) (A)
                 (A) (A) (A) (A) (A) (A) (A) (A) (A) (A) (A) (A)
                 (A) (A) (A) (A) (A) (A) (A) (A) (A) (A) (A) (A)
                 (A) (A) (A) (A) (A) (A) (A) (A) (A) (A) (A) (A)
                 (A) (A) (A) (A) (A) (A) (A) (A) (A) (A) (A) (A)
                 (A) (A) (A) (A) (A) (A) (A) (A) (A) (A) (A) (A)
                 (A) (A) (A) (A) (A) (A) (A) (A) (A) (A) (A) (A)
                 (A) (A) (A) (A) (A) (A) (A) (A) (A) (A) (A) (A)
                 (A) (A) (A) (A) (A) (A) (A) (A) (A) (A) (A) (A)
                 (A) (A) (A) (A) (A) (A) (A) (A) (A) (A) (A) (A)
                 (A) (A) (A) (A) (A) (A) (A) (A) (A) (A) (A) (A)
                 (A) (A) (A) (A) (A) (A) (A) (A) (A) (A) (A) (A)
                 (A) (A) (A) (A) (A) (A) (A) (A) (A) (A) (A) (A)
                 (A) (A) (A) (A) (A) (A) (A) (A) (A) (A) (A) (A)
                 (A) (A) (A) (A) (A) (A) (A) (A) (A) (A) (A) (A)
                 (A) (A) (A) (A) (A) (A) (A) (A) (A) (A) (A) (A)
                 (A) (A) (A) (A) (A) (A) (A) (A) (A) (A) (A) (A)
                 (A) (A) (A) (A) (A) (A) (A) (A) (A) (A) (A) (A)
                 (A) (A) (A) (A) (A) (A) (A) (A) (A) (A) (A) (A)
                 (A) (A) (A) (A) (A) (A) (A) (A) (A) (A) (A) (A)
                 (A) (A) (A) (A) (A) (A) (A) (A) (A) (A) (A) (A)
                 (A) (A) (A) (A) (A) (A) (A) (A) (A) (A) (A) (A)
                 (A) (A) (A) (A) (A) (A) (A) (A) (A) (A) (A) (A)
                 (A) (A) (A) (A) (A) (A) (A) (A) (A) (A) (A) (A)
                 (A) (A) (A) (A) (A) (A) (A) (A) (A) (A) (A) (A)
                 (A) (A) (A) (A) (A) (A) (A) (A) (A) (A) (A) (A)
                 (A) (A) (A) (A) (A) (A) (A) (A) (A) (A) (A) (A)
                 (A) (A) (A) (A) (A) (A) (A) (A) (A) (A) (A) (A)
                 (A) (A) (A) (A) (A) (A) (A) (A) (A) (A) (A) (A)
                 (A) (A) (A) (A) (A) (A) (A) (A) (A) (A) (A) (A)
                 (A) (A) (A) (A) (A) (A) (A) (A) (A) (A) (A) (A)
                 (A) (A) (A) (A) (A) (A) (A) (A) (A) (A) (A) (A)
                 (A) (A) (A) (A) (A) (A) (A) (A) (A) (A) (A) (A)
                 (A) (A) (A) (A) (A) (A) (A) (A) (A) (A) (A) (A)
                 (A) (A) (A) (A) (A) (A) (A) (A) (A) (A) (A) (A)
                 (A) (A) (A) (A) (A) (A) (A) (A) (A) (A) (A) (A)
                 (A) (A) (A) (A) (A) (A) (A) (A) (A) (A) (A) (A)
                 (A) (A) (A) (A) (A) (A) (A) (A) (A) (A) (A) (A)
                 (A) (A) (A) (A) (A) (A) (A) (A) (A) (A)
 The electronic state is 1-A.
 Alpha  occ. eigenvalues --  -19.20870 -19.20458 -10.30356 -10.29684 -10.28647
 Alpha  occ. eigenvalues --  -10.28254 -10.27782 -10.27673 -10.27528 -10.27443
 Alpha  occ. eigenvalues --  -10.27417 -10.27397 -10.27337 -10.27329 -10.27211
 Alpha  occ. eigenvalues --  -10.27179 -10.27153 -10.26720 -10.26657 -10.26628
 Alpha  occ. eigenvalues --  -10.26573 -10.26466 -10.26342 -10.26333 -10.26257
 Alpha  occ. eigenvalues --  -10.26175 -10.26158 -10.26077 -10.25998 -10.25990
 Alpha  occ. eigenvalues --  -10.25861 -10.25727 -10.25700 -10.25565 -10.25521
 Alpha  occ. eigenvalues --  -10.25464 -10.25416 -10.25187 -10.25112 -10.24917
 Alpha  occ. eigenvalues --  -10.24119 -10.22218  -1.08162  -1.05640  -0.94693
 Alpha  occ. eigenvalues --   -0.93631  -0.92559  -0.91770  -0.90947  -0.90501
 Alpha  occ. eigenvalues --   -0.88144  -0.87740  -0.86662  -0.86239  -0.85144
 Alpha  occ. eigenvalues --   -0.83592  -0.82438  -0.80610  -0.79907  -0.77699
 Alpha  occ. eigenvalues --   -0.77471  -0.76454  -0.76046  -0.75857  -0.75796
 Alpha  occ. eigenvalues --   -0.75420  -0.74719  -0.74422  -0.74048  -0.69677
 Alpha  occ. eigenvalues --   -0.68162  -0.67049  -0.65584  -0.64661  -0.63768
 Alpha  occ. eigenvalues --   -0.63482  -0.62269  -0.61343  -0.60392  -0.60130
 Alpha  occ. eigenvalues --   -0.59364  -0.58562  -0.58091  -0.57762  -0.56065
 Alpha  occ. eigenvalues --   -0.55830  -0.55109  -0.54864  -0.54407  -0.53604
 Alpha  occ. eigenvalues --   -0.53272  -0.52419  -0.52143  -0.51707  -0.51458
 Alpha  occ. eigenvalues --   -0.51254  -0.50763  -0.49772  -0.49506  -0.49334
 Alpha  occ. eigenvalues --   -0.49064  -0.48967  -0.48823  -0.48759  -0.48352
 Alpha  occ. eigenvalues --   -0.47630  -0.46998  -0.46834  -0.46728  -0.46712
 Alpha  occ. eigenvalues --   -0.46050  -0.45691  -0.45654  -0.45207  -0.45117
 Alpha  occ. eigenvalues --   -0.44863  -0.43728  -0.43563  -0.43408  -0.43107
 Alpha  occ. eigenvalues --   -0.42822  -0.42498  -0.42225  -0.41985  -0.41910
 Alpha  occ. eigenvalues --   -0.41483  -0.41176  -0.40740  -0.40429  -0.39853
 Alpha  occ. eigenvalues --   -0.39819  -0.39634  -0.39426  -0.39140  -0.38761
 Alpha  occ. eigenvalues --   -0.38568  -0.38392  -0.38253  -0.38020  -0.37875
 Alpha  occ. eigenvalues --   -0.37694  -0.37071  -0.37067  -0.36153  -0.35771
 Alpha  occ. eigenvalues --   -0.35599  -0.33939  -0.33532  -0.32302  -0.31970
 Alpha  occ. eigenvalues --   -0.31508  -0.30138  -0.28659  -0.26827  -0.24815
 Alpha  occ. eigenvalues --   -0.22054
 Alpha virt. eigenvalues --   -0.02981   0.00158   0.03287   0.05848   0.07934
 Alpha virt. eigenvalues --    0.09128   0.10098   0.10991   0.11715   0.11988
 Alpha virt. eigenvalues --    0.12049   0.12652   0.12682   0.12968   0.13043
 Alpha virt. eigenvalues --    0.13342   0.13524   0.13609   0.14643   0.14907
 Alpha virt. eigenvalues --    0.15037   0.15198   0.15330   0.15497   0.16030
 Alpha virt. eigenvalues --    0.16364   0.16464   0.16875   0.16950   0.17108
 Alpha virt. eigenvalues --    0.17400   0.17867   0.18384   0.18481   0.19070
 Alpha virt. eigenvalues --    0.19260   0.19462   0.19835   0.19954   0.20256
 Alpha virt. eigenvalues --    0.20526   0.20768   0.20957   0.21283   0.21383
 Alpha virt. eigenvalues --    0.21525   0.21691   0.22261   0.22414   0.22598
 Alpha virt. eigenvalues --    0.23256   0.23475   0.23894   0.23995   0.24658
 Alpha virt. eigenvalues --    0.24814   0.25109   0.25337   0.25655   0.26299
 Alpha virt. eigenvalues --    0.26389   0.26789   0.27150   0.27534   0.27683
 Alpha virt. eigenvalues --    0.28129   0.28211   0.28433   0.28599   0.29052
 Alpha virt. eigenvalues --    0.29307   0.29446   0.29644   0.30000   0.30357
 Alpha virt. eigenvalues --    0.30480   0.31072   0.31130   0.31763   0.32024
 Alpha virt. eigenvalues --    0.32084   0.32673   0.32865   0.33773   0.34678
 Alpha virt. eigenvalues --    0.35012   0.35515   0.36116   0.37271   0.38348
 Alpha virt. eigenvalues --    0.38911   0.39592   0.39836   0.41583   0.41861
 Alpha virt. eigenvalues --    0.42769   0.43692   0.43859   0.44659   0.44993
 Alpha virt. eigenvalues --    0.45738   0.46997   0.48123   0.48700   0.49575
 Alpha virt. eigenvalues --    0.50580   0.51269   0.52530   0.53462   0.54611
 Alpha virt. eigenvalues --    0.54778   0.55271   0.55920   0.56664   0.56890
 Alpha virt. eigenvalues --    0.57044   0.57357   0.57374   0.57933   0.58604
 Alpha virt. eigenvalues --    0.58798   0.59093   0.59638   0.60040   0.60396
 Alpha virt. eigenvalues --    0.60548   0.60680   0.61219   0.61664   0.61819
 Alpha virt. eigenvalues --    0.62114   0.62504   0.62925   0.63350   0.63672
 Alpha virt. eigenvalues --    0.63799   0.64201   0.64411   0.64550   0.64718
 Alpha virt. eigenvalues --    0.65099   0.65808   0.66223   0.66252   0.66844
 Alpha virt. eigenvalues --    0.66935   0.67311   0.67550   0.67951   0.68055
 Alpha virt. eigenvalues --    0.69117   0.69493   0.69644   0.70129   0.70444
 Alpha virt. eigenvalues --    0.70795   0.71420   0.71479   0.71830   0.72060
 Alpha virt. eigenvalues --    0.72322   0.73243   0.73365   0.73830   0.74506
 Alpha virt. eigenvalues --    0.74861   0.75075   0.75374   0.75551   0.75848
 Alpha virt. eigenvalues --    0.76086   0.76564   0.76957   0.77044   0.77397
 Alpha virt. eigenvalues --    0.77624   0.78002   0.78605   0.79059   0.79382
 Alpha virt. eigenvalues --    0.79572   0.80113   0.80919   0.81016   0.81183
 Alpha virt. eigenvalues --    0.81782   0.82073   0.82350   0.82492   0.83284
 Alpha virt. eigenvalues --    0.83454   0.83514   0.83734   0.84450   0.84809
 Alpha virt. eigenvalues --    0.85210   0.85308   0.85373   0.85587   0.86252
 Alpha virt. eigenvalues --    0.86586   0.86941   0.87121   0.87206   0.87306
 Alpha virt. eigenvalues --    0.87543   0.87702   0.87748   0.88178   0.88301
 Alpha virt. eigenvalues --    0.88665   0.89250   0.89463   0.89920   0.90200
 Alpha virt. eigenvalues --    0.90574   0.90799   0.90865   0.91201   0.91386
 Alpha virt. eigenvalues --    0.92063   0.92392   0.92685   0.93097   0.93188
 Alpha virt. eigenvalues --    0.93245   0.93519   0.93967   0.94129   0.94272
 Alpha virt. eigenvalues --    0.94409   0.94868   0.95116   0.95475   0.95699
 Alpha virt. eigenvalues --    0.96026   0.96146   0.96427   0.96496   0.96618
 Alpha virt. eigenvalues --    0.96780   0.97342   0.97380   0.97931   0.98498
 Alpha virt. eigenvalues --    0.98844   0.99466   0.99846   1.00171   1.01219
 Alpha virt. eigenvalues --    1.01604   1.01983   1.02248   1.02457   1.02651
 Alpha virt. eigenvalues --    1.02999   1.04051   1.04151   1.04346   1.04859
 Alpha virt. eigenvalues --    1.05289   1.05690   1.06342   1.06796   1.07095
 Alpha virt. eigenvalues --    1.07295   1.07515   1.08343   1.08403   1.09225
 Alpha virt. eigenvalues --    1.09878   1.10199   1.10414   1.11933   1.12006
 Alpha virt. eigenvalues --    1.13064   1.13210   1.13563   1.13884   1.14814
 Alpha virt. eigenvalues --    1.15547   1.15669   1.16359   1.16781   1.17035
 Alpha virt. eigenvalues --    1.17474   1.17794   1.17919   1.18661   1.20132
 Alpha virt. eigenvalues --    1.20591   1.21690   1.22450   1.22763   1.23006
 Alpha virt. eigenvalues --    1.24339   1.25831   1.26598   1.27074   1.28338
 Alpha virt. eigenvalues --    1.29262   1.29310   1.29519   1.30529   1.31433
 Alpha virt. eigenvalues --    1.32693   1.32820   1.33596   1.34545   1.35305
 Alpha virt. eigenvalues --    1.35935   1.36482   1.36991   1.37561   1.39423
 Alpha virt. eigenvalues --    1.39766   1.40355   1.41378   1.41674   1.42909
 Alpha virt. eigenvalues --    1.43494   1.44307   1.44582   1.46371   1.46828
 Alpha virt. eigenvalues --    1.47304   1.47562   1.48433   1.48722   1.49402
 Alpha virt. eigenvalues --    1.50120   1.50661   1.51381   1.52182   1.52613
 Alpha virt. eigenvalues --    1.53532   1.54471   1.54932   1.55336   1.55954
 Alpha virt. eigenvalues --    1.56852   1.57792   1.58677   1.59254   1.59477
 Alpha virt. eigenvalues --    1.59503   1.60206   1.60779   1.62073   1.62138
 Alpha virt. eigenvalues --    1.63837   1.64267   1.65467   1.65890   1.67701
 Alpha virt. eigenvalues --    1.69060   1.69086   1.69675   1.70162   1.70717
 Alpha virt. eigenvalues --    1.71579   1.72058   1.72640   1.74255   1.75787
 Alpha virt. eigenvalues --    1.76167   1.77163   1.77915   1.78065   1.78575
 Alpha virt. eigenvalues --    1.79750   1.80413   1.80722   1.81051   1.81670
 Alpha virt. eigenvalues --    1.82230   1.82577   1.82990   1.83407   1.83485
 Alpha virt. eigenvalues --    1.83765   1.84407   1.84682   1.85052   1.85293
 Alpha virt. eigenvalues --    1.86335   1.86788   1.86853   1.87385   1.87483
 Alpha virt. eigenvalues --    1.88409   1.88605   1.89293   1.89430   1.89704
 Alpha virt. eigenvalues --    1.89878   1.90780   1.91032   1.91524   1.91944
 Alpha virt. eigenvalues --    1.92233   1.92705   1.92824   1.92954   1.93158
 Alpha virt. eigenvalues --    1.93382   1.93729   1.94917   1.95148   1.95344
 Alpha virt. eigenvalues --    1.96219   1.96410   1.96753   1.97266   1.97480
 Alpha virt. eigenvalues --    1.97750   1.98360   1.98624   1.98871   1.99867
 Alpha virt. eigenvalues --    2.00923   2.01054   2.01338   2.01772   2.02119
 Alpha virt. eigenvalues --    2.02537   2.02595   2.02897   2.03982   2.04101
 Alpha virt. eigenvalues --    2.04562   2.04982   2.05546   2.05919   2.06273
 Alpha virt. eigenvalues --    2.06641   2.07423   2.07796   2.08482   2.08546
 Alpha virt. eigenvalues --    2.09214   2.09660   2.09917   2.10264   2.10576
 Alpha virt. eigenvalues --    2.11644   2.12094   2.12859   2.12921   2.13423
 Alpha virt. eigenvalues --    2.13735   2.14159   2.14237   2.14703   2.15061
 Alpha virt. eigenvalues --    2.15685   2.16331   2.16875   2.17206   2.17667
 Alpha virt. eigenvalues --    2.17936   2.18454   2.18581   2.18837   2.19597
 Alpha virt. eigenvalues --    2.20016   2.20640   2.20759   2.21771   2.22179
 Alpha virt. eigenvalues --    2.23068   2.23433   2.23737   2.24454   2.25346
 Alpha virt. eigenvalues --    2.25832   2.25925   2.26412   2.26507   2.26867
 Alpha virt. eigenvalues --    2.27441   2.27923   2.28110   2.28942   2.29165
 Alpha virt. eigenvalues --    2.29911   2.29937   2.30640   2.30889   2.31665
 Alpha virt. eigenvalues --    2.31881   2.32037   2.32793   2.33160   2.33926
 Alpha virt. eigenvalues --    2.34769   2.35746   2.36201   2.36649   2.36961
 Alpha virt. eigenvalues --    2.36991   2.37517   2.38131   2.39363   2.39548
 Alpha virt. eigenvalues --    2.39982   2.40156   2.40412   2.40992   2.41867
 Alpha virt. eigenvalues --    2.42023   2.42215   2.42566   2.42891   2.43414
 Alpha virt. eigenvalues --    2.43964   2.44111   2.44543   2.44748   2.45049
 Alpha virt. eigenvalues --    2.45768   2.46103   2.46551   2.46807   2.47066
 Alpha virt. eigenvalues --    2.47902   2.48344   2.48748   2.48959   2.50137
 Alpha virt. eigenvalues --    2.50476   2.51069   2.51404   2.51715   2.52467
 Alpha virt. eigenvalues --    2.52875   2.53391   2.53552   2.54213   2.54234
 Alpha virt. eigenvalues --    2.54903   2.55394   2.55748   2.56017   2.56500
 Alpha virt. eigenvalues --    2.56607   2.56933   2.57799   2.58095   2.58602
 Alpha virt. eigenvalues --    2.59610   2.59737   2.59973   2.60795   2.61351
 Alpha virt. eigenvalues --    2.61835   2.62224   2.62860   2.63252   2.63898
 Alpha virt. eigenvalues --    2.64373   2.64721   2.65227   2.66105   2.66709
 Alpha virt. eigenvalues --    2.67058   2.67235   2.67962   2.68175   2.68436
 Alpha virt. eigenvalues --    2.68548   2.69243   2.70041   2.70354   2.70494
 Alpha virt. eigenvalues --    2.70743   2.70992   2.71557   2.72144   2.73341
 Alpha virt. eigenvalues --    2.73776   2.73889   2.74256   2.74656   2.75253
 Alpha virt. eigenvalues --    2.75714   2.75911   2.76828   2.77022   2.77394
 Alpha virt. eigenvalues --    2.77559   2.78020   2.78761   2.79018   2.79305
 Alpha virt. eigenvalues --    2.79674   2.79885   2.80033   2.80405   2.80781
 Alpha virt. eigenvalues --    2.81474   2.82569   2.83137   2.83579   2.84056
 Alpha virt. eigenvalues --    2.85115   2.85816   2.86621   2.86920   2.87352
 Alpha virt. eigenvalues --    2.87385   2.87675   2.87918   2.88364   2.89022
 Alpha virt. eigenvalues --    2.89528   2.90145   2.90347   2.90831   2.92269
 Alpha virt. eigenvalues --    2.92991   2.93830   2.94868   2.95383   2.95770
 Alpha virt. eigenvalues --    2.96936   2.97072   2.97256   2.97400   2.97834
 Alpha virt. eigenvalues --    2.98449   2.98728   2.99328   3.00035   3.00309
 Alpha virt. eigenvalues --    3.02634   3.02824   3.02905   3.03066   3.03452
 Alpha virt. eigenvalues --    3.04618   3.05011   3.06441   3.08346   3.08431
 Alpha virt. eigenvalues --    3.09181   3.11696   3.12348   3.13015   3.13073
 Alpha virt. eigenvalues --    3.13577   3.14607   3.14697   3.16634   3.18982
 Alpha virt. eigenvalues --    3.20028   3.20065   3.22922   3.24390   3.24815
 Alpha virt. eigenvalues --    3.25157   3.26257   3.27094   3.28863   3.29957
 Alpha virt. eigenvalues --    3.30532   3.31913   3.32515   3.33348   3.33381
 Alpha virt. eigenvalues --    3.34759   3.34950   3.36249   3.38560   3.39448
 Alpha virt. eigenvalues --    3.39823   3.39980   3.41177   3.41283   3.41782
 Alpha virt. eigenvalues --    3.42389   3.43025   3.44660   3.45856   3.46419
 Alpha virt. eigenvalues --    3.47356   3.47874   3.49546   3.49911   3.50052
 Alpha virt. eigenvalues --    3.50617   3.52753   3.53037   3.53854   3.55305
 Alpha virt. eigenvalues --    3.56295   3.57535   3.58781   3.59786   3.60968
 Alpha virt. eigenvalues --    3.61357   3.63516   3.65982   3.67217   3.67655
 Alpha virt. eigenvalues --    3.68134   3.69392   3.72079   3.73444   3.77132
 Alpha virt. eigenvalues --    3.77668   3.95999   4.07423   4.10411   4.18857
 Alpha virt. eigenvalues --    4.19937   4.20145   4.22086   4.24094   4.26769
 Alpha virt. eigenvalues --    4.27615   4.28169   4.29378   4.30901   4.36412
 Alpha virt. eigenvalues --    4.39364   4.41231   4.42707   4.45020   4.46539
 Alpha virt. eigenvalues --    4.46947   4.48775   4.48943   4.53206   4.53698
 Alpha virt. eigenvalues --    4.55179   4.55770   4.58252   4.59963   4.62670
 Alpha virt. eigenvalues --    4.63524   4.65814   4.69115   4.69699   4.70852
 Alpha virt. eigenvalues --    4.71587   4.75971   4.78946   4.80717   4.82323
 Alpha virt. eigenvalues --    4.83579   4.86058   4.88613   4.90265
          Condensed to atoms (all electrons):
 Mulliken charges:
               1
     1  O   -0.597413
     2  O   -0.561196
     3  C   -0.020067
     4  C   -0.028370
     5  C   -0.198050
     6  C   -0.188477
     7  C    0.165166
     8  C    0.128310
     9  C    0.033657
    10  C    0.101212
    11  C   -0.189541
    12  C   -0.235379
    13  C    0.009929
    14  C    0.040797
    15  C   -0.300567
    16  C   -0.272306
    17  C   -0.297841
    18  C   -0.292406
    19  C   -0.054772
    20  C   -0.163008
    21  C   -0.330863
    22  C   -0.359534
    23  C   -0.116456
    24  C   -0.084217
    25  C    0.092067
    26  C    0.103463
    27  C   -0.358694
    28  C   -0.377799
    29  C   -0.126574
    30  C   -0.136957
    31  C   -0.100330
    32  C   -0.083333
    33  C   -0.062050
    34  C   -0.090995
    35  C    0.147296
    36  C    0.109381
    37  C   -0.392351
    38  C   -0.346738
    39  C   -0.163205
    40  C   -0.141749
    41  C   -0.084390
    42  C   -0.065685
    43  H    0.097681
    44  H    0.078666
    45  H    0.075211
    46  H    0.073303
    47  H    0.088246
    48  H    0.097793
    49  H    0.119815
    50  H    0.115165
    51  H    0.131053
    52  H    0.127280
    53  H    0.084553
    54  H    0.108202
    55  H    0.109552
    56  H    0.067895
    57  H    0.109069
    58  H    0.105330
    59  H    0.096790
    60  H    0.115889
    61  H    0.088206
    62  H    0.101895
    63  H    0.093553
    64  H    0.099935
    65  H    0.084472
    66  H    0.082947
    67  H    0.090192
    68  H    0.092066
    69  H    0.106140
    70  H    0.089678
    71  H    0.123006
    72  H    0.109779
    73  H    0.306785
    74  H    0.297498
    75  H    0.097363
    76  H    0.085862
    77  H    0.120196
    78  H    0.085966
    79  H    0.099066
    80  H    0.138834
    81  H    0.126434
    82  H    0.081428
    83  H    0.080098
    84  H    0.086681
    85  H    0.086849
    86  H    0.084916
    87  H    0.075279
    88  H    0.092562
    89  H    0.118323
    90  H    0.087293
    91  H    0.128493
    92  H    0.103149
    93  H    0.101216
    94  H    0.120551
    95  H    0.083830
    96  H    0.080366
    97  H    0.077208
    98  H    0.080426
 Sum of Mulliken charges =  -0.00000
 Mulliken charges with hydrogens summed into heavy atoms:
               1
     1  O   -0.290628
     2  O   -0.263698
     3  C   -0.020067
     4  C   -0.028370
     5  C   -0.021703
     6  C   -0.039963
     7  C    0.253412
     8  C    0.226103
     9  C    0.033657
    10  C    0.101212
    11  C    0.045439
    12  C    0.022953
    13  C    0.009929
    14  C    0.040797
    15  C    0.001739
    16  C    0.009988
    17  C    0.003045
    18  C    0.002978
    19  C    0.029699
    20  C   -0.080062
    21  C   -0.042465
    22  C   -0.037071
    23  C   -0.019093
    24  C    0.001645
    25  C    0.092067
    26  C    0.103463
    27  C   -0.053465
    28  C   -0.031102
    29  C   -0.046476
    30  C   -0.050276
    31  C   -0.013480
    32  C    0.001583
    33  C    0.013229
    34  C    0.001567
    35  C    0.147296
    36  C    0.109381
    37  C   -0.058242
    38  C   -0.021823
    39  C   -0.079375
    40  C   -0.061383
    41  C   -0.007182
    42  C    0.014741
 Electronic spatial extent (au):  <R**2>=         111941.2213
 Charge=              0.0000 electrons
 Dipole moment (field-independent basis, Debye):
    X=              0.2325    Y=             -1.3747    Z=              1.6901  Tot=              2.1909
 Quadrupole moment (field-independent basis, Debye-Ang):
   XX=           -312.1474   YY=           -246.7804   ZZ=           -259.6890
   XY=             11.7366   XZ=              1.9190   YZ=              1.7311
 Traceless Quadrupole moment (field-independent basis, Debye-Ang):
   XX=            -39.2751   YY=             26.0918   ZZ=             13.1833
   XY=             11.7366   XZ=              1.9190   YZ=              1.7311
 Octapole moment (field-independent basis, Debye-Ang**2):
  XXX=           -193.2795  YYY=              0.3409  ZZZ=             21.5287  XYY=            127.2728
  XXY=           -342.4881  XXZ=            437.1012  XZZ=            -22.3532  YZZ=             -5.5790
  YYZ=             -2.4903  XYZ=            -68.6509
 Hexadecapole moment (field-independent basis, Debye-Ang**3):
 XXXX=        -166542.8739 YYYY=          -4448.5888 ZZZZ=          -1907.7060 XXXY=           2394.2281
 XXXZ=           -382.0404 YYYX=           -299.3901 YYYZ=             -7.6114 ZZZX=           -143.0135
 ZZZY=             38.0283 XXYY=         -24815.1675 XXZZ=         -23942.2340 YYZZ=          -1068.8923
 XXYZ=           -502.0003 YYXZ=            107.4492 ZZXY=           -219.7557
 N-N= 3.971520590545D+03 E-N=-1.189768082029D+04  KE= 1.689957423721D+03
 1\1\GINC-PADAWAN\SP\RCAM-B3LYP TD-FC\6-31G(d,p)\C40H56O2\PADAWAN\28-Ju
 n-2019\0\\# td=(NStates=1) CAM-B3LYP/6-31G(d,p)\\TD\\0,1\O,0,14.852743
 4933,-2.21878935,-0.3881276658\O,0,-14.8645730543,1.977349591,0.745363
 6304\C,0,11.6069939934,-1.1394845826,1.2426376248\C,0,-12.3880764396,-
 1.0041029703,0.7240279248\C,0,13.013260058,-1.4021132494,1.1471622882\
 C,0,-13.7541080198,-0.2508112411,0.6903979358\C,0,13.4094429383,-1.763
 4918763,-0.3036952585\C,0,-13.5872010601,1.2409968977,0.7611078948\C,0
 ,10.9792764536,-0.3972439405,0.04276003\C,0,-11.3174488459,-0.32531356
 04,-0.1810288569\C,0,13.1290871277,-0.7401547726,-1.2483757106\C,0,-12
 .7827590359,1.7313611131,-0.5217192139\C,0,11.7345482018,-0.2134317163
 ,-1.1063491509\C,0,-11.6310366937,0.8718135044,-0.6934088799\C,0,11.23
 14838754,-0.3681859767,2.5534757886\C,0,10.7908685279,-2.4306235435,1.
 3763557556\C,0,-11.8327254665,-1.0294147695,2.1773663166\C,0,-12.65431
 61336,-2.4796034033,0.3901209161\C,0,9.6132061466,0.2805990968,0.21685
 83658\C,0,-10.1038117482,-1.0756016452,-0.3603947205\C,0,11.2214749125
 ,0.3159760625,-2.4392281298\C,0,-10.570969536,1.5635867427,-1.70868017
 5\C,0,9.3378637534,1.4424376817,-0.1010954835\C,0,-8.8743279178,-0.621
 7957366,-0.3049915452\C,0,8.0027162576,2.114681208,0.0622218912\C,0,-7
 .6321083528,-1.2598503181,-0.548450177\C,0,8.1851889999,3.6224104459,0
 .1996813341\C,0,-7.6064817542,-2.6102407722,-1.0238825633\C,0,6.888574
 2644,1.4954495389,-0.0419542014\C,0,-6.4420760106,-0.5601314882,-0.107
 3237384\C,0,5.5110116532,2.1044681537,0.1570206181\C,0,-5.0682579478,-
 1.089478824,-0.3378959636\C,0,4.4968636174,1.3798133952,-0.044770106\C
 ,0,-4.0683422542,-0.2768438905,-0.1552328533\C,0,3.0878313881,1.774438
 0417,0.0573373987\C,0,-2.6477485389,-0.7308674168,-0.4298306431\C,0,2.
 7619564766,3.1291923681,0.3648191909\C,0,-2.441409635,-2.1397712792,-0
 .8399750375\C,0,2.1280423792,0.7998071446,-0.2249816232\C,0,-1.6824295
 66,0.1810378097,-0.1024620732\C,0,0.6406212311,0.9557703449,-0.0673708
 571\C,0,-0.2444033093,0.035821477,-0.42069971\H,0,13.8557648485,-0.672
 1906542,1.4948043184\H,0,13.3216373997,-2.0943900201,2.0172618582\H,0,
 -14.4895217292,-0.5145116082,1.4508122872\H,0,-14.386600027,-0.3961365
 367,-0.384640084\H,0,12.7565608581,-2.5678215253,-0.6552335884\H,0,-13
 .1851239734,1.4858431023,1.6728167547\H,0,13.6346043924,0.2657838583,-
 1.036419526\H,0,13.3390653995,-1.2928015073,-2.2188425603\H,0,-13.4008
 656306,1.8311944404,-1.4469026233\H,0,-12.5847170787,2.7268247465,-0.2
 372106041\H,0,11.4291715372,-0.7314038665,3.5895236134\H,0,10.32715858
 09,-0.1250720173,2.6469635774\H,0,11.8361628863,0.4629060235,2.4834374
 787\H,0,10.9346924722,-2.8763282129,0.2327386599\H,0,11.1113320502,-2.
 9316980869,2.2180117252\H,0,9.7228282838,-2.2687578689,1.3104559886\H,
 0,-11.6608729873,-0.051159545,2.6223561286\H,0,-10.9047549845,-1.49154
 63096,2.1451405181\H,0,-12.5058617452,-1.5219531003,2.9568682828\H,0,-
 13.5772875098,-2.7674279948,0.9355280618\H,0,-11.6051535634,-2.9825402
 82,0.4066557216\H,0,-13.1496953275,-2.6520955176,-0.5701254865\H,0,9.0
 510969337,-0.4490132214,0.7860727913\H,0,-10.1871484468,-2.2083745615,
 -0.5942290559\H,0,10.1565580748,0.9979998979,-2.2160463076\H,0,11.9169
 20127,1.163660657,-2.9801177258\H,0,11.2091351485,-0.6332038075,-3.179
 1350435\H,0,-11.3317241794,2.2061338424,-2.3053720302\H,0,-9.84370991,
 0.8277434113,-2.2434689529\H,0,-10.1161333683,2.4192605391,-1.12087568
 36\H,0,15.038610414,-3.0283617413,0.1468765807\H,0,-15.204329868,1.555
 9705111,1.5596141664\H,0,10.1844039224,2.1041437183,-0.6258318982\H,0,
 -8.8393906361,0.4873908371,-0.1388086939\H,0,8.6916720292,4.21317117,-
 0.6216284658\H,0,7.1969930883,4.2480602149,-0.0103952065\H,0,8.4646811
 781,3.8680396909,1.4270857266\H,0,-7.8967667067,-3.2780447336,-0.24826
 06651\H,0,-8.1158373397,-2.6301520293,-1.9976660966\H,0,-6.5548243314,
 -3.1007137235,-1.4115579478\H,0,7.0593876018,0.3518489278,0.0505016582
 \H,0,-6.6430245645,0.5197318131,0.2091485379\H,0,5.3242018042,3.149930
 1409,0.3126135164\H,0,-4.9200458246,-2.1258938965,-0.8451419142\H,0,4.
 6372068197,0.3372519711,-0.2389723082\H,0,-4.1588413881,0.8296580827,-
 0.0945766617\H,0,3.4153993249,3.5487989218,1.1723734383\H,0,1.60474712
 77,3.4580144723,0.778070215\H,0,2.8818922112,3.8006979037,-0.539844480
 4\H,0,-2.5161737544,-2.7836055077,0.2156085169\H,0,-3.3449640044,-2.51
 82829484,-1.5895929263\H,0,-1.4961564146,-2.3648766628,-1.0339464306\H
 ,0,2.5720743654,-0.2434129924,-0.2489828023\H,0,-2.0815375548,1.183098
 2277,0.1361870057\H,0,0.243410088,1.9527379797,0.4285786529\H,0,0.1210
 948795,-0.8225622063,-0.8478623702\\Version=ES64L-G16RevA.03\State=1-A
 \HF=-1706.8925634\RMSD=9.224e-09\PG=C01 [X(C40H56O2)]\\@


 FIREWORKS ENDED
 AND SPECTATORS GONE AWAY....
 AH, HOW VAST AND DARK
                     SHIKI
 Job cpu time:       0 days  5 hours 49 minutes 44.9 seconds.
 Elapsed time:       0 days  1 hours 27 minutes 51.2 seconds.
 File lengths (MBytes):  RWF=   3127 Int=      0 D2E=      0 Chk=     84 Scr=      1
 Normal termination of Gaussian 16 at Fri Jun 28 08:00:49 2019.
