 Entering Gaussian System, Link 0=g16
 Input=Geometria-468-.com
 Output=Geometria-468-.log
 Initial command:
 /usr/local/g16/l1.exe "/home/padawan/israel-mol/zeaxanthin/spectra/abs/Gau-26238.inp" -scrdir="/home/padawan/israel-mol/zeaxanthin/spectra/abs/"
 Entering Link 1 = /usr/local/g16/l1.exe PID=     26240.
  
 Copyright (c) 1988,1990,1992,1993,1995,1998,2003,2009,2016,
            Gaussian, Inc.  All Rights Reserved.
  
 This is part of the Gaussian(R) 16 program.  It is based on
 the Gaussian(R) 09 system (copyright 2009, Gaussian, Inc.),
 the Gaussian(R) 03 system (copyright 2003, Gaussian, Inc.),
 the Gaussian(R) 98 system (copyright 1998, Gaussian, Inc.),
 the Gaussian(R) 94 system (copyright 1995, Gaussian, Inc.),
 the Gaussian 92(TM) system (copyright 1992, Gaussian, Inc.),
 the Gaussian 90(TM) system (copyright 1990, Gaussian, Inc.),
 the Gaussian 88(TM) system (copyright 1988, Gaussian, Inc.),
 the Gaussian 86(TM) system (copyright 1986, Carnegie Mellon
 University), and the Gaussian 82(TM) system (copyright 1983,
 Carnegie Mellon University). Gaussian is a federally registered
 trademark of Gaussian, Inc.
  
 This software contains proprietary and confidential information,
 including trade secrets, belonging to Gaussian, Inc.
  
 This software is provided under written license and may be
 used, copied, transmitted, or stored only in accord with that
 written license.
  
 The following legend is applicable only to US Government
 contracts under FAR:
  
                    RESTRICTED RIGHTS LEGEND
  
 Use, reproduction and disclosure by the US Government is
 subject to restrictions as set forth in subparagraphs (a)
 and (c) of the Commercial Computer Software - Restricted
 Rights clause in FAR 52.227-19.
  
 Gaussian, Inc.
 340 Quinnipiac St., Bldg. 40, Wallingford CT 06492
  
  
 ---------------------------------------------------------------
 Warning -- This program may not be used in any manner that
 competes with the business of Gaussian, Inc. or will provide
 assistance to any competitor of Gaussian, Inc.  The licensee
 of this program is prohibited from giving any competitor of
 Gaussian, Inc. access to this program.  By using this program,
 the user acknowledges that Gaussian, Inc. is engaged in the
 business of creating and licensing software in the field of
 computational chemistry and represents and warrants to the
 licensee that it is not a competitor of Gaussian, Inc. and that
 it will not use this program in any manner prohibited above.
 ---------------------------------------------------------------
  

 Cite this work as:
 Gaussian 16, Revision A.03,
 M. J. Frisch, G. W. Trucks, H. B. Schlegel, G. E. Scuseria, 
 M. A. Robb, J. R. Cheeseman, G. Scalmani, V. Barone, 
 G. A. Petersson, H. Nakatsuji, X. Li, M. Caricato, A. V. Marenich, 
 J. Bloino, B. G. Janesko, R. Gomperts, B. Mennucci, H. P. Hratchian, 
 J. V. Ortiz, A. F. Izmaylov, J. L. Sonnenberg, D. Williams-Young, 
 F. Ding, F. Lipparini, F. Egidi, J. Goings, B. Peng, A. Petrone, 
 T. Henderson, D. Ranasinghe, V. G. Zakrzewski, J. Gao, N. Rega, 
 G. Zheng, W. Liang, M. Hada, M. Ehara, K. Toyota, R. Fukuda, 
 J. Hasegawa, M. Ishida, T. Nakajima, Y. Honda, O. Kitao, H. Nakai, 
 T. Vreven, K. Throssell, J. A. Montgomery, Jr., J. E. Peralta, 
 F. Ogliaro, M. J. Bearpark, J. J. Heyd, E. N. Brothers, K. N. Kudin, 
 V. N. Staroverov, T. A. Keith, R. Kobayashi, J. Normand, 
 K. Raghavachari, A. P. Rendell, J. C. Burant, S. S. Iyengar, 
 J. Tomasi, M. Cossi, J. M. Millam, M. Klene, C. Adamo, R. Cammi, 
 J. W. Ochterski, R. L. Martin, K. Morokuma, O. Farkas, 
 J. B. Foresman, and D. J. Fox, Gaussian, Inc., Wallingford CT, 2016.
 
 ******************************************
 Gaussian 16:  ES64L-G16RevA.03 25-Dec-2016
                10-Jul-2019 
 ******************************************
 %nproc=4
 Will use up to    4 processors via shared memory.
 %Mem=2GB
 -------------------------------------
 # td=(NStates=1) CAM-B3LYP/6-31G(d,p)
 -------------------------------------
 1/38=1,172=1/1;
 2/12=2,17=6,18=5,40=1/2;
 3/5=1,6=6,7=101,11=9,25=1,30=1,74=-40/1,2,3,8;
 4//1;
 5/5=2,38=5/2;
 8/6=1,10=2,108=1/1;
 9/41=1,42=1,70=2/14;
 6/7=2,8=2,9=2,10=2/1;
 99/5=1,9=1/99;
 --
 TD
 --
 Symbolic Z-matrix:
 Charge =  0 Multiplicity = 1
 8                     14.74701  -2.21014  -0.2892 
 8                    -14.83608   1.99243   0.55355 
 6                     11.4332  -1.01635   1.12286 
 6                    -12.34902  -0.78448   0.76276 
 6                     12.98402  -1.33947   1.04803 
 6                    -13.7428  -0.12781   0.61532 
 6                     13.4401  -1.78633  -0.27835 
 6                    -13.55714   1.32213   0.68916 
 6                     11.03418  -0.26254  -0.10743 
 6                    -11.37755  -0.24227  -0.2879 
 6                     13.07942  -0.80406  -1.34608 
 6                    -12.8472   1.74779  -0.55482 
 6                     11.75121  -0.1384   -1.25547 
 6                    -11.63976   0.91537  -0.80796 
 6                     11.22149  -0.21455   2.34206 
 6                     10.76764  -2.446     1.19379 
 6                    -11.7134  -0.80081   2.11436 
 6                    -12.63527  -2.37513   0.45294 
 6                     9.73224   0.28731   0.09508 
 6                    -10.03809  -1.08083  -0.48662 
 6                     11.3331   0.40425  -2.42871 
 6                    -10.66576   1.41066  -1.9294 
 6                     9.38452   1.61546  -0.10601 
 6                    -8.83984  -0.59135  -0.15874 
 6                     8.03126   2.2273    0.07345 
 6                    -7.53848  -1.32052  -0.35689 
 6                     8.05726   3.72231   0.45245 
 6                    -7.74662  -2.61206  -1.06353 
 6                     6.94407   1.48642  -0.02826 
 6                    -6.49471  -0.64692  -0.03939 
 6                     5.53858   1.88248   0.13469 
 6                    -5.08783  -1.14579  -0.18078 
 6                     4.40248   1.18095  -0.16161 
 6                    -3.96136  -0.42891  -0.09191 
 6                     2.99783   1.63325   0.06195 
 6                    -2.68754  -0.84644  -0.31436 
 6                     2.80128   3.00664   0.75519 
 6                    -2.27218  -2.28957  -0.86764 
 6                     2.00511   0.73489  -0.08654 
 6                    -1.6311    0.06526  -0.049 
 6                     0.65401   0.89118   0.0316 
 6                    -0.23799  -0.10483  -0.1036 
 1                     13.53494  -0.39455   1.3337 
 1                     13.34674  -2.07837   1.78399 
 1                    -14.26103  -0.52006   1.66124 
 1                    -14.22957  -0.59771  -0.22121 
 1                     12.72898  -2.65152  -0.47545 
 1                    -12.99913   1.60694   1.57712 
 1                     13.75244  -0.00293  -1.13714 
 1                     13.2499  -1.08912  -2.38738 
 1                    -13.54288   1.84698  -1.3502 
 1                    -12.54482   2.74075  -0.33238 
 1                     11.64991  -0.57455   3.29989 
 1                     10.06989  -0.15034   2.72445 
 1                     11.45042   0.77729   2.41585 
 1                     10.74738  -2.9545    0.27435 
 1                     11.16028  -3.23736   1.92155 
 1                     9.66584  -2.27073   1.3795 
 1                    -11.53312   0.08627   2.47036 
 1                    -10.81937  -1.36894   2.09828 
 1                    -12.40739  -1.25223   2.67412 
 1                    -13.56921  -2.69813   1.08864 
 1                    -12.0223  -3.09343   0.70341 
 1                    -12.93555  -2.50585  -0.67009 
 1                     8.94365  -0.44675   0.1748 
 1                    -10.18869  -2.10937  -0.67554 
 1                     10.29365   0.72908  -2.71601 
 1                     11.91683   1.22652  -2.88438 
 1                     11.48225  -0.18753  -3.44375 
 1                    -11.18194   1.85548  -2.66473 
 1                    -10.17787   0.58324  -2.21349 
 1                    -10.01115   2.14334  -1.60408 
 1                     15.07537  -2.57017   0.91885 
 1                    -15.30328   1.5137    1.21298 
 1                     10.30813   2.24671  -0.34918 
 1                    -8.71473   0.41161   0.08277 
 1                     8.5208    4.31366  -0.27303 
 1                     7.13084   3.99838   0.61516 
 1                     8.73512   3.89508   1.51049 
 1                    -8.20959  -3.25527  -0.43158 
 1                    -8.42134  -2.39543  -1.96957 
 1                    -6.69695  -2.99916  -1.39015 
 1                     7.13669   0.38633  -0.32696 
 1                    -6.62557   0.30078   0.34386 
 1                     5.40691   2.98593   0.6005 
 1                    -5.08719  -2.10079  -0.64262 
 1                     4.51532   0.15013  -0.69407 
 1                    -4.06325   0.50323   0.30851 
 1                     3.43406   2.80238   1.74003 
 1                     1.65373   3.04166   1.04889 
 1                     3.0993    3.96791   0.16652 
 1                    -2.54506  -2.8957    0.03957 
 1                    -2.8854   -2.36256  -1.74241 
 1                    -1.12437  -2.38724  -1.02803 
 1                     2.38404  -0.30653  -0.3453 
 1                    -1.91798   1.07253   0.10764 
 1                     0.22874   1.90813   0.30713 
 1                     0.15821  -1.13756  -0.32702 
 
 Stoichiometry    C40H56O2
 Framework group  C1[X(C40H56O2)]
 Deg. of freedom   288
 Full point group                 C1      NOp   1
 Largest Abelian subgroup         C1      NOp   1
 Largest concise Abelian subgroup C1      NOp   1
                         Standard orientation:                         
 ---------------------------------------------------------------------
 Center     Atomic      Atomic             Coordinates (Angstroms)
 Number     Number       Type             X           Y           Z
 ---------------------------------------------------------------------
      1          8           0       14.747029   -2.206790   -0.262865
      2          8           0      -14.837552    1.994595    0.532196
      3          6           0       11.432456   -1.000844    1.137025
      4          6           0      -12.349728   -0.779492    0.768070
      5          6           0       12.983394   -1.324178    1.065665
      6          6           0      -13.743656   -0.124646    0.614100
      7          6           0       13.439983   -1.783295   -0.256354
      8          6           0      -13.558449    1.325971    0.674427
      9          6           0       11.033567   -0.258692   -0.100375
     10          6           0      -11.378122   -0.246835   -0.287343
     11          6           0       13.079321   -0.811160   -1.333319
     12          6           0      -12.848279    1.740198   -0.573283
     13          6           0       11.750885   -0.145084   -1.249322
     14          6           0      -11.640521    0.905804   -0.818283
     15          6           0       11.220166   -0.187737    2.348622
     16          6           0       10.767301   -2.429960    1.221138
     17          6           0      -11.714489   -0.782989    2.119941
     18          6           0      -12.635418   -2.373058    0.473056
     19          6           0        9.731402    0.292637    0.096617
     20          6           0      -10.038347   -1.086822   -0.477831
     21          6           0       11.332944    0.386452   -2.427698
     22          6           0      -10.666351    1.390879   -1.944034
     23          6           0        9.383344    1.618749   -0.116977
     24          6           0       -8.840345   -0.593937   -0.154205
     25          6           0        8.029852    2.231832    0.056370
     26          6           0       -7.538706   -1.324532   -0.345163
     27          6           0        8.055296    3.730327    0.421370
     28          6           0       -7.746257   -2.622692   -1.039746
     29          6           0        6.942912    1.489703   -0.038719
     30          6           0       -6.495230   -0.647682   -0.033679
     31          6           0        5.537263    1.886845    0.120124
     32          6           0       -5.088160   -1.147434   -0.170003
     33          6           0        4.401456    1.182241   -0.169922
     34          6           0       -3.961930   -0.429411   -0.087521
     35          6           0        2.996606    1.636191    0.049002
     36          6           0       -2.687923   -0.848621   -0.305699
     37          6           0        2.799448    3.015942    0.729310
     38          6           0       -2.271976   -2.296735   -0.845338
     39          6           0        2.004193    0.736180   -0.091355
     40          6           0       -1.631832    0.065834   -0.048578
     41          6           0        0.653016    0.893165    0.024934
     42          6           0       -0.238654   -0.104340   -0.101193
     43          1           0       13.533957   -0.376468    1.342636
     44          1           0       13.346127   -2.056055    1.808603
     45          1           0      -14.262069   -0.507255    1.663499
     46          1           0      -14.230055   -0.602494   -0.218140
     47          1           0       12.729179   -2.650500   -0.445546
     48          1           0      -13.000774    1.619241    1.559838
     49          1           0       13.752037   -0.007911   -1.131696
     50          1           0       13.250177   -1.105896   -2.371863
     51          1           0      -13.543766    1.831728   -1.369752
     52          1           0      -12.546266    2.735279   -0.360052
     53          1           0       11.648421   -0.538631    3.309898
     54          1           0       10.068438   -0.120303    2.730066
     55          1           0       11.448781    0.804817    2.413192
     56          1           0       10.747461   -2.947045    0.306495
     57          1           0       11.159970   -3.214364    1.956384
     58          1           0        9.665402   -2.253295    1.404896
     59          1           0      -11.534571    0.107442    2.467680
     60          1           0      -10.820278   -1.350978    2.109424
     61          1           0      -12.408503   -1.229356    2.683703
     62          1           0      -13.569435   -2.690376    1.111492
     63          1           0      -12.022297   -3.088798    0.730405
     64          1           0      -12.935339   -2.514364   -0.648779
     65          1           0        8.943006   -0.440884    0.182983
     66          1           0      -10.188590   -2.117132   -0.657164
     67          1           0       10.293485    0.708267   -2.718316
     68          1           0       11.916563    1.204591   -2.890875
     69          1           0       11.482566   -0.214755   -3.437120
     70          1           0      -11.182454    1.828644   -2.683633
     71          1           0      -10.178138    0.560982   -2.220228
     72          1           0      -10.012056    2.126768   -1.625398
     73          1           0       15.075153   -2.555404    0.948593
     74          1           0      -15.304797    1.521909    1.195939
     75          1           0       10.306834    2.247967   -0.365788
     76          1           0       -8.715596    0.411281    0.077949
     77          1           0        8.518876    4.315006   -0.309478
     78          1           0        7.128748    4.007624    0.581231
     79          1           0        8.732805    3.913192    1.477947
     80          1           0       -8.209218   -3.260103   -0.401941
     81          1           0       -8.420786   -2.414746   -1.947970
     82          1           0       -6.696382   -3.012517   -1.362434
     83          1           0        7.135940    0.386929   -0.327055
     84          1           0       -6.626482    0.303522    0.340652
     85          1           0        5.405127    2.994572    0.575560
     86          1           0       -5.087106   -2.106709   -0.622892
     87          1           0        4.514755    0.146519   -0.692681
     88          1           0       -4.064212    0.506397    0.304134
     89          1           0        3.432009    2.821096    1.716198
     90          1           0        1.651805    3.053365    1.022345
     91          1           0        3.097353    3.971758    0.131757
     92          1           0       -2.544928   -2.894436    0.067423
     93          1           0       -2.884921   -2.378089   -1.719560
     94          1           0       -1.124088   -2.395559   -1.004482
     95          1           0        2.383502   -0.307501   -0.340260
     96          1           0       -1.919053    1.074440    0.098554
     97          1           0        0.227361    1.912520    0.290817
     98          1           0        0.157918   -1.138997   -0.314834
 ---------------------------------------------------------------------
 Rotational constants (GHZ):           0.2553069           0.0092194           0.0090685
 Standard basis: 6-31G(d,p) (6D, 7F)
 There are   910 symmetry adapted cartesian basis functions of A   symmetry.
 There are   910 symmetry adapted basis functions of A   symmetry.
   910 basis functions,  1568 primitive gaussians,   910 cartesian basis functions
   156 alpha electrons      156 beta electrons
       nuclear repulsion energy      3987.4982423007 Hartrees.
 NAtoms=   98 NActive=   98 NUniq=   98 SFac= 1.00D+00 NAtFMM=   60 NAOKFM=T Big=T
 Integral buffers will be    131072 words long.
 Raffenetti 1 integral format.
 Two-electron integral symmetry is turned on.
 One-electron integrals computed using PRISM.
 NBasis=   910 RedAO= T EigKep=  8.55D-04  NBF=   910
 NBsUse=   910 1.00D-06 EigRej= -1.00D+00 NBFU=   910
 ExpMin= 1.61D-01 ExpMax= 5.48D+03 ExpMxC= 8.25D+02 IAcc=3 IRadAn=         5 AccDes= 0.00D+00
 Harris functional with IExCor=20419 and IRadAn=       5 diagonalized for initial guess.
 HarFok:  IExCor=20419 AccDes= 0.00D+00 IRadAn=         5 IDoV= 1 UseB2=F ITyADJ=14
 ICtDFT=  3500011 ScaDFX=  1.000000  1.000000  1.000000  1.000000
 FoFCou: FMM=F IPFlag=           0 FMFlag=      100000 FMFlg1=        2001
         NFxFlg=           0 DoJE=T BraDBF=F KetDBF=T FulRan=T
         wScrn=  0.000000 ICntrl=       500 IOpCl=  0 I1Cent=   200000004 NGrid=           0
         NMat0=    1 NMatS0=      1 NMatT0=    0 NMatD0=    1 NMtDS0=    0 NMtDT0=    0
 Petite list used in FoFCou.
 Requested convergence on RMS density matrix=1.00D-08 within 128 cycles.
 Requested convergence on MAX density matrix=1.00D-06.
 Requested convergence on             energy=1.00D-06.
 No special actions if energy rises.
 Integral accuracy reduced to 1.0D-05 until final iterations.
 Initial convergence to 1.0D-05 achieved.  Increase integral accuracy.
 SCF Done:  E(RCAM-B3LYP) =  -1706.96440740     A.U. after   14 cycles
            NFock= 14  Conv=0.92D-08     -V/T= 2.0088
 DoSCS=F DFT=T ScalE2(SS,OS)=  1.000000  1.000000
 ExpMin= 1.61D-01 ExpMax= 5.48D+03 ExpMxC= 8.25D+02 IAcc=3 IRadAn=         5 AccDes= 0.00D+00
 HarFok:  IExCor=  205 AccDes= 0.00D+00 IRadAn=         5 IDoV=-2 UseB2=F ITyADJ=14
 ICtDFT= 12500011 ScaDFX=  1.000000  1.000000  1.000000  1.000000
 GSVD:  LWork=       -2100 too small for GESVD, short by        9450 words or        9450 for optimal perf.
 Range of M.O.s used for correlation:    43   910
 NBasis=   910 NAE=   156 NBE=   156 NFC=    42 NFV=     0
 NROrb=    868 NOA=   114 NOB=   114 NVA=   754 NVB=   754
 Orbital symmetries:
       Occupied  (A) (A) (A) (A) (A) (A) (A) (A) (A) (A) (A) (A)
                 (A) (A) (A) (A) (A) (A) (A) (A) (A) (A) (A) (A)
                 (A) (A) (A) (A) (A) (A) (A) (A) (A) (A) (A) (A)
                 (A) (A) (A) (A) (A) (A) (A) (A) (A) (A) (A) (A)
                 (A) (A) (A) (A) (A) (A) (A) (A) (A) (A) (A) (A)
                 (A) (A) (A) (A) (A) (A) (A) (A) (A) (A) (A) (A)
                 (A) (A) (A) (A) (A) (A) (A) (A) (A) (A) (A) (A)
                 (A) (A) (A) (A) (A) (A) (A) (A) (A) (A) (A) (A)
                 (A) (A) (A) (A) (A) (A) (A) (A) (A) (A) (A) (A)
                 (A) (A) (A) (A) (A) (A) (A) (A) (A) (A) (A) (A)
                 (A) (A) (A) (A) (A) (A) (A) (A) (A) (A) (A) (A)
                 (A) (A) (A) (A) (A) (A) (A) (A) (A) (A) (A) (A)
                 (A) (A) (A) (A) (A) (A) (A) (A) (A) (A) (A) (A)
       Virtual   (A) (A) (A) (A) (A) (A) (A) (A) (A) (A) (A) (A)
                 (A) (A) (A) (A) (A) (A) (A) (A) (A) (A) (A) (A)
                 (A) (A) (A) (A) (A) (A) (A) (A) (A) (A) (A) (A)
                 (A) (A) (A) (A) (A) (A) (A) (A) (A) (A) (A) (A)
                 (A) (A) (A) (A) (A) (A) (A) (A) (A) (A) (A) (A)
                 (A) (A) (A) (A) (A) (A) (A) (A) (A) (A) (A) (A)
                 (A) (A) (A) (A) (A) (A) (A) (A) (A) (A) (A) (A)
                 (A) (A) (A) (A) (A) (A) (A) (A) (A) (A) (A) (A)
                 (A) (A) (A) (A) (A) (A) (A) (A) (A) (A) (A) (A)
                 (A) (A) (A) (A) (A) (A) (A) (A) (A) (A) (A) (A)
                 (A) (A) (A) (A) (A) (A) (A) (A) (A) (A) (A) (A)
                 (A) (A) (A) (A) (A) (A) (A) (A) (A) (A) (A) (A)
                 (A) (A) (A) (A) (A) (A) (A) (A) (A) (A) (A) (A)
                 (A) (A) (A) (A) (A) (A) (A) (A) (A) (A) (A) (A)
                 (A) (A) (A) (A) (A) (A) (A) (A) (A) (A) (A) (A)
                 (A) (A) (A) (A) (A) (A) (A) (A) (A) (A) (A) (A)
                 (A) (A) (A) (A) (A) (A) (A) (A) (A) (A) (A) (A)
                 (A) (A) (A) (A) (A) (A) (A) (A) (A) (A) (A) (A)
                 (A) (A) (A) (A) (A) (A) (A) (A) (A) (A) (A) (A)
                 (A) (A) (A) (A) (A) (A) (A) (A) (A) (A) (A) (A)
                 (A) (A) (A) (A) (A) (A) (A) (A) (A) (A) (A) (A)
                 (A) (A) (A) (A) (A) (A) (A) (A) (A) (A) (A) (A)
                 (A) (A) (A) (A) (A) (A) (A) (A) (A) (A) (A) (A)
                 (A) (A) (A) (A) (A) (A) (A) (A) (A) (A) (A) (A)
                 (A) (A) (A) (A) (A) (A) (A) (A) (A) (A) (A) (A)
                 (A) (A) (A) (A) (A) (A) (A) (A) (A) (A) (A) (A)
                 (A) (A) (A) (A) (A) (A) (A) (A) (A) (A) (A) (A)
                 (A) (A) (A) (A) (A) (A) (A) (A) (A) (A) (A) (A)
                 (A) (A) (A) (A) (A) (A) (A) (A) (A) (A) (A) (A)
                 (A) (A) (A) (A) (A) (A) (A) (A) (A) (A) (A) (A)
                 (A) (A) (A) (A) (A) (A) (A) (A) (A) (A) (A) (A)
                 (A) (A) (A) (A) (A) (A) (A) (A) (A) (A) (A) (A)
                 (A) (A) (A) (A) (A) (A) (A) (A) (A) (A) (A) (A)
                 (A) (A) (A) (A) (A) (A) (A) (A) (A) (A) (A) (A)
                 (A) (A) (A) (A) (A) (A) (A) (A) (A) (A) (A) (A)
                 (A) (A) (A) (A) (A) (A) (A) (A) (A) (A) (A) (A)
                 (A) (A) (A) (A) (A) (A) (A) (A) (A) (A) (A) (A)
                 (A) (A) (A) (A) (A) (A) (A) (A) (A) (A) (A) (A)
                 (A) (A) (A) (A) (A) (A) (A) (A) (A) (A) (A) (A)
                 (A) (A) (A) (A) (A) (A) (A) (A) (A) (A) (A) (A)
                 (A) (A) (A) (A) (A) (A) (A) (A) (A) (A) (A) (A)
                 (A) (A) (A) (A) (A) (A) (A) (A) (A) (A) (A) (A)
                 (A) (A) (A) (A) (A) (A) (A) (A) (A) (A) (A) (A)
                 (A) (A) (A) (A) (A) (A) (A) (A) (A) (A) (A) (A)
                 (A) (A) (A) (A) (A) (A) (A) (A) (A) (A) (A) (A)
                 (A) (A) (A) (A) (A) (A) (A) (A) (A) (A) (A) (A)
                 (A) (A) (A) (A) (A) (A) (A) (A) (A) (A) (A) (A)
                 (A) (A) (A) (A) (A) (A) (A) (A) (A) (A) (A) (A)
                 (A) (A) (A) (A) (A) (A) (A) (A) (A) (A) (A) (A)
                 (A) (A) (A) (A) (A) (A) (A) (A) (A) (A) (A) (A)
                 (A) (A) (A) (A) (A) (A) (A) (A) (A) (A) (A) (A)
                 (A) (A) (A) (A) (A) (A) (A) (A) (A) (A) (A) (A)
                 (A) (A) (A) (A) (A) (A) (A) (A) (A) (A) (A) (A)
                 (A) (A) (A) (A) (A) (A) (A) (A) (A) (A) (A) (A)
                 (A) (A) (A) (A) (A) (A) (A) (A) (A) (A) (A) (A)
                 (A) (A) (A) (A) (A) (A) (A) (A) (A) (A) (A) (A)
                 (A) (A) (A) (A) (A) (A) (A) (A) (A) (A) (A) (A)
                 (A) (A) (A) (A) (A) (A) (A) (A) (A) (A) (A) (A)
                 (A) (A) (A) (A) (A) (A) (A) (A) (A) (A) (A) (A)
                 (A) (A) (A) (A) (A) (A) (A) (A) (A) (A) (A) (A)
                 (A) (A) (A) (A) (A) (A) (A) (A) (A) (A) (A) (A)
                 (A) (A) (A) (A) (A) (A) (A) (A) (A) (A) (A) (A)
                 (A) (A) (A) (A) (A) (A) (A) (A) (A) (A)
     4 initial guesses have been made.
 Convergence on wavefunction:    0.001000000000000
 Iteration     1 Dimension     4 NMult     0 NNew      4
 CISAX will form     4 AO SS matrices at one time.
 Iteration     2 Dimension     6 NMult     4 NNew      2
 Iteration     3 Dimension     8 NMult     6 NNew      2
 Iteration     4 Dimension    10 NMult     8 NNew      2
 Iteration     5 Dimension    12 NMult    10 NNew      2
 Iteration     6 Dimension    14 NMult    12 NNew      2
 ***********************************************************************
 Excited states from <AA,BB:AA,BB> singles matrix:
 ***********************************************************************
 
 Ground to excited state transition densities written to RWF  633
 Ground to excited state transition electric dipole moments (Au):
       state          X           Y           Z        Dip. S.      Osc.
         1        -7.1770     -1.4750     -0.2757     53.7611      3.5934
 Ground to excited state transition velocity dipole moments (Au):
       state          X           Y           Z        Dip. S.      Osc.
         1         0.6933      0.1411      0.0275      0.5013      3.3333
 Ground to excited state transition magnetic dipole moments (Au):
       state          X           Y           Z
         1         0.0567      0.0067     -0.8278
 Ground to excited state transition velocity quadrupole moments (Au):
       state          XX          YY          ZZ          XY          XZ          YZ
         1         0.2689      0.2155      0.0514      0.0298     -0.2523     -0.0050
 <0|del|b> * <b|rxdel|0> + <0|del|b> * <b|delr+rdel|0>
 Rotatory Strengths (R) in cgs (10**-40 erg-esu-cm/Gauss)
       state          XX          YY          ZZ    R(velocity)    E-M Angle
         1        51.5582     43.2254     28.8122     41.1986       88.29
 1/2[<0|r|b>*<b|rxdel|0> + (<0|rxdel|b>*<b|r|0>)*]
 Rotatory Strengths (R) in cgs (10**-40 erg-esu-cm/Gauss)
       state          XX          YY          ZZ     R(length)
         1       287.8324      7.0252   -161.3751     44.4942
  1/2[<0|del|b>*<b|r|0> + (<0|r|b>*<b|del|0>)*] (Au)
       state          X           Y           Z        Dip. S.   Osc.(frdel)
         1        -4.9757     -0.2081     -0.0076      5.1913      3.4609

 Excitation energies and oscillator strengths:
 
 Excited State   1:      Singlet-A      2.7282 eV  454.45 nm  f=3.5934  <S**2>=0.000
     155 ->158        -0.14325
     156 ->157         0.68976
 This state for optimization and/or second-order correction.
 Total Energy, E(TD-HF/TD-DFT) =  -1706.86414730    
 Copying the excited state density for this state as the 1-particle RhoCI density.
 SavETr:  write IOETrn=   770 NScale= 10 NData=  16 NLR=1 NState=    1 LETran=      28.

 **********************************************************************

            Population analysis using the SCF density.

 **********************************************************************

 Orbital symmetries:
       Occupied  (A) (A) (A) (A) (A) (A) (A) (A) (A) (A) (A) (A)
                 (A) (A) (A) (A) (A) (A) (A) (A) (A) (A) (A) (A)
                 (A) (A) (A) (A) (A) (A) (A) (A) (A) (A) (A) (A)
                 (A) (A) (A) (A) (A) (A) (A) (A) (A) (A) (A) (A)
                 (A) (A) (A) (A) (A) (A) (A) (A) (A) (A) (A) (A)
                 (A) (A) (A) (A) (A) (A) (A) (A) (A) (A) (A) (A)
                 (A) (A) (A) (A) (A) (A) (A) (A) (A) (A) (A) (A)
                 (A) (A) (A) (A) (A) (A) (A) (A) (A) (A) (A) (A)
                 (A) (A) (A) (A) (A) (A) (A) (A) (A) (A) (A) (A)
                 (A) (A) (A) (A) (A) (A) (A) (A) (A) (A) (A) (A)
                 (A) (A) (A) (A) (A) (A) (A) (A) (A) (A) (A) (A)
                 (A) (A) (A) (A) (A) (A) (A) (A) (A) (A) (A) (A)
                 (A) (A) (A) (A) (A) (A) (A) (A) (A) (A) (A) (A)
       Virtual   (A) (A) (A) (A) (A) (A) (A) (A) (A) (A) (A) (A)
                 (A) (A) (A) (A) (A) (A) (A) (A) (A) (A) (A) (A)
                 (A) (A) (A) (A) (A) (A) (A) (A) (A) (A) (A) (A)
                 (A) (A) (A) (A) (A) (A) (A) (A) (A) (A) (A) (A)
                 (A) (A) (A) (A) (A) (A) (A) (A) (A) (A) (A) (A)
                 (A) (A) (A) (A) (A) (A) (A) (A) (A) (A) (A) (A)
                 (A) (A) (A) (A) (A) (A) (A) (A) (A) (A) (A) (A)
                 (A) (A) (A) (A) (A) (A) (A) (A) (A) (A) (A) (A)
                 (A) (A) (A) (A) (A) (A) (A) (A) (A) (A) (A) (A)
                 (A) (A) (A) (A) (A) (A) (A) (A) (A) (A) (A) (A)
                 (A) (A) (A) (A) (A) (A) (A) (A) (A) (A) (A) (A)
                 (A) (A) (A) (A) (A) (A) (A) (A) (A) (A) (A) (A)
                 (A) (A) (A) (A) (A) (A) (A) (A) (A) (A) (A) (A)
                 (A) (A) (A) (A) (A) (A) (A) (A) (A) (A) (A) (A)
                 (A) (A) (A) (A) (A) (A) (A) (A) (A) (A) (A) (A)
                 (A) (A) (A) (A) (A) (A) (A) (A) (A) (A) (A) (A)
                 (A) (A) (A) (A) (A) (A) (A) (A) (A) (A) (A) (A)
                 (A) (A) (A) (A) (A) (A) (A) (A) (A) (A) (A) (A)
                 (A) (A) (A) (A) (A) (A) (A) (A) (A) (A) (A) (A)
                 (A) (A) (A) (A) (A) (A) (A) (A) (A) (A) (A) (A)
                 (A) (A) (A) (A) (A) (A) (A) (A) (A) (A) (A) (A)
                 (A) (A) (A) (A) (A) (A) (A) (A) (A) (A) (A) (A)
                 (A) (A) (A) (A) (A) (A) (A) (A) (A) (A) (A) (A)
                 (A) (A) (A) (A) (A) (A) (A) (A) (A) (A) (A) (A)
                 (A) (A) (A) (A) (A) (A) (A) (A) (A) (A) (A) (A)
                 (A) (A) (A) (A) (A) (A) (A) (A) (A) (A) (A) (A)
                 (A) (A) (A) (A) (A) (A) (A) (A) (A) (A) (A) (A)
                 (A) (A) (A) (A) (A) (A) (A) (A) (A) (A) (A) (A)
                 (A) (A) (A) (A) (A) (A) (A) (A) (A) (A) (A) (A)
                 (A) (A) (A) (A) (A) (A) (A) (A) (A) (A) (A) (A)
                 (A) (A) (A) (A) (A) (A) (A) (A) (A) (A) (A) (A)
                 (A) (A) (A) (A) (A) (A) (A) (A) (A) (A) (A) (A)
                 (A) (A) (A) (A) (A) (A) (A) (A) (A) (A) (A) (A)
                 (A) (A) (A) (A) (A) (A) (A) (A) (A) (A) (A) (A)
                 (A) (A) (A) (A) (A) (A) (A) (A) (A) (A) (A) (A)
                 (A) (A) (A) (A) (A) (A) (A) (A) (A) (A) (A) (A)
                 (A) (A) (A) (A) (A) (A) (A) (A) (A) (A) (A) (A)
                 (A) (A) (A) (A) (A) (A) (A) (A) (A) (A) (A) (A)
                 (A) (A) (A) (A) (A) (A) (A) (A) (A) (A) (A) (A)
                 (A) (A) (A) (A) (A) (A) (A) (A) (A) (A) (A) (A)
                 (A) (A) (A) (A) (A) (A) (A) (A) (A) (A) (A) (A)
                 (A) (A) (A) (A) (A) (A) (A) (A) (A) (A) (A) (A)
                 (A) (A) (A) (A) (A) (A) (A) (A) (A) (A) (A) (A)
                 (A) (A) (A) (A) (A) (A) (A) (A) (A) (A) (A) (A)
                 (A) (A) (A) (A) (A) (A) (A) (A) (A) (A) (A) (A)
                 (A) (A) (A) (A) (A) (A) (A) (A) (A) (A) (A) (A)
                 (A) (A) (A) (A) (A) (A) (A) (A) (A) (A) (A) (A)
                 (A) (A) (A) (A) (A) (A) (A) (A) (A) (A) (A) (A)
                 (A) (A) (A) (A) (A) (A) (A) (A) (A) (A) (A) (A)
                 (A) (A) (A) (A) (A) (A) (A) (A) (A) (A) (A) (A)
                 (A) (A) (A) (A) (A) (A) (A) (A) (A) (A) (A) (A)
                 (A) (A) (A) (A) (A) (A) (A) (A) (A) (A) (A) (A)
                 (A) (A) (A) (A) (A) (A) (A) (A) (A) (A) (A) (A)
                 (A) (A) (A) (A) (A) (A) (A) (A) (A) (A) (A) (A)
                 (A) (A) (A) (A) (A) (A) (A) (A) (A) (A) (A) (A)
                 (A) (A) (A) (A) (A) (A) (A) (A) (A) (A) (A) (A)
                 (A) (A) (A) (A) (A) (A) (A) (A) (A) (A) (A) (A)
                 (A) (A) (A) (A) (A) (A) (A) (A) (A) (A) (A) (A)
                 (A) (A) (A) (A) (A) (A) (A) (A) (A) (A) (A) (A)
                 (A) (A) (A) (A) (A) (A) (A) (A) (A) (A) (A) (A)
                 (A) (A) (A) (A) (A) (A) (A) (A) (A) (A) (A) (A)
                 (A) (A) (A) (A) (A) (A) (A) (A) (A) (A) (A) (A)
                 (A) (A) (A) (A) (A) (A) (A) (A) (A) (A)
 The electronic state is 1-A.
 Alpha  occ. eigenvalues --  -19.23078 -19.20483 -10.29522 -10.29473 -10.28293
 Alpha  occ. eigenvalues --  -10.28006 -10.27807 -10.27774 -10.27531 -10.27419
 Alpha  occ. eigenvalues --  -10.27415 -10.27179 -10.26970 -10.26636 -10.26468
 Alpha  occ. eigenvalues --  -10.26392 -10.26359 -10.26282 -10.26248 -10.26050
 Alpha  occ. eigenvalues --  -10.26042 -10.25969 -10.25908 -10.25877 -10.25850
 Alpha  occ. eigenvalues --  -10.25681 -10.25534 -10.25484 -10.25460 -10.25453
 Alpha  occ. eigenvalues --  -10.25323 -10.25290 -10.25165 -10.25083 -10.24975
 Alpha  occ. eigenvalues --  -10.24939 -10.24921 -10.24532 -10.24493 -10.23718
 Alpha  occ. eigenvalues --  -10.21542 -10.21482  -1.09606  -1.07628  -0.94751
 Alpha  occ. eigenvalues --   -0.93909  -0.92650  -0.91878  -0.90776  -0.90078
 Alpha  occ. eigenvalues --   -0.88665  -0.87344  -0.86931  -0.85453  -0.85045
 Alpha  occ. eigenvalues --   -0.83234  -0.81817  -0.80583  -0.80012  -0.78285
 Alpha  occ. eigenvalues --   -0.77610  -0.77476  -0.76840  -0.76754  -0.76272
 Alpha  occ. eigenvalues --   -0.76020  -0.75735  -0.74992  -0.74264  -0.71119
 Alpha  occ. eigenvalues --   -0.68573  -0.67258  -0.66005  -0.65574  -0.64817
 Alpha  occ. eigenvalues --   -0.64035  -0.62825  -0.61649  -0.61261  -0.59768
 Alpha  occ. eigenvalues --   -0.59178  -0.58221  -0.57760  -0.57555  -0.55941
 Alpha  occ. eigenvalues --   -0.55741  -0.55405  -0.55076  -0.54760  -0.54213
 Alpha  occ. eigenvalues --   -0.53379  -0.52688  -0.52390  -0.52078  -0.51105
 Alpha  occ. eigenvalues --   -0.50947  -0.50484  -0.50130  -0.49843  -0.49631
 Alpha  occ. eigenvalues --   -0.49590  -0.49095  -0.48847  -0.48572  -0.48473
 Alpha  occ. eigenvalues --   -0.48064  -0.48034  -0.47471  -0.47274  -0.47058
 Alpha  occ. eigenvalues --   -0.46247  -0.45828  -0.45529  -0.45399  -0.45089
 Alpha  occ. eigenvalues --   -0.44775  -0.44606  -0.44264  -0.43858  -0.43551
 Alpha  occ. eigenvalues --   -0.43366  -0.43160  -0.42811  -0.42761  -0.42392
 Alpha  occ. eigenvalues --   -0.42231  -0.41837  -0.41487  -0.40990  -0.40893
 Alpha  occ. eigenvalues --   -0.40817  -0.40628  -0.40394  -0.39606  -0.39397
 Alpha  occ. eigenvalues --   -0.39064  -0.38901  -0.38420  -0.38340  -0.37981
 Alpha  occ. eigenvalues --   -0.37923  -0.37766  -0.37342  -0.36353  -0.35987
 Alpha  occ. eigenvalues --   -0.34426  -0.34274  -0.33473  -0.32603  -0.31751
 Alpha  occ. eigenvalues --   -0.30837  -0.29889  -0.28360  -0.27197  -0.24858
 Alpha  occ. eigenvalues --   -0.20748
 Alpha virt. eigenvalues --   -0.04617   0.00431   0.03175   0.03635   0.06053
 Alpha virt. eigenvalues --    0.07965   0.09955   0.11035   0.11794   0.11917
 Alpha virt. eigenvalues --    0.13095   0.13374   0.13450   0.14145   0.14470
 Alpha virt. eigenvalues --    0.14585   0.14808   0.15169   0.15531   0.16139
 Alpha virt. eigenvalues --    0.16215   0.16684   0.16736   0.17138   0.17308
 Alpha virt. eigenvalues --    0.17459   0.17672   0.17715   0.17842   0.18342
 Alpha virt. eigenvalues --    0.18532   0.18633   0.18848   0.19007   0.19357
 Alpha virt. eigenvalues --    0.19412   0.19557   0.20301   0.20424   0.21102
 Alpha virt. eigenvalues --    0.21603   0.21765   0.22008   0.22141   0.22387
 Alpha virt. eigenvalues --    0.22898   0.23280   0.23386   0.23494   0.23832
 Alpha virt. eigenvalues --    0.23967   0.24115   0.24428   0.24834   0.25098
 Alpha virt. eigenvalues --    0.25233   0.25469   0.25729   0.26265   0.26662
 Alpha virt. eigenvalues --    0.26947   0.27059   0.27383   0.27450   0.27937
 Alpha virt. eigenvalues --    0.28287   0.28429   0.28667   0.29004   0.29322
 Alpha virt. eigenvalues --    0.29638   0.29919   0.30073   0.30426   0.31075
 Alpha virt. eigenvalues --    0.31135   0.31362   0.31597   0.32535   0.32837
 Alpha virt. eigenvalues --    0.33734   0.33905   0.34466   0.35014   0.35314
 Alpha virt. eigenvalues --    0.36725   0.36867   0.37480   0.37844   0.38215
 Alpha virt. eigenvalues --    0.39026   0.40426   0.40936   0.41850   0.42505
 Alpha virt. eigenvalues --    0.42971   0.43891   0.44284   0.44911   0.45417
 Alpha virt. eigenvalues --    0.47177   0.48644   0.48747   0.49273   0.49788
 Alpha virt. eigenvalues --    0.50381   0.51260   0.52181   0.53029   0.53788
 Alpha virt. eigenvalues --    0.54354   0.55472   0.56114   0.56373   0.56715
 Alpha virt. eigenvalues --    0.57091   0.57405   0.57973   0.57986   0.58972
 Alpha virt. eigenvalues --    0.59149   0.59480   0.59789   0.59874   0.60118
 Alpha virt. eigenvalues --    0.60338   0.60759   0.61010   0.61684   0.61924
 Alpha virt. eigenvalues --    0.62102   0.62418   0.62534   0.63287   0.63814
 Alpha virt. eigenvalues --    0.64220   0.64473   0.64604   0.64936   0.65096
 Alpha virt. eigenvalues --    0.65591   0.65787   0.65840   0.66739   0.66955
 Alpha virt. eigenvalues --    0.67329   0.67453   0.67576   0.67975   0.68303
 Alpha virt. eigenvalues --    0.68660   0.69224   0.69744   0.69997   0.70154
 Alpha virt. eigenvalues --    0.70649   0.71322   0.71595   0.71823   0.72267
 Alpha virt. eigenvalues --    0.72553   0.72644   0.73540   0.73771   0.73969
 Alpha virt. eigenvalues --    0.74490   0.75174   0.75476   0.76096   0.76289
 Alpha virt. eigenvalues --    0.76574   0.76754   0.76983   0.77060   0.77459
 Alpha virt. eigenvalues --    0.77721   0.78124   0.78204   0.78399   0.78536
 Alpha virt. eigenvalues --    0.78857   0.79462   0.80083   0.80392   0.80768
 Alpha virt. eigenvalues --    0.80938   0.81560   0.82585   0.82640   0.82819
 Alpha virt. eigenvalues --    0.83443   0.83561   0.83898   0.84089   0.84443
 Alpha virt. eigenvalues --    0.84983   0.85395   0.85450   0.85708   0.86583
 Alpha virt. eigenvalues --    0.87047   0.87630   0.87778   0.87878   0.88050
 Alpha virt. eigenvalues --    0.88408   0.88873   0.89187   0.89272   0.89377
 Alpha virt. eigenvalues --    0.89486   0.90243   0.90601   0.90776   0.90999
 Alpha virt. eigenvalues --    0.91272   0.91628   0.91982   0.92024   0.92069
 Alpha virt. eigenvalues --    0.92607   0.92782   0.93113   0.93174   0.93833
 Alpha virt. eigenvalues --    0.94051   0.94349   0.94632   0.94935   0.94992
 Alpha virt. eigenvalues --    0.95848   0.95928   0.96246   0.96435   0.97214
 Alpha virt. eigenvalues --    0.97306   0.98484   0.98647   0.98798   0.99161
 Alpha virt. eigenvalues --    0.99331   0.99927   1.00208   1.00364   1.00641
 Alpha virt. eigenvalues --    1.00847   1.01144   1.01607   1.01686   1.01940
 Alpha virt. eigenvalues --    1.02504   1.02864   1.03096   1.03325   1.03369
 Alpha virt. eigenvalues --    1.03923   1.03993   1.04863   1.05147   1.05623
 Alpha virt. eigenvalues --    1.06234   1.06923   1.07261   1.07429   1.08059
 Alpha virt. eigenvalues --    1.08101   1.08446   1.08580   1.08991   1.10121
 Alpha virt. eigenvalues --    1.10574   1.11181   1.11354   1.11903   1.12580
 Alpha virt. eigenvalues --    1.12674   1.13490   1.13707   1.13954   1.14493
 Alpha virt. eigenvalues --    1.14773   1.15460   1.16436   1.16696   1.17454
 Alpha virt. eigenvalues --    1.17990   1.18292   1.18499   1.19521   1.19899
 Alpha virt. eigenvalues --    1.20752   1.23159   1.24421   1.25562   1.26345
 Alpha virt. eigenvalues --    1.26881   1.28194   1.28974   1.29053   1.29429
 Alpha virt. eigenvalues --    1.29923   1.30985   1.31984   1.32309   1.33522
 Alpha virt. eigenvalues --    1.34558   1.35765   1.35969   1.36165   1.36511
 Alpha virt. eigenvalues --    1.37282   1.38788   1.38965   1.39142   1.40113
 Alpha virt. eigenvalues --    1.40725   1.41052   1.41518   1.42303   1.43195
 Alpha virt. eigenvalues --    1.43472   1.43704   1.43966   1.44987   1.45258
 Alpha virt. eigenvalues --    1.46728   1.46852   1.47737   1.47963   1.48340
 Alpha virt. eigenvalues --    1.50142   1.50227   1.52093   1.52613   1.53359
 Alpha virt. eigenvalues --    1.53824   1.55454   1.55564   1.55749   1.56277
 Alpha virt. eigenvalues --    1.57008   1.57929   1.58885   1.59199   1.59693
 Alpha virt. eigenvalues --    1.60145   1.60705   1.61165   1.62919   1.63653
 Alpha virt. eigenvalues --    1.63929   1.63999   1.64508   1.65247   1.65801
 Alpha virt. eigenvalues --    1.66888   1.67927   1.68537   1.69587   1.70658
 Alpha virt. eigenvalues --    1.71239   1.73187   1.73706   1.75487   1.76621
 Alpha virt. eigenvalues --    1.77322   1.78130   1.78258   1.78500   1.79055
 Alpha virt. eigenvalues --    1.80158   1.80640   1.81320   1.81904   1.82127
 Alpha virt. eigenvalues --    1.82435   1.82547   1.82861   1.83825   1.84236
 Alpha virt. eigenvalues --    1.84628   1.85624   1.86203   1.86378   1.86939
 Alpha virt. eigenvalues --    1.87334   1.87543   1.87889   1.88338   1.88389
 Alpha virt. eigenvalues --    1.88682   1.89525   1.90277   1.90586   1.91011
 Alpha virt. eigenvalues --    1.91184   1.91623   1.91917   1.92840   1.93070
 Alpha virt. eigenvalues --    1.93694   1.93814   1.94392   1.94755   1.95295
 Alpha virt. eigenvalues --    1.95464   1.95836   1.96294   1.96833   1.97215
 Alpha virt. eigenvalues --    1.97392   1.98599   1.99104   1.99392   1.99828
 Alpha virt. eigenvalues --    1.99960   2.00032   2.00753   2.01077   2.01888
 Alpha virt. eigenvalues --    2.02470   2.02955   2.03151   2.03360   2.03982
 Alpha virt. eigenvalues --    2.04508   2.05080   2.05471   2.06041   2.07096
 Alpha virt. eigenvalues --    2.07430   2.07884   2.08562   2.08747   2.09129
 Alpha virt. eigenvalues --    2.09503   2.09909   2.09987   2.10487   2.10700
 Alpha virt. eigenvalues --    2.11361   2.11625   2.12069   2.12642   2.13366
 Alpha virt. eigenvalues --    2.13505   2.13650   2.13699   2.14248   2.14844
 Alpha virt. eigenvalues --    2.15235   2.16201   2.16386   2.16907   2.17205
 Alpha virt. eigenvalues --    2.17445   2.17684   2.18207   2.18488   2.18616
 Alpha virt. eigenvalues --    2.18823   2.19457   2.19523   2.20395   2.20702
 Alpha virt. eigenvalues --    2.21110   2.21182   2.21629   2.22199   2.22418
 Alpha virt. eigenvalues --    2.22948   2.23945   2.25001   2.25190   2.25492
 Alpha virt. eigenvalues --    2.25749   2.26218   2.27039   2.27298   2.27455
 Alpha virt. eigenvalues --    2.27935   2.28071   2.29083   2.30167   2.30850
 Alpha virt. eigenvalues --    2.31352   2.31838   2.31865   2.32191   2.33239
 Alpha virt. eigenvalues --    2.33376   2.34034   2.34145   2.34553   2.35237
 Alpha virt. eigenvalues --    2.35292   2.35804   2.36141   2.37001   2.37469
 Alpha virt. eigenvalues --    2.37879   2.38119   2.38334   2.38995   2.39945
 Alpha virt. eigenvalues --    2.40319   2.40833   2.41159   2.41376   2.42229
 Alpha virt. eigenvalues --    2.42475   2.42667   2.43239   2.43465   2.44161
 Alpha virt. eigenvalues --    2.44410   2.45340   2.45934   2.46474   2.46861
 Alpha virt. eigenvalues --    2.47324   2.47478   2.48170   2.48218   2.48787
 Alpha virt. eigenvalues --    2.49760   2.49824   2.50336   2.50628   2.50791
 Alpha virt. eigenvalues --    2.51470   2.52121   2.52734   2.53122   2.53536
 Alpha virt. eigenvalues --    2.53876   2.54551   2.54811   2.55568   2.55948
 Alpha virt. eigenvalues --    2.56344   2.56608   2.57543   2.57899   2.58726
 Alpha virt. eigenvalues --    2.59156   2.60277   2.60717   2.61227   2.61718
 Alpha virt. eigenvalues --    2.62200   2.62605   2.63256   2.63750   2.64236
 Alpha virt. eigenvalues --    2.64501   2.65468   2.65790   2.66084   2.66628
 Alpha virt. eigenvalues --    2.67224   2.67727   2.68061   2.69055   2.69416
 Alpha virt. eigenvalues --    2.69648   2.70019   2.70449   2.70853   2.71126
 Alpha virt. eigenvalues --    2.71345   2.71776   2.72006   2.72974   2.73502
 Alpha virt. eigenvalues --    2.73902   2.74734   2.75735   2.75988   2.76315
 Alpha virt. eigenvalues --    2.76527   2.76695   2.77725   2.78121   2.78799
 Alpha virt. eigenvalues --    2.78873   2.79746   2.80069   2.81133   2.81373
 Alpha virt. eigenvalues --    2.81704   2.82318   2.82481   2.83526   2.83658
 Alpha virt. eigenvalues --    2.83808   2.84050   2.84626   2.84969   2.86101
 Alpha virt. eigenvalues --    2.87091   2.88310   2.88666   2.88986   2.89544
 Alpha virt. eigenvalues --    2.89660   2.90272   2.90698   2.91213   2.91926
 Alpha virt. eigenvalues --    2.92193   2.92750   2.93063   2.93552   2.94534
 Alpha virt. eigenvalues --    2.94842   2.95583   2.96329   2.96749   2.97447
 Alpha virt. eigenvalues --    2.97818   2.98340   2.98992   2.99351   2.99856
 Alpha virt. eigenvalues --    3.00221   3.00573   3.01215   3.01629   3.02463
 Alpha virt. eigenvalues --    3.03081   3.03551   3.04429   3.04563   3.05040
 Alpha virt. eigenvalues --    3.05686   3.06799   3.07186   3.07658   3.08834
 Alpha virt. eigenvalues --    3.09203   3.09495   3.09772   3.09965   3.11321
 Alpha virt. eigenvalues --    3.11395   3.13040   3.13887   3.14849   3.17210
 Alpha virt. eigenvalues --    3.18026   3.18392   3.19069   3.19751   3.21206
 Alpha virt. eigenvalues --    3.21731   3.22693   3.23344   3.24437   3.24999
 Alpha virt. eigenvalues --    3.25493   3.28292   3.31502   3.32969   3.33365
 Alpha virt. eigenvalues --    3.33597   3.33930   3.34761   3.35222   3.40891
 Alpha virt. eigenvalues --    3.41279   3.41536   3.42497   3.42682   3.44935
 Alpha virt. eigenvalues --    3.45926   3.46089   3.47384   3.48418   3.50198
 Alpha virt. eigenvalues --    3.51064   3.51635   3.52375   3.53065   3.53421
 Alpha virt. eigenvalues --    3.53737   3.54860   3.56307   3.56990   3.57666
 Alpha virt. eigenvalues --    3.58245   3.59647   3.60684   3.60734   3.61990
 Alpha virt. eigenvalues --    3.63371   3.64371   3.65230   3.66081   3.66260
 Alpha virt. eigenvalues --    3.68441   3.71606   3.72210   3.72359   3.73323
 Alpha virt. eigenvalues --    3.74066   3.75360   3.76122   3.79368   3.80221
 Alpha virt. eigenvalues --    3.82600   3.84832   4.07793   4.14394   4.19052
 Alpha virt. eigenvalues --    4.19820   4.21344   4.21526   4.24803   4.25631
 Alpha virt. eigenvalues --    4.27578   4.31091   4.31931   4.32642   4.36464
 Alpha virt. eigenvalues --    4.37604   4.40355   4.43277   4.45439   4.46635
 Alpha virt. eigenvalues --    4.49000   4.49945   4.50956   4.52583   4.55950
 Alpha virt. eigenvalues --    4.56582   4.58259   4.58741   4.59097   4.60476
 Alpha virt. eigenvalues --    4.63033   4.66575   4.70918   4.71007   4.73317
 Alpha virt. eigenvalues --    4.73836   4.76475   4.79207   4.82042   4.83295
 Alpha virt. eigenvalues --    4.84102   4.87107   4.91148   4.92755
          Condensed to atoms (all electrons):
 Mulliken charges:
               1
     1  O   -0.557389
     2  O   -0.557825
     3  C    0.002794
     4  C   -0.045683
     5  C   -0.211171
     6  C   -0.183796
     7  C    0.241219
     8  C    0.147660
     9  C    0.010488
    10  C    0.074162
    11  C   -0.237590
    12  C   -0.210380
    13  C    0.172582
    14  C    0.005317
    15  C   -0.311610
    16  C   -0.311746
    17  C   -0.272995
    18  C   -0.321703
    19  C   -0.111441
    20  C   -0.177319
    21  C   -0.436851
    22  C   -0.349209
    23  C   -0.118366
    24  C   -0.057904
    25  C    0.086532
    26  C    0.130715
    27  C   -0.333880
    28  C   -0.366018
    29  C   -0.111623
    30  C   -0.124383
    31  C   -0.109021
    32  C   -0.121172
    33  C   -0.114028
    34  C   -0.070249
    35  C    0.092996
    36  C    0.073980
    37  C   -0.356474
    38  C   -0.350826
    39  C   -0.110398
    40  C   -0.136681
    41  C   -0.077300
    42  C   -0.071241
    43  H    0.082999
    44  H    0.068534
    45  H    0.048591
    46  H    0.119541
    47  H    0.051252
    48  H    0.094324
    49  H    0.118437
    50  H    0.109421
    51  H    0.131630
    52  H    0.112426
    53  H    0.095258
    54  H    0.078717
    55  H    0.123574
    56  H    0.122231
    57  H    0.100686
    58  H    0.092521
    59  H    0.100103
    60  H    0.111989
    61  H    0.099934
    62  H    0.075844
    63  H    0.109408
    64  H    0.086296
    65  H    0.094678
    66  H    0.091331
    67  H    0.128399
    68  H    0.118941
    69  H    0.096899
    70  H    0.104586
    71  H    0.120203
    72  H    0.108384
    73  H    0.281770
    74  H    0.294661
    75  H    0.081921
    76  H    0.083760
    77  H    0.129455
    78  H    0.114986
    79  H    0.084749
    80  H    0.138043
    81  H    0.124387
    82  H    0.093886
    83  H    0.077179
    84  H    0.074643
    85  H    0.075536
    86  H    0.067138
    87  H    0.080699
    88  H    0.078286
    89  H    0.122235
    90  H    0.095968
    91  H    0.117840
    92  H    0.127414
    93  H    0.131737
    94  H    0.106991
    95  H    0.077615
    96  H    0.073482
    97  H    0.082781
    98  H    0.073526
 Sum of Mulliken charges =  -0.00000
 Mulliken charges with hydrogens summed into heavy atoms:
               1
     1  O   -0.275619
     2  O   -0.263164
     3  C    0.002794
     4  C   -0.045683
     5  C   -0.059638
     6  C   -0.015664
     7  C    0.292471
     8  C    0.241985
     9  C    0.010488
    10  C    0.074162
    11  C   -0.009732
    12  C    0.033676
    13  C    0.172582
    14  C    0.005317
    15  C   -0.014060
    16  C    0.003693
    17  C    0.039030
    18  C   -0.050155
    19  C   -0.016763
    20  C   -0.085988
    21  C   -0.092612
    22  C   -0.016035
    23  C   -0.036445
    24  C    0.025857
    25  C    0.086532
    26  C    0.130715
    27  C   -0.004690
    28  C   -0.009702
    29  C   -0.034444
    30  C   -0.049740
    31  C   -0.033485
    32  C   -0.054035
    33  C   -0.033329
    34  C    0.008037
    35  C    0.092996
    36  C    0.073980
    37  C   -0.020430
    38  C    0.015316
    39  C   -0.032783
    40  C   -0.063199
    41  C    0.005481
    42  C    0.002285
 Electronic spatial extent (au):  <R**2>=         111594.7454
 Charge=             -0.0000 electrons
 Dipole moment (field-independent basis, Debye):
    X=              0.5547    Y=             -0.8375    Z=              1.7518  Tot=              2.0194
 Quadrupole moment (field-independent basis, Debye-Ang):
   XX=           -287.6599   YY=           -251.4888   ZZ=           -257.0023
   XY=             25.5482   XZ=              4.3524   YZ=             -1.1182
 Traceless Quadrupole moment (field-independent basis, Debye-Ang):
   XX=            -22.2762   YY=             13.8948   ZZ=              8.3814
   XY=             25.5482   XZ=              4.3524   YZ=             -1.1182
 Octapole moment (field-independent basis, Debye-Ang**2):
  XXX=             44.9690  YYY=              4.7201  ZZZ=             -5.5258  XYY=             54.8355
  XXY=           -209.5542  XXZ=            473.7477  XZZ=             14.1192  YZZ=             -0.9259
  YYZ=             12.6411  XYZ=            -83.0819
 Hexadecapole moment (field-independent basis, Debye-Ang**3):
 XXXX=        -158346.6046 YYYY=          -4360.9693 ZZZZ=          -1862.6343 XXXY=           5243.7306
 XXXZ=           1537.5251 YYYX=             25.9803 YYYZ=            -60.8515 ZZZX=           -192.6809
 ZZZY=              6.8494 XXYY=         -25497.5364 XXZZ=         -23488.5552 YYZZ=          -1045.3581
 XXYZ=           -934.2833 YYXZ=            208.7096 ZZXY=           -199.5683
 N-N= 3.987498242301D+03 E-N=-1.193128028290D+04  KE= 1.692043792150D+03
 1\1\GINC-PADAWAN\SP\RCAM-B3LYP TD-FC\6-31G(d,p)\C40H56O2\PADAWAN\10-Ju
 l-2019\0\\# td=(NStates=1) CAM-B3LYP/6-31G(d,p)\\TD\\0,1\O,0,14.747012
 9203,-2.2101384849,-0.2891977728\O,0,-14.836080205,1.9924310991,0.5535
 544494\C,0,11.4331966137,-1.0163522693,1.1228556466\C,0,-12.3490225343
 ,-0.7844810081,0.7627617982\C,0,12.9840171337,-1.3394669848,1.04803237
 52\C,0,-13.7427968887,-0.1278089409,0.615320428\C,0,13.4400960036,-1.7
 863341605,-0.2783527243\C,0,-13.5571380538,1.3221250105,0.6891607001\C
 ,0,11.0341819442,-0.2625404701,-0.1074349895\C,0,-11.3775548565,-0.242
 2652555,-0.287899544\C,0,13.0794221612,-0.8040611632,-1.3460754805\C,0
 ,-12.8471954795,1.7477927563,-0.5548225243\C,0,11.751209868,-0.1384042
 135,-1.2554740634\C,0,-11.6397575658,0.9153678598,-0.807960335\C,0,11.
 2214928763,-0.2145506132,2.3420646475\C,0,10.7676362046,-2.4459950806,
 1.1937874987\C,0,-11.7134035344,-0.8008119092,2.114360016\C,0,-12.6352
 742294,-2.3751329563,0.4529371977\C,0,9.7322380498,0.2873097679,0.0950
 761876\C,0,-10.0380851755,-1.0808321682,-0.4866173427\C,0,11.333096074
 6,0.4042548904,-2.4287070777\C,0,-10.6657590149,1.4106614501,-1.929402
 2472\C,0,9.3845184188,1.6154649844,-0.1060059746\C,0,-8.8398444694,-0.
 5913526923,-0.1587369197\C,0,8.0312591119,2.2273024701,0.0734530143\C,
 0,-7.5384789899,-1.3205163847,-0.3568910211\C,0,8.0572562066,3.7223104
 359,0.4524466107\C,0,-7.7466157676,-2.6120609542,-1.0635265277\C,0,6.9
 44069814,1.4864186358,-0.0282628323\C,0,-6.4947112741,-0.6469201671,-0
 .0393869447\C,0,5.5385844104,1.8824759545,0.1346883848\C,0,-5.08782990
 5,-1.1457944555,-0.180780252\C,0,4.4024841794,1.1809535093,-0.16161179
 02\C,0,-3.9613615562,-0.428909097,-0.0919065207\C,0,2.9978323882,1.633
 2539233,0.0619478598\C,0,-2.6875425183,-0.846438974,-0.3143590959\C,0,
 2.801280409,3.0066401129,0.7551882278\C,0,-2.2721827123,-2.2895662587,
 -0.8676378038\C,0,2.005110086,0.734890653,-0.0865377788\C,0,-1.6311044
 334,0.0652562315,-0.0489967267\C,0,0.6540125703,0.8911838863,0.0315990
 399\C,0,-0.2379926683,-0.1048325884,-0.1035979998\H,0,13.5349427663,-0
 .3945528904,1.3336982078\H,0,13.34673991,-2.0783684179,1.7839885309\H,
 0,-14.2610288799,-0.5200621632,1.6612433303\H,0,-14.2295743244,-0.5977
 066937,-0.2212137414\H,0,12.7289780998,-2.6515198951,-0.4754456096\H,0
 ,-12.9991253735,1.6069352115,1.5771171847\H,0,13.7524361756,-0.0029330
 134,-1.137139598\H,0,13.2498964826,-1.0891211392,-2.3873794139\H,0,-13
 .542879832,1.8469760186,-1.3502029533\H,0,-12.5448230893,2.7407461386,
 -0.332380121\H,0,11.6499136114,-0.5745481809,3.2998946505\H,0,10.06989
 28543,-0.1503445446,2.7244513261\H,0,11.4504243124,0.7772874616,2.4158
 507201\H,0,10.7473837414,-2.9544960297,0.2743528213\H,0,11.1602769447,
 -3.237358653,1.9215520792\H,0,9.6658425853,-2.2707280659,1.3795028933\
 H,0,-11.533120212,0.0862741984,2.4703609291\H,0,-10.8193664456,-1.3689
 440494,2.0982758316\H,0,-12.4073918982,-1.2522261276,2.674120008\H,0,-
 13.5692067017,-2.6981310651,1.0886433733\H,0,-12.0222952775,-3.0934313
 711,0.7034053965\H,0,-12.9355539134,-2.5058508931,-0.6700854825\H,0,8.
 9436461886,-0.4467529954,0.1748016642\H,0,-10.1886886009,-2.1093746615
 ,-0.6755371867\H,0,10.2936517842,0.7290830062,-2.7160063036\H,0,11.916
 830118,1.2265169426,-2.8843781518\H,0,11.4822524602,-0.18752924,-3.443
 7515052\H,0,-11.1819392009,1.8554787769,-2.6647279658\H,0,-10.17787332
 63,0.5832389609,-2.2134859546\H,0,-10.0111528703,2.1433429473,-1.60408
 40044\H,0,15.0753740904,-2.5701659217,0.9188537784\H,0,-15.303279763,1
 .5136962836,1.212979503\H,0,10.3081262946,2.2467079747,-0.3491842334\H
 ,0,-8.7147281698,0.4116132593,0.0827734643\H,0,8.5208049425,4.31366121
 9,-0.2730336064\H,0,7.1308364726,3.9983752464,0.6151573487\H,0,8.73511
 82218,3.8950823951,1.5104940674\H,0,-8.2095879888,-3.2552724563,-0.431
 5789969\H,0,-8.4213378898,-2.395428557,-1.9695732873\H,0,-6.6969485439
 ,-2.9991635685,-1.3901458066\H,0,7.1366853315,0.3863323761,-0.32695608
 76\H,0,-6.6255728193,0.3007799179,0.3438620092\H,0,5.406910075,2.98593
 37413,0.6005023052\H,0,-5.0871925393,-2.1007913862,-0.6426216622\H,0,4
 .5153246315,0.1501332592,-0.6940678178\H,0,-4.0632518292,0.5032254394,
 0.3085136474\H,0,3.4340611911,2.8023842803,1.740030204\H,0,1.653732026
 2,3.0416628372,1.0488872967\H,0,3.0993039524,3.9679146254,0.1665161556
 \H,0,-2.5450566427,-2.8956967168,0.0395709131\H,0,-2.8853980478,-2.362
 5573758,-1.7424082078\H,0,-1.1243692359,-2.387238899,-1.0280258386\H,0
 ,2.3840355616,-0.306529304,-0.3453024342\H,0,-1.9179811991,1.072527170
 6,0.1076441514\H,0,0.2287386209,1.9081335193,0.3071265077\H,0,0.158208
 5909,-1.1375637065,-0.327020286\\Version=ES64L-G16RevA.03\State=1-A\HF
 =-1706.9644074\RMSD=9.238e-09\PG=C01 [X(C40H56O2)]\\@


 IF MATHEMATICALLY YOU END UP WITH THE INCORRECT ANSWER,
 TRY MULTIPLYING BY THE PAGE NUMBER.
 Job cpu time:       0 days  5 hours 53 minutes 48.0 seconds.
 Elapsed time:       0 days  1 hours 28 minutes 54.7 seconds.
 File lengths (MBytes):  RWF=   3127 Int=      0 D2E=      0 Chk=     84 Scr=      1
 Normal termination of Gaussian 16 at Wed Jul 10 19:54:59 2019.
