 Entering Gaussian System, Link 0=g16
 Input=Geometria-9-.com
 Output=Geometria-9-.log
 Initial command:
 /usr/local/g16/l1.exe "/home/padawan/israel-mol/zeaxanthin/spectra/abs/Gau-10215.inp" -scrdir="/home/padawan/israel-mol/zeaxanthin/spectra/abs/"
 Entering Link 1 = /usr/local/g16/l1.exe PID=     10217.
  
 Copyright (c) 1988,1990,1992,1993,1995,1998,2003,2009,2016,
            Gaussian, Inc.  All Rights Reserved.
  
 This is part of the Gaussian(R) 16 program.  It is based on
 the Gaussian(R) 09 system (copyright 2009, Gaussian, Inc.),
 the Gaussian(R) 03 system (copyright 2003, Gaussian, Inc.),
 the Gaussian(R) 98 system (copyright 1998, Gaussian, Inc.),
 the Gaussian(R) 94 system (copyright 1995, Gaussian, Inc.),
 the Gaussian 92(TM) system (copyright 1992, Gaussian, Inc.),
 the Gaussian 90(TM) system (copyright 1990, Gaussian, Inc.),
 the Gaussian 88(TM) system (copyright 1988, Gaussian, Inc.),
 the Gaussian 86(TM) system (copyright 1986, Carnegie Mellon
 University), and the Gaussian 82(TM) system (copyright 1983,
 Carnegie Mellon University). Gaussian is a federally registered
 trademark of Gaussian, Inc.
  
 This software contains proprietary and confidential information,
 including trade secrets, belonging to Gaussian, Inc.
  
 This software is provided under written license and may be
 used, copied, transmitted, or stored only in accord with that
 written license.
  
 The following legend is applicable only to US Government
 contracts under FAR:
  
                    RESTRICTED RIGHTS LEGEND
  
 Use, reproduction and disclosure by the US Government is
 subject to restrictions as set forth in subparagraphs (a)
 and (c) of the Commercial Computer Software - Restricted
 Rights clause in FAR 52.227-19.
  
 Gaussian, Inc.
 340 Quinnipiac St., Bldg. 40, Wallingford CT 06492
  
  
 ---------------------------------------------------------------
 Warning -- This program may not be used in any manner that
 competes with the business of Gaussian, Inc. or will provide
 assistance to any competitor of Gaussian, Inc.  The licensee
 of this program is prohibited from giving any competitor of
 Gaussian, Inc. access to this program.  By using this program,
 the user acknowledges that Gaussian, Inc. is engaged in the
 business of creating and licensing software in the field of
 computational chemistry and represents and warrants to the
 licensee that it is not a competitor of Gaussian, Inc. and that
 it will not use this program in any manner prohibited above.
 ---------------------------------------------------------------
  

 Cite this work as:
 Gaussian 16, Revision A.03,
 M. J. Frisch, G. W. Trucks, H. B. Schlegel, G. E. Scuseria, 
 M. A. Robb, J. R. Cheeseman, G. Scalmani, V. Barone, 
 G. A. Petersson, H. Nakatsuji, X. Li, M. Caricato, A. V. Marenich, 
 J. Bloino, B. G. Janesko, R. Gomperts, B. Mennucci, H. P. Hratchian, 
 J. V. Ortiz, A. F. Izmaylov, J. L. Sonnenberg, D. Williams-Young, 
 F. Ding, F. Lipparini, F. Egidi, J. Goings, B. Peng, A. Petrone, 
 T. Henderson, D. Ranasinghe, V. G. Zakrzewski, J. Gao, N. Rega, 
 G. Zheng, W. Liang, M. Hada, M. Ehara, K. Toyota, R. Fukuda, 
 J. Hasegawa, M. Ishida, T. Nakajima, Y. Honda, O. Kitao, H. Nakai, 
 T. Vreven, K. Throssell, J. A. Montgomery, Jr., J. E. Peralta, 
 F. Ogliaro, M. J. Bearpark, J. J. Heyd, E. N. Brothers, K. N. Kudin, 
 V. N. Staroverov, T. A. Keith, R. Kobayashi, J. Normand, 
 K. Raghavachari, A. P. Rendell, J. C. Burant, S. S. Iyengar, 
 J. Tomasi, M. Cossi, J. M. Millam, M. Klene, C. Adamo, R. Cammi, 
 J. W. Ochterski, R. L. Martin, K. Morokuma, O. Farkas, 
 J. B. Foresman, and D. J. Fox, Gaussian, Inc., Wallingford CT, 2016.
 
 ******************************************
 Gaussian 16:  ES64L-G16RevA.03 25-Dec-2016
                26-Jun-2019 
 ******************************************
 %nproc=4
 Will use up to    4 processors via shared memory.
 %Mem=2GB
 -------------------------------------
 # td=(NStates=1) CAM-B3LYP/6-31G(d,p)
 -------------------------------------
 1/38=1,172=1/1;
 2/12=2,17=6,18=5,40=1/2;
 3/5=1,6=6,7=101,11=9,25=1,30=1,74=-40/1,2,3,8;
 4//1;
 5/5=2,38=5/2;
 8/6=1,10=2,108=1/1;
 9/41=1,42=1,70=2/14;
 6/7=2,8=2,9=2,10=2/1;
 99/5=1,9=1/99;
 --
 TD
 --
 Symbolic Z-matrix:
 Charge =  0 Multiplicity = 1
 8                     14.80596  -2.0965   -0.56363 
 8                    -14.74914   2.0719    0.50625 
 6                     11.57339  -1.10642   1.18753 
 6                    -12.32533  -0.87021   0.71713 
 6                     13.05475  -1.28801   0.94991 
 6                    -13.73327  -0.08482   0.70647 
 6                     13.39309  -1.83624  -0.37514 
 6                    -13.55377   1.37192   0.66398 
 6                     10.97275  -0.24851  -0.08204 
 6                    -11.29295  -0.16458  -0.2219 
 6                     13.07293  -0.82968  -1.48275 
 6                    -12.71507   1.84149  -0.52664 
 6                     11.66994  -0.32099  -1.19455 
 6                    -11.57799   1.02348  -0.82846 
 6                     11.46365  -0.21127   2.46771 
 6                     10.81576  -2.3726    1.40239 
 6                    -11.77625  -0.74663   2.16112 
 6                    -12.57923  -2.3258    0.39948 
 6                     9.66036   0.35712   0.19358 
 6                    -10.11045  -1.03037  -0.45483 
 6                     11.12337   0.54185  -2.3908 
 6                    -10.57766   1.59689  -1.78483 
 6                     9.28972   1.66476   0.11807 
 6                    -8.87814  -0.54707  -0.25706 
 6                     8.01965   2.26068   0.25104 
 6                    -7.65707  -1.40219  -0.46686 
 6                     7.9291    3.64935   0.44773 
 6                    -7.80032  -2.86887  -0.93514 
 6                     6.9227    1.4853    0.1065 
 6                    -6.49108  -0.79297  -0.25487 
 6                     5.60797   1.99701   0.14991 
 6                    -5.08726  -1.26571  -0.30783 
 6                     4.36446   1.33952  -0.0108 
 6                    -4.00307  -0.42076  -0.18729 
 6                     3.06575   1.64517   0.18037 
 6                    -2.66776  -0.98062  -0.33875 
 6                     2.65981   3.03658   0.51534 
 6                    -2.4334   -2.44761  -0.78478 
 6                     2.12077   0.61322   0.00121 
 6                    -1.62203  -0.06656  -0.16331 
 6                     0.63355   0.7465    0.01905 
 6                    -0.23272  -0.22843  -0.16919 
 1                     13.71207  -0.24785   1.00312 
 1                     13.57211  -2.04772   1.6881 
 1                    -14.24909  -0.38158   1.59486 
 1                    -14.3654  -0.29566  -0.10109 
 1                     12.68009  -2.83422  -0.59043 
 1                    -12.91714   1.76252   1.51952 
 1                     13.63254  -0.0204   -1.42148 
 1                     12.94591  -1.1203   -2.53674 
 1                    -13.42758   1.59889  -1.47085 
 1                    -12.31732   2.69735  -0.39323 
 1                     12.03657  -0.66383   3.31585 
 1                     10.38956   0.19153   2.74436 
 1                     11.95248   0.60896   2.2134 
 1                     11.007   -3.14917   0.74965 
 1                     11.06253  -2.96353   2.30376 
 1                     9.58133  -2.09544   1.32215 
 1                    -11.69028   0.20151   2.44126 
 1                    -10.68812  -1.18142   2.31596 
 1                    -12.41135  -1.43323   2.93275 
 1                    -13.34875  -2.85675   1.12857 
 1                    -11.52279  -2.82991   0.7077 
 1                    -12.69555  -2.46534  -0.67387 
 1                     8.84997  -0.31865   0.31805 
 1                    -10.41405  -2.05287  -0.7821 
 1                     10.07897   0.95455  -2.21108 
 1                     11.65092   1.37526  -2.79588 
 1                     11.30625  -0.11546  -3.41958 
 1                    -10.88446   2.21554  -2.7314 
 1                    -9.81072   0.70649  -2.17698 
 1                    -9.86337   2.3758   -1.43442 
 1                     15.01926  -2.61161   0.26366 
 1                    -15.47334   1.91604   1.27521 
 1                     10.08176   2.3783   -0.19818 
 1                    -8.50008   0.45304   0.08302 
 1                     8.46601   4.18069  -0.52347 
 1                     6.9845    4.3045    0.49567 
 1                     8.61613   4.0803    1.40483 
 1                    -8.22733  -3.36175  -0.13018 
 1                    -8.62235  -2.66027  -1.756 
 1                    -6.70816  -3.40362  -1.37119 
 1                     7.17885   0.59478   0.0223 
 1                    -6.56365   0.38016  -0.03699 
 1                     5.49508   2.98429   0.62317 
 1                    -5.03775  -2.27045  -0.51535 
 1                     4.40615   0.2677   -0.19126 
 1                    -4.18921   0.59894   0.08382 
 1                     2.96989   3.39962   1.45423 
 1                     1.45952   3.34357   0.15475 
 1                     3.08715   3.77434  -0.4214 
 1                    -2.80732  -3.30137  -0.04799 
 1                    -3.18889  -2.60241  -1.62601 
 1                    -1.27214  -2.53949  -0.86031 
 1                     2.28267  -0.58663  -0.19064 
 1                    -2.01017   0.90228   0.10764 
 1                     0.17772   1.75136   0.03837 
 1                     0.05423  -1.24808  -0.19467 
 
 Stoichiometry    C40H56O2
 Framework group  C1[X(C40H56O2)]
 Deg. of freedom   288
 Full point group                 C1      NOp   1
 Largest Abelian subgroup         C1      NOp   1
 Largest concise Abelian subgroup C1      NOp   1
                         Standard orientation:                         
 ---------------------------------------------------------------------
 Center     Atomic      Atomic             Coordinates (Angstroms)
 Number     Number       Type             X           Y           Z
 ---------------------------------------------------------------------
      1          8           0       14.807670   -2.096840   -0.539321
      2          8           0      -14.749424    2.068849    0.485053
      3          6           0       11.575012   -1.086241    1.199906
      4          6           0      -12.323954   -0.869013    0.732835
      5          6           0       13.056414   -1.270047    0.964233
      6          6           0      -13.732321   -0.084592    0.712523
      7          6           0       13.394709   -1.834963   -0.353804
      8          6           0      -13.553628    1.371589    0.651389
      9          6           0       10.973573   -0.244933   -0.080359
     10          6           0      -11.292197   -0.174868   -0.215400
     11          6           0       13.073715   -0.842805   -1.474086
     12          6           0      -12.715495    1.826376   -0.545348
     13          6           0       11.670522   -0.331236   -1.192033
     14          6           0      -11.578046    1.005193   -0.837003
     15          6           0       11.465110   -0.174878    2.468578
     16          6           0       10.818129   -2.349982    1.431111
     17          6           0      -11.774570   -0.726707    2.174992
     18          6           0      -12.577140   -2.328676    0.433866
     19          6           0        9.660929    0.363450    0.187852
     20          6           0      -10.109291   -1.042919   -0.437571
     21          6           0       11.123167    0.515965   -2.399062
     22          6           0      -10.578274    1.566890   -1.800875
     23          6           0        9.289554    1.669822    0.095751
     24          6           0       -8.877190   -0.556467   -0.246305
     25          6           0        8.019192    2.266698    0.221442
     26          6           0       -7.655710   -1.413540   -0.445499
     27          6           0        7.927941    3.657724    0.400406
     28          6           0       -7.798280   -2.886148   -0.894979
     29          6           0        6.922628    1.488944    0.087103
     30          6           0       -6.489998   -0.801031   -0.241608
     31          6           0        5.607634    2.000452    0.124323
     32          6           0       -5.085933   -1.273639   -0.288904
     33          6           0        4.364441    1.340292   -0.027648
     34          6           0       -4.002169   -0.426633   -0.179440
     35          6           0        3.065612    1.647649    0.159943
     36          6           0       -2.666597   -0.987661   -0.324098
     37          6           0        2.658996    3.043010    0.477233
     38          6           0       -2.431550   -2.460098   -0.751423
     39          6           0        2.121152    0.612987   -0.005777
     40          6           0       -1.621324   -0.070863   -0.160615
     41          6           0        0.633863    0.745678    0.010750
     42          6           0       -0.231926   -0.232050   -0.164801
     43          1           0       13.713176   -0.228933    1.003978
     44          1           0       13.574376   -2.019983    1.711922
     45          1           0      -14.247752   -0.370259    1.604763
     46          1           0      -14.364545   -0.306060   -0.092114
     47          1           0       12.682200   -2.835996   -0.556141
     48          1           0      -12.916991    1.773426    1.501708
     49          1           0       13.632902   -0.032506   -1.423300
     50          1           0       12.946577   -1.146927   -2.524252
     51          1           0      -13.428112    1.571354   -1.486191
     52          1           0      -12.318176    2.684085   -0.422977
     53          1           0       12.038500   -0.616259    3.322274
     54          1           0       10.390879    0.230839    2.740352
     55          1           0       11.953434    0.642304    2.203691
     56          1           0       11.009623   -3.134716    0.788290
     57          1           0       11.065449   -2.929225    2.339888
     58          1           0        9.583530   -2.074541    1.347663
     59          1           0      -11.689041    0.224971    2.442975
     60          1           0      -10.686167   -1.158893    2.335076
     61          1           0      -12.409099   -1.403751    2.955484
     62          1           0      -13.346189   -2.850690    1.169874
     63          1           0      -11.520343   -2.828234    0.748212
     64          1           0      -12.693661   -2.481970   -0.637582
     65          1           0        8.850936   -0.311112    0.321153
     66          1           0      -10.412416   -2.069681   -0.751673
     67          1           0       10.078594    0.930357   -2.224342
     68          1           0       11.650167    1.344425   -2.814884
     69          1           0       11.306151   -0.154327   -3.419410
     70          1           0      -10.885654    2.173242   -2.755192
     71          1           0       -9.810945    0.671973   -2.181832
     72          1           0       -9.864317    2.350593   -1.460626
     73          1           0       15.021463   -2.601233    0.294415
     74          1           0      -15.473337    1.922423    1.256127
     75          1           0       10.081128    2.379697   -0.229788
     76          1           0       -8.499586    0.448104    0.080879
     77          1           0        8.464307    4.176907   -0.577635
     78          1           0        6.982994    4.312913    0.440227
     79          1           0        8.614975    4.101229    1.351752
     80          1           0       -8.224813   -3.368949   -0.083674
     81          1           0       -8.620632   -2.688489   -1.718217
     82          1           0       -6.705939   -3.425837   -1.324455
     83          1           0        7.179244    0.597565    0.014209
     84          1           0       -6.563148    0.374748   -0.038702
     85          1           0        5.494325    2.993639    0.584974
     86          1           0       -5.035926   -2.280921   -0.483588
     87          1           0        4.406672    0.266274   -0.194422
     88          1           0       -4.188804    0.596338    0.078676
     89          1           0        2.969128    3.418176    1.411327
     90          1           0        1.458453    3.344720    0.113064
     91          1           0        3.085699    3.768974   -0.468969
     92          1           0       -2.804819   -3.304580   -0.003692
     93          1           0       -3.187171   -2.626035   -1.590405
     94          1           0       -1.270265   -2.552307   -0.826080
     95          1           0        2.283651   -0.589123   -0.182333
     96          1           0       -2.009920    0.901144    0.098048
     97          1           0        0.177493    1.750454    0.017362
     98          1           0        0.055574   -1.251786   -0.177330
 ---------------------------------------------------------------------
 Rotational constants (GHZ):           0.2457102           0.0092409           0.0090780
 Standard basis: 6-31G(d,p) (6D, 7F)
 There are   910 symmetry adapted cartesian basis functions of A   symmetry.
 There are   910 symmetry adapted basis functions of A   symmetry.
   910 basis functions,  1568 primitive gaussians,   910 cartesian basis functions
   156 alpha electrons      156 beta electrons
       nuclear repulsion energy      3971.1035789399 Hartrees.
 NAtoms=   98 NActive=   98 NUniq=   98 SFac= 1.00D+00 NAtFMM=   60 NAOKFM=T Big=T
 Integral buffers will be    131072 words long.
 Raffenetti 1 integral format.
 Two-electron integral symmetry is turned on.
 One-electron integrals computed using PRISM.
 NBasis=   910 RedAO= T EigKep=  8.82D-04  NBF=   910
 NBsUse=   910 1.00D-06 EigRej= -1.00D+00 NBFU=   910
 ExpMin= 1.61D-01 ExpMax= 5.48D+03 ExpMxC= 8.25D+02 IAcc=3 IRadAn=         5 AccDes= 0.00D+00
 Harris functional with IExCor=20419 and IRadAn=       5 diagonalized for initial guess.
 HarFok:  IExCor=20419 AccDes= 0.00D+00 IRadAn=         5 IDoV= 1 UseB2=F ITyADJ=14
 ICtDFT=  3500011 ScaDFX=  1.000000  1.000000  1.000000  1.000000
 FoFCou: FMM=F IPFlag=           0 FMFlag=      100000 FMFlg1=        2001
         NFxFlg=           0 DoJE=T BraDBF=F KetDBF=T FulRan=T
         wScrn=  0.000000 ICntrl=       500 IOpCl=  0 I1Cent=   200000004 NGrid=           0
         NMat0=    1 NMatS0=      1 NMatT0=    0 NMatD0=    1 NMtDS0=    0 NMtDT0=    0
 Petite list used in FoFCou.
 Requested convergence on RMS density matrix=1.00D-08 within 128 cycles.
 Requested convergence on MAX density matrix=1.00D-06.
 Requested convergence on             energy=1.00D-06.
 No special actions if energy rises.
 Integral accuracy reduced to 1.0D-05 until final iterations.
 Initial convergence to 1.0D-05 achieved.  Increase integral accuracy.
 SCF Done:  E(RCAM-B3LYP) =  -1706.88100767     A.U. after   14 cycles
            NFock= 14  Conv=0.95D-08     -V/T= 2.0102
 DoSCS=F DFT=T ScalE2(SS,OS)=  1.000000  1.000000
 ExpMin= 1.61D-01 ExpMax= 5.48D+03 ExpMxC= 8.25D+02 IAcc=3 IRadAn=         5 AccDes= 0.00D+00
 HarFok:  IExCor=  205 AccDes= 0.00D+00 IRadAn=         5 IDoV=-2 UseB2=F ITyADJ=14
 ICtDFT= 12500011 ScaDFX=  1.000000  1.000000  1.000000  1.000000
 GSVD:  LWork=       -2100 too small for GESVD, short by        9450 words or        9450 for optimal perf.
 Range of M.O.s used for correlation:    43   910
 NBasis=   910 NAE=   156 NBE=   156 NFC=    42 NFV=     0
 NROrb=    868 NOA=   114 NOB=   114 NVA=   754 NVB=   754
 Orbital symmetries:
       Occupied  (A) (A) (A) (A) (A) (A) (A) (A) (A) (A) (A) (A)
                 (A) (A) (A) (A) (A) (A) (A) (A) (A) (A) (A) (A)
                 (A) (A) (A) (A) (A) (A) (A) (A) (A) (A) (A) (A)
                 (A) (A) (A) (A) (A) (A) (A) (A) (A) (A) (A) (A)
                 (A) (A) (A) (A) (A) (A) (A) (A) (A) (A) (A) (A)
                 (A) (A) (A) (A) (A) (A) (A) (A) (A) (A) (A) (A)
                 (A) (A) (A) (A) (A) (A) (A) (A) (A) (A) (A) (A)
                 (A) (A) (A) (A) (A) (A) (A) (A) (A) (A) (A) (A)
                 (A) (A) (A) (A) (A) (A) (A) (A) (A) (A) (A) (A)
                 (A) (A) (A) (A) (A) (A) (A) (A) (A) (A) (A) (A)
                 (A) (A) (A) (A) (A) (A) (A) (A) (A) (A) (A) (A)
                 (A) (A) (A) (A) (A) (A) (A) (A) (A) (A) (A) (A)
                 (A) (A) (A) (A) (A) (A) (A) (A) (A) (A) (A) (A)
       Virtual   (A) (A) (A) (A) (A) (A) (A) (A) (A) (A) (A) (A)
                 (A) (A) (A) (A) (A) (A) (A) (A) (A) (A) (A) (A)
                 (A) (A) (A) (A) (A) (A) (A) (A) (A) (A) (A) (A)
                 (A) (A) (A) (A) (A) (A) (A) (A) (A) (A) (A) (A)
                 (A) (A) (A) (A) (A) (A) (A) (A) (A) (A) (A) (A)
                 (A) (A) (A) (A) (A) (A) (A) (A) (A) (A) (A) (A)
                 (A) (A) (A) (A) (A) (A) (A) (A) (A) (A) (A) (A)
                 (A) (A) (A) (A) (A) (A) (A) (A) (A) (A) (A) (A)
                 (A) (A) (A) (A) (A) (A) (A) (A) (A) (A) (A) (A)
                 (A) (A) (A) (A) (A) (A) (A) (A) (A) (A) (A) (A)
                 (A) (A) (A) (A) (A) (A) (A) (A) (A) (A) (A) (A)
                 (A) (A) (A) (A) (A) (A) (A) (A) (A) (A) (A) (A)
                 (A) (A) (A) (A) (A) (A) (A) (A) (A) (A) (A) (A)
                 (A) (A) (A) (A) (A) (A) (A) (A) (A) (A) (A) (A)
                 (A) (A) (A) (A) (A) (A) (A) (A) (A) (A) (A) (A)
                 (A) (A) (A) (A) (A) (A) (A) (A) (A) (A) (A) (A)
                 (A) (A) (A) (A) (A) (A) (A) (A) (A) (A) (A) (A)
                 (A) (A) (A) (A) (A) (A) (A) (A) (A) (A) (A) (A)
                 (A) (A) (A) (A) (A) (A) (A) (A) (A) (A) (A) (A)
                 (A) (A) (A) (A) (A) (A) (A) (A) (A) (A) (A) (A)
                 (A) (A) (A) (A) (A) (A) (A) (A) (A) (A) (A) (A)
                 (A) (A) (A) (A) (A) (A) (A) (A) (A) (A) (A) (A)
                 (A) (A) (A) (A) (A) (A) (A) (A) (A) (A) (A) (A)
                 (A) (A) (A) (A) (A) (A) (A) (A) (A) (A) (A) (A)
                 (A) (A) (A) (A) (A) (A) (A) (A) (A) (A) (A) (A)
                 (A) (A) (A) (A) (A) (A) (A) (A) (A) (A) (A) (A)
                 (A) (A) (A) (A) (A) (A) (A) (A) (A) (A) (A) (A)
                 (A) (A) (A) (A) (A) (A) (A) (A) (A) (A) (A) (A)
                 (A) (A) (A) (A) (A) (A) (A) (A) (A) (A) (A) (A)
                 (A) (A) (A) (A) (A) (A) (A) (A) (A) (A) (A) (A)
                 (A) (A) (A) (A) (A) (A) (A) (A) (A) (A) (A) (A)
                 (A) (A) (A) (A) (A) (A) (A) (A) (A) (A) (A) (A)
                 (A) (A) (A) (A) (A) (A) (A) (A) (A) (A) (A) (A)
                 (A) (A) (A) (A) (A) (A) (A) (A) (A) (A) (A) (A)
                 (A) (A) (A) (A) (A) (A) (A) (A) (A) (A) (A) (A)
                 (A) (A) (A) (A) (A) (A) (A) (A) (A) (A) (A) (A)
                 (A) (A) (A) (A) (A) (A) (A) (A) (A) (A) (A) (A)
                 (A) (A) (A) (A) (A) (A) (A) (A) (A) (A) (A) (A)
                 (A) (A) (A) (A) (A) (A) (A) (A) (A) (A) (A) (A)
                 (A) (A) (A) (A) (A) (A) (A) (A) (A) (A) (A) (A)
                 (A) (A) (A) (A) (A) (A) (A) (A) (A) (A) (A) (A)
                 (A) (A) (A) (A) (A) (A) (A) (A) (A) (A) (A) (A)
                 (A) (A) (A) (A) (A) (A) (A) (A) (A) (A) (A) (A)
                 (A) (A) (A) (A) (A) (A) (A) (A) (A) (A) (A) (A)
                 (A) (A) (A) (A) (A) (A) (A) (A) (A) (A) (A) (A)
                 (A) (A) (A) (A) (A) (A) (A) (A) (A) (A) (A) (A)
                 (A) (A) (A) (A) (A) (A) (A) (A) (A) (A) (A) (A)
                 (A) (A) (A) (A) (A) (A) (A) (A) (A) (A) (A) (A)
                 (A) (A) (A) (A) (A) (A) (A) (A) (A) (A) (A) (A)
                 (A) (A) (A) (A) (A) (A) (A) (A) (A) (A) (A) (A)
                 (A) (A) (A) (A) (A) (A) (A) (A) (A) (A) (A) (A)
                 (A) (A) (A) (A) (A) (A) (A) (A) (A) (A) (A) (A)
                 (A) (A) (A) (A) (A) (A) (A) (A) (A) (A) (A) (A)
                 (A) (A) (A) (A) (A) (A) (A) (A) (A) (A) (A) (A)
                 (A) (A) (A) (A) (A) (A) (A) (A) (A) (A) (A) (A)
                 (A) (A) (A) (A) (A) (A) (A) (A) (A) (A) (A) (A)
                 (A) (A) (A) (A) (A) (A) (A) (A) (A) (A) (A) (A)
                 (A) (A) (A) (A) (A) (A) (A) (A) (A) (A) (A) (A)
                 (A) (A) (A) (A) (A) (A) (A) (A) (A) (A) (A) (A)
                 (A) (A) (A) (A) (A) (A) (A) (A) (A) (A) (A) (A)
                 (A) (A) (A) (A) (A) (A) (A) (A) (A) (A) (A) (A)
                 (A) (A) (A) (A) (A) (A) (A) (A) (A) (A) (A) (A)
                 (A) (A) (A) (A) (A) (A) (A) (A) (A) (A)
     4 initial guesses have been made.
 Convergence on wavefunction:    0.001000000000000
 Iteration     1 Dimension     4 NMult     0 NNew      4
 CISAX will form     4 AO SS matrices at one time.
 Iteration     2 Dimension     6 NMult     4 NNew      2
 Iteration     3 Dimension     8 NMult     6 NNew      2
 Iteration     4 Dimension    10 NMult     8 NNew      2
 Iteration     5 Dimension    12 NMult    10 NNew      2
 Iteration     6 Dimension    14 NMult    12 NNew      2
 ***********************************************************************
 Excited states from <AA,BB:AA,BB> singles matrix:
 ***********************************************************************
 
 Ground to excited state transition densities written to RWF  633
 Ground to excited state transition electric dipole moments (Au):
       state          X           Y           Z        Dip. S.      Osc.
         1         7.5160      1.3499      0.2807     58.3916      3.5629
 Ground to excited state transition velocity dipole moments (Au):
       state          X           Y           Z        Dip. S.      Osc.
         1        -0.6629     -0.1153     -0.0250      0.4534      3.3024
 Ground to excited state transition magnetic dipole moments (Au):
       state          X           Y           Z
         1        -0.0244      0.0051      0.9151
 Ground to excited state transition velocity quadrupole moments (Au):
       state          XX          YY          ZZ          XY          XZ          YZ
         1        -2.5598     -0.2410     -0.0667     -0.2321      0.1483      0.0167
 <0|del|b> * <b|rxdel|0> + <0|del|b> * <b|delr+rdel|0>
 Rotatory Strengths (R) in cgs (10**-40 erg-esu-cm/Gauss)
       state          XX          YY          ZZ    R(velocity)    E-M Angle
         1        -2.1366    -91.1405     36.8918    -18.7951       90.68
 1/2[<0|r|b>*<b|rxdel|0> + (<0|rxdel|b>*<b|r|0>)*]
 Rotatory Strengths (R) in cgs (10**-40 erg-esu-cm/Gauss)
       state          XX          YY          ZZ     R(length)
         1       129.5521     -4.8334   -181.6584    -18.9799
  1/2[<0|del|b>*<b|r|0> + (<0|r|b>*<b|del|0>)*] (Au)
       state          X           Y           Z        Dip. S.   Osc.(frdel)
         1        -4.9824     -0.1557     -0.0070      5.1451      3.4301

 Excitation energies and oscillator strengths:
 
 Excited State   1:      Singlet-A      2.4905 eV  497.82 nm  f=3.5629  <S**2>=0.000
     155 ->158        -0.15186
     156 ->157         0.68866
 This state for optimization and/or second-order correction.
 Total Energy, E(TD-HF/TD-DFT) =  -1706.78948273    
 Copying the excited state density for this state as the 1-particle RhoCI density.
 SavETr:  write IOETrn=   770 NScale= 10 NData=  16 NLR=1 NState=    1 LETran=      28.

 **********************************************************************

            Population analysis using the SCF density.

 **********************************************************************

 Orbital symmetries:
       Occupied  (A) (A) (A) (A) (A) (A) (A) (A) (A) (A) (A) (A)
                 (A) (A) (A) (A) (A) (A) (A) (A) (A) (A) (A) (A)
                 (A) (A) (A) (A) (A) (A) (A) (A) (A) (A) (A) (A)
                 (A) (A) (A) (A) (A) (A) (A) (A) (A) (A) (A) (A)
                 (A) (A) (A) (A) (A) (A) (A) (A) (A) (A) (A) (A)
                 (A) (A) (A) (A) (A) (A) (A) (A) (A) (A) (A) (A)
                 (A) (A) (A) (A) (A) (A) (A) (A) (A) (A) (A) (A)
                 (A) (A) (A) (A) (A) (A) (A) (A) (A) (A) (A) (A)
                 (A) (A) (A) (A) (A) (A) (A) (A) (A) (A) (A) (A)
                 (A) (A) (A) (A) (A) (A) (A) (A) (A) (A) (A) (A)
                 (A) (A) (A) (A) (A) (A) (A) (A) (A) (A) (A) (A)
                 (A) (A) (A) (A) (A) (A) (A) (A) (A) (A) (A) (A)
                 (A) (A) (A) (A) (A) (A) (A) (A) (A) (A) (A) (A)
       Virtual   (A) (A) (A) (A) (A) (A) (A) (A) (A) (A) (A) (A)
                 (A) (A) (A) (A) (A) (A) (A) (A) (A) (A) (A) (A)
                 (A) (A) (A) (A) (A) (A) (A) (A) (A) (A) (A) (A)
                 (A) (A) (A) (A) (A) (A) (A) (A) (A) (A) (A) (A)
                 (A) (A) (A) (A) (A) (A) (A) (A) (A) (A) (A) (A)
                 (A) (A) (A) (A) (A) (A) (A) (A) (A) (A) (A) (A)
                 (A) (A) (A) (A) (A) (A) (A) (A) (A) (A) (A) (A)
                 (A) (A) (A) (A) (A) (A) (A) (A) (A) (A) (A) (A)
                 (A) (A) (A) (A) (A) (A) (A) (A) (A) (A) (A) (A)
                 (A) (A) (A) (A) (A) (A) (A) (A) (A) (A) (A) (A)
                 (A) (A) (A) (A) (A) (A) (A) (A) (A) (A) (A) (A)
                 (A) (A) (A) (A) (A) (A) (A) (A) (A) (A) (A) (A)
                 (A) (A) (A) (A) (A) (A) (A) (A) (A) (A) (A) (A)
                 (A) (A) (A) (A) (A) (A) (A) (A) (A) (A) (A) (A)
                 (A) (A) (A) (A) (A) (A) (A) (A) (A) (A) (A) (A)
                 (A) (A) (A) (A) (A) (A) (A) (A) (A) (A) (A) (A)
                 (A) (A) (A) (A) (A) (A) (A) (A) (A) (A) (A) (A)
                 (A) (A) (A) (A) (A) (A) (A) (A) (A) (A) (A) (A)
                 (A) (A) (A) (A) (A) (A) (A) (A) (A) (A) (A) (A)
                 (A) (A) (A) (A) (A) (A) (A) (A) (A) (A) (A) (A)
                 (A) (A) (A) (A) (A) (A) (A) (A) (A) (A) (A) (A)
                 (A) (A) (A) (A) (A) (A) (A) (A) (A) (A) (A) (A)
                 (A) (A) (A) (A) (A) (A) (A) (A) (A) (A) (A) (A)
                 (A) (A) (A) (A) (A) (A) (A) (A) (A) (A) (A) (A)
                 (A) (A) (A) (A) (A) (A) (A) (A) (A) (A) (A) (A)
                 (A) (A) (A) (A) (A) (A) (A) (A) (A) (A) (A) (A)
                 (A) (A) (A) (A) (A) (A) (A) (A) (A) (A) (A) (A)
                 (A) (A) (A) (A) (A) (A) (A) (A) (A) (A) (A) (A)
                 (A) (A) (A) (A) (A) (A) (A) (A) (A) (A) (A) (A)
                 (A) (A) (A) (A) (A) (A) (A) (A) (A) (A) (A) (A)
                 (A) (A) (A) (A) (A) (A) (A) (A) (A) (A) (A) (A)
                 (A) (A) (A) (A) (A) (A) (A) (A) (A) (A) (A) (A)
                 (A) (A) (A) (A) (A) (A) (A) (A) (A) (A) (A) (A)
                 (A) (A) (A) (A) (A) (A) (A) (A) (A) (A) (A) (A)
                 (A) (A) (A) (A) (A) (A) (A) (A) (A) (A) (A) (A)
                 (A) (A) (A) (A) (A) (A) (A) (A) (A) (A) (A) (A)
                 (A) (A) (A) (A) (A) (A) (A) (A) (A) (A) (A) (A)
                 (A) (A) (A) (A) (A) (A) (A) (A) (A) (A) (A) (A)
                 (A) (A) (A) (A) (A) (A) (A) (A) (A) (A) (A) (A)
                 (A) (A) (A) (A) (A) (A) (A) (A) (A) (A) (A) (A)
                 (A) (A) (A) (A) (A) (A) (A) (A) (A) (A) (A) (A)
                 (A) (A) (A) (A) (A) (A) (A) (A) (A) (A) (A) (A)
                 (A) (A) (A) (A) (A) (A) (A) (A) (A) (A) (A) (A)
                 (A) (A) (A) (A) (A) (A) (A) (A) (A) (A) (A) (A)
                 (A) (A) (A) (A) (A) (A) (A) (A) (A) (A) (A) (A)
                 (A) (A) (A) (A) (A) (A) (A) (A) (A) (A) (A) (A)
                 (A) (A) (A) (A) (A) (A) (A) (A) (A) (A) (A) (A)
                 (A) (A) (A) (A) (A) (A) (A) (A) (A) (A) (A) (A)
                 (A) (A) (A) (A) (A) (A) (A) (A) (A) (A) (A) (A)
                 (A) (A) (A) (A) (A) (A) (A) (A) (A) (A) (A) (A)
                 (A) (A) (A) (A) (A) (A) (A) (A) (A) (A) (A) (A)
                 (A) (A) (A) (A) (A) (A) (A) (A) (A) (A) (A) (A)
                 (A) (A) (A) (A) (A) (A) (A) (A) (A) (A) (A) (A)
                 (A) (A) (A) (A) (A) (A) (A) (A) (A) (A) (A) (A)
                 (A) (A) (A) (A) (A) (A) (A) (A) (A) (A) (A) (A)
                 (A) (A) (A) (A) (A) (A) (A) (A) (A) (A) (A) (A)
                 (A) (A) (A) (A) (A) (A) (A) (A) (A) (A) (A) (A)
                 (A) (A) (A) (A) (A) (A) (A) (A) (A) (A) (A) (A)
                 (A) (A) (A) (A) (A) (A) (A) (A) (A) (A) (A) (A)
                 (A) (A) (A) (A) (A) (A) (A) (A) (A) (A) (A) (A)
                 (A) (A) (A) (A) (A) (A) (A) (A) (A) (A) (A) (A)
                 (A) (A) (A) (A) (A) (A) (A) (A) (A) (A) (A) (A)
                 (A) (A) (A) (A) (A) (A) (A) (A) (A) (A)
 The electronic state is 1-A.
 Alpha  occ. eigenvalues --  -19.21869 -19.21756 -10.31698 -10.29927 -10.28904
 Alpha  occ. eigenvalues --  -10.28533 -10.28286 -10.28222 -10.28145 -10.28008
 Alpha  occ. eigenvalues --  -10.27985 -10.27863 -10.27641 -10.27568 -10.26936
 Alpha  occ. eigenvalues --  -10.26867 -10.26709 -10.26684 -10.26611 -10.26586
 Alpha  occ. eigenvalues --  -10.26570 -10.26553 -10.26509 -10.26452 -10.26348
 Alpha  occ. eigenvalues --  -10.26348 -10.26247 -10.26168 -10.26142 -10.26119
 Alpha  occ. eigenvalues --  -10.25882 -10.25766 -10.25682 -10.25674 -10.25526
 Alpha  occ. eigenvalues --  -10.25498 -10.25029 -10.24687 -10.24233 -10.24053
 Alpha  occ. eigenvalues --  -10.24038 -10.23934  -1.08783  -1.08602  -0.94038
 Alpha  occ. eigenvalues --   -0.93389  -0.93012  -0.91969  -0.91092  -0.90057
 Alpha  occ. eigenvalues --   -0.87635  -0.87343  -0.87090  -0.85789  -0.84875
 Alpha  occ. eigenvalues --   -0.82854  -0.81783  -0.80146  -0.79531  -0.77480
 Alpha  occ. eigenvalues --   -0.76763  -0.76552  -0.76191  -0.76079  -0.75999
 Alpha  occ. eigenvalues --   -0.75538  -0.74884  -0.74603  -0.73595  -0.71050
 Alpha  occ. eigenvalues --   -0.69016  -0.67577  -0.66100  -0.65446  -0.63667
 Alpha  occ. eigenvalues --   -0.63159  -0.62881  -0.62147  -0.60846  -0.60011
 Alpha  occ. eigenvalues --   -0.59142  -0.58439  -0.58076  -0.57409  -0.56149
 Alpha  occ. eigenvalues --   -0.55791  -0.55658  -0.55314  -0.54875  -0.54156
 Alpha  occ. eigenvalues --   -0.53200  -0.52853  -0.52453  -0.51999  -0.51366
 Alpha  occ. eigenvalues --   -0.50717  -0.50310  -0.50153  -0.49566  -0.49076
 Alpha  occ. eigenvalues --   -0.49001  -0.48943  -0.48410  -0.47945  -0.47548
 Alpha  occ. eigenvalues --   -0.47174  -0.46982  -0.46901  -0.46434  -0.46408
 Alpha  occ. eigenvalues --   -0.46098  -0.45998  -0.45023  -0.44535  -0.44448
 Alpha  occ. eigenvalues --   -0.44378  -0.44139  -0.43885  -0.43725  -0.43160
 Alpha  occ. eigenvalues --   -0.42568  -0.42491  -0.42115  -0.41760  -0.41386
 Alpha  occ. eigenvalues --   -0.41330  -0.41089  -0.40804  -0.40659  -0.40628
 Alpha  occ. eigenvalues --   -0.40244  -0.39946  -0.39637  -0.39541  -0.39458
 Alpha  occ. eigenvalues --   -0.38944  -0.38753  -0.38362  -0.38267  -0.38154
 Alpha  occ. eigenvalues --   -0.37911  -0.37458  -0.36978  -0.35953  -0.35550
 Alpha  occ. eigenvalues --   -0.35138  -0.34272  -0.33454  -0.32461  -0.31917
 Alpha  occ. eigenvalues --   -0.31448  -0.29846  -0.28765  -0.26855  -0.24095
 Alpha  occ. eigenvalues --   -0.20393
 Alpha virt. eigenvalues --   -0.05300  -0.00516   0.03213   0.05841   0.07834
 Alpha virt. eigenvalues --    0.08751   0.10315   0.10739   0.11134   0.11240
 Alpha virt. eigenvalues --    0.11328   0.12036   0.12779   0.12981   0.13174
 Alpha virt. eigenvalues --    0.13469   0.13793   0.14035   0.14206   0.14422
 Alpha virt. eigenvalues --    0.14634   0.14881   0.15433   0.15959   0.16119
 Alpha virt. eigenvalues --    0.16255   0.16586   0.16996   0.17057   0.17150
 Alpha virt. eigenvalues --    0.17292   0.17606   0.18269   0.18605   0.18715
 Alpha virt. eigenvalues --    0.19240   0.19527   0.19652   0.20205   0.20319
 Alpha virt. eigenvalues --    0.21104   0.21180   0.21562   0.21596   0.21895
 Alpha virt. eigenvalues --    0.21923   0.22254   0.22456   0.22709   0.23083
 Alpha virt. eigenvalues --    0.23607   0.23668   0.23764   0.24566   0.24652
 Alpha virt. eigenvalues --    0.25047   0.25186   0.25255   0.25471   0.25809
 Alpha virt. eigenvalues --    0.26335   0.26535   0.26720   0.27180   0.27271
 Alpha virt. eigenvalues --    0.27535   0.27648   0.28091   0.28614   0.28945
 Alpha virt. eigenvalues --    0.29396   0.29611   0.29726   0.30061   0.30356
 Alpha virt. eigenvalues --    0.30864   0.31672   0.31747   0.32242   0.32611
 Alpha virt. eigenvalues --    0.32841   0.33496   0.34029   0.34681   0.34969
 Alpha virt. eigenvalues --    0.35903   0.36429   0.37105   0.37367   0.37861
 Alpha virt. eigenvalues --    0.38061   0.39722   0.40110   0.42138   0.42826
 Alpha virt. eigenvalues --    0.43227   0.44333   0.44616   0.45469   0.45923
 Alpha virt. eigenvalues --    0.46618   0.47479   0.47817   0.48546   0.49366
 Alpha virt. eigenvalues --    0.49738   0.51143   0.52212   0.53245   0.53959
 Alpha virt. eigenvalues --    0.55125   0.55688   0.56160   0.56631   0.56728
 Alpha virt. eigenvalues --    0.57640   0.57711   0.58082   0.58110   0.58618
 Alpha virt. eigenvalues --    0.58849   0.58892   0.59341   0.59507   0.59724
 Alpha virt. eigenvalues --    0.60337   0.60567   0.60803   0.61174   0.61813
 Alpha virt. eigenvalues --    0.62494   0.63030   0.63319   0.63550   0.63716
 Alpha virt. eigenvalues --    0.63965   0.64006   0.64790   0.64907   0.65463
 Alpha virt. eigenvalues --    0.65691   0.65869   0.66009   0.66613   0.66982
 Alpha virt. eigenvalues --    0.67166   0.67378   0.67729   0.68060   0.68237
 Alpha virt. eigenvalues --    0.68655   0.68870   0.69124   0.69627   0.70201
 Alpha virt. eigenvalues --    0.70548   0.70787   0.70980   0.71346   0.71471
 Alpha virt. eigenvalues --    0.72048   0.72348   0.72884   0.73227   0.73273
 Alpha virt. eigenvalues --    0.74230   0.74608   0.74988   0.75135   0.75824
 Alpha virt. eigenvalues --    0.76055   0.76176   0.76345   0.76935   0.77187
 Alpha virt. eigenvalues --    0.77905   0.78068   0.78133   0.78395   0.78983
 Alpha virt. eigenvalues --    0.79303   0.79650   0.79970   0.80586   0.81041
 Alpha virt. eigenvalues --    0.81329   0.81534   0.81934   0.82254   0.82775
 Alpha virt. eigenvalues --    0.82831   0.83542   0.83818   0.83952   0.84385
 Alpha virt. eigenvalues --    0.84495   0.84649   0.85062   0.85276   0.85443
 Alpha virt. eigenvalues --    0.86103   0.86237   0.86380   0.86776   0.87332
 Alpha virt. eigenvalues --    0.87346   0.87480   0.87558   0.87646   0.88312
 Alpha virt. eigenvalues --    0.88518   0.88967   0.89106   0.89362   0.89543
 Alpha virt. eigenvalues --    0.89782   0.90059   0.90454   0.90747   0.91015
 Alpha virt. eigenvalues --    0.91255   0.91634   0.92015   0.92115   0.92614
 Alpha virt. eigenvalues --    0.92927   0.93035   0.93363   0.93439   0.93888
 Alpha virt. eigenvalues --    0.94419   0.94706   0.94938   0.95059   0.95313
 Alpha virt. eigenvalues --    0.95420   0.95854   0.96082   0.96874   0.97168
 Alpha virt. eigenvalues --    0.97513   0.97583   0.98724   0.98831   0.99100
 Alpha virt. eigenvalues --    0.99596   0.99626   0.99959   1.00398   1.00656
 Alpha virt. eigenvalues --    1.01140   1.01412   1.01939   1.02629   1.03113
 Alpha virt. eigenvalues --    1.03419   1.04149   1.04223   1.04597   1.05875
 Alpha virt. eigenvalues --    1.06176   1.06415   1.06567   1.06882   1.07457
 Alpha virt. eigenvalues --    1.07994   1.08268   1.08709   1.08995   1.09495
 Alpha virt. eigenvalues --    1.10375   1.10543   1.10825   1.11015   1.12204
 Alpha virt. eigenvalues --    1.12960   1.13004   1.13360   1.13851   1.14110
 Alpha virt. eigenvalues --    1.14505   1.14643   1.15197   1.15475   1.16260
 Alpha virt. eigenvalues --    1.16680   1.19073   1.19307   1.20773   1.21377
 Alpha virt. eigenvalues --    1.22451   1.23566   1.24541   1.25031   1.26244
 Alpha virt. eigenvalues --    1.27022   1.27804   1.28564   1.29395   1.29705
 Alpha virt. eigenvalues --    1.30523   1.31502   1.31860   1.32562   1.33219
 Alpha virt. eigenvalues --    1.35021   1.36051   1.36180   1.36658   1.36961
 Alpha virt. eigenvalues --    1.38256   1.38430   1.38954   1.39481   1.39755
 Alpha virt. eigenvalues --    1.40429   1.40998   1.41369   1.41922   1.42565
 Alpha virt. eigenvalues --    1.43201   1.43701   1.44356   1.45246   1.45346
 Alpha virt. eigenvalues --    1.45679   1.47053   1.47583   1.48427   1.49116
 Alpha virt. eigenvalues --    1.50114   1.50469   1.51207   1.51535   1.52247
 Alpha virt. eigenvalues --    1.53538   1.54560   1.54884   1.55270   1.55878
 Alpha virt. eigenvalues --    1.56012   1.57039   1.57305   1.58381   1.59096
 Alpha virt. eigenvalues --    1.59737   1.59825   1.60599   1.61632   1.62721
 Alpha virt. eigenvalues --    1.63001   1.63757   1.65106   1.66600   1.66796
 Alpha virt. eigenvalues --    1.67738   1.69347   1.69350   1.69920   1.70350
 Alpha virt. eigenvalues --    1.71146   1.72121   1.73606   1.74375   1.75662
 Alpha virt. eigenvalues --    1.76076   1.76809   1.77689   1.78139   1.79102
 Alpha virt. eigenvalues --    1.79303   1.79374   1.80479   1.80978   1.82101
 Alpha virt. eigenvalues --    1.82219   1.82389   1.84326   1.84517   1.85186
 Alpha virt. eigenvalues --    1.85600   1.85910   1.86098   1.86312   1.86586
 Alpha virt. eigenvalues --    1.87107   1.87490   1.87999   1.88314   1.88384
 Alpha virt. eigenvalues --    1.88501   1.88667   1.89655   1.90400   1.90668
 Alpha virt. eigenvalues --    1.91482   1.91680   1.91954   1.92168   1.92574
 Alpha virt. eigenvalues --    1.92783   1.93137   1.93278   1.93576   1.93821
 Alpha virt. eigenvalues --    1.93997   1.94289   1.94421   1.94768   1.95686
 Alpha virt. eigenvalues --    1.95828   1.96093   1.96264   1.96995   1.97130
 Alpha virt. eigenvalues --    1.97401   1.97523   1.98339   1.98714   1.99362
 Alpha virt. eigenvalues --    1.99528   2.00290   2.00640   2.00695   2.01225
 Alpha virt. eigenvalues --    2.01808   2.02270   2.02932   2.03767   2.03815
 Alpha virt. eigenvalues --    2.04179   2.04963   2.05185   2.05798   2.06074
 Alpha virt. eigenvalues --    2.06595   2.07375   2.07835   2.08089   2.08631
 Alpha virt. eigenvalues --    2.09260   2.09540   2.10081   2.10897   2.10967
 Alpha virt. eigenvalues --    2.11574   2.11836   2.12031   2.12445   2.13095
 Alpha virt. eigenvalues --    2.13432   2.13859   2.13939   2.14663   2.15365
 Alpha virt. eigenvalues --    2.15636   2.16197   2.16346   2.16965   2.17067
 Alpha virt. eigenvalues --    2.17543   2.17873   2.18111   2.18730   2.18902
 Alpha virt. eigenvalues --    2.19530   2.20141   2.20353   2.20714   2.21828
 Alpha virt. eigenvalues --    2.21999   2.22139   2.22168   2.23254   2.23386
 Alpha virt. eigenvalues --    2.23722   2.24356   2.24579   2.24966   2.26109
 Alpha virt. eigenvalues --    2.26245   2.26908   2.27666   2.28010   2.28972
 Alpha virt. eigenvalues --    2.29346   2.29625   2.29994   2.30260   2.31188
 Alpha virt. eigenvalues --    2.31506   2.31988   2.32887   2.33040   2.33370
 Alpha virt. eigenvalues --    2.33490   2.34303   2.34445   2.35265   2.35494
 Alpha virt. eigenvalues --    2.35991   2.36126   2.36920   2.37381   2.37569
 Alpha virt. eigenvalues --    2.38548   2.38884   2.39215   2.39522   2.40327
 Alpha virt. eigenvalues --    2.41041   2.41669   2.41855   2.42666   2.42706
 Alpha virt. eigenvalues --    2.43590   2.43909   2.44383   2.44753   2.45411
 Alpha virt. eigenvalues --    2.45738   2.45859   2.46590   2.46906   2.47393
 Alpha virt. eigenvalues --    2.47497   2.47980   2.48162   2.48433   2.48899
 Alpha virt. eigenvalues --    2.49563   2.50474   2.51399   2.51981   2.52060
 Alpha virt. eigenvalues --    2.52311   2.52492   2.53005   2.53638   2.54626
 Alpha virt. eigenvalues --    2.54720   2.54993   2.55757   2.56496   2.56872
 Alpha virt. eigenvalues --    2.57353   2.57630   2.57634   2.58659   2.59308
 Alpha virt. eigenvalues --    2.59688   2.59851   2.60048   2.60750   2.62065
 Alpha virt. eigenvalues --    2.62283   2.62974   2.63411   2.63634   2.64116
 Alpha virt. eigenvalues --    2.64211   2.64692   2.64903   2.65630   2.65676
 Alpha virt. eigenvalues --    2.66210   2.66868   2.67142   2.67740   2.68604
 Alpha virt. eigenvalues --    2.68972   2.69134   2.69376   2.69863   2.69946
 Alpha virt. eigenvalues --    2.70376   2.71146   2.71529   2.72533   2.73004
 Alpha virt. eigenvalues --    2.73248   2.73916   2.74280   2.74941   2.75334
 Alpha virt. eigenvalues --    2.75441   2.76390   2.76461   2.77123   2.77275
 Alpha virt. eigenvalues --    2.77546   2.78063   2.78337   2.78594   2.78798
 Alpha virt. eigenvalues --    2.79790   2.80334   2.80363   2.81046   2.81658
 Alpha virt. eigenvalues --    2.82255   2.82286   2.82875   2.83464   2.83707
 Alpha virt. eigenvalues --    2.84042   2.84628   2.85148   2.85492   2.85649
 Alpha virt. eigenvalues --    2.87016   2.87379   2.88330   2.89202   2.90185
 Alpha virt. eigenvalues --    2.90553   2.91210   2.91943   2.92502   2.93040
 Alpha virt. eigenvalues --    2.94115   2.94458   2.95099   2.95633   2.95780
 Alpha virt. eigenvalues --    2.96889   2.97700   2.98139   2.98783   2.99259
 Alpha virt. eigenvalues --    2.99607   2.99729   3.00676   3.01397   3.01726
 Alpha virt. eigenvalues --    3.01907   3.02124   3.03569   3.04078   3.04925
 Alpha virt. eigenvalues --    3.05187   3.06248   3.06547   3.06704   3.07487
 Alpha virt. eigenvalues --    3.08364   3.09091   3.10053   3.10655   3.13087
 Alpha virt. eigenvalues --    3.13315   3.13887   3.14565   3.14845   3.15381
 Alpha virt. eigenvalues --    3.15713   3.18161   3.18275   3.21549   3.22746
 Alpha virt. eigenvalues --    3.24198   3.25594   3.25848   3.26586   3.26942
 Alpha virt. eigenvalues --    3.28153   3.29051   3.29832   3.30836   3.30874
 Alpha virt. eigenvalues --    3.32579   3.33289   3.33404   3.36365   3.37610
 Alpha virt. eigenvalues --    3.38724   3.39857   3.41307   3.41601   3.42451
 Alpha virt. eigenvalues --    3.44732   3.44963   3.46396   3.47005   3.47611
 Alpha virt. eigenvalues --    3.47979   3.50272   3.50482   3.50582   3.50944
 Alpha virt. eigenvalues --    3.51921   3.53727   3.54905   3.54996   3.57194
 Alpha virt. eigenvalues --    3.58641   3.58846   3.59958   3.60152   3.63015
 Alpha virt. eigenvalues --    3.65392   3.67185   3.67820   3.69327   3.71677
 Alpha virt. eigenvalues --    3.73653   3.76941   3.78510   3.78933   3.79453
 Alpha virt. eigenvalues --    3.88833   4.05326   4.13578   4.13997   4.17688
 Alpha virt. eigenvalues --    4.18526   4.20705   4.21162   4.25105   4.26110
 Alpha virt. eigenvalues --    4.28190   4.28965   4.29893   4.32363   4.36772
 Alpha virt. eigenvalues --    4.38919   4.41237   4.42069   4.44180   4.45514
 Alpha virt. eigenvalues --    4.46525   4.47496   4.48439   4.52805   4.53233
 Alpha virt. eigenvalues --    4.54048   4.54634   4.57440   4.58554   4.60851
 Alpha virt. eigenvalues --    4.63382   4.66061   4.67756   4.69572   4.71343
 Alpha virt. eigenvalues --    4.72617   4.75003   4.79259   4.83157   4.83812
 Alpha virt. eigenvalues --    4.84631   4.85188   4.90536   4.92808
          Condensed to atoms (all electrons):
 Mulliken charges:
               1
     1  O   -0.555113
     2  O   -0.569473
     3  C    0.008283
     4  C   -0.014318
     5  C   -0.189414
     6  C   -0.179162
     7  C    0.164283
     8  C    0.176756
     9  C    0.022661
    10  C    0.026918
    11  C   -0.167631
    12  C   -0.180864
    13  C    0.039806
    14  C    0.081634
    15  C   -0.292334
    16  C   -0.285591
    17  C   -0.284782
    18  C   -0.304564
    19  C   -0.131331
    20  C   -0.173634
    21  C   -0.365606
    22  C   -0.381440
    23  C   -0.106825
    24  C   -0.053881
    25  C    0.146626
    26  C    0.099540
    27  C   -0.389522
    28  C   -0.346438
    29  C   -0.021495
    30  C   -0.153511
    31  C   -0.120435
    32  C   -0.076912
    33  C   -0.106210
    34  C   -0.102586
    35  C    0.139460
    36  C    0.102225
    37  C   -0.367115
    38  C   -0.359264
    39  C   -0.145995
    40  C   -0.132897
    41  C   -0.079764
    42  C   -0.057369
    43  H    0.090009
    44  H    0.063963
    45  H    0.083958
    46  H    0.101319
    47  H    0.054881
    48  H    0.060067
    49  H    0.134798
    50  H    0.111642
    51  H    0.105547
    52  H    0.112690
    53  H    0.091168
    54  H    0.093349
    55  H    0.113837
    56  H    0.108369
    57  H    0.097153
    58  H    0.074579
    59  H    0.114878
    60  H    0.089870
    61  H    0.070162
    62  H    0.097594
    63  H    0.080054
    64  H    0.112549
    65  H    0.100805
    66  H    0.108946
    67  H    0.114750
    68  H    0.119052
    69  H    0.063222
    70  H    0.094065
    71  H    0.100426
    72  H    0.109781
    73  H    0.298463
    74  H    0.305370
    75  H    0.085283
    76  H    0.100821
    77  H    0.093234
    78  H    0.126662
    79  H    0.093158
    80  H    0.141164
    81  H    0.114142
    82  H    0.087147
    83  H    0.033820
    84  H    0.050354
    85  H    0.077042
    86  H    0.066974
    87  H    0.073929
    88  H    0.094590
    89  H    0.140927
    90  H    0.088584
    91  H    0.090394
    92  H    0.107825
    93  H    0.125929
    94  H    0.107353
    95  H    0.085709
    96  H    0.073873
    97  H    0.077264
    98  H    0.073791
 Sum of Mulliken charges =  -0.00000
 Mulliken charges with hydrogens summed into heavy atoms:
               1
     1  O   -0.256650
     2  O   -0.264103
     3  C    0.008283
     4  C   -0.014318
     5  C   -0.035441
     6  C    0.006115
     7  C    0.219164
     8  C    0.236824
     9  C    0.022661
    10  C    0.026918
    11  C    0.078809
    12  C    0.037374
    13  C    0.039806
    14  C    0.081634
    15  C    0.006020
    16  C   -0.005490
    17  C   -0.009872
    18  C   -0.014368
    19  C   -0.030526
    20  C   -0.064688
    21  C   -0.068582
    22  C   -0.077168
    23  C   -0.021543
    24  C    0.046940
    25  C    0.146626
    26  C    0.099540
    27  C   -0.076467
    28  C   -0.003986
    29  C    0.012325
    30  C   -0.103156
    31  C   -0.043393
    32  C   -0.009938
    33  C   -0.032281
    34  C   -0.007996
    35  C    0.139460
    36  C    0.102225
    37  C   -0.047211
    38  C   -0.018157
    39  C   -0.060286
    40  C   -0.059024
    41  C   -0.002500
    42  C    0.016422
 Electronic spatial extent (au):  <R**2>=         111444.8794
 Charge=             -0.0000 electrons
 Dipole moment (field-independent basis, Debye):
    X=             -1.1691    Y=             -0.4669    Z=              2.3197  Tot=              2.6393
 Quadrupole moment (field-independent basis, Debye-Ang):
   XX=           -264.8609   YY=           -246.8601   ZZ=           -265.6691
   XY=             14.1737   XZ=              0.2899   YZ=             -0.3765
 Traceless Quadrupole moment (field-independent basis, Debye-Ang):
   XX=             -5.7309   YY=             12.2699   ZZ=             -6.5390
   XY=             14.1737   XZ=              0.2899   YZ=             -0.3765
 Octapole moment (field-independent basis, Debye-Ang**2):
  XXX=           -604.2735  YYY=              3.2043  ZZZ=              1.2816  XYY=             78.9819
  XXY=           -163.2435  XXZ=            554.5090  XZZ=            -25.6248  YZZ=              7.2305
  YYZ=             16.6238  XYZ=            -97.0875
 Hexadecapole moment (field-independent basis, Debye-Ang**3):
 XXXX=        -148445.3124 YYYY=          -4583.0646 ZZZZ=          -1961.7392 XXXY=           2087.0121
 XXXZ=           -499.0390 YYYX=           -195.3697 YYYZ=            -14.6141 ZZZX=           -220.2297
 ZZZY=             10.1132 XXYY=         -24794.9895 XXZZ=         -24407.5478 YYZZ=          -1089.4158
 XXYZ=           -508.5290 YYXZ=            122.6370 ZZXY=           -161.7928
 N-N= 3.971103578940D+03 E-N=-1.189631237471D+04  KE= 1.689604267993D+03
 1\1\GINC-PADAWAN\SP\RCAM-B3LYP TD-FC\6-31G(d,p)\C40H56O2\PADAWAN\26-Ju
 n-2019\0\\# td=(NStates=1) CAM-B3LYP/6-31G(d,p)\\TD\\0,1\O,0,14.805958
 8149,-2.0964971208,-0.5636252155\O,0,-14.7491415112,2.0718990459,0.506
 249719\C,0,11.5733906331,-1.1064212762,1.1875321142\C,0,-12.325330165,
 -0.870209581,0.7171272347\C,0,13.0547542074,-1.2880118393,0.9499125633
 \C,0,-13.7332659356,-0.0848246425,0.706469543\C,0,13.3930913031,-1.836
 239151,-0.3751424032\C,0,-13.5537677168,1.37191999,0.6639781818\C,0,10
 .9727458006,-0.248509067,-0.0820424502\C,0,-11.2929463956,-0.164577486
 7,-0.2219029443\C,0,13.0729315122,-0.8296837255,-1.4827491479\C,0,-12.
 7150722672,1.8414921262,-0.526639706\C,0,11.6699417412,-0.3209924723,-
 1.1945479708\C,0,-11.5779913891,1.0234786709,-0.8284623852\C,0,11.4636
 470917,-0.2112702851,2.4677072117\C,0,10.8157610171,-2.3725977409,1.40
 23883588\C,0,-11.776249819,-0.7466264906,2.1611246925\C,0,-12.57922862
 49,-2.3257980228,0.3994818522\C,0,9.6603608621,0.3571167486,0.19357603
 76\C,0,-10.1104524122,-1.0303671217,-0.4548341644\C,0,11.1233651015,0.
 5418486498,-2.3908032873\C,0,-10.577660205,1.596890073,-1.7848277898\C
 ,0,9.2897189389,1.6647599139,0.1180664326\C,0,-8.8781382988,-0.5470682
 638,-0.2570567517\C,0,8.0196479508,2.2606758075,0.2510407731\C,0,-7.65
 70708491,-1.4021945526,-0.4668620182\C,0,7.9291033913,3.6493531402,0.4
 477261386\C,0,-7.8003211381,-2.8688666348,-0.9351436894\C,0,6.92269767
 68,1.4852985238,0.1065006441\C,0,-6.4910809111,-0.7929747726,-0.254868
 4928\C,0,5.6079713491,1.9970074076,0.149909907\C,0,-5.087259848,-1.265
 7064467,-0.3078329573\C,0,4.364460377,1.3395193658,-0.0107967087\C,0,-
 4.0030657266,-0.4207582819,-0.1872860586\C,0,3.0657491799,1.6451651144
 ,0.180369702\C,0,-2.6677605401,-0.9806223923,-0.3387515352\C,0,2.65980
 62616,3.0365831072,0.5153442434\C,0,-2.4333988339,-2.4476120633,-0.784
 779518\C,0,2.1207716522,0.6132184857,0.0012109961\C,0,-1.6220335264,-0
 .0665569498,-0.1633081578\C,0,0.6335505241,0.7464994178,0.0190477848\C
 ,0,-0.2327221412,-0.2284349486,-0.1691945595\H,0,13.712070479,-0.24784
 82199,1.0031151495\H,0,13.5721124472,-2.0477153526,1.6880989419\H,0,-1
 4.2490876858,-0.3815783148,1.5948566917\H,0,-14.3653979068,-0.29565648
 86,-0.1010917292\H,0,12.6800932113,-2.8342181649,-0.5904271077\H,0,-12
 .9171371747,1.7625207701,1.5195214251\H,0,13.6325441864,-0.0204047606,
 -1.4214780318\H,0,12.9459060836,-1.1203042575,-2.5367443504\H,0,-13.42
 75783018,1.5988912101,-1.4708450175\H,0,-12.317320339,2.6973517992,-0.
 3932262056\H,0,12.0365722772,-0.6638271088,3.3158462456\H,0,10.3895648
 215,0.1915296429,2.7443633173\H,0,11.9524845185,0.608960629,2.21340047
 5\H,0,11.006999703,-3.1491654966,0.749650351\H,0,11.0625271697,-2.9635
 312702,2.3037603\H,0,9.5813341344,-2.0954405372,1.3221471577\H,0,-11.6
 902759276,0.2015057216,2.4412580188\H,0,-10.6881233213,-1.1814152965,2
 .3159575998\H,0,-12.4113522942,-1.4332342284,2.9327458706\H,0,-13.3487
 546565,-2.8567469267,1.1285673657\H,0,-11.5227853265,-2.8299050185,0.7
 076958256\H,0,-12.695549913,-2.4653368417,-0.6738658606\H,0,8.84996682
 07,-0.3186501851,0.3180459886\H,0,-10.4140511371,-2.0528690109,-0.7820
 978428\H,0,10.078970316,0.9545455525,-2.2110758106\H,0,11.6509235274,1
 .3752618171,-2.7958793019\H,0,11.3062548605,-0.1154620333,-3.419579087
 9\H,0,-10.8844594529,2.2155447835,-2.7314046335\H,0,-9.8107166107,0.70
 64912861,-2.1769823042\H,0,-9.8633680918,2.3757961926,-1.4344170377\H,
 0,15.0192584788,-2.6116100661,0.2636582588\H,0,-15.4733367687,1.916036
 5177,1.2752057256\H,0,10.0817636584,2.378301134,-0.1981791329\H,0,-8.5
 000767047,0.4530374017,0.0830234893\H,0,8.4660094629,4.1806879217,-0.5
 234686499\H,0,6.9845018392,4.3044958585,0.4956653995\H,0,8.6161263226,
 4.080300917,1.4048335014\H,0,-8.227329763,-3.3617531044,-0.1301788569\
 H,0,-8.6223479908,-2.6602650406,-1.7560019302\H,0,-6.708159665,-3.4036
 240145,-1.3711939114\H,0,7.178849548,0.5947832212,0.0222988379\H,0,-6.
 5636466267,0.3801578557,-0.0369860756\H,0,5.4950788919,2.9842935773,0.
 6231745725\H,0,-5.0377475948,-2.2704483519,-0.5153489349\H,0,4.4061537
 144,0.2676950154,-0.1912575368\H,0,-4.1892144254,0.5989350104,0.083821
 1781\H,0,2.9698947745,3.3996240043,1.4542316242\H,0,1.4595226053,3.343
 5730282,0.1547478828\H,0,3.0871527373,3.7743352674,-0.4214026363\H,0,-
 2.8073228693,-3.3013672838,-0.0479878428\H,0,-3.1888883968,-2.60241136
 12,-1.6260065677\H,0,-1.2721440134,-2.5394941245,-0.8603090669\H,0,2.2
 826654245,-0.5866273138,-0.1906369677\H,0,-2.010170418,0.9022801459,0.
 1076441514\H,0,0.1777235194,1.7513578417,0.038369632\H,0,0.0542281928,
 -1.2480847586,-0.1946670507\\Version=ES64L-G16RevA.03\State=1-A\HF=-17
 06.8810077\RMSD=9.538e-09\PG=C01 [X(C40H56O2)]\\@


 ERROR IS THE FORCE THAT WELDS MEN TOGETHER....
 TRUTH IS COMMUNICATED TO MEN ONLY BY DEEDS OF TRUTH.
           TOLSTOI,MY RELIGION
 Job cpu time:       0 days  5 hours 48 minutes  8.7 seconds.
 Elapsed time:       0 days  1 hours 27 minutes 27.2 seconds.
 File lengths (MBytes):  RWF=   3127 Int=      0 D2E=      0 Chk=     84 Scr=      1
 Normal termination of Gaussian 16 at Wed Jun 26 20:51:38 2019.
