 Entering Gaussian System, Link 0=g16
 Input=Geometria-450-.com
 Output=Geometria-450-.log
 Initial command:
 /usr/local/g16/l1.exe "/home/padawan/israel-mol/zeaxanthin/spectra/abs/Gau-23457.inp" -scrdir="/home/padawan/israel-mol/zeaxanthin/spectra/abs/"
 Entering Link 1 = /usr/local/g16/l1.exe PID=     23459.
  
 Copyright (c) 1988,1990,1992,1993,1995,1998,2003,2009,2016,
            Gaussian, Inc.  All Rights Reserved.
  
 This is part of the Gaussian(R) 16 program.  It is based on
 the Gaussian(R) 09 system (copyright 2009, Gaussian, Inc.),
 the Gaussian(R) 03 system (copyright 2003, Gaussian, Inc.),
 the Gaussian(R) 98 system (copyright 1998, Gaussian, Inc.),
 the Gaussian(R) 94 system (copyright 1995, Gaussian, Inc.),
 the Gaussian 92(TM) system (copyright 1992, Gaussian, Inc.),
 the Gaussian 90(TM) system (copyright 1990, Gaussian, Inc.),
 the Gaussian 88(TM) system (copyright 1988, Gaussian, Inc.),
 the Gaussian 86(TM) system (copyright 1986, Carnegie Mellon
 University), and the Gaussian 82(TM) system (copyright 1983,
 Carnegie Mellon University). Gaussian is a federally registered
 trademark of Gaussian, Inc.
  
 This software contains proprietary and confidential information,
 including trade secrets, belonging to Gaussian, Inc.
  
 This software is provided under written license and may be
 used, copied, transmitted, or stored only in accord with that
 written license.
  
 The following legend is applicable only to US Government
 contracts under FAR:
  
                    RESTRICTED RIGHTS LEGEND
  
 Use, reproduction and disclosure by the US Government is
 subject to restrictions as set forth in subparagraphs (a)
 and (c) of the Commercial Computer Software - Restricted
 Rights clause in FAR 52.227-19.
  
 Gaussian, Inc.
 340 Quinnipiac St., Bldg. 40, Wallingford CT 06492
  
  
 ---------------------------------------------------------------
 Warning -- This program may not be used in any manner that
 competes with the business of Gaussian, Inc. or will provide
 assistance to any competitor of Gaussian, Inc.  The licensee
 of this program is prohibited from giving any competitor of
 Gaussian, Inc. access to this program.  By using this program,
 the user acknowledges that Gaussian, Inc. is engaged in the
 business of creating and licensing software in the field of
 computational chemistry and represents and warrants to the
 licensee that it is not a competitor of Gaussian, Inc. and that
 it will not use this program in any manner prohibited above.
 ---------------------------------------------------------------
  

 Cite this work as:
 Gaussian 16, Revision A.03,
 M. J. Frisch, G. W. Trucks, H. B. Schlegel, G. E. Scuseria, 
 M. A. Robb, J. R. Cheeseman, G. Scalmani, V. Barone, 
 G. A. Petersson, H. Nakatsuji, X. Li, M. Caricato, A. V. Marenich, 
 J. Bloino, B. G. Janesko, R. Gomperts, B. Mennucci, H. P. Hratchian, 
 J. V. Ortiz, A. F. Izmaylov, J. L. Sonnenberg, D. Williams-Young, 
 F. Ding, F. Lipparini, F. Egidi, J. Goings, B. Peng, A. Petrone, 
 T. Henderson, D. Ranasinghe, V. G. Zakrzewski, J. Gao, N. Rega, 
 G. Zheng, W. Liang, M. Hada, M. Ehara, K. Toyota, R. Fukuda, 
 J. Hasegawa, M. Ishida, T. Nakajima, Y. Honda, O. Kitao, H. Nakai, 
 T. Vreven, K. Throssell, J. A. Montgomery, Jr., J. E. Peralta, 
 F. Ogliaro, M. J. Bearpark, J. J. Heyd, E. N. Brothers, K. N. Kudin, 
 V. N. Staroverov, T. A. Keith, R. Kobayashi, J. Normand, 
 K. Raghavachari, A. P. Rendell, J. C. Burant, S. S. Iyengar, 
 J. Tomasi, M. Cossi, J. M. Millam, M. Klene, C. Adamo, R. Cammi, 
 J. W. Ochterski, R. L. Martin, K. Morokuma, O. Farkas, 
 J. B. Foresman, and D. J. Fox, Gaussian, Inc., Wallingford CT, 2016.
 
 ******************************************
 Gaussian 16:  ES64L-G16RevA.03 25-Dec-2016
                10-Jul-2019 
 ******************************************
 %nproc=4
 Will use up to    4 processors via shared memory.
 %Mem=2GB
 -------------------------------------
 # td=(NStates=1) CAM-B3LYP/6-31G(d,p)
 -------------------------------------
 1/38=1,172=1/1;
 2/12=2,17=6,18=5,40=1/2;
 3/5=1,6=6,7=101,11=9,25=1,30=1,74=-40/1,2,3,8;
 4//1;
 5/5=2,38=5/2;
 8/6=1,10=2,108=1/1;
 9/41=1,42=1,70=2/14;
 6/7=2,8=2,9=2,10=2/1;
 99/5=1,9=1/99;
 --
 TD
 --
 Symbolic Z-matrix:
 Charge =  0 Multiplicity = 1
 8                     14.73972  -2.12514  -0.26836 
 8                    -14.78775   1.97629   0.69696 
 6                     11.46438  -1.07881   1.29539 
 6                    -12.41895  -0.9861    0.85911 
 6                     12.99155  -1.40527   1.17652 
 6                    -13.79178  -0.14388   0.82561 
 6                     13.27613  -1.95079  -0.16449 
 6                    -13.46099   1.30196   0.77536 
 6                     10.96473  -0.38185  -0.06095 
 6                    -11.41204  -0.39572  -0.15339 
 6                     13.01316  -0.90362  -1.22337 
 6                    -12.70395   1.70309  -0.4243 
 6                     11.67032  -0.27285  -1.18562 
 6                    -11.49198   0.81622  -0.76047 
 6                     11.23397  -0.06639   2.42759 
 6                     10.65142  -2.34799   1.38031 
 6                    -11.78969  -0.83625   2.23805 
 6                    -12.60852  -2.35293   0.47429 
 6                     9.63444   0.30888   0.15016 
 6                    -10.10549  -1.06897  -0.28903 
 6                     11.03705   0.29783  -2.44705 
 6                    -10.55972   1.66286  -1.69451 
 6                     9.37038   1.63933  -0.18544 
 6                    -8.90546  -0.52434  -0.34985 
 6                     8.06595   2.28168  -0.0021 
 6                    -7.64434  -1.41288  -0.50691 
 6                     8.11758   3.65111   0.3665 
 6                    -7.7045   -2.77924  -0.94877 
 6                     6.91912   1.54991  -0.05394 
 6                    -6.39838  -0.65476  -0.41839 
 6                     5.54187   1.97131   0.28736 
 6                    -5.05504  -1.19963  -0.67229 
 6                     4.37737   1.41703  -0.17731 
 6                    -4.04019  -0.41222  -0.31917 
 6                     3.11588   1.72901   0.13108 
 6                    -2.62891  -0.76474  -0.61599 
 6                     2.80137   2.93899   0.8698 
 6                    -2.29279  -2.15116  -1.02429 
 6                     2.11677   0.70011  -0.15698 
 6                    -1.58064   0.1601   -0.3375 
 6                     0.72397   0.96851  -0.07916 
 6                    -0.20018  -0.01643  -0.37647 
 1                     13.48796  -0.50842   1.43835 
 1                     13.40002  -2.05328   2.04472 
 1                    -14.31673  -0.60267   1.6729 
 1                    -14.23631  -0.48647  -0.16572 
 1                     12.93549  -3.0261   -0.41336 
 1                    -13.18302   1.70636   1.67959 
 1                     13.80655  -0.17155  -1.25608 
 1                     13.09687  -1.29578  -2.23934 
 1                    -13.39391   1.65291  -1.21799 
 1                    -12.57576   2.71278  -0.51116 
 1                     11.47515  -0.66859   3.30398 
 1                     10.15979   0.22131   2.70633 
 1                     11.69155   0.88424   2.36073 
 1                     10.62918  -2.75387   0.37489 
 1                     11.22767  -2.96525   2.03377 
 1                     9.65013  -2.10443   1.69746 
 1                    -11.65914   0.14095   2.56002 
 1                    -10.71309  -1.20196   2.3242 
 1                    -12.46368  -1.25597   2.8783 
 1                    -13.57057  -2.81251   1.04302 
 1                    -11.63261  -3.09575   0.85905 
 1                    -12.79371  -2.63762  -0.56134 
 1                     8.8046   -0.3324    0.49995 
 1                    -10.12014  -2.12704  -0.40516 
 1                     9.91616   0.39548  -2.53842 
 1                     11.68779   1.50798  -2.65352 
 1                     11.40883  -0.32175  -3.50312 
 1                    -11.09868   1.94957  -2.52124 
 1                    -9.82072   0.83691  -1.92204 
 1                    -10.06511   2.49755  -1.04743 
 1                     14.90034  -2.88433   0.255 
 1                    -15.27985   1.85514   1.55102 
 1                     10.21509   2.29715  -0.7644 
 1                    -8.64741   0.55265  -0.44679 
 1                     8.60856   4.20488  -0.41567 
 1                     7.13258   4.19288   0.72512 
 1                     8.82755   3.8237    1.18515 
 1                    -8.14514  -3.4744   -0.09454 
 1                    -8.15289  -3.00178  -1.90608 
 1                    -6.60879  -3.15976  -0.96602 
 1                     6.9431    0.52809  -0.32782 
 1                    -6.51487   0.47421  -0.27849 
 1                     5.47892   2.9471    0.84513 
 1                    -4.84254  -2.25202  -0.94484 
 1                     4.55652   0.35342  -0.69729 
 1                    -4.07338   0.518     0.21645 
 1                     3.13814   3.14152   1.99136 
 1                     1.6499    2.91187   0.89096 
 1                     3.19815   3.86739   0.46529 
 1                    -2.54981  -2.95327  -0.43716 
 1                    -2.82469  -2.33736  -1.90089 
 1                    -1.17807  -2.26605  -1.18391 
 1                     2.53531  -0.27716  -0.57678 
 1                    -2.03375   1.08325  -0.10907 
 1                     0.48688   1.96888   0.31207 
 1                     0.1988   -1.01313  -0.77348 
 
 Stoichiometry    C40H56O2
 Framework group  C1[X(C40H56O2)]
 Deg. of freedom   288
 Full point group                 C1      NOp   1
 Largest Abelian subgroup         C1      NOp   1
 Largest concise Abelian subgroup C1      NOp   1
                         Standard orientation:                         
 ---------------------------------------------------------------------
 Center     Atomic      Atomic             Coordinates (Angstroms)
 Number     Number       Type             X           Y           Z
 ---------------------------------------------------------------------
      1          8           0       14.738694   -2.136822   -0.199558
      2          8           0      -14.787815    2.001022    0.630151
      3          6           0       11.462982   -1.043687    1.331047
      4          6           0      -12.420109   -0.956065    0.880853
      5          6           0       12.990093   -1.374022    1.222590
      6          6           0      -13.792637   -0.114750    0.821840
      7          6           0       13.275113   -1.959001   -0.101585
      8          6           0      -13.461325    1.328870    0.729065
      9          6           0       10.964207   -0.386930   -0.045527
     10          6           0      -11.412524   -0.396176   -0.148160
     11          6           0       13.012991   -0.943476   -1.191057
     12          6           0      -12.703592    1.694140   -0.481557
     13          6           0       11.670355   -0.311422   -1.172586
     14          6           0      -11.491771    0.797330   -0.790807
     15          6           0       11.232395    0.001809    2.432742
     16          6           0       10.649553   -2.309535    1.453021
     17          6           0      -11.791442   -0.765754    2.255066
     18          6           0      -12.609969   -2.333601    0.536478
     19          6           0        9.634049    0.310174    0.144460
     20          6           0      -10.106145   -1.073568   -0.263236
     21          6           0       11.037863    0.221963   -2.450624
     22          6           0      -10.558781    1.615707   -1.749004
     23          6           0        9.370599    1.630214   -0.230419
     24          6           0       -8.905899   -0.531361   -0.339543
     25          6           0        8.066310    2.278127   -0.066752
     26          6           0       -7.645009   -1.424565   -0.469692
     27          6           0        8.118236    3.657835    0.261268
     28          6           0       -7.705433   -2.803362   -0.871032
     29          6           0        6.919248    1.545530   -0.097494
     30          6           0       -6.398833   -0.664576   -0.403017
     31          6           0        5.541991    1.977278    0.230555
     32          6           0       -5.055556   -1.217147   -0.640069
     33          6           0        4.377515    1.409890   -0.218103
     34          6           0       -4.040605   -0.419982   -0.309876
     35          6           0        3.115991    1.731263    0.080346
     36          6           0       -2.629304   -0.781582   -0.595483
     37          6           0        2.801547    2.962636    0.782853
     38          6           0       -2.293477   -2.179568   -0.962502
     39          6           0        2.116660    0.694626   -0.177685
     40          6           0       -1.580850    0.150732   -0.343927
     41          6           0        0.723914    0.965669   -0.108486
     42          6           0       -0.200432   -0.027324   -0.377009
     43          1           0       13.486688   -0.469994    1.458057
     44          1           0       13.397934   -1.996234    2.109753
     45          1           0      -14.318141   -0.548143    1.682064
     46          1           0      -14.236825   -0.486318   -0.159151
     47          1           0       12.934220   -3.041077   -0.318748
     48          1           0      -13.183644    1.759700    1.621087
     49          1           0       13.806652   -0.212951   -1.244995
     50          1           0       13.097046   -1.365499   -2.194963
     51          1           0      -13.393203    1.620765   -1.273748
     52          1           0      -12.575011    2.700787   -0.598138
     53          1           0       11.472953   -0.574326    3.326642
     54          1           0       10.158182    0.297967    2.702348
     55          1           0       11.690326    0.949893    2.338045
     56          1           0       10.627640   -2.744926    0.460023
     57          1           0       11.225286   -2.907422    2.124708
     58          1           0        9.648195   -2.056392    1.762371
     59          1           0      -11.660709    0.220481    2.548094
     60          1           0      -10.715002   -1.129116    2.352488
     61          1           0      -12.465870   -1.166161    2.907110
     62          1           0      -13.572436   -2.775869    1.118075
     63          1           0      -11.634487   -3.065055    0.943475
     64          1           0      -12.794772   -2.648697   -0.490384
     65          1           0        8.803831   -0.320226    0.512645
     66          1           0      -10.121103   -2.134597   -0.348076
     67          1           0        9.917057    0.317235   -2.545371
     68          1           0       11.689114    1.425264   -2.692431
     69          1           0       11.409922   -0.428666   -3.487756
     70          1           0      -11.097261    1.878052   -2.584102
     71          1           0       -9.819957    0.783162   -1.951687
     72          1           0      -10.064187    2.468983   -1.126623
     73          1           0       14.898805   -2.880274    0.346065
     74          1           0      -15.280356    1.905312    1.487187
     75          1           0       10.215804    2.270376   -0.828145
     76          1           0       -8.647436    0.542205   -0.468130
     77          1           0        8.609772    4.188098   -0.536678
     78          1           0        7.133249    4.210285    0.603263
     79          1           0        8.827879    3.854287    1.074805
     80          1           0       -8.146709   -3.472851    0.003147
     81          1           0       -8.153452   -3.053933   -1.821566
     82          1           0       -6.609843   -3.184587   -0.876522
     83          1           0        6.943005    0.516050   -0.341064
     84          1           0       -6.515002    0.468069   -0.296572
     85          1           0        5.479108    2.969131    0.759225
     86          1           0       -4.843291   -2.277194   -0.881320
     87          1           0        4.556540    0.331335   -0.706352
     88          1           0       -4.073729    0.525657    0.198025
     89          1           0        3.137865    3.198087    1.898098
     90          1           0        1.650059    2.936527    0.804259
     91          1           0        3.198837    3.878555    0.351285
     92          1           0       -2.551037   -2.963903   -0.352054
     93          1           0       -2.825029   -2.391405   -1.833474
     94          1           0       -1.178722   -2.299482   -1.118127
     95          1           0        2.535061   -0.294747   -0.568230
     96          1           0       -2.033754    1.080377   -0.143079
     97          1           0        0.486989    1.977233    0.252914
     98          1           0        0.198393   -1.035444   -0.744229
 ---------------------------------------------------------------------
 Rotational constants (GHZ):           0.2456509           0.0092706           0.0091174
 Standard basis: 6-31G(d,p) (6D, 7F)
 There are   910 symmetry adapted cartesian basis functions of A   symmetry.
 There are   910 symmetry adapted basis functions of A   symmetry.
   910 basis functions,  1568 primitive gaussians,   910 cartesian basis functions
   156 alpha electrons      156 beta electrons
       nuclear repulsion energy      3978.3600344357 Hartrees.
 NAtoms=   98 NActive=   98 NUniq=   98 SFac= 1.00D+00 NAtFMM=   60 NAOKFM=T Big=T
 Integral buffers will be    131072 words long.
 Raffenetti 1 integral format.
 Two-electron integral symmetry is turned on.
 One-electron integrals computed using PRISM.
 NBasis=   910 RedAO= T EigKep=  9.57D-04  NBF=   910
 NBsUse=   910 1.00D-06 EigRej= -1.00D+00 NBFU=   910
 ExpMin= 1.61D-01 ExpMax= 5.48D+03 ExpMxC= 8.25D+02 IAcc=3 IRadAn=         5 AccDes= 0.00D+00
 Harris functional with IExCor=20419 and IRadAn=       5 diagonalized for initial guess.
 HarFok:  IExCor=20419 AccDes= 0.00D+00 IRadAn=         5 IDoV= 1 UseB2=F ITyADJ=14
 ICtDFT=  3500011 ScaDFX=  1.000000  1.000000  1.000000  1.000000
 FoFCou: FMM=F IPFlag=           0 FMFlag=      100000 FMFlg1=        2001
         NFxFlg=           0 DoJE=T BraDBF=F KetDBF=T FulRan=T
         wScrn=  0.000000 ICntrl=       500 IOpCl=  0 I1Cent=   200000004 NGrid=           0
         NMat0=    1 NMatS0=      1 NMatT0=    0 NMatD0=    1 NMtDS0=    0 NMtDT0=    0
 Petite list used in FoFCou.
 Requested convergence on RMS density matrix=1.00D-08 within 128 cycles.
 Requested convergence on MAX density matrix=1.00D-06.
 Requested convergence on             energy=1.00D-06.
 No special actions if energy rises.
 Integral accuracy reduced to 1.0D-05 until final iterations.
 Initial convergence to 1.0D-05 achieved.  Increase integral accuracy.
 SCF Done:  E(RCAM-B3LYP) =  -1707.00131104     A.U. after   15 cycles
            NFock= 15  Conv=0.39D-08     -V/T= 2.0099
 DoSCS=F DFT=T ScalE2(SS,OS)=  1.000000  1.000000
 ExpMin= 1.61D-01 ExpMax= 5.48D+03 ExpMxC= 8.25D+02 IAcc=3 IRadAn=         5 AccDes= 0.00D+00
 HarFok:  IExCor=  205 AccDes= 0.00D+00 IRadAn=         5 IDoV=-2 UseB2=F ITyADJ=14
 ICtDFT= 12500011 ScaDFX=  1.000000  1.000000  1.000000  1.000000
 GSVD:  LWork=       -2100 too small for GESVD, short by        9450 words or        9450 for optimal perf.
 Range of M.O.s used for correlation:    43   910
 NBasis=   910 NAE=   156 NBE=   156 NFC=    42 NFV=     0
 NROrb=    868 NOA=   114 NOB=   114 NVA=   754 NVB=   754
 Orbital symmetries:
       Occupied  (A) (A) (A) (A) (A) (A) (A) (A) (A) (A) (A) (A)
                 (A) (A) (A) (A) (A) (A) (A) (A) (A) (A) (A) (A)
                 (A) (A) (A) (A) (A) (A) (A) (A) (A) (A) (A) (A)
                 (A) (A) (A) (A) (A) (A) (A) (A) (A) (A) (A) (A)
                 (A) (A) (A) (A) (A) (A) (A) (A) (A) (A) (A) (A)
                 (A) (A) (A) (A) (A) (A) (A) (A) (A) (A) (A) (A)
                 (A) (A) (A) (A) (A) (A) (A) (A) (A) (A) (A) (A)
                 (A) (A) (A) (A) (A) (A) (A) (A) (A) (A) (A) (A)
                 (A) (A) (A) (A) (A) (A) (A) (A) (A) (A) (A) (A)
                 (A) (A) (A) (A) (A) (A) (A) (A) (A) (A) (A) (A)
                 (A) (A) (A) (A) (A) (A) (A) (A) (A) (A) (A) (A)
                 (A) (A) (A) (A) (A) (A) (A) (A) (A) (A) (A) (A)
                 (A) (A) (A) (A) (A) (A) (A) (A) (A) (A) (A) (A)
       Virtual   (A) (A) (A) (A) (A) (A) (A) (A) (A) (A) (A) (A)
                 (A) (A) (A) (A) (A) (A) (A) (A) (A) (A) (A) (A)
                 (A) (A) (A) (A) (A) (A) (A) (A) (A) (A) (A) (A)
                 (A) (A) (A) (A) (A) (A) (A) (A) (A) (A) (A) (A)
                 (A) (A) (A) (A) (A) (A) (A) (A) (A) (A) (A) (A)
                 (A) (A) (A) (A) (A) (A) (A) (A) (A) (A) (A) (A)
                 (A) (A) (A) (A) (A) (A) (A) (A) (A) (A) (A) (A)
                 (A) (A) (A) (A) (A) (A) (A) (A) (A) (A) (A) (A)
                 (A) (A) (A) (A) (A) (A) (A) (A) (A) (A) (A) (A)
                 (A) (A) (A) (A) (A) (A) (A) (A) (A) (A) (A) (A)
                 (A) (A) (A) (A) (A) (A) (A) (A) (A) (A) (A) (A)
                 (A) (A) (A) (A) (A) (A) (A) (A) (A) (A) (A) (A)
                 (A) (A) (A) (A) (A) (A) (A) (A) (A) (A) (A) (A)
                 (A) (A) (A) (A) (A) (A) (A) (A) (A) (A) (A) (A)
                 (A) (A) (A) (A) (A) (A) (A) (A) (A) (A) (A) (A)
                 (A) (A) (A) (A) (A) (A) (A) (A) (A) (A) (A) (A)
                 (A) (A) (A) (A) (A) (A) (A) (A) (A) (A) (A) (A)
                 (A) (A) (A) (A) (A) (A) (A) (A) (A) (A) (A) (A)
                 (A) (A) (A) (A) (A) (A) (A) (A) (A) (A) (A) (A)
                 (A) (A) (A) (A) (A) (A) (A) (A) (A) (A) (A) (A)
                 (A) (A) (A) (A) (A) (A) (A) (A) (A) (A) (A) (A)
                 (A) (A) (A) (A) (A) (A) (A) (A) (A) (A) (A) (A)
                 (A) (A) (A) (A) (A) (A) (A) (A) (A) (A) (A) (A)
                 (A) (A) (A) (A) (A) (A) (A) (A) (A) (A) (A) (A)
                 (A) (A) (A) (A) (A) (A) (A) (A) (A) (A) (A) (A)
                 (A) (A) (A) (A) (A) (A) (A) (A) (A) (A) (A) (A)
                 (A) (A) (A) (A) (A) (A) (A) (A) (A) (A) (A) (A)
                 (A) (A) (A) (A) (A) (A) (A) (A) (A) (A) (A) (A)
                 (A) (A) (A) (A) (A) (A) (A) (A) (A) (A) (A) (A)
                 (A) (A) (A) (A) (A) (A) (A) (A) (A) (A) (A) (A)
                 (A) (A) (A) (A) (A) (A) (A) (A) (A) (A) (A) (A)
                 (A) (A) (A) (A) (A) (A) (A) (A) (A) (A) (A) (A)
                 (A) (A) (A) (A) (A) (A) (A) (A) (A) (A) (A) (A)
                 (A) (A) (A) (A) (A) (A) (A) (A) (A) (A) (A) (A)
                 (A) (A) (A) (A) (A) (A) (A) (A) (A) (A) (A) (A)
                 (A) (A) (A) (A) (A) (A) (A) (A) (A) (A) (A) (A)
                 (A) (A) (A) (A) (A) (A) (A) (A) (A) (A) (A) (A)
                 (A) (A) (A) (A) (A) (A) (A) (A) (A) (A) (A) (A)
                 (A) (A) (A) (A) (A) (A) (A) (A) (A) (A) (A) (A)
                 (A) (A) (A) (A) (A) (A) (A) (A) (A) (A) (A) (A)
                 (A) (A) (A) (A) (A) (A) (A) (A) (A) (A) (A) (A)
                 (A) (A) (A) (A) (A) (A) (A) (A) (A) (A) (A) (A)
                 (A) (A) (A) (A) (A) (A) (A) (A) (A) (A) (A) (A)
                 (A) (A) (A) (A) (A) (A) (A) (A) (A) (A) (A) (A)
                 (A) (A) (A) (A) (A) (A) (A) (A) (A) (A) (A) (A)
                 (A) (A) (A) (A) (A) (A) (A) (A) (A) (A) (A) (A)
                 (A) (A) (A) (A) (A) (A) (A) (A) (A) (A) (A) (A)
                 (A) (A) (A) (A) (A) (A) (A) (A) (A) (A) (A) (A)
                 (A) (A) (A) (A) (A) (A) (A) (A) (A) (A) (A) (A)
                 (A) (A) (A) (A) (A) (A) (A) (A) (A) (A) (A) (A)
                 (A) (A) (A) (A) (A) (A) (A) (A) (A) (A) (A) (A)
                 (A) (A) (A) (A) (A) (A) (A) (A) (A) (A) (A) (A)
                 (A) (A) (A) (A) (A) (A) (A) (A) (A) (A) (A) (A)
                 (A) (A) (A) (A) (A) (A) (A) (A) (A) (A) (A) (A)
                 (A) (A) (A) (A) (A) (A) (A) (A) (A) (A) (A) (A)
                 (A) (A) (A) (A) (A) (A) (A) (A) (A) (A) (A) (A)
                 (A) (A) (A) (A) (A) (A) (A) (A) (A) (A) (A) (A)
                 (A) (A) (A) (A) (A) (A) (A) (A) (A) (A) (A) (A)
                 (A) (A) (A) (A) (A) (A) (A) (A) (A) (A) (A) (A)
                 (A) (A) (A) (A) (A) (A) (A) (A) (A) (A) (A) (A)
                 (A) (A) (A) (A) (A) (A) (A) (A) (A) (A) (A) (A)
                 (A) (A) (A) (A) (A) (A) (A) (A) (A) (A) (A) (A)
                 (A) (A) (A) (A) (A) (A) (A) (A) (A) (A)
     4 initial guesses have been made.
 Convergence on wavefunction:    0.001000000000000
 Iteration     1 Dimension     4 NMult     0 NNew      4
 CISAX will form     4 AO SS matrices at one time.
 Iteration     2 Dimension     6 NMult     4 NNew      2
 Iteration     3 Dimension     8 NMult     6 NNew      2
 Iteration     4 Dimension    10 NMult     8 NNew      2
 Iteration     5 Dimension    12 NMult    10 NNew      2
 Iteration     6 Dimension    14 NMult    12 NNew      2
 ***********************************************************************
 Excited states from <AA,BB:AA,BB> singles matrix:
 ***********************************************************************
 
 Ground to excited state transition densities written to RWF  633
 Ground to excited state transition electric dipole moments (Au):
       state          X           Y           Z        Dip. S.      Osc.
         1         7.6520      1.5086      0.3866     60.9778      3.4810
 Ground to excited state transition velocity dipole moments (Au):
       state          X           Y           Z        Dip. S.      Osc.
         1        -0.6305     -0.1209     -0.0321      0.4132      3.2171
 Ground to excited state transition magnetic dipole moments (Au):
       state          X           Y           Z
         1        -0.1158      0.3296      0.7781
 Ground to excited state transition velocity quadrupole moments (Au):
       state          XX          YY          ZZ          XY          XZ          YZ
         1        -0.7332     -0.2031     -0.0391     -0.2200      0.2152      0.0099
 <0|del|b> * <b|rxdel|0> + <0|del|b> * <b|delr+rdel|0>
 Rotatory Strengths (R) in cgs (10**-40 erg-esu-cm/Gauss)
       state          XX          YY          ZZ    R(velocity)    E-M Angle
         1      -130.9789    143.6234     55.3389     22.6612       89.14
 1/2[<0|r|b>*<b|rxdel|0> + (<0|rxdel|b>*<b|r|0>)*]
 Rotatory Strengths (R) in cgs (10**-40 erg-esu-cm/Gauss)
       state          XX          YY          ZZ     R(length)
         1       626.7045   -351.5817   -212.7143     20.8028
  1/2[<0|del|b>*<b|r|0> + (<0|r|b>*<b|del|0>)*] (Au)
       state          X           Y           Z        Dip. S.   Osc.(frdel)
         1        -4.8249     -0.1824     -0.0124      5.0196      3.3464

 Excitation energies and oscillator strengths:
 
 Excited State   1:      Singlet-A      2.3301 eV  532.10 nm  f=3.4810  <S**2>=0.000
     155 ->158         0.13805
     156 ->157         0.69380
 This state for optimization and/or second-order correction.
 Total Energy, E(TD-HF/TD-DFT) =  -1706.91568157    
 Copying the excited state density for this state as the 1-particle RhoCI density.
 SavETr:  write IOETrn=   770 NScale= 10 NData=  16 NLR=1 NState=    1 LETran=      28.

 **********************************************************************

            Population analysis using the SCF density.

 **********************************************************************

 Orbital symmetries:
       Occupied  (A) (A) (A) (A) (A) (A) (A) (A) (A) (A) (A) (A)
                 (A) (A) (A) (A) (A) (A) (A) (A) (A) (A) (A) (A)
                 (A) (A) (A) (A) (A) (A) (A) (A) (A) (A) (A) (A)
                 (A) (A) (A) (A) (A) (A) (A) (A) (A) (A) (A) (A)
                 (A) (A) (A) (A) (A) (A) (A) (A) (A) (A) (A) (A)
                 (A) (A) (A) (A) (A) (A) (A) (A) (A) (A) (A) (A)
                 (A) (A) (A) (A) (A) (A) (A) (A) (A) (A) (A) (A)
                 (A) (A) (A) (A) (A) (A) (A) (A) (A) (A) (A) (A)
                 (A) (A) (A) (A) (A) (A) (A) (A) (A) (A) (A) (A)
                 (A) (A) (A) (A) (A) (A) (A) (A) (A) (A) (A) (A)
                 (A) (A) (A) (A) (A) (A) (A) (A) (A) (A) (A) (A)
                 (A) (A) (A) (A) (A) (A) (A) (A) (A) (A) (A) (A)
                 (A) (A) (A) (A) (A) (A) (A) (A) (A) (A) (A) (A)
       Virtual   (A) (A) (A) (A) (A) (A) (A) (A) (A) (A) (A) (A)
                 (A) (A) (A) (A) (A) (A) (A) (A) (A) (A) (A) (A)
                 (A) (A) (A) (A) (A) (A) (A) (A) (A) (A) (A) (A)
                 (A) (A) (A) (A) (A) (A) (A) (A) (A) (A) (A) (A)
                 (A) (A) (A) (A) (A) (A) (A) (A) (A) (A) (A) (A)
                 (A) (A) (A) (A) (A) (A) (A) (A) (A) (A) (A) (A)
                 (A) (A) (A) (A) (A) (A) (A) (A) (A) (A) (A) (A)
                 (A) (A) (A) (A) (A) (A) (A) (A) (A) (A) (A) (A)
                 (A) (A) (A) (A) (A) (A) (A) (A) (A) (A) (A) (A)
                 (A) (A) (A) (A) (A) (A) (A) (A) (A) (A) (A) (A)
                 (A) (A) (A) (A) (A) (A) (A) (A) (A) (A) (A) (A)
                 (A) (A) (A) (A) (A) (A) (A) (A) (A) (A) (A) (A)
                 (A) (A) (A) (A) (A) (A) (A) (A) (A) (A) (A) (A)
                 (A) (A) (A) (A) (A) (A) (A) (A) (A) (A) (A) (A)
                 (A) (A) (A) (A) (A) (A) (A) (A) (A) (A) (A) (A)
                 (A) (A) (A) (A) (A) (A) (A) (A) (A) (A) (A) (A)
                 (A) (A) (A) (A) (A) (A) (A) (A) (A) (A) (A) (A)
                 (A) (A) (A) (A) (A) (A) (A) (A) (A) (A) (A) (A)
                 (A) (A) (A) (A) (A) (A) (A) (A) (A) (A) (A) (A)
                 (A) (A) (A) (A) (A) (A) (A) (A) (A) (A) (A) (A)
                 (A) (A) (A) (A) (A) (A) (A) (A) (A) (A) (A) (A)
                 (A) (A) (A) (A) (A) (A) (A) (A) (A) (A) (A) (A)
                 (A) (A) (A) (A) (A) (A) (A) (A) (A) (A) (A) (A)
                 (A) (A) (A) (A) (A) (A) (A) (A) (A) (A) (A) (A)
                 (A) (A) (A) (A) (A) (A) (A) (A) (A) (A) (A) (A)
                 (A) (A) (A) (A) (A) (A) (A) (A) (A) (A) (A) (A)
                 (A) (A) (A) (A) (A) (A) (A) (A) (A) (A) (A) (A)
                 (A) (A) (A) (A) (A) (A) (A) (A) (A) (A) (A) (A)
                 (A) (A) (A) (A) (A) (A) (A) (A) (A) (A) (A) (A)
                 (A) (A) (A) (A) (A) (A) (A) (A) (A) (A) (A) (A)
                 (A) (A) (A) (A) (A) (A) (A) (A) (A) (A) (A) (A)
                 (A) (A) (A) (A) (A) (A) (A) (A) (A) (A) (A) (A)
                 (A) (A) (A) (A) (A) (A) (A) (A) (A) (A) (A) (A)
                 (A) (A) (A) (A) (A) (A) (A) (A) (A) (A) (A) (A)
                 (A) (A) (A) (A) (A) (A) (A) (A) (A) (A) (A) (A)
                 (A) (A) (A) (A) (A) (A) (A) (A) (A) (A) (A) (A)
                 (A) (A) (A) (A) (A) (A) (A) (A) (A) (A) (A) (A)
                 (A) (A) (A) (A) (A) (A) (A) (A) (A) (A) (A) (A)
                 (A) (A) (A) (A) (A) (A) (A) (A) (A) (A) (A) (A)
                 (A) (A) (A) (A) (A) (A) (A) (A) (A) (A) (A) (A)
                 (A) (A) (A) (A) (A) (A) (A) (A) (A) (A) (A) (A)
                 (A) (A) (A) (A) (A) (A) (A) (A) (A) (A) (A) (A)
                 (A) (A) (A) (A) (A) (A) (A) (A) (A) (A) (A) (A)
                 (A) (A) (A) (A) (A) (A) (A) (A) (A) (A) (A) (A)
                 (A) (A) (A) (A) (A) (A) (A) (A) (A) (A) (A) (A)
                 (A) (A) (A) (A) (A) (A) (A) (A) (A) (A) (A) (A)
                 (A) (A) (A) (A) (A) (A) (A) (A) (A) (A) (A) (A)
                 (A) (A) (A) (A) (A) (A) (A) (A) (A) (A) (A) (A)
                 (A) (A) (A) (A) (A) (A) (A) (A) (A) (A) (A) (A)
                 (A) (A) (A) (A) (A) (A) (A) (A) (A) (A) (A) (A)
                 (A) (A) (A) (A) (A) (A) (A) (A) (A) (A) (A) (A)
                 (A) (A) (A) (A) (A) (A) (A) (A) (A) (A) (A) (A)
                 (A) (A) (A) (A) (A) (A) (A) (A) (A) (A) (A) (A)
                 (A) (A) (A) (A) (A) (A) (A) (A) (A) (A) (A) (A)
                 (A) (A) (A) (A) (A) (A) (A) (A) (A) (A) (A) (A)
                 (A) (A) (A) (A) (A) (A) (A) (A) (A) (A) (A) (A)
                 (A) (A) (A) (A) (A) (A) (A) (A) (A) (A) (A) (A)
                 (A) (A) (A) (A) (A) (A) (A) (A) (A) (A) (A) (A)
                 (A) (A) (A) (A) (A) (A) (A) (A) (A) (A) (A) (A)
                 (A) (A) (A) (A) (A) (A) (A) (A) (A) (A) (A) (A)
                 (A) (A) (A) (A) (A) (A) (A) (A) (A) (A) (A) (A)
                 (A) (A) (A) (A) (A) (A) (A) (A) (A) (A) (A) (A)
                 (A) (A) (A) (A) (A) (A) (A) (A) (A) (A)
 The electronic state is 1-A.
 Alpha  occ. eigenvalues --  -19.19951 -19.19377 -10.31349 -10.29501 -10.29344
 Alpha  occ. eigenvalues --  -10.28049 -10.27541 -10.27534 -10.27493 -10.27475
 Alpha  occ. eigenvalues --  -10.27394 -10.27181 -10.27041 -10.26931 -10.26928
 Alpha  occ. eigenvalues --  -10.26878 -10.26790 -10.26771 -10.26725 -10.26688
 Alpha  occ. eigenvalues --  -10.26612 -10.26442 -10.26382 -10.26250 -10.26120
 Alpha  occ. eigenvalues --  -10.26078 -10.25808 -10.25801 -10.25762 -10.25668
 Alpha  occ. eigenvalues --  -10.25615 -10.25565 -10.25461 -10.25416 -10.25316
 Alpha  occ. eigenvalues --  -10.24932 -10.24773 -10.24428 -10.24233 -10.24109
 Alpha  occ. eigenvalues --  -10.23530 -10.23309  -1.08566  -1.06288  -0.93767
 Alpha  occ. eigenvalues --   -0.93473  -0.92225  -0.91323  -0.90642  -0.89447
 Alpha  occ. eigenvalues --   -0.87585  -0.87165  -0.87091  -0.85256  -0.84594
 Alpha  occ. eigenvalues --   -0.83312  -0.81864  -0.80188  -0.79709  -0.78607
 Alpha  occ. eigenvalues --   -0.77173  -0.77135  -0.76497  -0.76320  -0.75750
 Alpha  occ. eigenvalues --   -0.75623  -0.75343  -0.73995  -0.72836  -0.70199
 Alpha  occ. eigenvalues --   -0.68113  -0.67303  -0.65863  -0.64895  -0.63846
 Alpha  occ. eigenvalues --   -0.62884  -0.62264  -0.61655  -0.60400  -0.59295
 Alpha  occ. eigenvalues --   -0.59144  -0.58416  -0.58219  -0.57761  -0.56541
 Alpha  occ. eigenvalues --   -0.55718  -0.54943  -0.54857  -0.54052  -0.53795
 Alpha  occ. eigenvalues --   -0.53218  -0.52596  -0.51936  -0.51547  -0.51047
 Alpha  occ. eigenvalues --   -0.50541  -0.50381  -0.50050  -0.49776  -0.49462
 Alpha  occ. eigenvalues --   -0.49440  -0.48745  -0.48502  -0.48477  -0.48169
 Alpha  occ. eigenvalues --   -0.47961  -0.47545  -0.47331  -0.46776  -0.46367
 Alpha  occ. eigenvalues --   -0.46160  -0.45945  -0.45918  -0.45453  -0.44629
 Alpha  occ. eigenvalues --   -0.44460  -0.44043  -0.44002  -0.43590  -0.43418
 Alpha  occ. eigenvalues --   -0.43267  -0.42676  -0.42474  -0.42228  -0.42181
 Alpha  occ. eigenvalues --   -0.42015  -0.41263  -0.41125  -0.40981  -0.40544
 Alpha  occ. eigenvalues --   -0.40446  -0.40366  -0.39871  -0.39618  -0.39420
 Alpha  occ. eigenvalues --   -0.39372  -0.38855  -0.38680  -0.38319  -0.38147
 Alpha  occ. eigenvalues --   -0.37190  -0.36671  -0.36623  -0.35689  -0.34904
 Alpha  occ. eigenvalues --   -0.34587  -0.33712  -0.33217  -0.32220  -0.31339
 Alpha  occ. eigenvalues --   -0.31033  -0.29238  -0.28006  -0.26294  -0.23884
 Alpha  occ. eigenvalues --   -0.19417
 Alpha virt. eigenvalues --   -0.05346  -0.00060   0.02808   0.05697   0.07755
 Alpha virt. eigenvalues --    0.08955   0.10551   0.11640   0.11812   0.12004
 Alpha virt. eigenvalues --    0.12155   0.12405   0.12613   0.12871   0.13289
 Alpha virt. eigenvalues --    0.13616   0.14136   0.14383   0.14729   0.15054
 Alpha virt. eigenvalues --    0.15424   0.15922   0.16256   0.16704   0.16786
 Alpha virt. eigenvalues --    0.17158   0.17190   0.17343   0.17425   0.18131
 Alpha virt. eigenvalues --    0.18250   0.18533   0.18631   0.18827   0.19455
 Alpha virt. eigenvalues --    0.19516   0.19761   0.20171   0.20545   0.20741
 Alpha virt. eigenvalues --    0.21234   0.21485   0.22044   0.22363   0.22573
 Alpha virt. eigenvalues --    0.22856   0.22873   0.23116   0.23207   0.23367
 Alpha virt. eigenvalues --    0.23776   0.23997   0.24086   0.24570   0.24873
 Alpha virt. eigenvalues --    0.24882   0.25161   0.25242   0.25388   0.25619
 Alpha virt. eigenvalues --    0.26029   0.26668   0.26880   0.27103   0.27622
 Alpha virt. eigenvalues --    0.28592   0.28653   0.28942   0.29267   0.29767
 Alpha virt. eigenvalues --    0.30083   0.30180   0.30249   0.30457   0.30902
 Alpha virt. eigenvalues --    0.30997   0.31501   0.31795   0.32110   0.32592
 Alpha virt. eigenvalues --    0.33495   0.34037   0.34077   0.34575   0.35349
 Alpha virt. eigenvalues --    0.35408   0.35786   0.36594   0.36822   0.37373
 Alpha virt. eigenvalues --    0.38438   0.38663   0.40429   0.41058   0.41727
 Alpha virt. eigenvalues --    0.42719   0.44203   0.44468   0.45221   0.45819
 Alpha virt. eigenvalues --    0.46081   0.46259   0.46879   0.48661   0.48736
 Alpha virt. eigenvalues --    0.49142   0.50636   0.51947   0.53096   0.53914
 Alpha virt. eigenvalues --    0.54396   0.55086   0.56004   0.56244   0.56456
 Alpha virt. eigenvalues --    0.57099   0.57248   0.57755   0.58132   0.58228
 Alpha virt. eigenvalues --    0.58642   0.58873   0.59297   0.59987   0.60293
 Alpha virt. eigenvalues --    0.60652   0.61244   0.61413   0.61844   0.61959
 Alpha virt. eigenvalues --    0.62511   0.62752   0.62919   0.63676   0.63907
 Alpha virt. eigenvalues --    0.64174   0.64514   0.64724   0.65081   0.65561
 Alpha virt. eigenvalues --    0.65741   0.65925   0.66334   0.66757   0.66841
 Alpha virt. eigenvalues --    0.67106   0.67502   0.67787   0.68304   0.68557
 Alpha virt. eigenvalues --    0.68711   0.69250   0.69619   0.69928   0.70013
 Alpha virt. eigenvalues --    0.70471   0.70622   0.71125   0.71573   0.72253
 Alpha virt. eigenvalues --    0.72415   0.72908   0.73488   0.73569   0.74027
 Alpha virt. eigenvalues --    0.74474   0.74874   0.74948   0.75343   0.75581
 Alpha virt. eigenvalues --    0.76499   0.76652   0.76927   0.77251   0.77500
 Alpha virt. eigenvalues --    0.77525   0.77719   0.78377   0.78610   0.79336
 Alpha virt. eigenvalues --    0.79736   0.80271   0.80724   0.80903   0.81265
 Alpha virt. eigenvalues --    0.82625   0.83399   0.83450   0.83562   0.84144
 Alpha virt. eigenvalues --    0.84365   0.84444   0.84557   0.84683   0.84870
 Alpha virt. eigenvalues --    0.85029   0.85419   0.85733   0.86127   0.86396
 Alpha virt. eigenvalues --    0.86409   0.86564   0.86763   0.87103   0.87446
 Alpha virt. eigenvalues --    0.87738   0.88245   0.88589   0.88831   0.89074
 Alpha virt. eigenvalues --    0.89284   0.89723   0.89964   0.90060   0.90229
 Alpha virt. eigenvalues --    0.90283   0.90484   0.90988   0.91351   0.91505
 Alpha virt. eigenvalues --    0.91965   0.92053   0.92724   0.93240   0.93438
 Alpha virt. eigenvalues --    0.93567   0.93842   0.94403   0.94558   0.94928
 Alpha virt. eigenvalues --    0.95093   0.95414   0.95561   0.96026   0.96056
 Alpha virt. eigenvalues --    0.96239   0.96734   0.97100   0.97550   0.97674
 Alpha virt. eigenvalues --    0.98276   0.98616   0.99331   0.99472   0.99990
 Alpha virt. eigenvalues --    1.00463   1.00538   1.00743   1.01021   1.01275
 Alpha virt. eigenvalues --    1.01704   1.01986   1.02268   1.02849   1.03223
 Alpha virt. eigenvalues --    1.03368   1.03663   1.04300   1.04606   1.04921
 Alpha virt. eigenvalues --    1.05442   1.05648   1.05840   1.06294   1.06736
 Alpha virt. eigenvalues --    1.07160   1.08050   1.08203   1.08580   1.08724
 Alpha virt. eigenvalues --    1.09406   1.09715   1.09874   1.10375   1.11257
 Alpha virt. eigenvalues --    1.12198   1.12447   1.13005   1.13561   1.13875
 Alpha virt. eigenvalues --    1.14582   1.15031   1.15659   1.16016   1.16146
 Alpha virt. eigenvalues --    1.17461   1.17623   1.18098   1.18899   1.19382
 Alpha virt. eigenvalues --    1.20435   1.20673   1.20731   1.24195   1.25232
 Alpha virt. eigenvalues --    1.25373   1.25545   1.26172   1.27002   1.27900
 Alpha virt. eigenvalues --    1.28378   1.29177   1.30086   1.30681   1.31103
 Alpha virt. eigenvalues --    1.31990   1.32620   1.32992   1.33776   1.34692
 Alpha virt. eigenvalues --    1.35676   1.37773   1.38232   1.39085   1.39479
 Alpha virt. eigenvalues --    1.40241   1.40456   1.41438   1.41637   1.42814
 Alpha virt. eigenvalues --    1.43976   1.44051   1.44792   1.45389   1.46727
 Alpha virt. eigenvalues --    1.47752   1.48200   1.48416   1.49126   1.49638
 Alpha virt. eigenvalues --    1.50202   1.50495   1.51048   1.51250   1.51994
 Alpha virt. eigenvalues --    1.52969   1.53815   1.54272   1.54964   1.55724
 Alpha virt. eigenvalues --    1.56602   1.57600   1.57756   1.58712   1.59695
 Alpha virt. eigenvalues --    1.60327   1.60932   1.62509   1.63099   1.63283
 Alpha virt. eigenvalues --    1.64714   1.65665   1.66043   1.66794   1.67119
 Alpha virt. eigenvalues --    1.67422   1.67519   1.67979   1.68010   1.68838
 Alpha virt. eigenvalues --    1.70415   1.70454   1.71956   1.73239   1.74748
 Alpha virt. eigenvalues --    1.75360   1.75850   1.76820   1.78509   1.78611
 Alpha virt. eigenvalues --    1.79129   1.79651   1.79782   1.80294   1.81134
 Alpha virt. eigenvalues --    1.82173   1.82665   1.82952   1.83183   1.83281
 Alpha virt. eigenvalues --    1.84078   1.84261   1.85630   1.86347   1.86505
 Alpha virt. eigenvalues --    1.86759   1.87175   1.87834   1.88518   1.89114
 Alpha virt. eigenvalues --    1.89309   1.89795   1.90004   1.90761   1.91015
 Alpha virt. eigenvalues --    1.91348   1.91704   1.91867   1.92628   1.92980
 Alpha virt. eigenvalues --    1.93479   1.93721   1.93900   1.94490   1.95512
 Alpha virt. eigenvalues --    1.95705   1.95835   1.96762   1.97049   1.97249
 Alpha virt. eigenvalues --    1.97339   1.98051   1.98094   1.98404   1.98689
 Alpha virt. eigenvalues --    1.98835   1.99483   2.00118   2.00945   2.01451
 Alpha virt. eigenvalues --    2.02134   2.02492   2.02988   2.03102   2.03427
 Alpha virt. eigenvalues --    2.03756   2.04174   2.04419   2.04646   2.05448
 Alpha virt. eigenvalues --    2.06055   2.06420   2.06726   2.07269   2.07913
 Alpha virt. eigenvalues --    2.08231   2.08931   2.09527   2.10161   2.10440
 Alpha virt. eigenvalues --    2.10537   2.10753   2.11030   2.11835   2.12273
 Alpha virt. eigenvalues --    2.12616   2.12877   2.13049   2.13555   2.13951
 Alpha virt. eigenvalues --    2.14371   2.14485   2.14986   2.15128   2.15372
 Alpha virt. eigenvalues --    2.15726   2.16512   2.16582   2.17084   2.17178
 Alpha virt. eigenvalues --    2.17695   2.18501   2.18866   2.19206   2.19801
 Alpha virt. eigenvalues --    2.20489   2.21220   2.21960   2.22283   2.22712
 Alpha virt. eigenvalues --    2.23262   2.23399   2.23684   2.23829   2.24451
 Alpha virt. eigenvalues --    2.24804   2.24984   2.25165   2.25844   2.26121
 Alpha virt. eigenvalues --    2.26388   2.27152   2.28253   2.28426   2.28740
 Alpha virt. eigenvalues --    2.29293   2.29422   2.30870   2.31311   2.31326
 Alpha virt. eigenvalues --    2.31724   2.32067   2.32620   2.32787   2.33503
 Alpha virt. eigenvalues --    2.33895   2.34227   2.34629   2.34874   2.35972
 Alpha virt. eigenvalues --    2.36729   2.37084   2.37167   2.37425   2.38100
 Alpha virt. eigenvalues --    2.39120   2.40246   2.40548   2.40791   2.41130
 Alpha virt. eigenvalues --    2.41733   2.41850   2.42334   2.43259   2.43510
 Alpha virt. eigenvalues --    2.43775   2.44327   2.45229   2.45396   2.45974
 Alpha virt. eigenvalues --    2.47115   2.47735   2.48255   2.48422   2.48692
 Alpha virt. eigenvalues --    2.48842   2.49124   2.49353   2.49687   2.50483
 Alpha virt. eigenvalues --    2.51116   2.51129   2.52127   2.52927   2.53408
 Alpha virt. eigenvalues --    2.54644   2.55034   2.55466   2.55721   2.56088
 Alpha virt. eigenvalues --    2.56859   2.58024   2.58131   2.58439   2.58899
 Alpha virt. eigenvalues --    2.59326   2.59556   2.60119   2.60398   2.60779
 Alpha virt. eigenvalues --    2.60959   2.61503   2.62456   2.63178   2.63465
 Alpha virt. eigenvalues --    2.63776   2.64094   2.64757   2.65438   2.65709
 Alpha virt. eigenvalues --    2.66200   2.67099   2.67582   2.67732   2.67909
 Alpha virt. eigenvalues --    2.68030   2.68837   2.69083   2.69295   2.69806
 Alpha virt. eigenvalues --    2.70366   2.70842   2.71175   2.71766   2.72181
 Alpha virt. eigenvalues --    2.72786   2.73022   2.73199   2.73593   2.74083
 Alpha virt. eigenvalues --    2.74302   2.74428   2.75044   2.75739   2.76020
 Alpha virt. eigenvalues --    2.76301   2.76878   2.77307   2.77929   2.79262
 Alpha virt. eigenvalues --    2.79827   2.80387   2.80696   2.81417   2.82256
 Alpha virt. eigenvalues --    2.83052   2.83265   2.83431   2.83645   2.84503
 Alpha virt. eigenvalues --    2.84663   2.85350   2.85723   2.86301   2.86626
 Alpha virt. eigenvalues --    2.87150   2.87631   2.88245   2.88906   2.89056
 Alpha virt. eigenvalues --    2.89562   2.90005   2.90399   2.91017   2.91327
 Alpha virt. eigenvalues --    2.91677   2.92516   2.92598   2.93400   2.93677
 Alpha virt. eigenvalues --    2.93724   2.93840   2.94250   2.95056   2.95559
 Alpha virt. eigenvalues --    2.95982   2.97284   2.97638   2.98042   2.98325
 Alpha virt. eigenvalues --    2.98582   2.98768   3.00235   3.00336   3.01013
 Alpha virt. eigenvalues --    3.01647   3.03169   3.03484   3.04526   3.05147
 Alpha virt. eigenvalues --    3.05692   3.06779   3.07892   3.08563   3.09441
 Alpha virt. eigenvalues --    3.10180   3.10677   3.11396   3.11462   3.13238
 Alpha virt. eigenvalues --    3.14367   3.15294   3.16606   3.18381   3.18408
 Alpha virt. eigenvalues --    3.19377   3.19769   3.20513   3.21595   3.22597
 Alpha virt. eigenvalues --    3.23162   3.26037   3.27614   3.29389   3.31123
 Alpha virt. eigenvalues --    3.35781   3.36139   3.37138   3.37609   3.38881
 Alpha virt. eigenvalues --    3.39486   3.39825   3.40041   3.40145   3.41287
 Alpha virt. eigenvalues --    3.42485   3.45887   3.46710   3.46813   3.47780
 Alpha virt. eigenvalues --    3.47847   3.50480   3.50964   3.51830   3.52519
 Alpha virt. eigenvalues --    3.52902   3.53123   3.53842   3.54040   3.54859
 Alpha virt. eigenvalues --    3.55122   3.55911   3.56911   3.57032   3.57653
 Alpha virt. eigenvalues --    3.58343   3.58838   3.59227   3.61221   3.61683
 Alpha virt. eigenvalues --    3.61899   3.62568   3.64381   3.64900   3.66445
 Alpha virt. eigenvalues --    3.66924   3.69210   3.69705   3.72065   3.73100
 Alpha virt. eigenvalues --    3.74831   3.77172   4.06548   4.10327   4.18394
 Alpha virt. eigenvalues --    4.19103   4.20219   4.21475   4.24981   4.26213
 Alpha virt. eigenvalues --    4.27389   4.27769   4.28807   4.32356   4.36128
 Alpha virt. eigenvalues --    4.38072   4.39887   4.41859   4.45325   4.46858
 Alpha virt. eigenvalues --    4.48791   4.49882   4.50457   4.52745   4.54598
 Alpha virt. eigenvalues --    4.55777   4.57252   4.57931   4.59633   4.60828
 Alpha virt. eigenvalues --    4.63390   4.64571   4.68476   4.70418   4.72531
 Alpha virt. eigenvalues --    4.72993   4.75931   4.78123   4.80545   4.82103
 Alpha virt. eigenvalues --    4.84051   4.85789   4.89666   4.91918
          Condensed to atoms (all electrons):
 Mulliken charges:
               1
     1  O   -0.564683
     2  O   -0.598593
     3  C   -0.018699
     4  C   -0.010292
     5  C   -0.175973
     6  C   -0.180155
     7  C    0.138383
     8  C    0.175172
     9  C    0.019815
    10  C    0.051284
    11  C   -0.214085
    12  C   -0.224279
    13  C    0.082982
    14  C    0.020890
    15  C   -0.312720
    16  C   -0.296406
    17  C   -0.295587
    18  C   -0.294258
    19  C   -0.122898
    20  C   -0.140026
    21  C   -0.320369
    22  C   -0.347520
    23  C   -0.121090
    24  C   -0.087714
    25  C    0.124462
    26  C    0.090786
    27  C   -0.381161
    28  C   -0.375914
    29  C   -0.120925
    30  C   -0.139000
    31  C   -0.106847
    32  C   -0.101545
    33  C   -0.114335
    34  C   -0.081158
    35  C    0.139741
    36  C    0.078058
    37  C   -0.368822
    38  C   -0.381377
    39  C   -0.125563
    40  C   -0.117987
    41  C   -0.078498
    42  C   -0.093861
    43  H    0.120769
    44  H    0.069168
    45  H    0.088827
    46  H    0.105090
    47  H    0.090684
    48  H    0.092089
    49  H    0.133304
    50  H    0.104253
    51  H    0.126604
    52  H    0.109758
    53  H    0.092797
    54  H    0.099053
    55  H    0.119042
    56  H    0.113371
    57  H    0.101795
    58  H    0.109694
    59  H    0.109965
    60  H    0.106447
    61  H    0.101499
    62  H    0.070277
    63  H    0.070335
    64  H    0.120481
    65  H    0.095597
    66  H    0.082208
    67  H    0.138430
    68  H    0.043996
    69  H    0.070850
    70  H    0.124320
    71  H    0.115222
    72  H    0.114623
    73  H    0.293084
    74  H    0.296406
    75  H    0.088652
    76  H    0.090996
    77  H    0.123197
    78  H    0.101776
    79  H    0.122639
    80  H    0.105338
    81  H    0.137431
    82  H    0.097317
    83  H    0.074162
    84  H    0.087263
    85  H    0.067207
    86  H    0.099699
    87  H    0.059306
    88  H    0.088230
    89  H    0.111342
    90  H    0.089475
    91  H    0.124631
    92  H    0.129506
    93  H    0.123907
    94  H    0.097360
    95  H    0.088767
    96  H    0.070095
    97  H    0.096131
    98  H    0.086302
 Sum of Mulliken charges =  -0.00000
 Mulliken charges with hydrogens summed into heavy atoms:
               1
     1  O   -0.271599
     2  O   -0.302187
     3  C   -0.018699
     4  C   -0.010292
     5  C    0.013963
     6  C    0.013763
     7  C    0.229067
     8  C    0.267261
     9  C    0.019815
    10  C    0.051284
    11  C    0.023472
    12  C    0.012083
    13  C    0.082982
    14  C    0.020890
    15  C   -0.001828
    16  C    0.028455
    17  C    0.022323
    18  C   -0.033164
    19  C   -0.027301
    20  C   -0.057819
    21  C   -0.067092
    22  C    0.006645
    23  C   -0.032438
    24  C    0.003281
    25  C    0.124462
    26  C    0.090786
    27  C   -0.033549
    28  C   -0.035830
    29  C   -0.046763
    30  C   -0.051737
    31  C   -0.039640
    32  C   -0.001845
    33  C   -0.055029
    34  C    0.007072
    35  C    0.139741
    36  C    0.078058
    37  C   -0.043374
    38  C   -0.030604
    39  C   -0.036796
    40  C   -0.047892
    41  C    0.017632
    42  C   -0.007558
 Electronic spatial extent (au):  <R**2>=         111062.5543
 Charge=             -0.0000 electrons
 Dipole moment (field-independent basis, Debye):
    X=             -0.5201    Y=             -1.5075    Z=              2.1421  Tot=              2.6705
 Quadrupole moment (field-independent basis, Debye-Ang):
   XX=           -284.5575   YY=           -242.8797   ZZ=           -259.7547
   XY=              3.7678   XZ=             -0.4257   YZ=              4.7927
 Traceless Quadrupole moment (field-independent basis, Debye-Ang):
   XX=            -22.1602   YY=             19.5176   ZZ=              2.6426
   XY=              3.7678   XZ=             -0.4257   YZ=              4.7927
 Octapole moment (field-independent basis, Debye-Ang**2):
  XXX=           -266.1285  YYY=            -12.5752  ZZZ=             16.3975  XYY=            108.2112
  XXY=           -295.3047  XXZ=            483.5939  XZZ=            -53.8431  YZZ=              2.0413
  YYZ=             11.9879  XYZ=            -65.8614
 Hexadecapole moment (field-independent basis, Debye-Ang**3):
 XXXX=        -159059.3516 YYYY=          -4376.5723 ZZZZ=          -2024.9913 XXXY=            868.2804
 XXXZ=          -1180.4606 YYYX=           -357.1870 YYYZ=             46.3788 ZZZX=           -114.9001
 ZZZY=             38.6711 XXYY=         -23852.6556 XXZZ=         -23584.4282 YYZZ=          -1077.7276
 XXYZ=            -84.2793 YYXZ=            171.9700 ZZXY=           -281.4550
 N-N= 3.978360034436D+03 E-N=-1.191202547073D+04  KE= 1.690185844600D+03
 1\1\GINC-PADAWAN\SP\RCAM-B3LYP TD-FC\6-31G(d,p)\C40H56O2\PADAWAN\10-Ju
 l-2019\0\\# td=(NStates=1) CAM-B3LYP/6-31G(d,p)\\TD\\0,1\O,0,14.739722
 1912,-2.1251399851,-0.2683556886\O,0,-14.7877453715,1.9762894849,0.696
 9587899\C,0,11.464379732,-1.078808515,1.2953929003\C,0,-12.418949527,-
 0.9861011701,0.8591114331\C,0,12.9915478868,-1.4052735655,1.1765152235
 \C,0,-13.7917817872,-0.1438805481,0.8256114571\C,0,13.276129607,-1.950
 7906062,-0.1644913381\C,0,-13.4609884388,1.3019629943,0.7753593199\C,0
 ,10.9647349995,-0.3818524013,-0.060950341\C,0,-11.4120383048,-0.395720
 6011,-0.1533860926\C,0,13.0131555346,-0.9036211192,-1.2233732103\C,0,-
 12.7039511551,1.7030882858,-0.4242994719\C,0,11.6703217792,-0.27284765
 79,-1.1856170777\C,0,-11.4919827883,0.8162179448,-0.7604655856\C,0,11.
 2339741244,-0.0663857967,2.4275932003\C,0,10.6514245835,-2.3479852796,
 1.3803061506\C,0,-11.7896911631,-0.8362454525,2.2380523852\C,0,-12.608
 5215542,-2.3529307361,0.4742893329\C,0,9.6344382698,0.3088819251,0.150
 1616962\C,0,-10.1054919162,-1.0689709821,-0.2890275838\C,0,11.03704646
 96,0.2978342483,-2.4470489119\C,0,-10.5597184108,1.6628566697,-1.69450
 87579\C,0,9.3703770047,1.6393273706,-0.1854439184\C,0,-8.9054610311,-0
 .5243359906,-0.3498460306\C,0,8.0659525813,2.2816779077,-0.0021045415\
 C,0,-7.644339576,-1.4128756207,-0.5069060226\C,0,8.1175822392,3.651113
 3162,0.3664980158\C,0,-7.7045015562,-2.7792376719,-0.9487650515\C,0,6.
 9191173187,1.5499149854,-0.0539353995\C,0,-6.3983816412,-0.6547609512,
 -0.4183948455\C,0,5.5418747395,1.9713148384,0.2873636524\C,0,-5.055036
 6257,-1.1996298391,-0.6722894029\C,0,4.3773716682,1.4170271166,-0.1773
 133603\C,0,-4.0401894389,-0.4122174278,-0.3191692469\C,0,3.1158841934,
 1.7290134992,0.1310847735\C,0,-2.6289066547,-0.7647408042,-0.615989258
 9\C,0,2.801370418,2.9389933482,0.869799689\C,0,-2.2927947735,-2.151162
 4183,-1.0242934693\C,0,2.1167712521,0.7001071746,-0.1569848235\C,0,-1.
 5806393869,0.1600957155,-0.3374955766\C,0,0.723969566,0.9685116191,-0.
 0791620362\C,0,-0.2001788869,-0.0164337485,-0.3764652865\H,0,13.487958
 0678,-0.5084242775,1.4383486729\H,0,13.4000152375,-2.0532759087,2.0447
 246045\H,0,-14.3167344504,-0.602670424,1.6729044964\H,0,-14.2363149985
 ,-0.4864655696,-0.1657181918\H,0,12.9354887509,-3.0260973528,-0.413359
 4009\H,0,-13.1830237634,1.7063551535,1.6795874317\H,0,13.8065515872,-0
 .1715498751,-1.2560814921\H,0,13.0968711801,-1.2957818053,-2.239344610
 5\H,0,-13.3939149355,1.6529066117,-1.217989732\H,0,-12.5757561826,2.71
 27833423,-0.5111579988\H,0,11.4751461346,-0.6685875849,3.3039750585\H,
 0,10.1597918442,0.2213126212,2.706329514\H,0,11.6915484248,0.884238156
 7,2.3607252075\H,0,10.6291819212,-2.7538659667,0.3748928753\H,0,11.227
 6736844,-2.9652514422,2.0337733013\H,0,9.6501310141,-2.1044314362,1.69
 74646895\H,0,-11.6591428143,0.140949666,2.560019895\H,0,-10.7130858176
 ,-1.2019573507,2.3241984238\H,0,-12.4636775268,-1.2559665017,2.8783004
 26\H,0,-13.5705668377,-2.8125125033,1.0430188109\H,0,-11.6326063086,-3
 .0957516032,0.8590509611\H,0,-12.793709729,-2.6376240704,-0.5613446085
 \H,0,8.8046022842,-0.3324015603,0.4999541794\H,0,-10.1201417462,-2.127
 0364276,-0.405160149\H,0,9.9161640354,0.3954796459,-2.5384185449\H,0,1
 1.6877872137,1.5079750884,-2.6535150655\H,0,11.4088251175,-0.321752662
 4,-3.5031174417\H,0,-11.0986808751,1.9495681858,-2.5212436174\H,0,-9.8
 207176108,0.8369143284,-1.9220368097\H,0,-10.0651082658,2.4975483678,-
 1.0474283388\H,0,14.9003365867,-2.8843273378,0.2549973927\H,0,-15.2798
 474197,1.855140428,1.5510233073\H,0,10.2150869907,2.2971530192,-0.7643
 957546\H,0,-8.6474114381,0.5526473627,-0.4467894919\H,0,8.6085637184,4
 .2048803409,-0.4156678698\H,0,7.1325766467,4.1928846974,0.7251183448\H
 ,0,8.8275474647,3.8236952564,1.1851515332\H,0,-8.1451415442,-3.4744043
 695,-0.0945352925\H,0,-8.1528910451,-3.001779192,-1.9060769377\H,0,-6.
 608789728,-3.1597596281,-0.9660233943\H,0,6.9430959726,0.5280865516,-0
 .3278161736\H,0,-6.5148717492,0.4742072606,-0.278490226\H,0,5.47891727
 57,2.9470998579,0.8451267677\H,0,-4.8425380738,-2.2520165088,-0.944841
 8842\H,0,4.5565187509,0.3534235883,-0.6972881398\H,0,-4.0733828423,0.5
 179969166,0.2164544414\H,0,3.1381415992,3.1415181937,1.9913553365\H,0,
 1.6499016432,2.9118698579,0.8909615042\H,0,3.1981538374,3.8673945734,0
 .4652860326\H,0,-2.5498071177,-2.9532724743,-0.4371567597\H,0,-2.82469
 19772,-2.3373648566,-1.9008940564\H,0,-1.1780746065,-2.2660467798,-1.1
 839114271\H,0,2.5353106891,-0.2771563667,-0.5767755816\H,0,-2.03375277
 63,1.0832482427,-0.1090675198\H,0,0.4868844354,1.9688795939,0.31206700
 17\H,0,0.1988026503,-1.0131312632,-0.7734849325\\Version=ES64L-G16RevA
 .03\State=1-A\HF=-1707.001311\RMSD=3.851e-09\PG=C01 [X(C40H56O2)]\\@


 CONTRAIWISE...CONTINUED TWEEDLEDEE, IF IT WAS SO, IT MIGHT BE,
 AND IF IT WERE SO, IT WOULD BE.....
 BUT AS IT ISN'T, IT AIN'T....
 THAT'S LOGIC.....
 ALICE THROUGH THE LOOKING GLASS
 Job cpu time:       0 days  5 hours 59 minutes 14.8 seconds.
 Elapsed time:       0 days  1 hours 30 minutes 31.1 seconds.
 File lengths (MBytes):  RWF=   3127 Int=      0 D2E=      0 Chk=     84 Scr=      1
 Normal termination of Gaussian 16 at Wed Jul 10 06:58:44 2019.
