 Entering Gaussian System, Link 0=g16
 Input=Geometria-48-.com
 Output=Geometria-48-.log
 Initial command:
 /usr/local/g16/l1.exe "/home/padawan/israel-mol/zeaxanthin/spectra/abs/Gau-17206.inp" -scrdir="/home/padawan/israel-mol/zeaxanthin/spectra/abs/"
 Entering Link 1 = /usr/local/g16/l1.exe PID=     17208.
  
 Copyright (c) 1988,1990,1992,1993,1995,1998,2003,2009,2016,
            Gaussian, Inc.  All Rights Reserved.
  
 This is part of the Gaussian(R) 16 program.  It is based on
 the Gaussian(R) 09 system (copyright 2009, Gaussian, Inc.),
 the Gaussian(R) 03 system (copyright 2003, Gaussian, Inc.),
 the Gaussian(R) 98 system (copyright 1998, Gaussian, Inc.),
 the Gaussian(R) 94 system (copyright 1995, Gaussian, Inc.),
 the Gaussian 92(TM) system (copyright 1992, Gaussian, Inc.),
 the Gaussian 90(TM) system (copyright 1990, Gaussian, Inc.),
 the Gaussian 88(TM) system (copyright 1988, Gaussian, Inc.),
 the Gaussian 86(TM) system (copyright 1986, Carnegie Mellon
 University), and the Gaussian 82(TM) system (copyright 1983,
 Carnegie Mellon University). Gaussian is a federally registered
 trademark of Gaussian, Inc.
  
 This software contains proprietary and confidential information,
 including trade secrets, belonging to Gaussian, Inc.
  
 This software is provided under written license and may be
 used, copied, transmitted, or stored only in accord with that
 written license.
  
 The following legend is applicable only to US Government
 contracts under FAR:
  
                    RESTRICTED RIGHTS LEGEND
  
 Use, reproduction and disclosure by the US Government is
 subject to restrictions as set forth in subparagraphs (a)
 and (c) of the Commercial Computer Software - Restricted
 Rights clause in FAR 52.227-19.
  
 Gaussian, Inc.
 340 Quinnipiac St., Bldg. 40, Wallingford CT 06492
  
  
 ---------------------------------------------------------------
 Warning -- This program may not be used in any manner that
 competes with the business of Gaussian, Inc. or will provide
 assistance to any competitor of Gaussian, Inc.  The licensee
 of this program is prohibited from giving any competitor of
 Gaussian, Inc. access to this program.  By using this program,
 the user acknowledges that Gaussian, Inc. is engaged in the
 business of creating and licensing software in the field of
 computational chemistry and represents and warrants to the
 licensee that it is not a competitor of Gaussian, Inc. and that
 it will not use this program in any manner prohibited above.
 ---------------------------------------------------------------
  

 Cite this work as:
 Gaussian 16, Revision A.03,
 M. J. Frisch, G. W. Trucks, H. B. Schlegel, G. E. Scuseria, 
 M. A. Robb, J. R. Cheeseman, G. Scalmani, V. Barone, 
 G. A. Petersson, H. Nakatsuji, X. Li, M. Caricato, A. V. Marenich, 
 J. Bloino, B. G. Janesko, R. Gomperts, B. Mennucci, H. P. Hratchian, 
 J. V. Ortiz, A. F. Izmaylov, J. L. Sonnenberg, D. Williams-Young, 
 F. Ding, F. Lipparini, F. Egidi, J. Goings, B. Peng, A. Petrone, 
 T. Henderson, D. Ranasinghe, V. G. Zakrzewski, J. Gao, N. Rega, 
 G. Zheng, W. Liang, M. Hada, M. Ehara, K. Toyota, R. Fukuda, 
 J. Hasegawa, M. Ishida, T. Nakajima, Y. Honda, O. Kitao, H. Nakai, 
 T. Vreven, K. Throssell, J. A. Montgomery, Jr., J. E. Peralta, 
 F. Ogliaro, M. J. Bearpark, J. J. Heyd, E. N. Brothers, K. N. Kudin, 
 V. N. Staroverov, T. A. Keith, R. Kobayashi, J. Normand, 
 K. Raghavachari, A. P. Rendell, J. C. Burant, S. S. Iyengar, 
 J. Tomasi, M. Cossi, J. M. Millam, M. Klene, C. Adamo, R. Cammi, 
 J. W. Ochterski, R. L. Martin, K. Morokuma, O. Farkas, 
 J. B. Foresman, and D. J. Fox, Gaussian, Inc., Wallingford CT, 2016.
 
 ******************************************
 Gaussian 16:  ES64L-G16RevA.03 25-Dec-2016
                27-Jun-2019 
 ******************************************
 %nproc=4
 Will use up to    4 processors via shared memory.
 %Mem=2GB
 -------------------------------------
 # td=(NStates=1) CAM-B3LYP/6-31G(d,p)
 -------------------------------------
 1/38=1,172=1/1;
 2/12=2,17=6,18=5,40=1/2;
 3/5=1,6=6,7=101,11=9,25=1,30=1,74=-40/1,2,3,8;
 4//1;
 5/5=2,38=5/2;
 8/6=1,10=2,108=1/1;
 9/41=1,42=1,70=2/14;
 6/7=2,8=2,9=2,10=2/1;
 99/5=1,9=1/99;
 --
 TD
 --
 Symbolic Z-matrix:
 Charge =  0 Multiplicity = 1
 8                     14.72497  -2.16366  -0.55677 
 8                    -14.79407   2.0445    0.47851 
 6                     11.42784  -1.07823   1.21361 
 6                    -12.33488  -0.89501   0.78568 
 6                     12.91009  -1.39135   0.95476 
 6                    -13.68486  -0.20396   0.64726 
 6                     13.27081  -1.93143  -0.41431 
 6                    -13.57933   1.31244   0.5319 
 6                     10.93963  -0.28343  -0.00813 
 6                    -11.20063  -0.26731  -0.20158 
 6                     12.90996  -0.9176   -1.54788 
 6                    -12.77357   1.78657  -0.69303 
 6                     11.53753  -0.28383  -1.24955 
 6                    -11.53563   0.86309  -0.85724 
 6                     11.21046  -0.30773   2.55139 
 6                     10.76808  -2.41685   1.29047 
 6                    -11.87058  -0.81489   2.23871 
 6                    -12.59682  -2.37639   0.41791 
 6                     9.65673   0.36536   0.22308 
 6                    -10.03542  -0.99793  -0.44174 
 6                     11.22379   0.50331  -2.50741 
 6                    -10.54315   1.47311  -1.83004 
 6                     9.36525   1.63754   0.0316 
 6                    -8.77841  -0.51737  -0.20284 
 6                     8.02523   2.26256   0.08173 
 6                    -7.52856  -1.31539  -0.47367 
 6                     8.01361   3.72009   0.50952 
 6                    -7.57461  -2.79563  -0.81842 
 6                     6.84693   1.57261  -0.12713 
 6                    -6.38567  -0.6379   -0.21691 
 6                     5.53317   2.0754    0.08684 
 6                    -4.93716  -1.16559  -0.37093 
 6                     4.39639   1.19789   0.07464 
 6                    -3.92659  -0.39468  -0.08504 
 6                     3.05062   1.64924   0.15736 
 6                    -2.56498  -0.8464   -0.26555 
 6                     2.736     3.09851   0.60699 
 6                    -2.31975  -2.25045  -0.69841 
 6                     2.01572   0.72541   0.00194 
 6                    -1.65094   0.1331    0.02052 
 6                     0.69569   0.9106    0.02984 
 6                    -0.18465  -0.16176  -0.13609 
 1                     13.52505  -0.36089   0.95213 
 1                     13.35482  -1.98688   1.85245 
 1                    -14.32017  -0.64066   1.62415 
 1                    -14.20454  -0.37088  -0.38604 
 1                     12.72701  -2.84218  -0.69892 
 1                    -13.0991   1.85208   1.49435 
 1                     13.5133   0.11741  -1.58428 
 1                     13.12492  -1.43313  -2.57563 
 1                    -13.54983   1.57108  -1.49474 
 1                    -12.63837   2.81256  -0.57222 
 1                     11.72787  -0.75911   3.47134 
 1                     10.10867  -0.39517   2.75397 
 1                     11.55397   0.71409   2.7563 
 1                     11.01381  -3.18539   0.41237 
 1                     10.78161  -2.87129   2.32729 
 1                     9.66739  -2.07718   1.1293 
 1                    -11.99504   0.32123   2.47676 
 1                    -10.74826  -1.06625   2.20213 
 1                    -12.36548  -1.58517   3.02056 
 1                    -13.25475  -2.69923   1.1924 
 1                    -11.72462  -3.2124    0.42706 
 1                    -13.20181  -2.44922  -0.47788 
 1                     8.80118  -0.22005   0.72584 
 1                    -10.14089  -2.10277  -0.89471 
 1                     10.15423   0.95737  -2.40633 
 1                     11.86182   1.02725  -2.62702 
 1                     11.17132  -0.2186   -3.35548 
 1                    -11.09908   1.66807  -2.75779 
 1                    -9.53176   0.91244  -1.94211 
 1                    -9.9836    2.43313  -1.6865 
 1                     14.95597  -2.80535   0.05257 
 1                    -15.4212   1.55771   1.09302 
 1                     10.25253   2.20759  -0.42623 
 1                    -8.6552    0.45986  -0.06979 
 1                     8.65591   4.34184  -0.16204 
 1                     7.10814   4.15836   0.70195 
 1                     8.47308   3.64764   1.64451 
 1                    -8.33852  -3.47872  -0.34436 
 1                    -7.73151  -2.90858  -1.90888 
 1                    -6.58403  -3.32182  -0.63173 
 1                     6.98279   0.65276  -0.283 
 1                    -6.2492    0.34612   0.21104 
 1                     5.17647   3.15015   0.58759 
 1                    -4.83713  -2.21731  -0.52843 
 1                     4.53271   0.11473  -0.14476 
 1                    -4.05722   0.68701   0.09812 
 1                     2.89677   3.09903   1.80938 
 1                     1.68335   3.35644   0.69517 
 1                     3.25053   3.68175   0.11937 
 1                    -2.73795  -3.21287  -0.23286 
 1                    -2.72267  -2.46661  -1.57739 
 1                    -1.19801  -2.40814  -0.79484 
 1                     2.46755  -0.29127  -0.15529 
 1                    -2.18046   1.00542   0.62071 
 1                     0.13846   1.90155   0.42222 
 1                     0.06996  -1.2248   -0.39584 
 
 Stoichiometry    C40H56O2
 Framework group  C1[X(C40H56O2)]
 Deg. of freedom   288
 Full point group                 C1      NOp   1
 Largest Abelian subgroup         C1      NOp   1
 Largest concise Abelian subgroup C1      NOp   1
                         Standard orientation:                         
 ---------------------------------------------------------------------
 Center     Atomic      Atomic             Coordinates (Angstroms)
 Number     Number       Type             X           Y           Z
 ---------------------------------------------------------------------
      1          8           0       14.727985   -2.152318   -0.533120
      2          8           0      -14.795467    2.037472    0.449437
      3          6           0       11.428852   -1.054766    1.226041
      4          6           0      -12.333775   -0.897035    0.783197
      5          6           0       12.911538   -1.368738    0.970717
      6          6           0      -13.684306   -0.208432    0.638095
      7          6           0       13.273531   -1.920205   -0.393467
      8          6           0      -13.580094    1.307020    0.509795
      9          6           0       10.940619   -0.270926   -0.002745
     10          6           0      -11.199532   -0.276781   -0.208778
     11          6           0       12.912398   -0.916469   -1.535892
     12          6           0      -12.774067    1.771359   -0.718705
     13          6           0       11.539223   -0.281420   -1.243788
     14          6           0      -11.535190    0.847647   -0.874292
     15          6           0       11.210012   -0.273023    2.557031
     16          6           0       10.770271   -2.393286    1.314000
     17          6           0      -11.870375   -0.804032    2.235745
     18          6           0      -12.594152   -2.381756    0.427998
     19          6           0        9.656994    0.378646    0.222165
     20          6           0      -10.033526   -1.008370   -0.442010
     21          6           0       11.225478    0.494619   -2.508531
     22          6           0      -10.542713    1.450207   -1.851737
     23          6           0        9.364458    1.648868    0.019615
     24          6           0       -8.777085   -0.524617   -0.206532
     25          6           0        8.023842    2.273064    0.063636
     26          6           0       -7.526353   -1.323783   -0.469806
     27          6           0        8.010650    3.734202    0.478901
     28          6           0       -7.570856   -2.806970   -0.801873
     29          6           0        6.846293    1.580268   -0.139968
     30          6           0       -6.384231   -0.643071   -0.218226
     31          6           0        5.531956    2.083667    0.068950
     32          6           0       -4.935157   -1.170730   -0.366895
     33          6           0        4.395985    1.205041    0.063635
     34          6           0       -3.925447   -0.396468   -0.087056
     35          6           0        3.049750    1.655849    0.141720
     36          6           0       -2.563325   -0.848473   -0.262928
     37          6           0        2.733557    3.108637    0.578733
     38          6           0       -2.316564   -2.255962   -0.683588
     39          6           0        2.015786    0.729775   -0.006349
     40          6           0       -1.650339    0.134285    0.015249
     41          6           0        0.695568    0.913982    0.019218
     42          6           0       -0.183692   -0.160563   -0.138004
     43          1           0       13.525561   -0.337772    0.959592
     44          1           0       13.356301   -1.956136    1.873724
     45          1           0      -14.319778   -0.637328    1.618334
     46          1           0      -14.203245   -0.384692   -0.394031
     47          1           0       12.730723   -2.833861   -0.670562
     48          1           0      -13.100900    1.855330    1.467845
     49          1           0       13.514820    0.118745   -1.580838
     50          1           0       13.128423   -1.440590   -2.559065
     51          1           0      -13.549675    1.548291   -1.518975
     52          1           0      -12.639877    2.798478   -0.606631
     53          1           0       11.727309   -0.716018    3.481116
     54          1           0       10.108182   -0.359732    2.759743
     55          1           0       11.552475    0.750833    2.753372
     56          1           0       11.017207   -3.169100    0.442662
     57          1           0       10.783627   -2.838805    2.354693
     58          1           0        9.669370   -2.056018    1.149305
     59          1           0      -11.996005    0.333974    2.463971
     60          1           0      -10.747805   -1.054667    2.201947
     61          1           0      -12.365015   -1.568028    3.023897
     62          1           0      -13.252223   -2.698544    1.204859
     63          1           0      -11.721190   -3.216856    0.444802
     64          1           0      -13.198565   -2.462813   -0.467474
     65          1           0        8.801694   -0.203214    0.729444
     66          1           0      -10.137728   -2.117150   -0.885542
     67          1           0       10.155449    0.948538   -2.411941
     68          1           0       11.863107    1.018091   -2.632269
     69          1           0       11.174157   -0.234593   -3.350405
     70          1           0      -11.098296    1.636696   -2.781432
     71          1           0       -9.530749    0.889530   -1.958422
     72          1           0       -9.984124    2.411941   -1.716121
     73          1           0       14.959224   -2.788542    0.081832
     74          1           0      -15.422508    1.555399    1.067747
     75          1           0       10.251482    2.215792   -0.442588
     76          1           0       -8.654847    0.453825   -0.081800
     77          1           0        8.652762    4.350763   -0.197611
     78          1           0        7.104674    4.173276    0.667050
     79          1           0        8.469540    3.671908    1.614724
     80          1           0       -8.334414   -3.486676   -0.322400
     81          1           0       -7.727031   -2.929413   -1.891407
     82          1           0       -6.579901   -3.330627   -0.610118
     83          1           0        6.983081    0.659242   -0.287866
     84          1           0       -6.248898    0.344712    0.201349
     85          1           0        5.173983    3.162349    0.560260
     86          1           0       -4.834069   -2.223676   -0.515313
     87          1           0        4.533411    0.120170   -0.146395
     88          1           0       -4.057172    0.686632    0.086745
     89          1           0        2.893635    3.119621    1.781158
     90          1           0        1.680623    3.366352    0.664104
     91          1           0        3.247828    3.688142    0.086416
     92          1           0       -2.734149   -3.214733   -0.210032
     93          1           0       -2.718789   -2.480017   -1.560909
     94          1           0       -1.194625   -2.413442   -0.778033
     95          1           0        2.468637   -0.287798   -0.154603
     96          1           0       -2.180998    1.011231    0.607633
     97          1           0        0.137213    1.907756    0.402770
     98          1           0        0.072033   -1.225562   -0.388479
 ---------------------------------------------------------------------
 Rotational constants (GHZ):           0.2440545           0.0093152           0.0091549
 Standard basis: 6-31G(d,p) (6D, 7F)
 There are   910 symmetry adapted cartesian basis functions of A   symmetry.
 There are   910 symmetry adapted basis functions of A   symmetry.
   910 basis functions,  1568 primitive gaussians,   910 cartesian basis functions
   156 alpha electrons      156 beta electrons
       nuclear repulsion energy      3966.8462683102 Hartrees.
 NAtoms=   98 NActive=   98 NUniq=   98 SFac= 1.00D+00 NAtFMM=   60 NAOKFM=T Big=T
 Integral buffers will be    131072 words long.
 Raffenetti 1 integral format.
 Two-electron integral symmetry is turned on.
 One-electron integrals computed using PRISM.
 NBasis=   910 RedAO= T EigKep=  9.05D-04  NBF=   910
 NBsUse=   910 1.00D-06 EigRej= -1.00D+00 NBFU=   910
 ExpMin= 1.61D-01 ExpMax= 5.48D+03 ExpMxC= 8.25D+02 IAcc=3 IRadAn=         5 AccDes= 0.00D+00
 Harris functional with IExCor=20419 and IRadAn=       5 diagonalized for initial guess.
 HarFok:  IExCor=20419 AccDes= 0.00D+00 IRadAn=         5 IDoV= 1 UseB2=F ITyADJ=14
 ICtDFT=  3500011 ScaDFX=  1.000000  1.000000  1.000000  1.000000
 FoFCou: FMM=F IPFlag=           0 FMFlag=      100000 FMFlg1=        2001
         NFxFlg=           0 DoJE=T BraDBF=F KetDBF=T FulRan=T
         wScrn=  0.000000 ICntrl=       500 IOpCl=  0 I1Cent=   200000004 NGrid=           0
         NMat0=    1 NMatS0=      1 NMatT0=    0 NMatD0=    1 NMtDS0=    0 NMtDT0=    0
 Petite list used in FoFCou.
 Requested convergence on RMS density matrix=1.00D-08 within 128 cycles.
 Requested convergence on MAX density matrix=1.00D-06.
 Requested convergence on             energy=1.00D-06.
 No special actions if energy rises.
 Integral accuracy reduced to 1.0D-05 until final iterations.
 Initial convergence to 1.0D-05 achieved.  Increase integral accuracy.
 SCF Done:  E(RCAM-B3LYP) =  -1706.88787554     A.U. after   14 cycles
            NFock= 14  Conv=0.87D-08     -V/T= 2.0103
 DoSCS=F DFT=T ScalE2(SS,OS)=  1.000000  1.000000
 ExpMin= 1.61D-01 ExpMax= 5.48D+03 ExpMxC= 8.25D+02 IAcc=3 IRadAn=         5 AccDes= 0.00D+00
 HarFok:  IExCor=  205 AccDes= 0.00D+00 IRadAn=         5 IDoV=-2 UseB2=F ITyADJ=14
 ICtDFT= 12500011 ScaDFX=  1.000000  1.000000  1.000000  1.000000
 GSVD:  LWork=       -2100 too small for GESVD, short by        9450 words or        9450 for optimal perf.
 Range of M.O.s used for correlation:    43   910
 NBasis=   910 NAE=   156 NBE=   156 NFC=    42 NFV=     0
 NROrb=    868 NOA=   114 NOB=   114 NVA=   754 NVB=   754
 Orbital symmetries:
       Occupied  (A) (A) (A) (A) (A) (A) (A) (A) (A) (A) (A) (A)
                 (A) (A) (A) (A) (A) (A) (A) (A) (A) (A) (A) (A)
                 (A) (A) (A) (A) (A) (A) (A) (A) (A) (A) (A) (A)
                 (A) (A) (A) (A) (A) (A) (A) (A) (A) (A) (A) (A)
                 (A) (A) (A) (A) (A) (A) (A) (A) (A) (A) (A) (A)
                 (A) (A) (A) (A) (A) (A) (A) (A) (A) (A) (A) (A)
                 (A) (A) (A) (A) (A) (A) (A) (A) (A) (A) (A) (A)
                 (A) (A) (A) (A) (A) (A) (A) (A) (A) (A) (A) (A)
                 (A) (A) (A) (A) (A) (A) (A) (A) (A) (A) (A) (A)
                 (A) (A) (A) (A) (A) (A) (A) (A) (A) (A) (A) (A)
                 (A) (A) (A) (A) (A) (A) (A) (A) (A) (A) (A) (A)
                 (A) (A) (A) (A) (A) (A) (A) (A) (A) (A) (A) (A)
                 (A) (A) (A) (A) (A) (A) (A) (A) (A) (A) (A) (A)
       Virtual   (A) (A) (A) (A) (A) (A) (A) (A) (A) (A) (A) (A)
                 (A) (A) (A) (A) (A) (A) (A) (A) (A) (A) (A) (A)
                 (A) (A) (A) (A) (A) (A) (A) (A) (A) (A) (A) (A)
                 (A) (A) (A) (A) (A) (A) (A) (A) (A) (A) (A) (A)
                 (A) (A) (A) (A) (A) (A) (A) (A) (A) (A) (A) (A)
                 (A) (A) (A) (A) (A) (A) (A) (A) (A) (A) (A) (A)
                 (A) (A) (A) (A) (A) (A) (A) (A) (A) (A) (A) (A)
                 (A) (A) (A) (A) (A) (A) (A) (A) (A) (A) (A) (A)
                 (A) (A) (A) (A) (A) (A) (A) (A) (A) (A) (A) (A)
                 (A) (A) (A) (A) (A) (A) (A) (A) (A) (A) (A) (A)
                 (A) (A) (A) (A) (A) (A) (A) (A) (A) (A) (A) (A)
                 (A) (A) (A) (A) (A) (A) (A) (A) (A) (A) (A) (A)
                 (A) (A) (A) (A) (A) (A) (A) (A) (A) (A) (A) (A)
                 (A) (A) (A) (A) (A) (A) (A) (A) (A) (A) (A) (A)
                 (A) (A) (A) (A) (A) (A) (A) (A) (A) (A) (A) (A)
                 (A) (A) (A) (A) (A) (A) (A) (A) (A) (A) (A) (A)
                 (A) (A) (A) (A) (A) (A) (A) (A) (A) (A) (A) (A)
                 (A) (A) (A) (A) (A) (A) (A) (A) (A) (A) (A) (A)
                 (A) (A) (A) (A) (A) (A) (A) (A) (A) (A) (A) (A)
                 (A) (A) (A) (A) (A) (A) (A) (A) (A) (A) (A) (A)
                 (A) (A) (A) (A) (A) (A) (A) (A) (A) (A) (A) (A)
                 (A) (A) (A) (A) (A) (A) (A) (A) (A) (A) (A) (A)
                 (A) (A) (A) (A) (A) (A) (A) (A) (A) (A) (A) (A)
                 (A) (A) (A) (A) (A) (A) (A) (A) (A) (A) (A) (A)
                 (A) (A) (A) (A) (A) (A) (A) (A) (A) (A) (A) (A)
                 (A) (A) (A) (A) (A) (A) (A) (A) (A) (A) (A) (A)
                 (A) (A) (A) (A) (A) (A) (A) (A) (A) (A) (A) (A)
                 (A) (A) (A) (A) (A) (A) (A) (A) (A) (A) (A) (A)
                 (A) (A) (A) (A) (A) (A) (A) (A) (A) (A) (A) (A)
                 (A) (A) (A) (A) (A) (A) (A) (A) (A) (A) (A) (A)
                 (A) (A) (A) (A) (A) (A) (A) (A) (A) (A) (A) (A)
                 (A) (A) (A) (A) (A) (A) (A) (A) (A) (A) (A) (A)
                 (A) (A) (A) (A) (A) (A) (A) (A) (A) (A) (A) (A)
                 (A) (A) (A) (A) (A) (A) (A) (A) (A) (A) (A) (A)
                 (A) (A) (A) (A) (A) (A) (A) (A) (A) (A) (A) (A)
                 (A) (A) (A) (A) (A) (A) (A) (A) (A) (A) (A) (A)
                 (A) (A) (A) (A) (A) (A) (A) (A) (A) (A) (A) (A)
                 (A) (A) (A) (A) (A) (A) (A) (A) (A) (A) (A) (A)
                 (A) (A) (A) (A) (A) (A) (A) (A) (A) (A) (A) (A)
                 (A) (A) (A) (A) (A) (A) (A) (A) (A) (A) (A) (A)
                 (A) (A) (A) (A) (A) (A) (A) (A) (A) (A) (A) (A)
                 (A) (A) (A) (A) (A) (A) (A) (A) (A) (A) (A) (A)
                 (A) (A) (A) (A) (A) (A) (A) (A) (A) (A) (A) (A)
                 (A) (A) (A) (A) (A) (A) (A) (A) (A) (A) (A) (A)
                 (A) (A) (A) (A) (A) (A) (A) (A) (A) (A) (A) (A)
                 (A) (A) (A) (A) (A) (A) (A) (A) (A) (A) (A) (A)
                 (A) (A) (A) (A) (A) (A) (A) (A) (A) (A) (A) (A)
                 (A) (A) (A) (A) (A) (A) (A) (A) (A) (A) (A) (A)
                 (A) (A) (A) (A) (A) (A) (A) (A) (A) (A) (A) (A)
                 (A) (A) (A) (A) (A) (A) (A) (A) (A) (A) (A) (A)
                 (A) (A) (A) (A) (A) (A) (A) (A) (A) (A) (A) (A)
                 (A) (A) (A) (A) (A) (A) (A) (A) (A) (A) (A) (A)
                 (A) (A) (A) (A) (A) (A) (A) (A) (A) (A) (A) (A)
                 (A) (A) (A) (A) (A) (A) (A) (A) (A) (A) (A) (A)
                 (A) (A) (A) (A) (A) (A) (A) (A) (A) (A) (A) (A)
                 (A) (A) (A) (A) (A) (A) (A) (A) (A) (A) (A) (A)
                 (A) (A) (A) (A) (A) (A) (A) (A) (A) (A) (A) (A)
                 (A) (A) (A) (A) (A) (A) (A) (A) (A) (A) (A) (A)
                 (A) (A) (A) (A) (A) (A) (A) (A) (A) (A) (A) (A)
                 (A) (A) (A) (A) (A) (A) (A) (A) (A) (A) (A) (A)
                 (A) (A) (A) (A) (A) (A) (A) (A) (A) (A) (A) (A)
                 (A) (A) (A) (A) (A) (A) (A) (A) (A) (A) (A) (A)
                 (A) (A) (A) (A) (A) (A) (A) (A) (A) (A)
     4 initial guesses have been made.
 Convergence on wavefunction:    0.001000000000000
 Iteration     1 Dimension     4 NMult     0 NNew      4
 CISAX will form     4 AO SS matrices at one time.
 Iteration     2 Dimension     6 NMult     4 NNew      2
 Iteration     3 Dimension     8 NMult     6 NNew      2
 Iteration     4 Dimension    10 NMult     8 NNew      2
 Iteration     5 Dimension    12 NMult    10 NNew      2
 Iteration     6 Dimension    14 NMult    12 NNew      2
 ***********************************************************************
 Excited states from <AA,BB:AA,BB> singles matrix:
 ***********************************************************************
 
 Ground to excited state transition densities written to RWF  633
 Ground to excited state transition electric dipole moments (Au):
       state          X           Y           Z        Dip. S.      Osc.
         1         7.1959      1.4296      0.2592     53.8912      3.4110
 Ground to excited state transition velocity dipole moments (Au):
       state          X           Y           Z        Dip. S.      Osc.
         1        -0.6547     -0.1275     -0.0247      0.4455      3.1286
 Ground to excited state transition magnetic dipole moments (Au):
       state          X           Y           Z
         1        -0.0407     -0.0254      0.9826
 Ground to excited state transition velocity quadrupole moments (Au):
       state          XX          YY          ZZ          XY          XZ          YZ
         1        -2.7746     -0.2972     -0.0706     -0.3790      0.2021     -0.0081
 <0|del|b> * <b|rxdel|0> + <0|del|b> * <b|delr+rdel|0>
 Rotatory Strengths (R) in cgs (10**-40 erg-esu-cm/Gauss)
       state          XX          YY          ZZ    R(velocity)    E-M Angle
         1        52.5722     -5.9362     -4.3645     14.0905       89.50
 1/2[<0|r|b>*<b|rxdel|0> + (<0|rxdel|b>*<b|r|0>)*]
 Rotatory Strengths (R) in cgs (10**-40 erg-esu-cm/Gauss)
       state          XX          YY          ZZ     R(length)
         1       207.3578     25.6754   -180.1251     17.6361
  1/2[<0|del|b>*<b|r|0> + (<0|r|b>*<b|del|0>)*] (Au)
       state          X           Y           Z        Dip. S.   Osc.(frdel)
         1        -4.7114     -0.1823     -0.0064      4.9001      3.2667

 Excitation energies and oscillator strengths:
 
 Excited State   1:      Singlet-A      2.5835 eV  479.91 nm  f=3.4110  <S**2>=0.000
     155 ->158        -0.13457
     156 ->157         0.69227
 This state for optimization and/or second-order correction.
 Total Energy, E(TD-HF/TD-DFT) =  -1706.79293485    
 Copying the excited state density for this state as the 1-particle RhoCI density.
 SavETr:  write IOETrn=   770 NScale= 10 NData=  16 NLR=1 NState=    1 LETran=      28.

 **********************************************************************

            Population analysis using the SCF density.

 **********************************************************************

 Orbital symmetries:
       Occupied  (A) (A) (A) (A) (A) (A) (A) (A) (A) (A) (A) (A)
                 (A) (A) (A) (A) (A) (A) (A) (A) (A) (A) (A) (A)
                 (A) (A) (A) (A) (A) (A) (A) (A) (A) (A) (A) (A)
                 (A) (A) (A) (A) (A) (A) (A) (A) (A) (A) (A) (A)
                 (A) (A) (A) (A) (A) (A) (A) (A) (A) (A) (A) (A)
                 (A) (A) (A) (A) (A) (A) (A) (A) (A) (A) (A) (A)
                 (A) (A) (A) (A) (A) (A) (A) (A) (A) (A) (A) (A)
                 (A) (A) (A) (A) (A) (A) (A) (A) (A) (A) (A) (A)
                 (A) (A) (A) (A) (A) (A) (A) (A) (A) (A) (A) (A)
                 (A) (A) (A) (A) (A) (A) (A) (A) (A) (A) (A) (A)
                 (A) (A) (A) (A) (A) (A) (A) (A) (A) (A) (A) (A)
                 (A) (A) (A) (A) (A) (A) (A) (A) (A) (A) (A) (A)
                 (A) (A) (A) (A) (A) (A) (A) (A) (A) (A) (A) (A)
       Virtual   (A) (A) (A) (A) (A) (A) (A) (A) (A) (A) (A) (A)
                 (A) (A) (A) (A) (A) (A) (A) (A) (A) (A) (A) (A)
                 (A) (A) (A) (A) (A) (A) (A) (A) (A) (A) (A) (A)
                 (A) (A) (A) (A) (A) (A) (A) (A) (A) (A) (A) (A)
                 (A) (A) (A) (A) (A) (A) (A) (A) (A) (A) (A) (A)
                 (A) (A) (A) (A) (A) (A) (A) (A) (A) (A) (A) (A)
                 (A) (A) (A) (A) (A) (A) (A) (A) (A) (A) (A) (A)
                 (A) (A) (A) (A) (A) (A) (A) (A) (A) (A) (A) (A)
                 (A) (A) (A) (A) (A) (A) (A) (A) (A) (A) (A) (A)
                 (A) (A) (A) (A) (A) (A) (A) (A) (A) (A) (A) (A)
                 (A) (A) (A) (A) (A) (A) (A) (A) (A) (A) (A) (A)
                 (A) (A) (A) (A) (A) (A) (A) (A) (A) (A) (A) (A)
                 (A) (A) (A) (A) (A) (A) (A) (A) (A) (A) (A) (A)
                 (A) (A) (A) (A) (A) (A) (A) (A) (A) (A) (A) (A)
                 (A) (A) (A) (A) (A) (A) (A) (A) (A) (A) (A) (A)
                 (A) (A) (A) (A) (A) (A) (A) (A) (A) (A) (A) (A)
                 (A) (A) (A) (A) (A) (A) (A) (A) (A) (A) (A) (A)
                 (A) (A) (A) (A) (A) (A) (A) (A) (A) (A) (A) (A)
                 (A) (A) (A) (A) (A) (A) (A) (A) (A) (A) (A) (A)
                 (A) (A) (A) (A) (A) (A) (A) (A) (A) (A) (A) (A)
                 (A) (A) (A) (A) (A) (A) (A) (A) (A) (A) (A) (A)
                 (A) (A) (A) (A) (A) (A) (A) (A) (A) (A) (A) (A)
                 (A) (A) (A) (A) (A) (A) (A) (A) (A) (A) (A) (A)
                 (A) (A) (A) (A) (A) (A) (A) (A) (A) (A) (A) (A)
                 (A) (A) (A) (A) (A) (A) (A) (A) (A) (A) (A) (A)
                 (A) (A) (A) (A) (A) (A) (A) (A) (A) (A) (A) (A)
                 (A) (A) (A) (A) (A) (A) (A) (A) (A) (A) (A) (A)
                 (A) (A) (A) (A) (A) (A) (A) (A) (A) (A) (A) (A)
                 (A) (A) (A) (A) (A) (A) (A) (A) (A) (A) (A) (A)
                 (A) (A) (A) (A) (A) (A) (A) (A) (A) (A) (A) (A)
                 (A) (A) (A) (A) (A) (A) (A) (A) (A) (A) (A) (A)
                 (A) (A) (A) (A) (A) (A) (A) (A) (A) (A) (A) (A)
                 (A) (A) (A) (A) (A) (A) (A) (A) (A) (A) (A) (A)
                 (A) (A) (A) (A) (A) (A) (A) (A) (A) (A) (A) (A)
                 (A) (A) (A) (A) (A) (A) (A) (A) (A) (A) (A) (A)
                 (A) (A) (A) (A) (A) (A) (A) (A) (A) (A) (A) (A)
                 (A) (A) (A) (A) (A) (A) (A) (A) (A) (A) (A) (A)
                 (A) (A) (A) (A) (A) (A) (A) (A) (A) (A) (A) (A)
                 (A) (A) (A) (A) (A) (A) (A) (A) (A) (A) (A) (A)
                 (A) (A) (A) (A) (A) (A) (A) (A) (A) (A) (A) (A)
                 (A) (A) (A) (A) (A) (A) (A) (A) (A) (A) (A) (A)
                 (A) (A) (A) (A) (A) (A) (A) (A) (A) (A) (A) (A)
                 (A) (A) (A) (A) (A) (A) (A) (A) (A) (A) (A) (A)
                 (A) (A) (A) (A) (A) (A) (A) (A) (A) (A) (A) (A)
                 (A) (A) (A) (A) (A) (A) (A) (A) (A) (A) (A) (A)
                 (A) (A) (A) (A) (A) (A) (A) (A) (A) (A) (A) (A)
                 (A) (A) (A) (A) (A) (A) (A) (A) (A) (A) (A) (A)
                 (A) (A) (A) (A) (A) (A) (A) (A) (A) (A) (A) (A)
                 (A) (A) (A) (A) (A) (A) (A) (A) (A) (A) (A) (A)
                 (A) (A) (A) (A) (A) (A) (A) (A) (A) (A) (A) (A)
                 (A) (A) (A) (A) (A) (A) (A) (A) (A) (A) (A) (A)
                 (A) (A) (A) (A) (A) (A) (A) (A) (A) (A) (A) (A)
                 (A) (A) (A) (A) (A) (A) (A) (A) (A) (A) (A) (A)
                 (A) (A) (A) (A) (A) (A) (A) (A) (A) (A) (A) (A)
                 (A) (A) (A) (A) (A) (A) (A) (A) (A) (A) (A) (A)
                 (A) (A) (A) (A) (A) (A) (A) (A) (A) (A) (A) (A)
                 (A) (A) (A) (A) (A) (A) (A) (A) (A) (A) (A) (A)
                 (A) (A) (A) (A) (A) (A) (A) (A) (A) (A) (A) (A)
                 (A) (A) (A) (A) (A) (A) (A) (A) (A) (A) (A) (A)
                 (A) (A) (A) (A) (A) (A) (A) (A) (A) (A) (A) (A)
                 (A) (A) (A) (A) (A) (A) (A) (A) (A) (A) (A) (A)
                 (A) (A) (A) (A) (A) (A) (A) (A) (A) (A) (A) (A)
                 (A) (A) (A) (A) (A) (A) (A) (A) (A) (A)
 The electronic state is 1-A.
 Alpha  occ. eigenvalues --  -19.21130 -19.20387 -10.31148 -10.30959 -10.28096
 Alpha  occ. eigenvalues --  -10.28045 -10.28006 -10.27842 -10.27784 -10.27707
 Alpha  occ. eigenvalues --  -10.27548 -10.27504 -10.27483 -10.27273 -10.27213
 Alpha  occ. eigenvalues --  -10.27065 -10.27002 -10.26961 -10.26852 -10.26728
 Alpha  occ. eigenvalues --  -10.26605 -10.26552 -10.26471 -10.26411 -10.26340
 Alpha  occ. eigenvalues --  -10.26286 -10.26232 -10.25997 -10.25958 -10.25916
 Alpha  occ. eigenvalues --  -10.25850 -10.25802 -10.25695 -10.25572 -10.25478
 Alpha  occ. eigenvalues --  -10.25440 -10.25327 -10.25076 -10.24986 -10.24616
 Alpha  occ. eigenvalues --  -10.24555 -10.23699  -1.08893  -1.08561  -0.93963
 Alpha  occ. eigenvalues --   -0.93109  -0.92160  -0.91314  -0.90210  -0.89574
 Alpha  occ. eigenvalues --   -0.87957  -0.87064  -0.86550  -0.85290  -0.84679
 Alpha  occ. eigenvalues --   -0.82815  -0.81849  -0.80669  -0.79400  -0.78976
 Alpha  occ. eigenvalues --   -0.77043  -0.76931  -0.76491  -0.75638  -0.75518
 Alpha  occ. eigenvalues --   -0.75051  -0.74891  -0.74593  -0.73693  -0.70220
 Alpha  occ. eigenvalues --   -0.68253  -0.67031  -0.65126  -0.64491  -0.63762
 Alpha  occ. eigenvalues --   -0.62879  -0.61802  -0.61310  -0.60857  -0.59854
 Alpha  occ. eigenvalues --   -0.59380  -0.58014  -0.57704  -0.57096  -0.56232
 Alpha  occ. eigenvalues --   -0.55799  -0.55472  -0.55163  -0.54657  -0.54017
 Alpha  occ. eigenvalues --   -0.53173  -0.52676  -0.52411  -0.52121  -0.51700
 Alpha  occ. eigenvalues --   -0.51086  -0.50017  -0.49682  -0.49641  -0.49066
 Alpha  occ. eigenvalues --   -0.48404  -0.48290  -0.48126  -0.48006  -0.47670
 Alpha  occ. eigenvalues --   -0.47392  -0.47216  -0.46641  -0.46455  -0.46023
 Alpha  occ. eigenvalues --   -0.45735  -0.45163  -0.45044  -0.44846  -0.44561
 Alpha  occ. eigenvalues --   -0.44504  -0.44404  -0.43814  -0.43727  -0.43640
 Alpha  occ. eigenvalues --   -0.43258  -0.42794  -0.42709  -0.42438  -0.41851
 Alpha  occ. eigenvalues --   -0.41649  -0.41504  -0.40927  -0.40737  -0.40525
 Alpha  occ. eigenvalues --   -0.40431  -0.40068  -0.40066  -0.39420  -0.39043
 Alpha  occ. eigenvalues --   -0.38662  -0.38457  -0.38420  -0.38214  -0.37823
 Alpha  occ. eigenvalues --   -0.37576  -0.37201  -0.36900  -0.36131  -0.35679
 Alpha  occ. eigenvalues --   -0.35411  -0.34253  -0.33444  -0.32789  -0.31618
 Alpha  occ. eigenvalues --   -0.30809  -0.29515  -0.28400  -0.26837  -0.24402
 Alpha  occ. eigenvalues --   -0.19926
 Alpha virt. eigenvalues --   -0.04506   0.00384   0.03100   0.05668   0.07563
 Alpha virt. eigenvalues --    0.08709   0.10662   0.10737   0.11650   0.11869
 Alpha virt. eigenvalues --    0.12428   0.12549   0.12805   0.13119   0.13358
 Alpha virt. eigenvalues --    0.13741   0.14201   0.14524   0.14544   0.14966
 Alpha virt. eigenvalues --    0.15072   0.15194   0.15657   0.16189   0.16427
 Alpha virt. eigenvalues --    0.16492   0.16557   0.16792   0.16975   0.17607
 Alpha virt. eigenvalues --    0.17795   0.18398   0.18451   0.19117   0.19279
 Alpha virt. eigenvalues --    0.19395   0.19860   0.19959   0.20144   0.20634
 Alpha virt. eigenvalues --    0.20763   0.21093   0.21388   0.21526   0.21689
 Alpha virt. eigenvalues --    0.21824   0.22003   0.22723   0.22827   0.23058
 Alpha virt. eigenvalues --    0.23097   0.23461   0.23874   0.24120   0.24469
 Alpha virt. eigenvalues --    0.24727   0.25147   0.25873   0.26172   0.26258
 Alpha virt. eigenvalues --    0.26573   0.26644   0.26992   0.27213   0.27545
 Alpha virt. eigenvalues --    0.27754   0.27965   0.28325   0.28646   0.28723
 Alpha virt. eigenvalues --    0.29016   0.29221   0.29973   0.30426   0.30528
 Alpha virt. eigenvalues --    0.30595   0.31243   0.31494   0.31753   0.32065
 Alpha virt. eigenvalues --    0.32870   0.33099   0.33659   0.33869   0.34351
 Alpha virt. eigenvalues --    0.34550   0.34638   0.35408   0.36972   0.37508
 Alpha virt. eigenvalues --    0.38052   0.38988   0.40198   0.40699   0.41604
 Alpha virt. eigenvalues --    0.42449   0.43097   0.44097   0.45409   0.45853
 Alpha virt. eigenvalues --    0.46998   0.47195   0.48265   0.49164   0.49818
 Alpha virt. eigenvalues --    0.50006   0.50641   0.51833   0.53219   0.53629
 Alpha virt. eigenvalues --    0.54797   0.55771   0.55985   0.56389   0.56606
 Alpha virt. eigenvalues --    0.56984   0.57164   0.57691   0.58009   0.58262
 Alpha virt. eigenvalues --    0.58847   0.59039   0.59315   0.59624   0.60246
 Alpha virt. eigenvalues --    0.60537   0.60850   0.61049   0.61319   0.61774
 Alpha virt. eigenvalues --    0.61896   0.62203   0.62335   0.63210   0.63523
 Alpha virt. eigenvalues --    0.63983   0.64568   0.64641   0.64776   0.65378
 Alpha virt. eigenvalues --    0.65513   0.65675   0.65982   0.66169   0.66365
 Alpha virt. eigenvalues --    0.67031   0.67256   0.67746   0.68045   0.68361
 Alpha virt. eigenvalues --    0.68507   0.69266   0.69541   0.69685   0.69984
 Alpha virt. eigenvalues --    0.70339   0.70462   0.70581   0.71565   0.71684
 Alpha virt. eigenvalues --    0.71941   0.72105   0.72187   0.72944   0.73216
 Alpha virt. eigenvalues --    0.73578   0.73673   0.73930   0.74300   0.75009
 Alpha virt. eigenvalues --    0.75496   0.75919   0.76017   0.76739   0.76983
 Alpha virt. eigenvalues --    0.77306   0.77651   0.78237   0.78521   0.78698
 Alpha virt. eigenvalues --    0.79319   0.79682   0.80003   0.80955   0.81087
 Alpha virt. eigenvalues --    0.81636   0.81898   0.82119   0.82445   0.82605
 Alpha virt. eigenvalues --    0.83238   0.83508   0.83859   0.84638   0.84766
 Alpha virt. eigenvalues --    0.84802   0.85137   0.85273   0.85388   0.85528
 Alpha virt. eigenvalues --    0.85771   0.85949   0.86399   0.86631   0.86939
 Alpha virt. eigenvalues --    0.87133   0.87546   0.87563   0.87690   0.88523
 Alpha virt. eigenvalues --    0.88657   0.89231   0.89263   0.89754   0.89856
 Alpha virt. eigenvalues --    0.90057   0.90101   0.90909   0.91469   0.91736
 Alpha virt. eigenvalues --    0.91820   0.91965   0.92527   0.92877   0.93049
 Alpha virt. eigenvalues --    0.93428   0.94077   0.94238   0.94356   0.94442
 Alpha virt. eigenvalues --    0.95049   0.95219   0.95386   0.95559   0.95710
 Alpha virt. eigenvalues --    0.95864   0.96223   0.96733   0.96813   0.97596
 Alpha virt. eigenvalues --    0.98009   0.98221   0.98242   0.98716   0.99683
 Alpha virt. eigenvalues --    0.99766   0.99767   0.99921   1.00103   1.00844
 Alpha virt. eigenvalues --    1.01120   1.01589   1.01815   1.01949   1.02383
 Alpha virt. eigenvalues --    1.03035   1.03688   1.03837   1.04211   1.04601
 Alpha virt. eigenvalues --    1.04896   1.05070   1.05375   1.06091   1.06199
 Alpha virt. eigenvalues --    1.06754   1.07724   1.08334   1.08687   1.08918
 Alpha virt. eigenvalues --    1.10035   1.10810   1.11494   1.11999   1.12077
 Alpha virt. eigenvalues --    1.12129   1.12605   1.13098   1.13801   1.14187
 Alpha virt. eigenvalues --    1.15093   1.15422   1.16766   1.16834   1.17382
 Alpha virt. eigenvalues --    1.18522   1.18953   1.20047   1.20970   1.21286
 Alpha virt. eigenvalues --    1.21426   1.21716   1.22485   1.23115   1.24755
 Alpha virt. eigenvalues --    1.26026   1.26612   1.27765   1.28141   1.28837
 Alpha virt. eigenvalues --    1.29539   1.29820   1.30507   1.30988   1.31674
 Alpha virt. eigenvalues --    1.32034   1.33304   1.33780   1.34666   1.35725
 Alpha virt. eigenvalues --    1.36752   1.38052   1.38466   1.38710   1.39987
 Alpha virt. eigenvalues --    1.40431   1.40936   1.41179   1.41581   1.41861
 Alpha virt. eigenvalues --    1.42328   1.42879   1.43274   1.43858   1.44477
 Alpha virt. eigenvalues --    1.44789   1.45360   1.45715   1.46617   1.47572
 Alpha virt. eigenvalues --    1.49470   1.50121   1.51174   1.52888   1.53051
 Alpha virt. eigenvalues --    1.54406   1.54667   1.55038   1.55352   1.56245
 Alpha virt. eigenvalues --    1.56924   1.57159   1.57678   1.58067   1.58542
 Alpha virt. eigenvalues --    1.58830   1.60141   1.61654   1.62022   1.63146
 Alpha virt. eigenvalues --    1.64430   1.64614   1.65205   1.65693   1.66558
 Alpha virt. eigenvalues --    1.67133   1.68672   1.68792   1.69518   1.71151
 Alpha virt. eigenvalues --    1.72129   1.73057   1.73598   1.74367   1.74686
 Alpha virt. eigenvalues --    1.75164   1.75809   1.76098   1.76847   1.76973
 Alpha virt. eigenvalues --    1.77908   1.79183   1.79462   1.79811   1.80342
 Alpha virt. eigenvalues --    1.81040   1.81544   1.82033   1.82913   1.83676
 Alpha virt. eigenvalues --    1.84388   1.85141   1.85760   1.85859   1.86100
 Alpha virt. eigenvalues --    1.86372   1.86578   1.87340   1.88081   1.88321
 Alpha virt. eigenvalues --    1.89006   1.89198   1.89437   1.89611   1.90080
 Alpha virt. eigenvalues --    1.90471   1.91020   1.91647   1.92029   1.92243
 Alpha virt. eigenvalues --    1.92374   1.93170   1.93285   1.93419   1.94031
 Alpha virt. eigenvalues --    1.94271   1.94879   1.95144   1.95329   1.95742
 Alpha virt. eigenvalues --    1.96092   1.96684   1.97229   1.97404   1.98110
 Alpha virt. eigenvalues --    1.98446   1.98761   1.99318   1.99909   2.00743
 Alpha virt. eigenvalues --    2.00753   2.01172   2.01675   2.01878   2.02392
 Alpha virt. eigenvalues --    2.02889   2.03005   2.03224   2.04213   2.04710
 Alpha virt. eigenvalues --    2.05128   2.05987   2.06237   2.06539   2.06936
 Alpha virt. eigenvalues --    2.07650   2.07836   2.07999   2.08126   2.08491
 Alpha virt. eigenvalues --    2.08965   2.09582   2.09984   2.10765   2.10798
 Alpha virt. eigenvalues --    2.11334   2.12085   2.12611   2.13110   2.13266
 Alpha virt. eigenvalues --    2.13398   2.14037   2.14357   2.14752   2.14994
 Alpha virt. eigenvalues --    2.15342   2.15766   2.16471   2.16641   2.17260
 Alpha virt. eigenvalues --    2.17341   2.17523   2.17924   2.18173   2.19316
 Alpha virt. eigenvalues --    2.20312   2.20852   2.21305   2.21560   2.21897
 Alpha virt. eigenvalues --    2.22576   2.22659   2.22848   2.23256   2.23969
 Alpha virt. eigenvalues --    2.24056   2.24161   2.24771   2.25402   2.26049
 Alpha virt. eigenvalues --    2.26410   2.27705   2.28233   2.28410   2.28481
 Alpha virt. eigenvalues --    2.28820   2.30162   2.30299   2.30512   2.31273
 Alpha virt. eigenvalues --    2.31422   2.31826   2.32024   2.33399   2.33869
 Alpha virt. eigenvalues --    2.34006   2.34863   2.34881   2.35835   2.36329
 Alpha virt. eigenvalues --    2.36731   2.37657   2.37870   2.38036   2.38493
 Alpha virt. eigenvalues --    2.38808   2.39497   2.39692   2.40052   2.40387
 Alpha virt. eigenvalues --    2.40725   2.41578   2.41602   2.42094   2.42278
 Alpha virt. eigenvalues --    2.42734   2.43613   2.44629   2.44860   2.44905
 Alpha virt. eigenvalues --    2.45835   2.45952   2.46525   2.46835   2.47104
 Alpha virt. eigenvalues --    2.47908   2.48317   2.48719   2.49372   2.49606
 Alpha virt. eigenvalues --    2.49940   2.50552   2.51142   2.51737   2.52075
 Alpha virt. eigenvalues --    2.53166   2.53241   2.53415   2.54224   2.54641
 Alpha virt. eigenvalues --    2.55230   2.56099   2.56467   2.56593   2.57607
 Alpha virt. eigenvalues --    2.58584   2.58867   2.59289   2.59728   2.59929
 Alpha virt. eigenvalues --    2.60670   2.61010   2.61318   2.61867   2.62331
 Alpha virt. eigenvalues --    2.62474   2.63181   2.63960   2.64428   2.64652
 Alpha virt. eigenvalues --    2.64850   2.65116   2.65583   2.66523   2.66828
 Alpha virt. eigenvalues --    2.67136   2.68058   2.68255   2.68815   2.69921
 Alpha virt. eigenvalues --    2.70142   2.70503   2.70753   2.71437   2.71909
 Alpha virt. eigenvalues --    2.72008   2.72507   2.72586   2.73939   2.74012
 Alpha virt. eigenvalues --    2.74812   2.75468   2.75676   2.75986   2.76135
 Alpha virt. eigenvalues --    2.76301   2.76612   2.76954   2.77640   2.77845
 Alpha virt. eigenvalues --    2.78684   2.78923   2.79059   2.80204   2.80246
 Alpha virt. eigenvalues --    2.80836   2.81352   2.81550   2.82251   2.82646
 Alpha virt. eigenvalues --    2.83080   2.83176   2.83952   2.84365   2.84677
 Alpha virt. eigenvalues --    2.85146   2.85190   2.85432   2.85958   2.87382
 Alpha virt. eigenvalues --    2.87868   2.88134   2.88519   2.88567   2.89193
 Alpha virt. eigenvalues --    2.89431   2.90111   2.90860   2.91121   2.92112
 Alpha virt. eigenvalues --    2.92446   2.92804   2.94014   2.94140   2.95570
 Alpha virt. eigenvalues --    2.95611   2.96195   2.96712   2.97180   2.98212
 Alpha virt. eigenvalues --    2.98366   2.98503   2.98902   2.99408   3.01472
 Alpha virt. eigenvalues --    3.01953   3.02473   3.02960   3.03700   3.04823
 Alpha virt. eigenvalues --    3.05042   3.07261   3.07827   3.09427   3.09697
 Alpha virt. eigenvalues --    3.10668   3.11268   3.11519   3.13432   3.14864
 Alpha virt. eigenvalues --    3.15037   3.16043   3.16714   3.17825   3.18924
 Alpha virt. eigenvalues --    3.20566   3.21231   3.21626   3.21694   3.22243
 Alpha virt. eigenvalues --    3.22527   3.22928   3.23431   3.24237   3.25944
 Alpha virt. eigenvalues --    3.27120   3.27989   3.28937   3.29348   3.32761
 Alpha virt. eigenvalues --    3.35165   3.37361   3.38359   3.38576   3.40272
 Alpha virt. eigenvalues --    3.41101   3.41636   3.42729   3.42867   3.44387
 Alpha virt. eigenvalues --    3.44718   3.45569   3.46715   3.46878   3.47300
 Alpha virt. eigenvalues --    3.48935   3.49147   3.50454   3.50743   3.50897
 Alpha virt. eigenvalues --    3.51216   3.52065   3.54182   3.54263   3.54395
 Alpha virt. eigenvalues --    3.56093   3.56605   3.57416   3.58557   3.59256
 Alpha virt. eigenvalues --    3.61177   3.61871   3.62703   3.62746   3.68793
 Alpha virt. eigenvalues --    3.71207   3.74366   3.76171   3.79750   3.96434
 Alpha virt. eigenvalues --    4.02795   4.10193   4.12485   4.18773   4.19698
 Alpha virt. eigenvalues --    4.20690   4.21733   4.23673   4.26250   4.27251
 Alpha virt. eigenvalues --    4.27447   4.28037   4.32018   4.36431   4.38571
 Alpha virt. eigenvalues --    4.40187   4.42243   4.44059   4.44693   4.46131
 Alpha virt. eigenvalues --    4.47300   4.48505   4.51379   4.53441   4.54527
 Alpha virt. eigenvalues --    4.55016   4.57103   4.58344   4.61196   4.61456
 Alpha virt. eigenvalues --    4.63168   4.65169   4.66629   4.67710   4.70653
 Alpha virt. eigenvalues --    4.71648   4.74857   4.77896   4.80613   4.81765
 Alpha virt. eigenvalues --    4.83733   4.85128   4.88221   4.88795
          Condensed to atoms (all electrons):
 Mulliken charges:
               1
     1  O   -0.558597
     2  O   -0.567766
     3  C    0.003249
     4  C    0.002240
     5  C   -0.187004
     6  C   -0.193317
     7  C    0.158748
     8  C    0.165314
     9  C    0.043927
    10  C    0.051182
    11  C   -0.210326
    12  C   -0.209785
    13  C    0.018378
    14  C    0.063533
    15  C   -0.311894
    16  C   -0.288096
    17  C   -0.292993
    18  C   -0.298431
    19  C   -0.114702
    20  C   -0.148547
    21  C   -0.295281
    22  C   -0.374124
    23  C   -0.106560
    24  C   -0.071097
    25  C    0.053530
    26  C    0.103426
    27  C   -0.343461
    28  C   -0.381619
    29  C   -0.067028
    30  C   -0.137684
    31  C   -0.111015
    32  C   -0.097398
    33  C   -0.122778
    34  C   -0.107160
    35  C    0.094975
    36  C    0.142106
    37  C   -0.347280
    38  C   -0.383409
    39  C   -0.114348
    40  C   -0.154553
    41  C   -0.080939
    42  C   -0.104383
    43  H    0.085618
    44  H    0.070505
    45  H    0.071818
    46  H    0.093697
    47  H    0.086615
    48  H    0.054476
    49  H    0.108316
    50  H    0.109100
    51  H    0.113877
    52  H    0.134328
    53  H    0.090326
    54  H    0.101751
    55  H    0.118530
    56  H    0.098663
    57  H    0.106430
    58  H    0.085523
    59  H    0.098399
    60  H    0.106574
    61  H    0.086021
    62  H    0.098358
    63  H    0.082566
    64  H    0.105292
    65  H    0.086785
    66  H    0.090854
    67  H    0.105089
    68  H    0.109371
    69  H    0.105646
    70  H    0.105447
    71  H    0.101994
    72  H    0.104380
    73  H    0.295613
    74  H    0.304675
    75  H    0.082295
    76  H    0.086845
    77  H    0.114587
    78  H    0.119485
    79  H    0.093333
    80  H    0.121062
    81  H    0.125956
    82  H    0.107263
    83  H    0.057288
    84  H    0.083364
    85  H    0.086512
    86  H    0.073727
    87  H    0.082470
    88  H    0.082826
    89  H    0.101132
    90  H    0.112172
    91  H    0.125768
    92  H    0.118308
    93  H    0.141708
    94  H    0.094816
    95  H    0.074376
    96  H    0.093692
    97  H    0.087325
    98  H    0.098021
 Sum of Mulliken charges =  -0.00000
 Mulliken charges with hydrogens summed into heavy atoms:
               1
     1  O   -0.262983
     2  O   -0.263091
     3  C    0.003249
     4  C    0.002240
     5  C   -0.030881
     6  C   -0.027801
     7  C    0.245363
     8  C    0.219790
     9  C    0.043927
    10  C    0.051182
    11  C    0.007090
    12  C    0.038420
    13  C    0.018378
    14  C    0.063533
    15  C   -0.001287
    16  C    0.002520
    17  C   -0.002000
    18  C   -0.012216
    19  C   -0.027916
    20  C   -0.057692
    21  C    0.024825
    22  C   -0.062304
    23  C   -0.024265
    24  C    0.015747
    25  C    0.053530
    26  C    0.103426
    27  C   -0.016056
    28  C   -0.027338
    29  C   -0.009739
    30  C   -0.054320
    31  C   -0.024503
    32  C   -0.023671
    33  C   -0.040308
    34  C   -0.024334
    35  C    0.094975
    36  C    0.142106
    37  C   -0.008209
    38  C   -0.028577
    39  C   -0.039972
    40  C   -0.060862
    41  C    0.006386
    42  C   -0.006363
 Electronic spatial extent (au):  <R**2>=         110622.5869
 Charge=             -0.0000 electrons
 Dipole moment (field-independent basis, Debye):
    X=              0.3131    Y=             -2.3031    Z=              1.6232  Tot=              2.8350
 Quadrupole moment (field-independent basis, Debye-Ang):
   XX=           -280.0858   YY=           -245.6443   ZZ=           -261.9907
   XY=             13.5135   XZ=              3.5895   YZ=              2.4414
 Traceless Quadrupole moment (field-independent basis, Debye-Ang):
   XX=            -17.5122   YY=             16.9293   ZZ=              0.5829
   XY=             13.5135   XZ=              3.5895   YZ=              2.4414
 Octapole moment (field-independent basis, Debye-Ang**2):
  XXX=           -340.3526  YYY=            -27.5974  ZZZ=              0.6885  XYY=            101.2870
  XXY=           -391.1250  XXZ=            348.8194  XZZ=             30.3672  YZZ=             -2.7932
  YYZ=              1.1313  XYZ=            -46.6591
 Hexadecapole moment (field-independent basis, Debye-Ang**3):
 XXXX=        -153034.2034 YYYY=          -4450.1714 ZZZZ=          -1978.8401 XXXY=           2684.2967
 XXXZ=            -33.4824 YYYX=           -181.3572 YYYZ=             18.2860 ZZZX=            -94.1143
 ZZZY=             20.6642 XXYY=         -24555.2488 XXZZ=         -23976.5562 YYZZ=          -1093.9989
 XXYZ=           -550.3151 YYXZ=            109.9688 ZZXY=           -142.7678
 N-N= 3.966846268310D+03 E-N=-1.188797910074D+04  KE= 1.689503799403D+03
 1\1\GINC-PADAWAN\SP\RCAM-B3LYP TD-FC\6-31G(d,p)\C40H56O2\PADAWAN\28-Ju
 n-2019\0\\# td=(NStates=1) CAM-B3LYP/6-31G(d,p)\\TD\\0,1\O,0,14.724970
 7161,-2.1636638375,-0.5567745305\O,0,-14.7940660036,2.0444963056,0.478
 5069447\C,0,11.4278360776,-1.0782284569,1.2136147225\C,0,-12.334881120
 1,-0.8950120612,0.7856840904\C,0,12.910089741,-1.3913521733,0.95476304
 83\C,0,-13.6848610951,-0.2039565557,0.6472636224\C,0,13.2708090749,-1.
 93142867,-0.4143063196\C,0,-13.579330273,1.3124440424,0.5319049745\C,0
 ,10.9396324892,-0.2834325594,-0.0081250585\C,0,-11.2006271637,-0.26730
 77598,-0.2015809121\C,0,12.9099552145,-0.9176025174,-1.5478756606\C,0,
 -12.7735681168,1.7865666337,-0.6930263446\C,0,11.5375284998,-0.2838287
 56,-1.2495534713\C,0,-11.5356271527,0.8630926323,-0.8572352625\C,0,11.
 2104617732,-0.3077299311,2.5513855796\C,0,10.7680762486,-2.4168521663,
 1.2904671667\C,0,-11.8705792519,-0.8148933173,2.2387124512\C,0,-12.596
 820384,-2.3763930823,0.4179136954\C,0,9.656730499,0.3653575727,0.22307
 89879\C,0,-10.0354249095,-0.9979338784,-0.4417428553\C,0,11.2237851435
 ,0.5033147964,-2.5074149485\C,0,-10.5431467537,1.4731076948,-1.8300423
 112\C,0,9.3652464916,1.6375371916,0.0315977858\C,0,-8.7784083258,-0.51
 73652935,-0.2028413301\C,0,8.0252285089,2.2625559955,0.0817338424\C,0,
 -7.5285579978,-1.3153858717,-0.4736726993\C,0,8.0136118422,3.720090213
 9,0.5095223182\C,0,-7.5746085669,-2.795629311,-0.8184220172\C,0,6.8469
 301,1.5726072546,-0.1271327193\C,0,-6.38567037,-0.637899265,-0.2169146
 975\C,0,5.5331738694,2.0753952464,0.0868436004\C,0,-4.9371648385,-1.16
 55864347,-0.3709292669\C,0,4.3963935704,1.1978852024,0.0746418352\C,0,
 -3.9265880788,-0.3946756737,-0.0850358336\C,0,3.0506176668,1.649235521
 5,0.1573574007\C,0,-2.564980262,-0.84639897,-0.2655542154\C,0,2.736003
 8814,3.0985092998,0.6069934083\C,0,-2.3197474687,-2.2504523473,-0.6984
 108811\C,0,2.0157211471,0.7254097049,0.0019410691\C,0,-1.6509364166,0.
 1331030162,0.020520225\C,0,0.6956867377,0.9105958275,0.0298388639\C,0,
 -0.1846473337,-0.1617582809,-0.1360912491\H,0,13.5250517772,-0.3608895
 241,0.952130051\H,0,13.3548207181,-1.986879269,1.8524453765\H,0,-14.32
 01747945,-0.6406642234,1.624149621\H,0,-14.2045418212,-0.3708840114,-0
 .386040224\H,0,12.7270079028,-2.842178961,-0.6989179568\H,0,-13.099095
 3705,1.852079726,1.4943489079\H,0,13.5133022622,0.1174090208,-1.584284
 3124\H,0,13.1249239854,-1.4331255397,-2.5756282388\H,0,-13.5498305271,
 1.5710784288,-1.4947374067\H,0,-12.6383724442,2.8125633203,-0.57222410
 54\H,0,11.7278714071,-0.7591066368,3.4713417952\H,0,10.1086667317,-0.3
 95169027,2.7539742784\H,0,11.5539746675,0.714091142,2.7563047655\H,0,1
 1.013810384,-3.185389119,0.4123666227\H,0,10.7816090779,-2.8712920463,
 2.3272926533\H,0,9.6673927403,-2.077178711,1.1292978728\H,0,-11.995036
 4036,0.3212276938,2.4767615692\H,0,-10.7482593349,-1.0662537804,2.2021
 262166\H,0,-12.3654777068,-1.5851694219,3.0205646525\H,0,-13.254745255
 5,-2.6992311751,1.1924037494\H,0,-11.7246155096,-3.2124032683,0.427057
 7618\H,0,-13.2018105391,-2.4492152295,-0.4778762616\H,0,8.8011819422,-
 0.2200503251,0.7258367677\H,0,-10.1408938214,-2.1027740014,-0.89470910
 39\H,0,10.1542278418,0.9573658345,-2.4063253355\H,0,11.8618246175,1.02
 72470156,-2.6270224162\H,0,11.1713213671,-0.2186023473,-3.3554826783\H
 ,0,-11.0990809151,1.668070036,-2.7577872717\H,0,-9.5317587149,0.912441
 8812,-1.9421088169\H,0,-9.983600115,2.4331319262,-1.6865022462\H,0,14.
 9559721502,-2.80534944,0.0525671497\H,0,-15.4212015552,1.5577106851,1.
 0930175068\H,0,10.2525307351,2.2075940633,-0.4262319382\H,0,-8.6552022
 172,0.4598580838,-0.0697917922\H,0,8.6559084528,4.3418440373,-0.162042
 5073\H,0,7.1081442034,4.158361245,0.7019460276\H,0,8.4730820182,3.6476
 376507,1.6445074687\H,0,-8.3385208821,-3.4787248016,-0.344360275\H,0,-
 7.7315089069,-2.9085798721,-1.9088772177\H,0,-6.5840272517,-3.32181583
 37,-0.631729965\H,0,6.982789942,0.6527590188,-0.2830016922\H,0,-6.2491
 951815,0.3461244523,0.2110387269\H,0,5.1764670307,3.1501501629,0.58759
 10141\H,0,-4.8371275328,-2.2173130384,-0.528430243\H,0,4.5327063696,0.
 1147297189,-0.1447628873\H,0,-4.0572212261,0.6870138183,0.0981226083\H
 ,0,2.8967674617,3.0990339453,1.8093771387\H,0,1.6833549885,3.356444315
 3,0.6951719252\H,0,3.2505290749,3.6817460085,0.1193714411\H,0,-2.73794
 59316,-3.2128684339,-0.2328563296\H,0,-2.7226717752,-2.4666077809,-1.5
 773917062\H,0,-1.1980065997,-2.4081409892,-0.7948425203\H,0,2.46755391
 34,-0.2912677779,-0.1552934333\H,0,-2.1804574467,1.0054204599,0.620705
 4575\H,0,0.138459593,1.9015528612,0.4222180168\H,0,0.069959766,-1.2248
 024303,-0.3958371677\\Version=ES64L-G16RevA.03\State=1-A\HF=-1706.8878
 755\RMSD=8.742e-09\PG=C01 [X(C40H56O2)]\\@


 THERE IS SOMETHING FASCINATING ABOUT SCIENCE.
 ONE GETS SUCH WHOLESALE CONJECTURE OUT OF SUCH TRIFLING INVESTMENTS.

                                                       -- MARK TWAIN
 Job cpu time:       0 days  5 hours 42 minutes 47.7 seconds.
 Elapsed time:       0 days  1 hours 26 minutes  5.7 seconds.
 File lengths (MBytes):  RWF=   3127 Int=      0 D2E=      0 Chk=     84 Scr=      1
 Normal termination of Gaussian 16 at Fri Jun 28 00:30:43 2019.
