 Entering Gaussian System, Link 0=g16
 Input=Geometria-286-.com
 Output=Geometria-286-.log
 Initial command:
 /usr/local/g16/l1.exe "/home/padawan/israel-mol/zeaxanthin/spectra/abs/Gau-23562.inp" -scrdir="/home/padawan/israel-mol/zeaxanthin/spectra/abs/"
 Entering Link 1 = /usr/local/g16/l1.exe PID=     23564.
  
 Copyright (c) 1988,1990,1992,1993,1995,1998,2003,2009,2016,
            Gaussian, Inc.  All Rights Reserved.
  
 This is part of the Gaussian(R) 16 program.  It is based on
 the Gaussian(R) 09 system (copyright 2009, Gaussian, Inc.),
 the Gaussian(R) 03 system (copyright 2003, Gaussian, Inc.),
 the Gaussian(R) 98 system (copyright 1998, Gaussian, Inc.),
 the Gaussian(R) 94 system (copyright 1995, Gaussian, Inc.),
 the Gaussian 92(TM) system (copyright 1992, Gaussian, Inc.),
 the Gaussian 90(TM) system (copyright 1990, Gaussian, Inc.),
 the Gaussian 88(TM) system (copyright 1988, Gaussian, Inc.),
 the Gaussian 86(TM) system (copyright 1986, Carnegie Mellon
 University), and the Gaussian 82(TM) system (copyright 1983,
 Carnegie Mellon University). Gaussian is a federally registered
 trademark of Gaussian, Inc.
  
 This software contains proprietary and confidential information,
 including trade secrets, belonging to Gaussian, Inc.
  
 This software is provided under written license and may be
 used, copied, transmitted, or stored only in accord with that
 written license.
  
 The following legend is applicable only to US Government
 contracts under FAR:
  
                    RESTRICTED RIGHTS LEGEND
  
 Use, reproduction and disclosure by the US Government is
 subject to restrictions as set forth in subparagraphs (a)
 and (c) of the Commercial Computer Software - Restricted
 Rights clause in FAR 52.227-19.
  
 Gaussian, Inc.
 340 Quinnipiac St., Bldg. 40, Wallingford CT 06492
  
  
 ---------------------------------------------------------------
 Warning -- This program may not be used in any manner that
 competes with the business of Gaussian, Inc. or will provide
 assistance to any competitor of Gaussian, Inc.  The licensee
 of this program is prohibited from giving any competitor of
 Gaussian, Inc. access to this program.  By using this program,
 the user acknowledges that Gaussian, Inc. is engaged in the
 business of creating and licensing software in the field of
 computational chemistry and represents and warrants to the
 licensee that it is not a competitor of Gaussian, Inc. and that
 it will not use this program in any manner prohibited above.
 ---------------------------------------------------------------
  

 Cite this work as:
 Gaussian 16, Revision A.03,
 M. J. Frisch, G. W. Trucks, H. B. Schlegel, G. E. Scuseria, 
 M. A. Robb, J. R. Cheeseman, G. Scalmani, V. Barone, 
 G. A. Petersson, H. Nakatsuji, X. Li, M. Caricato, A. V. Marenich, 
 J. Bloino, B. G. Janesko, R. Gomperts, B. Mennucci, H. P. Hratchian, 
 J. V. Ortiz, A. F. Izmaylov, J. L. Sonnenberg, D. Williams-Young, 
 F. Ding, F. Lipparini, F. Egidi, J. Goings, B. Peng, A. Petrone, 
 T. Henderson, D. Ranasinghe, V. G. Zakrzewski, J. Gao, N. Rega, 
 G. Zheng, W. Liang, M. Hada, M. Ehara, K. Toyota, R. Fukuda, 
 J. Hasegawa, M. Ishida, T. Nakajima, Y. Honda, O. Kitao, H. Nakai, 
 T. Vreven, K. Throssell, J. A. Montgomery, Jr., J. E. Peralta, 
 F. Ogliaro, M. J. Bearpark, J. J. Heyd, E. N. Brothers, K. N. Kudin, 
 V. N. Staroverov, T. A. Keith, R. Kobayashi, J. Normand, 
 K. Raghavachari, A. P. Rendell, J. C. Burant, S. S. Iyengar, 
 J. Tomasi, M. Cossi, J. M. Millam, M. Klene, C. Adamo, R. Cammi, 
 J. W. Ochterski, R. L. Martin, K. Morokuma, O. Farkas, 
 J. B. Foresman, and D. J. Fox, Gaussian, Inc., Wallingford CT, 2016.
 
 ******************************************
 Gaussian 16:  ES64L-G16RevA.03 25-Dec-2016
                 5-Jul-2019 
 ******************************************
 %nproc=4
 Will use up to    4 processors via shared memory.
 %Mem=2GB
 -------------------------------------
 # td=(NStates=1) CAM-B3LYP/6-31G(d,p)
 -------------------------------------
 1/38=1,172=1/1;
 2/12=2,17=6,18=5,40=1/2;
 3/5=1,6=6,7=101,11=9,25=1,30=1,74=-40/1,2,3,8;
 4//1;
 5/5=2,38=5/2;
 8/6=1,10=2,108=1/1;
 9/41=1,42=1,70=2/14;
 6/7=2,8=2,9=2,10=2/1;
 99/5=1,9=1/99;
 --
 TD
 --
 Symbolic Z-matrix:
 Charge =  0 Multiplicity = 1
 8                     14.68667  -2.16979  -0.59697 
 8                    -14.87798   1.99386   0.67875 
 6                     11.48687  -1.1009    1.25966 
 6                    -12.33028  -0.83909   0.90539 
 6                     13.04405  -1.38132   1.04018 
 6                    -13.64157  -0.11794   0.90669 
 6                     13.43502  -1.92567  -0.34484 
 6                    -13.56885   1.44849   0.64922 
 6                     10.97555  -0.34234   0.00287 
 6                    -11.34946  -0.25055  -0.16827 
 6                     12.98321  -0.84687  -1.37699 
 6                    -12.79925   1.68385  -0.66007 
 6                     11.64553  -0.17211  -1.13564 
 6                    -11.63824   0.81056  -0.89802 
 6                     11.32894  -0.26654   2.4725 
 6                     10.74313  -2.46073   1.38842 
 6                    -11.67302  -0.79105   2.30191 
 6                    -12.56241  -2.35863   0.69369 
 6                     9.69902   0.31961   0.18805 
 6                    -10.09667  -1.1233   -0.37067 
 6                     11.27868   0.64053  -2.34569 
 6                    -10.78129   1.30648  -2.06025 
 6                     9.3398    1.63687  -0.01386 
 6                    -8.84729  -0.57663  -0.25949 
 6                     8.00363   2.18906   0.23424 
 6                    -7.60022  -1.2734   -0.4607 
 6                     7.98707   3.62866   0.68719 
 6                    -7.6512   -2.78631  -0.84471 
 6                     6.85018   1.46639   0.11498 
 6                    -6.51951  -0.61437  -0.25279 
 6                     5.54339   1.90725   0.37054 
 6                    -5.1397   -1.09193  -0.50065 
 6                     4.46953   1.18008   0.00793 
 6                    -4.02363  -0.30405  -0.35533 
 6                     3.07253   1.57281   0.03109 
 6                    -2.60924  -0.77485  -0.52037 
 6                     2.82397   3.03562   0.5062 
 6                    -2.32659  -2.21467  -0.8681 
 6                     2.05673   0.79936  -0.17682 
 6                    -1.58733   0.21522  -0.41213 
 6                     0.65713   0.87028  -0.20691 
 6                    -0.22748  -0.15278  -0.45714 
 1                     13.4767  -0.18411   1.20319 
 1                     13.32625  -2.03305   1.94309 
 1                    -14.35868  -0.29527   1.73403 
 1                    -14.20637  -0.49257  -0.05427 
 1                     12.98318  -2.88465  -0.59488 
 1                    -12.97142   1.68313   1.46035 
 1                     13.85333  -0.03209  -1.25735 
 1                     13.29235  -1.13135  -2.43035 
 1                    -13.28533   1.53969  -1.53836 
 1                    -12.54198   2.75299  -1.05344 
 1                     11.71183  -0.80221   3.33585 
 1                     10.36597  -0.10031   2.71612 
 1                     11.88346   0.57142   2.40525 
 1                     10.98755  -3.00927   0.47199 
 1                     11.33176  -3.00303   2.27928 
 1                     9.69872  -2.32144   1.58509 
 1                    -11.51317   0.30251   2.53028 
 1                    -10.63012  -1.39397   2.50936 
 1                    -12.13355  -1.30489   3.02114 
 1                    -13.29992  -2.7683    1.43658 
 1                    -11.74994  -2.94931   1.04611 
 1                    -12.85228  -2.54636  -0.31141 
 1                     8.83786  -0.22741   0.56445 
 1                    -10.20579  -2.09372  -0.83149 
 1                     10.3877   1.09239  -2.33554 
 1                     11.92579   1.62934  -2.40912 
 1                     11.32121   0.1368   -3.29667 
 1                    -11.32764   1.41781  -3.04702 
 1                    -9.86547   0.64143  -1.97898 
 1                    -10.53284   2.45294  -1.94942 
 1                     15.12376  -2.68933   0.14808 
 1                    -15.07079   1.72503   1.49701 
 1                     10.15337   2.31787  -0.41709 
 1                    -8.96047   0.44529  -0.04651 
 1                     8.73093   4.30289   0.09275 
 1                     7.04865   4.14171   0.66945 
 1                     8.62179   3.55215   1.62008 
 1                    -8.22404  -3.29249   0.06538 
 1                    -8.15376  -2.7369   -1.86454 
 1                    -6.55491  -3.05574  -0.85451 
 1                     6.86957   0.42883  -0.24078 
 1                    -6.63416   0.44023   0.00323 
 1                     5.36697   3.03778   0.7547 
 1                    -4.98716  -2.08685  -0.64421 
 1                     4.53522   0.23367  -0.59148 
 1                    -4.0819    0.71265  -0.14777 
 1                     3.03961   3.27622   1.5589 
 1                     1.85584   3.24517   0.44922 
 1                     3.13416   3.72822  -0.22071 
 1                    -2.65179  -2.9187    0.03615 
 1                    -3.02451  -2.45899  -1.83493 
 1                    -1.3123   -2.31139  -1.26897 
 1                     2.57074  -0.13694  -0.34844 
 1                    -2.00148   1.27238  -0.30517 
 1                     0.42634   2.00483  -0.14645 
 1                     0.01262  -1.04302  -0.52307 
 
 Stoichiometry    C40H56O2
 Framework group  C1[X(C40H56O2)]
 Deg. of freedom   288
 Full point group                 C1      NOp   1
 Largest Abelian subgroup         C1      NOp   1
 Largest concise Abelian subgroup C1      NOp   1
                         Standard orientation:                         
 ---------------------------------------------------------------------
 Center     Atomic      Atomic             Coordinates (Angstroms)
 Number     Number       Type             X           Y           Z
 ---------------------------------------------------------------------
      1          8           0       14.685048   -2.156990   -0.621655
      2          8           0      -14.882073    1.973441    0.703869
      3          6           0       11.485192   -1.107803    1.246074
      4          6           0      -12.332272   -0.859684    0.903046
      5          6           0       13.042489   -1.385045    1.023408
      6          6           0      -13.644070   -0.139516    0.911582
      7          6           0       13.433318   -1.916127   -0.366791
      8          6           0      -13.572561    1.429302    0.668754
      9          6           0       10.972855   -0.337877   -0.003376
     10          6           0      -11.352275   -0.260422   -0.165414
     11          6           0       12.980362   -0.828035   -1.388632
     12          6           0      -12.803622    1.677453   -0.638560
     13          6           0       11.642290   -0.156520   -1.140488
     14          6           0      -11.642078    0.807258   -0.885096
     15          6           0       11.327126   -0.284938    2.466726
     16          6           0       10.742468   -2.469305    1.362374
     17          6           0      -11.674521   -0.824251    2.299715
     18          6           0      -12.563399   -2.377347    0.677225
     19          6           0        9.695934    0.321401    0.188461
     20          6           0      -10.098940   -1.130345   -0.376433
     21          6           0       11.274410    0.667142   -2.342741
     22          6           0      -10.785920    1.314649   -2.042946
     23          6           0        9.335702    1.640230   -0.000972
     24          6           0       -8.849902   -0.583853   -0.260603
     25          6           0        7.999225    2.189122    0.252773
     26          6           0       -7.602413   -1.277820   -0.468790
     27          6           0        7.981816    3.624410    0.719184
     28          6           0       -7.652463   -2.787102   -0.866927
     29          6           0        6.846248    1.466775    0.127183
     30          6           0       -6.522102   -0.619988   -0.255116
     31          6           0        5.539246    1.904293    0.387340
     32          6           0       -5.142037   -1.094225   -0.507947
     33          6           0        4.465763    1.179787    0.018329
     34          6           0       -4.026475   -0.306940   -0.355672
     35          6           0        3.068492    1.571280    0.045688
     36          6           0       -2.611820   -0.775171   -0.525629
     37          6           0        2.819074    3.029407    0.534558
     38          6           0       -2.328272   -2.211468   -0.886921
     39          6           0        2.053159    0.799084   -0.169078
     40          6           0       -1.590569    0.214575   -0.408508
     41          6           0        0.653505    0.869288   -0.197995
     42          6           0       -0.230476   -0.152016   -0.457462
     43          1           0       13.474343   -0.189105    1.197449
     44          1           0       13.325485   -2.044998    1.920077
     45          1           0      -14.360745   -0.325094    1.737491
     46          1           0      -14.208969   -0.505537   -0.052630
     47          1           0       12.982074   -2.873053   -0.625627
     48          1           0      -12.974997    1.656772    1.481823
     49          1           0       13.849941   -0.013790   -1.261696
     50          1           0       13.289307   -1.102424   -2.444727
     51          1           0      -13.289932    1.541171   -1.517980
     52          1           0      -12.547261    2.750412   -1.022000
     53          1           0       11.710716   -0.828396    3.324885
     54          1           0       10.364128   -0.121686    2.712249
     55          1           0       11.881019    0.554003    2.407119
     56          1           0       10.986927   -3.009074    0.440766
     57          1           0       11.331817   -3.019496    2.247903
     58          1           0        9.698025   -2.332613    1.560730
     59          1           0      -11.515361    0.267234    2.538249
     60          1           0      -10.631114   -1.428338    2.501127
     61          1           0      -12.134421   -1.345129    3.014280
     62          1           0      -13.300342   -2.794474    1.416517
     63          1           0      -11.750378   -2.970715    1.023800
     64          1           0      -12.853511   -2.555873   -0.329482
     65          1           0        8.835295   -0.229736    0.560047
     66          1           0      -10.207543   -2.096495   -0.846282
     67          1           0       10.383114    1.118252   -2.328034
     68          1           0       11.920794    1.656963   -2.397154
     69          1           0       11.316937    0.172370   -3.298407
     70          1           0      -11.332722    1.434812   -3.028430
     71          1           0       -9.869599    0.649525   -1.968248
     72          1           0      -10.538237    2.460201   -1.921486
     73          1           0       15.122788   -2.683161    0.118334
     74          1           0      -15.074377    1.696824    1.519649
     75          1           0       10.148633    2.325553   -0.398115
     76          1           0       -8.963735    0.435946   -0.038030
     77          1           0        8.724970    4.304704    0.130809
     78          1           0        7.043024    4.136932    0.706595
     79          1           0        8.616938    3.539623    1.651078
     80          1           0       -8.224605   -3.302184    0.038603
     81          1           0       -8.155446   -2.728513   -1.886062
     82          1           0       -6.555994   -3.055647   -0.879649
     83          1           0        6.866240    0.432604   -0.238278
     84          1           0       -6.637404    0.432088    0.010801
     85          1           0        5.362158    3.031052    0.782124
     86          1           0       -4.988852   -2.087650   -0.660868
     87          1           0        4.531896    0.239073   -0.589929
     88          1           0       -4.085395    0.707724   -0.138584
     89          1           0        3.034937    3.260297    1.589383
     90          1           0        1.850774    3.238790    0.479892
     91          1           0        3.128494    3.728998   -0.185958
     92          1           0       -2.652631   -2.924162    0.010818
     93          1           0       -3.026384   -2.447226   -1.855738
     94          1           0       -1.314063   -2.303711   -1.289055
     95          1           0        2.567778   -0.135201   -0.349649
     96          1           0       -2.005429    1.270388   -0.291500
     97          1           0        0.421928    2.003059   -0.126829
     98          1           0        0.010237   -1.041435   -0.531806
 ---------------------------------------------------------------------
 Rotational constants (GHZ):           0.2463786           0.0092299           0.0090871
 Standard basis: 6-31G(d,p) (6D, 7F)
 There are   910 symmetry adapted cartesian basis functions of A   symmetry.
 There are   910 symmetry adapted basis functions of A   symmetry.
   910 basis functions,  1568 primitive gaussians,   910 cartesian basis functions
   156 alpha electrons      156 beta electrons
       nuclear repulsion energy      3974.8979811954 Hartrees.
 NAtoms=   98 NActive=   98 NUniq=   98 SFac= 1.00D+00 NAtFMM=   60 NAOKFM=T Big=T
 Integral buffers will be    131072 words long.
 Raffenetti 1 integral format.
 Two-electron integral symmetry is turned on.
 One-electron integrals computed using PRISM.
 NBasis=   910 RedAO= T EigKep=  8.43D-04  NBF=   910
 NBsUse=   910 1.00D-06 EigRej= -1.00D+00 NBFU=   910
 ExpMin= 1.61D-01 ExpMax= 5.48D+03 ExpMxC= 8.25D+02 IAcc=3 IRadAn=         5 AccDes= 0.00D+00
 Harris functional with IExCor=20419 and IRadAn=       5 diagonalized for initial guess.
 HarFok:  IExCor=20419 AccDes= 0.00D+00 IRadAn=         5 IDoV= 1 UseB2=F ITyADJ=14
 ICtDFT=  3500011 ScaDFX=  1.000000  1.000000  1.000000  1.000000
 FoFCou: FMM=F IPFlag=           0 FMFlag=      100000 FMFlg1=        2001
         NFxFlg=           0 DoJE=T BraDBF=F KetDBF=T FulRan=T
         wScrn=  0.000000 ICntrl=       500 IOpCl=  0 I1Cent=   200000004 NGrid=           0
         NMat0=    1 NMatS0=      1 NMatT0=    0 NMatD0=    1 NMtDS0=    0 NMtDT0=    0
 Petite list used in FoFCou.
 Requested convergence on RMS density matrix=1.00D-08 within 128 cycles.
 Requested convergence on MAX density matrix=1.00D-06.
 Requested convergence on             energy=1.00D-06.
 No special actions if energy rises.
 Integral accuracy reduced to 1.0D-05 until final iterations.
 Initial convergence to 1.0D-05 achieved.  Increase integral accuracy.
 SCF Done:  E(RCAM-B3LYP) =  -1706.99152507     A.U. after   14 cycles
            NFock= 14  Conv=0.77D-08     -V/T= 2.0093
 DoSCS=F DFT=T ScalE2(SS,OS)=  1.000000  1.000000
 ExpMin= 1.61D-01 ExpMax= 5.48D+03 ExpMxC= 8.25D+02 IAcc=3 IRadAn=         5 AccDes= 0.00D+00
 HarFok:  IExCor=  205 AccDes= 0.00D+00 IRadAn=         5 IDoV=-2 UseB2=F ITyADJ=14
 ICtDFT= 12500011 ScaDFX=  1.000000  1.000000  1.000000  1.000000
 GSVD:  LWork=       -2100 too small for GESVD, short by        9450 words or        9450 for optimal perf.
 Range of M.O.s used for correlation:    43   910
 NBasis=   910 NAE=   156 NBE=   156 NFC=    42 NFV=     0
 NROrb=    868 NOA=   114 NOB=   114 NVA=   754 NVB=   754
 Orbital symmetries:
       Occupied  (A) (A) (A) (A) (A) (A) (A) (A) (A) (A) (A) (A)
                 (A) (A) (A) (A) (A) (A) (A) (A) (A) (A) (A) (A)
                 (A) (A) (A) (A) (A) (A) (A) (A) (A) (A) (A) (A)
                 (A) (A) (A) (A) (A) (A) (A) (A) (A) (A) (A) (A)
                 (A) (A) (A) (A) (A) (A) (A) (A) (A) (A) (A) (A)
                 (A) (A) (A) (A) (A) (A) (A) (A) (A) (A) (A) (A)
                 (A) (A) (A) (A) (A) (A) (A) (A) (A) (A) (A) (A)
                 (A) (A) (A) (A) (A) (A) (A) (A) (A) (A) (A) (A)
                 (A) (A) (A) (A) (A) (A) (A) (A) (A) (A) (A) (A)
                 (A) (A) (A) (A) (A) (A) (A) (A) (A) (A) (A) (A)
                 (A) (A) (A) (A) (A) (A) (A) (A) (A) (A) (A) (A)
                 (A) (A) (A) (A) (A) (A) (A) (A) (A) (A) (A) (A)
                 (A) (A) (A) (A) (A) (A) (A) (A) (A) (A) (A) (A)
       Virtual   (A) (A) (A) (A) (A) (A) (A) (A) (A) (A) (A) (A)
                 (A) (A) (A) (A) (A) (A) (A) (A) (A) (A) (A) (A)
                 (A) (A) (A) (A) (A) (A) (A) (A) (A) (A) (A) (A)
                 (A) (A) (A) (A) (A) (A) (A) (A) (A) (A) (A) (A)
                 (A) (A) (A) (A) (A) (A) (A) (A) (A) (A) (A) (A)
                 (A) (A) (A) (A) (A) (A) (A) (A) (A) (A) (A) (A)
                 (A) (A) (A) (A) (A) (A) (A) (A) (A) (A) (A) (A)
                 (A) (A) (A) (A) (A) (A) (A) (A) (A) (A) (A) (A)
                 (A) (A) (A) (A) (A) (A) (A) (A) (A) (A) (A) (A)
                 (A) (A) (A) (A) (A) (A) (A) (A) (A) (A) (A) (A)
                 (A) (A) (A) (A) (A) (A) (A) (A) (A) (A) (A) (A)
                 (A) (A) (A) (A) (A) (A) (A) (A) (A) (A) (A) (A)
                 (A) (A) (A) (A) (A) (A) (A) (A) (A) (A) (A) (A)
                 (A) (A) (A) (A) (A) (A) (A) (A) (A) (A) (A) (A)
                 (A) (A) (A) (A) (A) (A) (A) (A) (A) (A) (A) (A)
                 (A) (A) (A) (A) (A) (A) (A) (A) (A) (A) (A) (A)
                 (A) (A) (A) (A) (A) (A) (A) (A) (A) (A) (A) (A)
                 (A) (A) (A) (A) (A) (A) (A) (A) (A) (A) (A) (A)
                 (A) (A) (A) (A) (A) (A) (A) (A) (A) (A) (A) (A)
                 (A) (A) (A) (A) (A) (A) (A) (A) (A) (A) (A) (A)
                 (A) (A) (A) (A) (A) (A) (A) (A) (A) (A) (A) (A)
                 (A) (A) (A) (A) (A) (A) (A) (A) (A) (A) (A) (A)
                 (A) (A) (A) (A) (A) (A) (A) (A) (A) (A) (A) (A)
                 (A) (A) (A) (A) (A) (A) (A) (A) (A) (A) (A) (A)
                 (A) (A) (A) (A) (A) (A) (A) (A) (A) (A) (A) (A)
                 (A) (A) (A) (A) (A) (A) (A) (A) (A) (A) (A) (A)
                 (A) (A) (A) (A) (A) (A) (A) (A) (A) (A) (A) (A)
                 (A) (A) (A) (A) (A) (A) (A) (A) (A) (A) (A) (A)
                 (A) (A) (A) (A) (A) (A) (A) (A) (A) (A) (A) (A)
                 (A) (A) (A) (A) (A) (A) (A) (A) (A) (A) (A) (A)
                 (A) (A) (A) (A) (A) (A) (A) (A) (A) (A) (A) (A)
                 (A) (A) (A) (A) (A) (A) (A) (A) (A) (A) (A) (A)
                 (A) (A) (A) (A) (A) (A) (A) (A) (A) (A) (A) (A)
                 (A) (A) (A) (A) (A) (A) (A) (A) (A) (A) (A) (A)
                 (A) (A) (A) (A) (A) (A) (A) (A) (A) (A) (A) (A)
                 (A) (A) (A) (A) (A) (A) (A) (A) (A) (A) (A) (A)
                 (A) (A) (A) (A) (A) (A) (A) (A) (A) (A) (A) (A)
                 (A) (A) (A) (A) (A) (A) (A) (A) (A) (A) (A) (A)
                 (A) (A) (A) (A) (A) (A) (A) (A) (A) (A) (A) (A)
                 (A) (A) (A) (A) (A) (A) (A) (A) (A) (A) (A) (A)
                 (A) (A) (A) (A) (A) (A) (A) (A) (A) (A) (A) (A)
                 (A) (A) (A) (A) (A) (A) (A) (A) (A) (A) (A) (A)
                 (A) (A) (A) (A) (A) (A) (A) (A) (A) (A) (A) (A)
                 (A) (A) (A) (A) (A) (A) (A) (A) (A) (A) (A) (A)
                 (A) (A) (A) (A) (A) (A) (A) (A) (A) (A) (A) (A)
                 (A) (A) (A) (A) (A) (A) (A) (A) (A) (A) (A) (A)
                 (A) (A) (A) (A) (A) (A) (A) (A) (A) (A) (A) (A)
                 (A) (A) (A) (A) (A) (A) (A) (A) (A) (A) (A) (A)
                 (A) (A) (A) (A) (A) (A) (A) (A) (A) (A) (A) (A)
                 (A) (A) (A) (A) (A) (A) (A) (A) (A) (A) (A) (A)
                 (A) (A) (A) (A) (A) (A) (A) (A) (A) (A) (A) (A)
                 (A) (A) (A) (A) (A) (A) (A) (A) (A) (A) (A) (A)
                 (A) (A) (A) (A) (A) (A) (A) (A) (A) (A) (A) (A)
                 (A) (A) (A) (A) (A) (A) (A) (A) (A) (A) (A) (A)
                 (A) (A) (A) (A) (A) (A) (A) (A) (A) (A) (A) (A)
                 (A) (A) (A) (A) (A) (A) (A) (A) (A) (A) (A) (A)
                 (A) (A) (A) (A) (A) (A) (A) (A) (A) (A) (A) (A)
                 (A) (A) (A) (A) (A) (A) (A) (A) (A) (A) (A) (A)
                 (A) (A) (A) (A) (A) (A) (A) (A) (A) (A) (A) (A)
                 (A) (A) (A) (A) (A) (A) (A) (A) (A) (A) (A) (A)
                 (A) (A) (A) (A) (A) (A) (A) (A) (A) (A) (A) (A)
                 (A) (A) (A) (A) (A) (A) (A) (A) (A) (A) (A) (A)
                 (A) (A) (A) (A) (A) (A) (A) (A) (A) (A)
     4 initial guesses have been made.
 Convergence on wavefunction:    0.001000000000000
 Iteration     1 Dimension     4 NMult     0 NNew      4
 CISAX will form     4 AO SS matrices at one time.
 Iteration     2 Dimension     6 NMult     4 NNew      2
 Iteration     3 Dimension     8 NMult     6 NNew      2
 Iteration     4 Dimension    10 NMult     8 NNew      2
 Iteration     5 Dimension    12 NMult    10 NNew      2
 Iteration     6 Dimension    14 NMult    12 NNew      2
 ***********************************************************************
 Excited states from <AA,BB:AA,BB> singles matrix:
 ***********************************************************************
 
 Ground to excited state transition densities written to RWF  633
 Ground to excited state transition electric dipole moments (Au):
       state          X           Y           Z        Dip. S.      Osc.
         1         7.2157      1.3170      0.3633     53.9330      3.6578
 Ground to excited state transition velocity dipole moments (Au):
       state          X           Y           Z        Dip. S.      Osc.
         1        -0.7063     -0.1277     -0.0364      0.5166      3.3851
 Ground to excited state transition magnetic dipole moments (Au):
       state          X           Y           Z
         1        -0.1557      0.2326      0.9994
 Ground to excited state transition velocity quadrupole moments (Au):
       state          XX          YY          ZZ          XY          XZ          YZ
         1        -1.4754     -0.2100     -0.0312     -0.1079      0.2526      0.0076
 <0|del|b> * <b|rxdel|0> + <0|del|b> * <b|delr+rdel|0>
 Rotatory Strengths (R) in cgs (10**-40 erg-esu-cm/Gauss)
       state          XX          YY          ZZ    R(velocity)    E-M Angle
         1      -103.9979    223.2367    185.3932    101.5440       86.63
 1/2[<0|r|b>*<b|rxdel|0> + (<0|rxdel|b>*<b|r|0>)*]
 Rotatory Strengths (R) in cgs (10**-40 erg-esu-cm/Gauss)
       state          XX          YY          ZZ     R(length)
         1       794.2614   -216.6177   -256.7721    106.9572
  1/2[<0|del|b>*<b|r|0> + (<0|r|b>*<b|del|0>)*] (Au)
       state          X           Y           Z        Dip. S.   Osc.(frdel)
         1        -5.0967     -0.1682     -0.0132      5.2782      3.5188

 Excitation energies and oscillator strengths:
 
 Excited State   1:      Singlet-A      2.7682 eV  447.88 nm  f=3.6578  <S**2>=0.000
     155 ->158         0.16780
     156 ->157         0.68322
 This state for optimization and/or second-order correction.
 Total Energy, E(TD-HF/TD-DFT) =  -1706.88979413    
 Copying the excited state density for this state as the 1-particle RhoCI density.
 SavETr:  write IOETrn=   770 NScale= 10 NData=  16 NLR=1 NState=    1 LETran=      28.

 **********************************************************************

            Population analysis using the SCF density.

 **********************************************************************

 Orbital symmetries:
       Occupied  (A) (A) (A) (A) (A) (A) (A) (A) (A) (A) (A) (A)
                 (A) (A) (A) (A) (A) (A) (A) (A) (A) (A) (A) (A)
                 (A) (A) (A) (A) (A) (A) (A) (A) (A) (A) (A) (A)
                 (A) (A) (A) (A) (A) (A) (A) (A) (A) (A) (A) (A)
                 (A) (A) (A) (A) (A) (A) (A) (A) (A) (A) (A) (A)
                 (A) (A) (A) (A) (A) (A) (A) (A) (A) (A) (A) (A)
                 (A) (A) (A) (A) (A) (A) (A) (A) (A) (A) (A) (A)
                 (A) (A) (A) (A) (A) (A) (A) (A) (A) (A) (A) (A)
                 (A) (A) (A) (A) (A) (A) (A) (A) (A) (A) (A) (A)
                 (A) (A) (A) (A) (A) (A) (A) (A) (A) (A) (A) (A)
                 (A) (A) (A) (A) (A) (A) (A) (A) (A) (A) (A) (A)
                 (A) (A) (A) (A) (A) (A) (A) (A) (A) (A) (A) (A)
                 (A) (A) (A) (A) (A) (A) (A) (A) (A) (A) (A) (A)
       Virtual   (A) (A) (A) (A) (A) (A) (A) (A) (A) (A) (A) (A)
                 (A) (A) (A) (A) (A) (A) (A) (A) (A) (A) (A) (A)
                 (A) (A) (A) (A) (A) (A) (A) (A) (A) (A) (A) (A)
                 (A) (A) (A) (A) (A) (A) (A) (A) (A) (A) (A) (A)
                 (A) (A) (A) (A) (A) (A) (A) (A) (A) (A) (A) (A)
                 (A) (A) (A) (A) (A) (A) (A) (A) (A) (A) (A) (A)
                 (A) (A) (A) (A) (A) (A) (A) (A) (A) (A) (A) (A)
                 (A) (A) (A) (A) (A) (A) (A) (A) (A) (A) (A) (A)
                 (A) (A) (A) (A) (A) (A) (A) (A) (A) (A) (A) (A)
                 (A) (A) (A) (A) (A) (A) (A) (A) (A) (A) (A) (A)
                 (A) (A) (A) (A) (A) (A) (A) (A) (A) (A) (A) (A)
                 (A) (A) (A) (A) (A) (A) (A) (A) (A) (A) (A) (A)
                 (A) (A) (A) (A) (A) (A) (A) (A) (A) (A) (A) (A)
                 (A) (A) (A) (A) (A) (A) (A) (A) (A) (A) (A) (A)
                 (A) (A) (A) (A) (A) (A) (A) (A) (A) (A) (A) (A)
                 (A) (A) (A) (A) (A) (A) (A) (A) (A) (A) (A) (A)
                 (A) (A) (A) (A) (A) (A) (A) (A) (A) (A) (A) (A)
                 (A) (A) (A) (A) (A) (A) (A) (A) (A) (A) (A) (A)
                 (A) (A) (A) (A) (A) (A) (A) (A) (A) (A) (A) (A)
                 (A) (A) (A) (A) (A) (A) (A) (A) (A) (A) (A) (A)
                 (A) (A) (A) (A) (A) (A) (A) (A) (A) (A) (A) (A)
                 (A) (A) (A) (A) (A) (A) (A) (A) (A) (A) (A) (A)
                 (A) (A) (A) (A) (A) (A) (A) (A) (A) (A) (A) (A)
                 (A) (A) (A) (A) (A) (A) (A) (A) (A) (A) (A) (A)
                 (A) (A) (A) (A) (A) (A) (A) (A) (A) (A) (A) (A)
                 (A) (A) (A) (A) (A) (A) (A) (A) (A) (A) (A) (A)
                 (A) (A) (A) (A) (A) (A) (A) (A) (A) (A) (A) (A)
                 (A) (A) (A) (A) (A) (A) (A) (A) (A) (A) (A) (A)
                 (A) (A) (A) (A) (A) (A) (A) (A) (A) (A) (A) (A)
                 (A) (A) (A) (A) (A) (A) (A) (A) (A) (A) (A) (A)
                 (A) (A) (A) (A) (A) (A) (A) (A) (A) (A) (A) (A)
                 (A) (A) (A) (A) (A) (A) (A) (A) (A) (A) (A) (A)
                 (A) (A) (A) (A) (A) (A) (A) (A) (A) (A) (A) (A)
                 (A) (A) (A) (A) (A) (A) (A) (A) (A) (A) (A) (A)
                 (A) (A) (A) (A) (A) (A) (A) (A) (A) (A) (A) (A)
                 (A) (A) (A) (A) (A) (A) (A) (A) (A) (A) (A) (A)
                 (A) (A) (A) (A) (A) (A) (A) (A) (A) (A) (A) (A)
                 (A) (A) (A) (A) (A) (A) (A) (A) (A) (A) (A) (A)
                 (A) (A) (A) (A) (A) (A) (A) (A) (A) (A) (A) (A)
                 (A) (A) (A) (A) (A) (A) (A) (A) (A) (A) (A) (A)
                 (A) (A) (A) (A) (A) (A) (A) (A) (A) (A) (A) (A)
                 (A) (A) (A) (A) (A) (A) (A) (A) (A) (A) (A) (A)
                 (A) (A) (A) (A) (A) (A) (A) (A) (A) (A) (A) (A)
                 (A) (A) (A) (A) (A) (A) (A) (A) (A) (A) (A) (A)
                 (A) (A) (A) (A) (A) (A) (A) (A) (A) (A) (A) (A)
                 (A) (A) (A) (A) (A) (A) (A) (A) (A) (A) (A) (A)
                 (A) (A) (A) (A) (A) (A) (A) (A) (A) (A) (A) (A)
                 (A) (A) (A) (A) (A) (A) (A) (A) (A) (A) (A) (A)
                 (A) (A) (A) (A) (A) (A) (A) (A) (A) (A) (A) (A)
                 (A) (A) (A) (A) (A) (A) (A) (A) (A) (A) (A) (A)
                 (A) (A) (A) (A) (A) (A) (A) (A) (A) (A) (A) (A)
                 (A) (A) (A) (A) (A) (A) (A) (A) (A) (A) (A) (A)
                 (A) (A) (A) (A) (A) (A) (A) (A) (A) (A) (A) (A)
                 (A) (A) (A) (A) (A) (A) (A) (A) (A) (A) (A) (A)
                 (A) (A) (A) (A) (A) (A) (A) (A) (A) (A) (A) (A)
                 (A) (A) (A) (A) (A) (A) (A) (A) (A) (A) (A) (A)
                 (A) (A) (A) (A) (A) (A) (A) (A) (A) (A) (A) (A)
                 (A) (A) (A) (A) (A) (A) (A) (A) (A) (A) (A) (A)
                 (A) (A) (A) (A) (A) (A) (A) (A) (A) (A) (A) (A)
                 (A) (A) (A) (A) (A) (A) (A) (A) (A) (A) (A) (A)
                 (A) (A) (A) (A) (A) (A) (A) (A) (A) (A) (A) (A)
                 (A) (A) (A) (A) (A) (A) (A) (A) (A) (A) (A) (A)
                 (A) (A) (A) (A) (A) (A) (A) (A) (A) (A)
 The electronic state is 1-A.
 Alpha  occ. eigenvalues --  -19.21671 -19.21241 -10.30630 -10.30248 -10.27921
 Alpha  occ. eigenvalues --  -10.27746 -10.27514 -10.27484 -10.27456 -10.27447
 Alpha  occ. eigenvalues --  -10.27429 -10.27167 -10.26928 -10.26857 -10.26832
 Alpha  occ. eigenvalues --  -10.26468 -10.26287 -10.26283 -10.26102 -10.26078
 Alpha  occ. eigenvalues --  -10.26042 -10.25987 -10.25972 -10.25904 -10.25859
 Alpha  occ. eigenvalues --  -10.25791 -10.25781 -10.25726 -10.25712 -10.25696
 Alpha  occ. eigenvalues --  -10.25530 -10.25523 -10.25304 -10.25145 -10.25089
 Alpha  occ. eigenvalues --  -10.24988 -10.24605 -10.24430 -10.24227 -10.24100
 Alpha  occ. eigenvalues --  -10.23192 -10.22306  -1.13405  -1.12464  -0.93484
 Alpha  occ. eigenvalues --   -0.93411  -0.92319  -0.91603  -0.90769  -0.89782
 Alpha  occ. eigenvalues --   -0.87588  -0.87341  -0.86869  -0.85246  -0.84310
 Alpha  occ. eigenvalues --   -0.82902  -0.81567  -0.79958  -0.79554  -0.78268
 Alpha  occ. eigenvalues --   -0.77250  -0.76466  -0.76233  -0.76099  -0.76018
 Alpha  occ. eigenvalues --   -0.75597  -0.74802  -0.74389  -0.73940  -0.71054
 Alpha  occ. eigenvalues --   -0.69249  -0.68534  -0.66632  -0.65496  -0.64373
 Alpha  occ. eigenvalues --   -0.64167  -0.62815  -0.62623  -0.60387  -0.59540
 Alpha  occ. eigenvalues --   -0.59445  -0.59176  -0.58439  -0.57320  -0.56847
 Alpha  occ. eigenvalues --   -0.56352  -0.55343  -0.54587  -0.54386  -0.54213
 Alpha  occ. eigenvalues --   -0.53433  -0.53025  -0.52250  -0.51829  -0.51304
 Alpha  occ. eigenvalues --   -0.50588  -0.50444  -0.50041  -0.49908  -0.49390
 Alpha  occ. eigenvalues --   -0.49170  -0.49143  -0.48764  -0.48573  -0.48362
 Alpha  occ. eigenvalues --   -0.48026  -0.47731  -0.47279  -0.47171  -0.46698
 Alpha  occ. eigenvalues --   -0.46296  -0.46055  -0.45384  -0.45125  -0.44744
 Alpha  occ. eigenvalues --   -0.44456  -0.44158  -0.43939  -0.43773  -0.43668
 Alpha  occ. eigenvalues --   -0.43258  -0.43126  -0.42808  -0.42418  -0.42082
 Alpha  occ. eigenvalues --   -0.41711  -0.41203  -0.40870  -0.40788  -0.40621
 Alpha  occ. eigenvalues --   -0.40141  -0.40094  -0.39841  -0.39813  -0.39584
 Alpha  occ. eigenvalues --   -0.39186  -0.38804  -0.38384  -0.38299  -0.38153
 Alpha  occ. eigenvalues --   -0.38025  -0.36707  -0.36364  -0.36078  -0.35667
 Alpha  occ. eigenvalues --   -0.35413  -0.34876  -0.33564  -0.32199  -0.31644
 Alpha  occ. eigenvalues --   -0.31554  -0.29424  -0.28424  -0.26782  -0.24218
 Alpha  occ. eigenvalues --   -0.20666
 Alpha virt. eigenvalues --   -0.04092   0.00251   0.03290   0.06328   0.08189
 Alpha virt. eigenvalues --    0.09341   0.10841   0.11773   0.12066   0.12267
 Alpha virt. eigenvalues --    0.12608   0.12781   0.13351   0.13794   0.14279
 Alpha virt. eigenvalues --    0.14480   0.14811   0.15102   0.15310   0.15769
 Alpha virt. eigenvalues --    0.16178   0.16299   0.16519   0.16871   0.17044
 Alpha virt. eigenvalues --    0.17375   0.17509   0.17773   0.18240   0.18412
 Alpha virt. eigenvalues --    0.18785   0.18816   0.19189   0.19464   0.20151
 Alpha virt. eigenvalues --    0.20310   0.20549   0.20667   0.20905   0.21066
 Alpha virt. eigenvalues --    0.21136   0.21330   0.21778   0.22646   0.22798
 Alpha virt. eigenvalues --    0.22849   0.22884   0.23247   0.23778   0.23865
 Alpha virt. eigenvalues --    0.24097   0.24470   0.24795   0.24950   0.25016
 Alpha virt. eigenvalues --    0.25156   0.25430   0.25496   0.26015   0.26319
 Alpha virt. eigenvalues --    0.26627   0.26832   0.27258   0.27510   0.27829
 Alpha virt. eigenvalues --    0.28155   0.28381   0.28513   0.28905   0.29087
 Alpha virt. eigenvalues --    0.29562   0.29808   0.29990   0.30659   0.31047
 Alpha virt. eigenvalues --    0.31078   0.31421   0.31664   0.31716   0.31896
 Alpha virt. eigenvalues --    0.32730   0.33520   0.33607   0.34235   0.34470
 Alpha virt. eigenvalues --    0.35006   0.35292   0.36493   0.37397   0.38322
 Alpha virt. eigenvalues --    0.38941   0.40261   0.41198   0.41944   0.42901
 Alpha virt. eigenvalues --    0.43345   0.43970   0.44392   0.44786   0.44945
 Alpha virt. eigenvalues --    0.46082   0.47716   0.48122   0.48445   0.50247
 Alpha virt. eigenvalues --    0.51519   0.52426   0.52919   0.53847   0.54535
 Alpha virt. eigenvalues --    0.55784   0.56088   0.56430   0.56761   0.57063
 Alpha virt. eigenvalues --    0.57392   0.57750   0.58175   0.58321   0.58551
 Alpha virt. eigenvalues --    0.58796   0.58985   0.59572   0.59741   0.60234
 Alpha virt. eigenvalues --    0.60670   0.60876   0.61235   0.61455   0.62214
 Alpha virt. eigenvalues --    0.62424   0.62486   0.62812   0.62978   0.63655
 Alpha virt. eigenvalues --    0.64051   0.64592   0.64800   0.65106   0.65255
 Alpha virt. eigenvalues --    0.65778   0.66240   0.66285   0.66744   0.67261
 Alpha virt. eigenvalues --    0.67309   0.67547   0.67784   0.68071   0.68280
 Alpha virt. eigenvalues --    0.68678   0.68862   0.69141   0.69469   0.70052
 Alpha virt. eigenvalues --    0.70347   0.70530   0.71032   0.71458   0.71747
 Alpha virt. eigenvalues --    0.72247   0.72458   0.72710   0.72767   0.73288
 Alpha virt. eigenvalues --    0.73570   0.74028   0.74218   0.75179   0.75586
 Alpha virt. eigenvalues --    0.75667   0.76130   0.76568   0.76589   0.76835
 Alpha virt. eigenvalues --    0.77696   0.77837   0.78207   0.78433   0.78503
 Alpha virt. eigenvalues --    0.79268   0.79573   0.80221   0.80424   0.80564
 Alpha virt. eigenvalues --    0.80843   0.81522   0.82007   0.82587   0.82605
 Alpha virt. eigenvalues --    0.83028   0.83362   0.83754   0.84810   0.85020
 Alpha virt. eigenvalues --    0.85337   0.85586   0.86399   0.86578   0.86588
 Alpha virt. eigenvalues --    0.86792   0.87195   0.88133   0.88225   0.88325
 Alpha virt. eigenvalues --    0.88835   0.89186   0.89301   0.89638   0.89824
 Alpha virt. eigenvalues --    0.90012   0.90360   0.90540   0.91044   0.91135
 Alpha virt. eigenvalues --    0.91651   0.91741   0.91828   0.91976   0.92460
 Alpha virt. eigenvalues --    0.92621   0.92841   0.93334   0.93441   0.93796
 Alpha virt. eigenvalues --    0.94315   0.94516   0.94835   0.95027   0.95525
 Alpha virt. eigenvalues --    0.95760   0.95890   0.96008   0.96269   0.96415
 Alpha virt. eigenvalues --    0.96674   0.96951   0.97204   0.97835   0.98213
 Alpha virt. eigenvalues --    0.98254   0.98585   0.98769   0.98972   0.99301
 Alpha virt. eigenvalues --    0.99907   1.00360   1.00426   1.01305   1.01488
 Alpha virt. eigenvalues --    1.01936   1.02255   1.02722   1.03178   1.03303
 Alpha virt. eigenvalues --    1.03610   1.04421   1.05109   1.05293   1.05745
 Alpha virt. eigenvalues --    1.05981   1.06518   1.07553   1.07668   1.07919
 Alpha virt. eigenvalues --    1.08192   1.08298   1.09012   1.09355   1.09971
 Alpha virt. eigenvalues --    1.10758   1.11336   1.11610   1.11890   1.12288
 Alpha virt. eigenvalues --    1.12637   1.13159   1.14572   1.14731   1.15277
 Alpha virt. eigenvalues --    1.15568   1.16133   1.16695   1.16747   1.17063
 Alpha virt. eigenvalues --    1.17720   1.18167   1.19373   1.20494   1.20830
 Alpha virt. eigenvalues --    1.23158   1.23876   1.24061   1.24531   1.26511
 Alpha virt. eigenvalues --    1.26854   1.27792   1.28490   1.28906   1.29336
 Alpha virt. eigenvalues --    1.29673   1.30192   1.30875   1.31985   1.32575
 Alpha virt. eigenvalues --    1.33622   1.34011   1.35137   1.35262   1.35878
 Alpha virt. eigenvalues --    1.37791   1.38874   1.39578   1.39960   1.40433
 Alpha virt. eigenvalues --    1.40895   1.41663   1.41905   1.43088   1.43330
 Alpha virt. eigenvalues --    1.44114   1.44434   1.45209   1.46415   1.46750
 Alpha virt. eigenvalues --    1.47533   1.48154   1.48592   1.48844   1.49405
 Alpha virt. eigenvalues --    1.49655   1.49690   1.50825   1.52112   1.53122
 Alpha virt. eigenvalues --    1.54007   1.54789   1.55269   1.55578   1.55922
 Alpha virt. eigenvalues --    1.56485   1.56783   1.57131   1.57792   1.58698
 Alpha virt. eigenvalues --    1.60010   1.60500   1.61060   1.62030   1.62080
 Alpha virt. eigenvalues --    1.63604   1.63659   1.64628   1.65215   1.65729
 Alpha virt. eigenvalues --    1.66955   1.67045   1.68405   1.70170   1.70767
 Alpha virt. eigenvalues --    1.71652   1.72459   1.74004   1.74395   1.76965
 Alpha virt. eigenvalues --    1.77452   1.78056   1.78848   1.79941   1.80313
 Alpha virt. eigenvalues --    1.80622   1.80795   1.81059   1.81530   1.81831
 Alpha virt. eigenvalues --    1.82541   1.83369   1.83686   1.84340   1.84372
 Alpha virt. eigenvalues --    1.85222   1.85714   1.86144   1.86170   1.86510
 Alpha virt. eigenvalues --    1.87523   1.87926   1.88292   1.88870   1.89096
 Alpha virt. eigenvalues --    1.89270   1.89859   1.90054   1.90424   1.90818
 Alpha virt. eigenvalues --    1.90934   1.91172   1.92172   1.93014   1.93279
 Alpha virt. eigenvalues --    1.93618   1.94002   1.94256   1.94960   1.95299
 Alpha virt. eigenvalues --    1.95639   1.95773   1.96274   1.96541   1.96803
 Alpha virt. eigenvalues --    1.97390   1.97795   1.98404   1.98499   1.98790
 Alpha virt. eigenvalues --    1.98999   1.99439   1.99914   2.00525   2.00833
 Alpha virt. eigenvalues --    2.01394   2.01471   2.01520   2.02759   2.03245
 Alpha virt. eigenvalues --    2.03645   2.04409   2.05085   2.05634   2.05926
 Alpha virt. eigenvalues --    2.06249   2.06437   2.06747   2.07090   2.07141
 Alpha virt. eigenvalues --    2.07395   2.07837   2.08144   2.08220   2.08862
 Alpha virt. eigenvalues --    2.09279   2.10174   2.10584   2.10991   2.11342
 Alpha virt. eigenvalues --    2.11854   2.12237   2.13050   2.13559   2.13637
 Alpha virt. eigenvalues --    2.14121   2.14908   2.15113   2.15836   2.16322
 Alpha virt. eigenvalues --    2.16489   2.17014   2.17463   2.17657   2.18357
 Alpha virt. eigenvalues --    2.18875   2.19335   2.19896   2.20040   2.20264
 Alpha virt. eigenvalues --    2.20731   2.20849   2.20949   2.21437   2.23034
 Alpha virt. eigenvalues --    2.23783   2.24258   2.24721   2.24943   2.25423
 Alpha virt. eigenvalues --    2.25743   2.26217   2.26529   2.26875   2.27326
 Alpha virt. eigenvalues --    2.27422   2.29013   2.29339   2.29573   2.30231
 Alpha virt. eigenvalues --    2.30530   2.31239   2.31757   2.32211   2.32419
 Alpha virt. eigenvalues --    2.33460   2.33692   2.34627   2.34895   2.35769
 Alpha virt. eigenvalues --    2.36373   2.36958   2.37141   2.37635   2.37901
 Alpha virt. eigenvalues --    2.38067   2.38445   2.39098   2.39933   2.40460
 Alpha virt. eigenvalues --    2.40787   2.41001   2.41740   2.42175   2.42379
 Alpha virt. eigenvalues --    2.43112   2.43395   2.44043   2.44613   2.45044
 Alpha virt. eigenvalues --    2.46018   2.46373   2.46979   2.47047   2.47464
 Alpha virt. eigenvalues --    2.47739   2.48450   2.49251   2.49590   2.49694
 Alpha virt. eigenvalues --    2.50285   2.50639   2.51259   2.51432   2.52441
 Alpha virt. eigenvalues --    2.52953   2.53079   2.53384   2.53759   2.54528
 Alpha virt. eigenvalues --    2.55210   2.55446   2.55774   2.56077   2.56679
 Alpha virt. eigenvalues --    2.57322   2.57842   2.57980   2.58382   2.59125
 Alpha virt. eigenvalues --    2.59417   2.59980   2.60605   2.61154   2.61539
 Alpha virt. eigenvalues --    2.61827   2.62297   2.62590   2.63581   2.65024
 Alpha virt. eigenvalues --    2.65101   2.65452   2.65802   2.66197   2.66398
 Alpha virt. eigenvalues --    2.66521   2.66800   2.67381   2.67919   2.68262
 Alpha virt. eigenvalues --    2.68758   2.69486   2.70091   2.70532   2.71084
 Alpha virt. eigenvalues --    2.71258   2.71604   2.72403   2.72671   2.72996
 Alpha virt. eigenvalues --    2.73846   2.74127   2.74899   2.75679   2.75762
 Alpha virt. eigenvalues --    2.76293   2.76635   2.76796   2.77510   2.77968
 Alpha virt. eigenvalues --    2.78112   2.78478   2.79236   2.79993   2.80333
 Alpha virt. eigenvalues --    2.80849   2.80968   2.81551   2.82323   2.82519
 Alpha virt. eigenvalues --    2.82942   2.83245   2.83997   2.84205   2.84418
 Alpha virt. eigenvalues --    2.84528   2.85703   2.86119   2.86779   2.87168
 Alpha virt. eigenvalues --    2.87431   2.87835   2.88230   2.88760   2.89559
 Alpha virt. eigenvalues --    2.90185   2.90364   2.90586   2.91194   2.92074
 Alpha virt. eigenvalues --    2.92262   2.92987   2.94109   2.94633   2.95032
 Alpha virt. eigenvalues --    2.95234   2.95638   2.96649   2.97573   2.97754
 Alpha virt. eigenvalues --    2.98189   2.98592   2.99347   2.99976   3.00370
 Alpha virt. eigenvalues --    3.01866   3.02154   3.03360   3.03863   3.04504
 Alpha virt. eigenvalues --    3.05234   3.06184   3.06491   3.08326   3.08660
 Alpha virt. eigenvalues --    3.09209   3.09516   3.10269   3.10927   3.11453
 Alpha virt. eigenvalues --    3.12105   3.12795   3.13565   3.14619   3.15542
 Alpha virt. eigenvalues --    3.16131   3.18304   3.18708   3.20829   3.21481
 Alpha virt. eigenvalues --    3.22395   3.22924   3.25434   3.25897   3.26881
 Alpha virt. eigenvalues --    3.27522   3.28843   3.29791   3.30114   3.31084
 Alpha virt. eigenvalues --    3.32925   3.33477   3.34086   3.36629   3.38396
 Alpha virt. eigenvalues --    3.38544   3.39669   3.41234   3.42422   3.43679
 Alpha virt. eigenvalues --    3.44341   3.45221   3.45622   3.45999   3.47529
 Alpha virt. eigenvalues --    3.47868   3.48661   3.50544   3.50980   3.51119
 Alpha virt. eigenvalues --    3.52228   3.53392   3.54843   3.55040   3.55446
 Alpha virt. eigenvalues --    3.57417   3.57480   3.57874   3.59463   3.59590
 Alpha virt. eigenvalues --    3.60660   3.60842   3.63498   3.64547   3.65086
 Alpha virt. eigenvalues --    3.67438   3.69966   3.70122   3.70318   3.72606
 Alpha virt. eigenvalues --    3.73748   3.74318   3.75073   3.78525   3.78594
 Alpha virt. eigenvalues --    3.81403   4.08384   4.13164   4.17727   4.17827
 Alpha virt. eigenvalues --    4.21631   4.22089   4.23110   4.24410   4.26715
 Alpha virt. eigenvalues --    4.28704   4.29488   4.30085   4.31724   4.36839
 Alpha virt. eigenvalues --    4.38440   4.40395   4.41865   4.44360   4.44928
 Alpha virt. eigenvalues --    4.46351   4.48419   4.50062   4.54871   4.55215
 Alpha virt. eigenvalues --    4.55472   4.55856   4.57986   4.59721   4.61941
 Alpha virt. eigenvalues --    4.64204   4.66654   4.67240   4.67690   4.71024
 Alpha virt. eigenvalues --    4.72131   4.74490   4.79268   4.80631   4.82235
 Alpha virt. eigenvalues --    4.85157   4.88374   4.89861   4.90680
          Condensed to atoms (all electrons):
 Mulliken charges:
               1
     1  O   -0.535279
     2  O   -0.519394
     3  C   -0.028983
     4  C    0.005022
     5  C   -0.204929
     6  C   -0.219739
     7  C    0.221275
     8  C    0.151274
     9  C    0.051860
    10  C   -0.000987
    11  C   -0.251206
    12  C   -0.227510
    13  C    0.091568
    14  C    0.095507
    15  C   -0.281614
    16  C   -0.288104
    17  C   -0.295953
    18  C   -0.309006
    19  C   -0.123306
    20  C   -0.152368
    21  C   -0.360054
    22  C   -0.368744
    23  C   -0.119243
    24  C   -0.089131
    25  C    0.079921
    26  C    0.097509
    27  C   -0.365464
    28  C   -0.346255
    29  C   -0.113584
    30  C   -0.111290
    31  C   -0.075196
    32  C   -0.103540
    33  C   -0.124929
    34  C   -0.096544
    35  C    0.086478
    36  C    0.081561
    37  C   -0.379923
    38  C   -0.367121
    39  C   -0.108576
    40  C   -0.115452
    41  C   -0.080872
    42  C   -0.034625
    43  H    0.064660
    44  H    0.069591
    45  H    0.079521
    46  H    0.090546
    47  H    0.063149
    48  H    0.095705
    49  H    0.095147
    50  H    0.107244
    51  H    0.130779
    52  H    0.091501
    53  H    0.090254
    54  H    0.112807
    55  H    0.110386
    56  H    0.113158
    57  H    0.075276
    58  H    0.111616
    59  H    0.089907
    60  H    0.078024
    61  H    0.110093
    62  H    0.091783
    63  H    0.107443
    64  H    0.106721
    65  H    0.084054
    66  H    0.095170
    67  H    0.123959
    68  H    0.095661
    69  H    0.116662
    70  H    0.110230
    71  H    0.117391
    72  H    0.093620
    73  H    0.309173
    74  H    0.295565
    75  H    0.081600
    76  H    0.091519
    77  H    0.102040
    78  H    0.119344
    79  H    0.126927
    80  H    0.118001
    81  H    0.126782
    82  H    0.105688
    83  H    0.083861
    84  H    0.079297
    85  H    0.086238
    86  H    0.075861
    87  H    0.078294
    88  H    0.074158
    89  H    0.119119
    90  H    0.099181
    91  H    0.117068
    92  H    0.117177
    93  H    0.103530
    94  H    0.119261
    95  H    0.047852
    96  H    0.089247
    97  H    0.079015
    98  H    0.069088
 Sum of Mulliken charges =  -0.00000
 Mulliken charges with hydrogens summed into heavy atoms:
               1
     1  O   -0.226106
     2  O   -0.223829
     3  C   -0.028983
     4  C    0.005022
     5  C   -0.070677
     6  C   -0.049672
     7  C    0.284424
     8  C    0.246979
     9  C    0.051860
    10  C   -0.000987
    11  C   -0.048815
    12  C   -0.005230
    13  C    0.091568
    14  C    0.095507
    15  C    0.031833
    16  C    0.011948
    17  C   -0.017929
    18  C   -0.003059
    19  C   -0.039252
    20  C   -0.057198
    21  C   -0.023772
    22  C   -0.047504
    23  C   -0.037643
    24  C    0.002388
    25  C    0.079921
    26  C    0.097509
    27  C   -0.017153
    28  C    0.004216
    29  C   -0.029723
    30  C   -0.031993
    31  C    0.011043
    32  C   -0.027679
    33  C   -0.046635
    34  C   -0.022386
    35  C    0.086478
    36  C    0.081561
    37  C   -0.044555
    38  C   -0.027154
    39  C   -0.060725
    40  C   -0.026205
    41  C   -0.001857
    42  C    0.034463
 Electronic spatial extent (au):  <R**2>=         111496.0269
 Charge=             -0.0000 electrons
 Dipole moment (field-independent basis, Debye):
    X=              1.8454    Y=             -1.2732    Z=              1.7098  Tot=              2.8196
 Quadrupole moment (field-independent basis, Debye-Ang):
   XX=           -266.9968   YY=           -246.9796   ZZ=           -257.6826
   XY=              9.3513   XZ=              2.5197   YZ=             -1.8928
 Traceless Quadrupole moment (field-independent basis, Debye-Ang):
   XX=             -9.7771   YY=             10.2401   ZZ=             -0.4629
   XY=              9.3513   XZ=              2.5197   YZ=             -1.8928
 Octapole moment (field-independent basis, Debye-Ang**2):
  XXX=            585.6701  YYY=              4.0855  ZZZ=              5.2755  XYY=            101.9033
  XXY=           -347.8114  XXZ=            464.8123  XZZ=            -58.2714  YZZ=              1.0108
  YYZ=             10.0999  XYZ=            -40.8193
 Hexadecapole moment (field-independent basis, Debye-Ang**3):
 XXXX=        -152527.6227 YYYY=          -4392.7952 ZZZZ=          -2040.7858 XXXY=           1034.3785
 XXXZ=            157.4773 YYYX=           -171.9351 YYYZ=            -25.0747 ZZZX=           -239.6694
 ZZZY=             11.1652 XXYY=         -24451.1146 XXZZ=         -23634.2759 YYZZ=          -1068.4424
 XXYZ=           -779.2446 YYXZ=             87.6418 ZZXY=           -180.9025
 N-N= 3.974897981195D+03 E-N=-1.190554306612D+04  KE= 1.691291519981D+03
 1\1\GINC-PADAWAN\SP\RCAM-B3LYP TD-FC\6-31G(d,p)\C40H56O2\PADAWAN\05-Ju
 l-2019\0\\# td=(NStates=1) CAM-B3LYP/6-31G(d,p)\\TD\\0,1\O,0,14.686666
 8857,-2.1697944505,-0.5969685499\O,0,-14.8779843954,1.9938612421,0.678
 7469687\C,0,11.4868719812,-1.1009007242,1.2596593269\C,0,-12.330280660
 1,-0.8390864686,0.9053860606\C,0,13.0440531373,-1.3813211702,1.0401815
 902\C,0,-13.6415667657,-0.1179379538,0.906689565\C,0,13.4350154955,-1.
 9256680939,-0.3448393729\C,0,-13.5688492249,1.4484876468,0.6492167057\
 C,0,10.9755460806,-0.3423384499,0.0028660406\C,0,-11.3494620472,-0.250
 5460836,-0.1682675808\C,0,12.9832125403,-0.8468654436,-1.3769885719\C,
 0,-12.7992506851,1.6838463616,-0.6600730493\C,0,11.6455292999,-0.17210
 75839,-1.1356420802\C,0,-11.6382374137,0.8105573787,-0.8980193409\C,0,
 11.3289436214,-0.2665358117,2.4724976908\C,0,10.7431337544,-2.46072655
 38,1.3884169617\C,0,-11.6730194959,-0.7910509331,2.3019087709\C,0,-12.
 5624069427,-2.3586313061,0.6936912731\C,0,9.6990247285,0.3196129982,0.
 1880454845\C,0,-10.0966710341,-1.1232964146,-0.3706657476\C,0,11.27868
 06331,0.6405285178,-2.3456887759\C,0,-10.7812905681,1.3064810321,-2.06
 02453315\C,0,9.3398039474,1.6368671246,-0.0138567597\C,0,-8.8472852135
 ,-0.5766312201,-0.2594869947\C,0,8.0036263486,2.1890586458,0.234239092
 9\C,0,-7.6002151635,-1.2734016733,-0.4607014021\C,0,7.9870691879,3.628
 661071,0.687190085\C,0,-7.6511962256,-2.7863083789,-0.8447146465\C,0,6
 .850180425,1.4663866326,0.1149814921\C,0,-6.5195137544,-0.6143669118,-
 0.2527882848\C,0,5.5433948915,1.9072484317,0.3705419702\C,0,-5.1396950
 915,-1.091929069,-0.5006522392\C,0,4.4695308841,1.1800834222,0.0079251
 635\C,0,-4.0236277828,-0.3040466108,-0.3553328633\C,0,3.072529858,1.57
 28078787,0.0310947745\C,0,-2.6092446885,-0.7748518153,-0.520369697\C,0
 ,2.8239726783,3.0356230112,0.5062033293\C,0,-2.3265881528,-2.214668769
 ,-0.8680978498\C,0,2.0567252475,0.7993570996,-0.1768168067\C,0,-1.5873
 30056,0.215221228,-0.4121330403\C,0,0.6571328823,0.8702817961,-0.20691
 48115\C,0,-0.2274816172,-0.1527773828,-0.4571433543\H,0,13.4766969417,
 -0.1841118463,1.2031851565\H,0,13.3262478608,-2.0330538865,1.943094441
 4\H,0,-14.3586786449,-0.295269684,1.7340306091\H,0,-14.2063720042,-0.4
 925661796,-0.0542670467\H,0,12.9831835204,-2.8846532084,-0.5948775528\
 H,0,-12.9714226033,1.6831328313,1.4603455076\H,0,13.8533262646,-0.0320
 859287,-1.2573516192\H,0,13.2923507281,-1.1313453616,-2.4303537114\H,0
 ,-13.2853340774,1.5396852895,-1.5383617692\H,0,-12.5419828053,2.752987
 3627,-1.0534422272\H,0,11.711829803,-0.8022109472,3.3358482458\H,0,10.
 3659724622,-0.1003095411,2.716120493\H,0,11.8834576158,0.5714168746,2.
 40524966\H,0,10.9875477578,-3.0092715073,0.4719925853\H,0,11.331764093
 4,-3.0030252196,2.2792778518\H,0,9.6987158726,-2.3214431374,1.58509345
 23\H,0,-11.5131682168,0.3025058216,2.5302769207\H,0,-10.6301175208,-1.
 3939665517,2.5093569397\H,0,-12.1335545145,-1.3048913941,3.0211447105\
 H,0,-13.299919773,-2.7682980818,1.4365781668\H,0,-11.7499380418,-2.949
 3069587,1.046109667\H,0,-12.8522755856,-2.5463649445,-0.311409615\H,0,
 8.8378556096,-0.2274110612,0.5644506291\H,0,-10.205790311,-2.093723096
 3,-0.8314927823\H,0,10.3877011891,1.0923893368,-2.3355382568\H,0,11.92
 57910141,1.6293372246,-2.4091206261\H,0,11.3212063556,0.1368031932,-3.
 2966667967\H,0,-11.3276437714,1.4178050095,-3.0470161946\H,0,-9.865472
 0862,0.6414347805,-1.9789825043\H,0,-10.5328350385,2.4529439074,-1.949
 4185379\H,0,15.1237589289,-2.6893278379,0.1480767007\H,0,-15.070786513
 7,1.7250274167,1.4970079058\H,0,10.1533708191,2.3178650904,-0.41709102
 41\H,0,-8.9604727443,0.4452866267,-0.0465094639\H,0,8.7309259546,4.302
 8901419,0.0927529723\H,0,7.0486482538,4.1417095799,0.6694527783\H,0,8.
 6217868887,3.5521481017,1.6200750255\H,0,-8.2240394339,-3.2924861777,0
 .0653806991\H,0,-8.1537611321,-2.7369027044,-1.8645427843\H,0,-6.55491
 43404,-3.055739226,-0.8545122432\H,0,6.8695686199,0.4288266256,-0.2407
 774697\H,0,-6.6341636784,0.4402338633,0.0032279458\H,0,5.3669660806,3.
 0377789258,0.7546977248\H,0,-4.9871625363,-2.0868499921,-0.6442118212\
 H,0,4.5352166207,0.2336716131,-0.5914775588\H,0,-4.0819036944,0.712646
 3815,-0.1477719812\H,0,3.0396117462,3.2762216641,1.5589020912\H,0,1.85
 58422372,3.2451731882,0.4492173297\H,0,3.1341574377,3.728220656,-0.220
 7125673\H,0,-2.6517873157,-2.918699017,0.0361505711\H,0,-3.0245119592,
 -2.4589870188,-1.8349274597\H,0,-1.3122980288,-2.3113913142,-1.2689699
 33\H,0,2.5707442324,-0.1369423453,-0.3484427483\H,0,-2.001479549,1.272
 3771556,-0.3051671297\H,0,0.4263383808,2.0048331892,-0.1464488499\H,0,
 0.0126240324,-1.0430242525,-0.523069891\\Version=ES64L-G16RevA.03\Stat
 e=1-A\HF=-1706.9915251\RMSD=7.663e-09\PG=C01 [X(C40H56O2)]\\@


 The number of Unix installations has grown to 10,
  with more expected.
                  -- The Unix Programmer's Manual,
                     2nd Edition, June, 1972.
 Job cpu time:       0 days  5 hours 38 minutes 39.4 seconds.
 Elapsed time:       0 days  1 hours 25 minutes 17.4 seconds.
 File lengths (MBytes):  RWF=   3127 Int=      0 D2E=      0 Chk=     84 Scr=      1
 Normal termination of Gaussian 16 at Fri Jul  5 07:12:13 2019.
