 Entering Gaussian System, Link 0=g16
 Input=Geometria-186-.com
 Output=Geometria-186-.log
 Initial command:
 /usr/local/g16/l1.exe "/home/padawan/israel-mol/neoxanthin/spectra/emi/Gau-78044.inp" -scrdir="/home/padawan/israel-mol/neoxanthin/spectra/emi/"
 Entering Link 1 = /usr/local/g16/l1.exe PID=     78046.
  
 Copyright (c) 1988,1990,1992,1993,1995,1998,2003,2009,2016,
            Gaussian, Inc.  All Rights Reserved.
  
 This is part of the Gaussian(R) 16 program.  It is based on
 the Gaussian(R) 09 system (copyright 2009, Gaussian, Inc.),
 the Gaussian(R) 03 system (copyright 2003, Gaussian, Inc.),
 the Gaussian(R) 98 system (copyright 1998, Gaussian, Inc.),
 the Gaussian(R) 94 system (copyright 1995, Gaussian, Inc.),
 the Gaussian 92(TM) system (copyright 1992, Gaussian, Inc.),
 the Gaussian 90(TM) system (copyright 1990, Gaussian, Inc.),
 the Gaussian 88(TM) system (copyright 1988, Gaussian, Inc.),
 the Gaussian 86(TM) system (copyright 1986, Carnegie Mellon
 University), and the Gaussian 82(TM) system (copyright 1983,
 Carnegie Mellon University). Gaussian is a federally registered
 trademark of Gaussian, Inc.
  
 This software contains proprietary and confidential information,
 including trade secrets, belonging to Gaussian, Inc.
  
 This software is provided under written license and may be
 used, copied, transmitted, or stored only in accord with that
 written license.
  
 The following legend is applicable only to US Government
 contracts under FAR:
  
                    RESTRICTED RIGHTS LEGEND
  
 Use, reproduction and disclosure by the US Government is
 subject to restrictions as set forth in subparagraphs (a)
 and (c) of the Commercial Computer Software - Restricted
 Rights clause in FAR 52.227-19.
  
 Gaussian, Inc.
 340 Quinnipiac St., Bldg. 40, Wallingford CT 06492
  
  
 ---------------------------------------------------------------
 Warning -- This program may not be used in any manner that
 competes with the business of Gaussian, Inc. or will provide
 assistance to any competitor of Gaussian, Inc.  The licensee
 of this program is prohibited from giving any competitor of
 Gaussian, Inc. access to this program.  By using this program,
 the user acknowledges that Gaussian, Inc. is engaged in the
 business of creating and licensing software in the field of
 computational chemistry and represents and warrants to the
 licensee that it is not a competitor of Gaussian, Inc. and that
 it will not use this program in any manner prohibited above.
 ---------------------------------------------------------------
  

 Cite this work as:
 Gaussian 16, Revision A.03,
 M. J. Frisch, G. W. Trucks, H. B. Schlegel, G. E. Scuseria, 
 M. A. Robb, J. R. Cheeseman, G. Scalmani, V. Barone, 
 G. A. Petersson, H. Nakatsuji, X. Li, M. Caricato, A. V. Marenich, 
 J. Bloino, B. G. Janesko, R. Gomperts, B. Mennucci, H. P. Hratchian, 
 J. V. Ortiz, A. F. Izmaylov, J. L. Sonnenberg, D. Williams-Young, 
 F. Ding, F. Lipparini, F. Egidi, J. Goings, B. Peng, A. Petrone, 
 T. Henderson, D. Ranasinghe, V. G. Zakrzewski, J. Gao, N. Rega, 
 G. Zheng, W. Liang, M. Hada, M. Ehara, K. Toyota, R. Fukuda, 
 J. Hasegawa, M. Ishida, T. Nakajima, Y. Honda, O. Kitao, H. Nakai, 
 T. Vreven, K. Throssell, J. A. Montgomery, Jr., J. E. Peralta, 
 F. Ogliaro, M. J. Bearpark, J. J. Heyd, E. N. Brothers, K. N. Kudin, 
 V. N. Staroverov, T. A. Keith, R. Kobayashi, J. Normand, 
 K. Raghavachari, A. P. Rendell, J. C. Burant, S. S. Iyengar, 
 J. Tomasi, M. Cossi, J. M. Millam, M. Klene, C. Adamo, R. Cammi, 
 J. W. Ochterski, R. L. Martin, K. Morokuma, O. Farkas, 
 J. B. Foresman, and D. J. Fox, Gaussian, Inc., Wallingford CT, 2016.
 
 ******************************************
 Gaussian 16:  ES64L-G16RevA.03 25-Dec-2016
                30-Jul-2019 
 ******************************************
 %nproc=3
 Will use up to    3 processors via shared memory.
 %Mem=2GB
 -------------------------------------
 # td=(NStates=1) CAM-B3LYP/6-31G(d,p)
 -------------------------------------
 1/38=1,172=1/1;
 2/12=2,17=6,18=5,40=1/2;
 3/5=1,6=6,7=101,11=9,25=1,30=1,74=-40/1,2,3,8;
 4//1;
 5/5=2,38=5/2;
 8/6=1,10=2,108=1/1;
 9/41=1,42=1,70=2/14;
 6/7=2,8=2,9=2,10=2/1;
 99/5=1,9=1/99;
 --
 TD
 --
 Symbolic Z-matrix:
 Charge =  0 Multiplicity = 1
 8                    -11.65977   0.22793  -1.65356 
 8                    -13.18453  -2.44023   1.15435 
 8                     10.54755  -1.2295   -2.17074 
 8                     14.61656  -0.91709  -0.2829 
 6                    -11.00535  -0.24694  -0.38322 
 6                    -11.48892  -1.14718  -1.31904 
 6                    -11.87297   0.42897   0.73277 
 6                    -12.77337  -1.81605  -1.12148 
 6                    -13.30149  -0.0353    0.65983 
 6                    -13.60928  -1.5261    0.20345 
 6                    -10.57159  -2.03069  -2.19395 
 6                    -9.5119    0.13079  -0.38239 
 6                    -11.29303   0.05239   2.108 
 6                    -11.81706   1.97886   0.63907 
 6                    -8.66823  -0.81543   0.17993 
 6                    -7.24653  -0.59189   0.32475 
 6                    -6.45398  -1.71615   0.8714 
 6                    -6.62343   0.67853   0.02623 
 6                    -5.2389    0.92057   0.02494 
 6                     12.01717   0.09056   1.11889 
 6                     11.57952  -0.67363  -1.42049 
 6                     12.76831  -1.19195   1.37337 
 6                     13.48109  -1.69355   0.01302 
 6                     12.54474  -1.87885  -1.03407 
 6                     11.04058  -0.04911  -0.09077 
 6                     11.08102   0.13597   2.36992 
 6                     12.87827   1.36511   1.06724 
 6                     12.31651   0.37587  -2.31241 
 6                    -4.67321   2.11945  -0.25863 
 6                     9.78813   0.38051  -0.0766 
 6                    -3.37503   2.5747   -0.32957 
 6                     8.54511   0.81474  -0.14385 
 6                    -3.02042   3.99768  -0.61383 
 6                    -2.25666   1.64224   0.02127 
 6                     7.40545   0.09237   0.07788 
 6                     7.64235  -1.35591   0.44848 
 6                     6.19669   0.58485  -0.01255 
 6                    -0.88991   1.93766  -0.12138 
 6                     4.9215    0.08139   0.2769 
 6                     0.05035   0.95811   0.0508 
 6                     3.78903   0.80575   0.13709 
 6                     1.45728   1.24138  -0.04223 
 6                     2.48206   0.38739   0.38529 
 6                     2.22744  -1.09411   0.89513 
 1                    -12.61911  -3.10224  -1.19079 
 1                    -13.52295  -1.65324  -2.05278 
 1                    -13.65018   0.17914   1.53369 
 1                    -13.7899   0.54914  -0.19077 
 1                    -14.56977  -1.68353  -0.05768 
 1                    -10.06285  -2.83142  -1.57709 
 1                    -11.36867  -2.32466  -2.94088 
 1                    -9.90772  -1.48128  -2.73256 
 1                    -9.0698    1.09137  -0.85277 
 1                    -10.53785   0.82095   2.66499 
 1                    -12.12423   0.10953   2.85555 
 1                    -10.67096  -1.13469   2.03855 
 1                    -12.31238   2.16454  -0.12892 
 1                    -12.37711   2.58206   1.54948 
 1                    -10.9297   2.2063    0.65157 
 1                    -12.1902  -2.12371   1.36904 
 1                    -9.06234  -1.78805   0.558 
 1                    -5.72888  -2.05886   0.20152 
 1                    -5.73103  -1.4547    1.67074 
 1                    -6.98664  -2.55826   1.2925 
 1                    -7.36489   1.48092  -0.22143 
 1                    -4.69269   0.1307    0.31031 
 1                     13.66431  -0.82521   2.18549 
 1                     12.20244  -1.91031   1.78779 
 1                     13.90891  -2.5647    0.23191 
 1                     13.18904  -2.18432  -1.82632 
 1                     11.7375  -2.62175  -0.83571 
 1                     11.40042   0.19288   3.39714 
 1                     10.61639   1.27294   2.12 
 1                     10.19358  -0.45182   2.35871 
 1                     13.6749   1.36076   0.37603 
 1                     12.1287   2.19948   1.21581 
 1                     13.29375   1.34102   2.08872 
 1                     12.54962  -0.2716   -3.13277 
 1                     11.67382   1.25251  -2.45529 
 1                     13.22406   0.78427  -1.72656 
 1                    -5.47587   2.90444  -0.299 
 1                     9.88975  -0.59283  -2.35842 
 1                     14.99247  -0.71683   0.70508 
 1                     8.51903   1.95347  -0.37974 
 1                    -2.40016   4.35193   0.28479 
 1                    -2.26982   4.16739  -1.40274 
 1                    -3.90718   4.68333  -0.66994 
 1                    -2.47075   0.59664   0.23301 
 1                     6.65455  -1.83617   0.2982 
 1                     8.30332  -1.72036  -0.3576 
 1                     8.11583  -1.32968   1.43174 
 1                     6.25815   1.80796  -0.16812 
 1                    -0.80289   3.01981  -0.59121 
 1                     5.05109  -1.05635   0.29369 
 1                    -0.33678  -0.07114   0.47668 
 1                     4.02134   1.94112  -0.07427 
 1                     1.7064    2.2467   -0.47968 
 1                     1.11902  -1.14334   1.19545 
 1                     2.44949  -1.73168   0.01957 
 1                     2.70813  -1.3063    1.72437 
 
 Stoichiometry    C40H56O4
 Framework group  C1[X(C40H56O4)]
 Deg. of freedom   294
 Full point group                 C1      NOp   1
 Largest Abelian subgroup         C1      NOp   1
 Largest concise Abelian subgroup C1      NOp   1
                         Standard orientation:                         
 ---------------------------------------------------------------------
 Center     Atomic      Atomic             Coordinates (Angstroms)
 Number     Number       Type             X           Y           Z
 ---------------------------------------------------------------------
      1          8           0       11.658759    0.060209    1.673628
      2          8           0       13.183630   -2.336890   -1.368913
      3          8           0      -10.549932   -1.422102    2.039155
      4          8           0      -14.617390   -0.932678    0.185893
      5          6           0       11.004897   -0.294171    0.364266
      6          6           0       11.487179   -1.277772    1.212772
      7          6           0       11.873772    0.481772   -0.683599
      8          6           0       12.771309   -1.926391    0.954782
      9          6           0       13.301916    0.011651   -0.653170
     10          6           0       13.608346   -1.515318   -0.336977
     11          6           0       10.568627   -2.238003    2.001292
     12          6           0        9.511713    0.083136    0.397558
     13          6           0       11.294533    0.234940   -2.088213
     14          6           0       11.818878    2.016313   -0.446439
     15          6           0        8.667780   -0.806149   -0.250712
     16          6           0        7.246340   -0.569052   -0.375058
     17          6           0        6.453388   -1.637100   -1.024230
     18          6           0        6.623911    0.668638    0.039724
     19          6           0        5.239555    0.910567    0.062608
     20          6           0      -12.016321    0.198795   -1.114640
     21          6           0      -11.580982   -0.798194    1.343095
     22          6           0      -12.768178   -1.053981   -1.487573
     23          6           0      -13.482261   -1.679175   -0.180116
     24          6           0      -12.546773   -1.961598    0.845835
     25          6           0      -11.040679   -0.053322    0.077450
     26          6           0      -11.079259    0.359450   -2.355454
     27          6           0      -12.876569    1.463698   -0.945424
     28          6           0      -12.317870    0.164522    2.328134
     29          6           0        4.674501    2.078371    0.455902
     30          6           0       -9.787919    0.374807    0.104022
     31          6           0        3.376587    2.526044    0.567980
     32          6           0       -8.544649    0.799974    0.212086
     33          6           0        3.022770    3.916760    0.982901
     34          6           0        2.257815    1.631034    0.131369
     35          6           0       -7.405332    0.100448   -0.075027
     36          6           0       -7.642979   -1.306990   -0.578648
     37          6           0       -6.196295    0.581484    0.061497
     38          6           0        0.891172    1.912977    0.299964
     39          6           0       -4.921255    0.106106   -0.272631
     40          6           0       -0.049654    0.954354    0.036988
     41          6           0       -3.788374    0.813501   -0.065449
     42          6           0       -1.456447    1.228827    0.155015
     43          6           0       -2.481519    0.418998   -0.350596
     44          6           0       -2.227579   -1.008962   -0.995617
     45          1           0       12.616105   -3.213345    0.904280
     46          1           0       13.520342   -1.851316    1.897650
     47          1           0       13.651374    0.306038   -1.503119
     48          1           0       13.790135    0.514224    0.248330
     49          1           0       14.568549   -1.697034   -0.090977
     50          1           0       10.059765   -2.977618    1.312431
     51          1           0       11.364971   -2.600654    2.718209
     52          1           0        9.904761   -1.740468    2.588166
     53          1           0        9.069947    0.996231    0.954814
     54          1           0       10.540279    1.052470   -2.571926
     55          1           0       12.126300    0.360607   -2.826709
     56          1           0       10.671590   -0.952988   -2.129681
     57          1           0       12.313789    2.129512    0.335789
     58          1           0       12.379990    2.701009   -1.296554
     59          1           0       10.931687    2.244603   -0.438330
     60          1           0       12.189674   -2.001043   -1.553919
     61          1           0        9.061475   -1.739762   -0.717208
     62          1           0        5.727582   -2.039973   -0.389526
     63          1           0        5.731179   -1.302018   -1.796299
     64          1           0        6.985757   -2.436878   -1.521354
     65          1           0        7.365755    1.444003    0.361289
     66          1           0        4.692988    0.151016   -0.295210
     67          1           0      -13.663349   -0.612745   -2.262706
     68          1           0      -12.202508   -1.731187   -1.966541
     69          1           0      -13.910534   -2.525908   -0.479217
     70          1           0      -13.191839   -2.338818    1.605890
     71          1           0      -11.739916   -2.683484    0.579872
     72          1           0      -11.397898    0.511728   -3.373161
     73          1           0      -10.614012    1.467956   -2.000757
     74          1           0      -10.192234   -0.227518   -2.398305
     75          1           0      -13.673691    1.395801   -0.258111
     76          1           0      -12.126309    2.307688   -1.015406
     77          1           0      -13.291342    1.534864   -1.964988
     78          1           0      -12.552005   -0.556140    3.084689
     79          1           0      -11.674677    1.023622    2.552204
     80          1           0      -13.224729    0.626247    1.782159
     81          1           0        5.477674    2.855613    0.569490
     82          1           0       -9.891821   -0.806101    2.285551
     83          1           0      -14.992474   -0.641271   -0.779467
     84          1           0       -8.517941    1.911865    0.552695
     85          1           0        2.403379    4.353382    0.120654
     86          1           0        2.271726    4.013063    1.783686
     87          1           0        3.909961    4.593562    1.102986
     88          1           0        2.471320    0.609453   -0.176399
     89          1           0       -6.655619   -1.799878   -0.472977
     90          1           0       -8.304766   -1.744199    0.189695
     91          1           0       -8.115752   -1.189218   -1.555518
     92          1           0       -6.257012    1.784922    0.329919
     93          1           0        0.804574    2.946891    0.868179
     94          1           0       -5.051623   -1.025061   -0.395066
     95          1           0        0.337063   -0.031201   -0.482371
     96          1           0       -4.020045    1.924519    0.250259
     97          1           0       -1.705174    2.189383    0.683760
     98          1           0       -1.118981   -1.030934   -1.298507
     99          1           0       -2.450682   -1.724895   -0.183180
    100          1           0       -2.707829   -1.142882   -1.841279
 ---------------------------------------------------------------------
 Rotational constants (GHZ):           0.2648030           0.0088571           0.0087756
 Standard basis: 6-31G(d,p) (6D, 7F)
 There are   940 symmetry adapted cartesian basis functions of A   symmetry.
 There are   940 symmetry adapted basis functions of A   symmetry.
   940 basis functions,  1624 primitive gaussians,   940 cartesian basis functions
   164 alpha electrons      164 beta electrons
       nuclear repulsion energy      4453.8962303454 Hartrees.
 NAtoms=  100 NActive=  100 NUniq=  100 SFac= 1.00D+00 NAtFMM=   60 NAOKFM=T Big=T
 Integral buffers will be    131072 words long.
 Raffenetti 1 integral format.
 Two-electron integral symmetry is turned on.
 One-electron integrals computed using PRISM.
 NBasis=   940 RedAO= T EigKep=  3.79D-04  NBF=   940
 NBsUse=   940 1.00D-06 EigRej= -1.00D+00 NBFU=   940
 ExpMin= 1.61D-01 ExpMax= 5.48D+03 ExpMxC= 8.25D+02 IAcc=3 IRadAn=         5 AccDes= 0.00D+00
 Harris functional with IExCor=20419 and IRadAn=       5 diagonalized for initial guess.
 HarFok:  IExCor=20419 AccDes= 0.00D+00 IRadAn=         5 IDoV= 1 UseB2=F ITyADJ=14
 ICtDFT=  3500011 ScaDFX=  1.000000  1.000000  1.000000  1.000000
 FoFCou: FMM=F IPFlag=           0 FMFlag=      100000 FMFlg1=        2001
         NFxFlg=           0 DoJE=T BraDBF=F KetDBF=T FulRan=T
         wScrn=  0.000000 ICntrl=       500 IOpCl=  0 I1Cent=   200000004 NGrid=           0
         NMat0=    1 NMatS0=      1 NMatT0=    0 NMatD0=    1 NMtDS0=    0 NMtDT0=    0
 Petite list used in FoFCou.
 Requested convergence on RMS density matrix=1.00D-08 within 128 cycles.
 Requested convergence on MAX density matrix=1.00D-06.
 Requested convergence on             energy=1.00D-06.
 No special actions if energy rises.
 Integral accuracy reduced to 1.0D-05 until final iterations.
 Initial convergence to 1.0D-05 achieved.  Increase integral accuracy.
 SCF Done:  E(RCAM-B3LYP) =  -1857.24509268     A.U. after   15 cycles
            NFock= 15  Conv=0.72D-08     -V/T= 2.0093
 DoSCS=F DFT=T ScalE2(SS,OS)=  1.000000  1.000000
 ExpMin= 1.61D-01 ExpMax= 5.48D+03 ExpMxC= 8.25D+02 IAcc=3 IRadAn=         5 AccDes= 0.00D+00
 HarFok:  IExCor=  205 AccDes= 0.00D+00 IRadAn=         5 IDoV=-2 UseB2=F ITyADJ=14
 ICtDFT= 12500011 ScaDFX=  1.000000  1.000000  1.000000  1.000000
 GSVD:  LWork=       -2288 too small for GESVD, short by       10340 words or       10340 for optimal perf.
 Range of M.O.s used for correlation:    45   940
 NBasis=   940 NAE=   164 NBE=   164 NFC=    44 NFV=     0
 NROrb=    896 NOA=   120 NOB=   120 NVA=   776 NVB=   776
 Orbital symmetries:
       Occupied  (A) (A) (A) (A) (A) (A) (A) (A) (A) (A) (A) (A)
                 (A) (A) (A) (A) (A) (A) (A) (A) (A) (A) (A) (A)
                 (A) (A) (A) (A) (A) (A) (A) (A) (A) (A) (A) (A)
                 (A) (A) (A) (A) (A) (A) (A) (A) (A) (A) (A) (A)
                 (A) (A) (A) (A) (A) (A) (A) (A) (A) (A) (A) (A)
                 (A) (A) (A) (A) (A) (A) (A) (A) (A) (A) (A) (A)
                 (A) (A) (A) (A) (A) (A) (A) (A) (A) (A) (A) (A)
                 (A) (A) (A) (A) (A) (A) (A) (A) (A) (A) (A) (A)
                 (A) (A) (A) (A) (A) (A) (A) (A) (A) (A) (A) (A)
                 (A) (A) (A) (A) (A) (A) (A) (A) (A) (A) (A) (A)
                 (A) (A) (A) (A) (A) (A) (A) (A) (A) (A) (A) (A)
                 (A) (A) (A) (A) (A) (A) (A) (A) (A) (A) (A) (A)
                 (A) (A) (A) (A) (A) (A) (A) (A) (A) (A) (A) (A)
                 (A) (A) (A) (A) (A) (A) (A) (A)
       Virtual   (A) (A) (A) (A) (A) (A) (A) (A) (A) (A) (A) (A)
                 (A) (A) (A) (A) (A) (A) (A) (A) (A) (A) (A) (A)
                 (A) (A) (A) (A) (A) (A) (A) (A) (A) (A) (A) (A)
                 (A) (A) (A) (A) (A) (A) (A) (A) (A) (A) (A) (A)
                 (A) (A) (A) (A) (A) (A) (A) (A) (A) (A) (A) (A)
                 (A) (A) (A) (A) (A) (A) (A) (A) (A) (A) (A) (A)
                 (A) (A) (A) (A) (A) (A) (A) (A) (A) (A) (A) (A)
                 (A) (A) (A) (A) (A) (A) (A) (A) (A) (A) (A) (A)
                 (A) (A) (A) (A) (A) (A) (A) (A) (A) (A) (A) (A)
                 (A) (A) (A) (A) (A) (A) (A) (A) (A) (A) (A) (A)
                 (A) (A) (A) (A) (A) (A) (A) (A) (A) (A) (A) (A)
                 (A) (A) (A) (A) (A) (A) (A) (A) (A) (A) (A) (A)
                 (A) (A) (A) (A) (A) (A) (A) (A) (A) (A) (A) (A)
                 (A) (A) (A) (A) (A) (A) (A) (A) (A) (A) (A) (A)
                 (A) (A) (A) (A) (A) (A) (A) (A) (A) (A) (A) (A)
                 (A) (A) (A) (A) (A) (A) (A) (A) (A) (A) (A) (A)
                 (A) (A) (A) (A) (A) (A) (A) (A) (A) (A) (A) (A)
                 (A) (A) (A) (A) (A) (A) (A) (A) (A) (A) (A) (A)
                 (A) (A) (A) (A) (A) (A) (A) (A) (A) (A) (A) (A)
                 (A) (A) (A) (A) (A) (A) (A) (A) (A) (A) (A) (A)
                 (A) (A) (A) (A) (A) (A) (A) (A) (A) (A) (A) (A)
                 (A) (A) (A) (A) (A) (A) (A) (A) (A) (A) (A) (A)
                 (A) (A) (A) (A) (A) (A) (A) (A) (A) (A) (A) (A)
                 (A) (A) (A) (A) (A) (A) (A) (A) (A) (A) (A) (A)
                 (A) (A) (A) (A) (A) (A) (A) (A) (A) (A) (A) (A)
                 (A) (A) (A) (A) (A) (A) (A) (A) (A) (A) (A) (A)
                 (A) (A) (A) (A) (A) (A) (A) (A) (A) (A) (A) (A)
                 (A) (A) (A) (A) (A) (A) (A) (A) (A) (A) (A) (A)
                 (A) (A) (A) (A) (A) (A) (A) (A) (A) (A) (A) (A)
                 (A) (A) (A) (A) (A) (A) (A) (A) (A) (A) (A) (A)
                 (A) (A) (A) (A) (A) (A) (A) (A) (A) (A) (A) (A)
                 (A) (A) (A) (A) (A) (A) (A) (A) (A) (A) (A) (A)
                 (A) (A) (A) (A) (A) (A) (A) (A) (A) (A) (A) (A)
                 (A) (A) (A) (A) (A) (A) (A) (A) (A) (A) (A) (A)
                 (A) (A) (A) (A) (A) (A) (A) (A) (A) (A) (A) (A)
                 (A) (A) (A) (A) (A) (A) (A) (A) (A) (A) (A) (A)
                 (A) (A) (A) (A) (A) (A) (A) (A) (A) (A) (A) (A)
                 (A) (A) (A) (A) (A) (A) (A) (A) (A) (A) (A) (A)
                 (A) (A) (A) (A) (A) (A) (A) (A) (A) (A) (A) (A)
                 (A) (A) (A) (A) (A) (A) (A) (A) (A) (A) (A) (A)
                 (A) (A) (A) (A) (A) (A) (A) (A) (A) (A) (A) (A)
                 (A) (A) (A) (A) (A) (A) (A) (A) (A) (A) (A) (A)
                 (A) (A) (A) (A) (A) (A) (A) (A) (A) (A) (A) (A)
                 (A) (A) (A) (A) (A) (A) (A) (A) (A) (A) (A) (A)
                 (A) (A) (A) (A) (A) (A) (A) (A) (A) (A) (A) (A)
                 (A) (A) (A) (A) (A) (A) (A) (A) (A) (A) (A) (A)
                 (A) (A) (A) (A) (A) (A) (A) (A) (A) (A) (A) (A)
                 (A) (A) (A) (A) (A) (A) (A) (A) (A) (A) (A) (A)
                 (A) (A) (A) (A) (A) (A) (A) (A) (A) (A) (A) (A)
                 (A) (A) (A) (A) (A) (A) (A) (A) (A) (A) (A) (A)
                 (A) (A) (A) (A) (A) (A) (A) (A) (A) (A) (A) (A)
                 (A) (A) (A) (A) (A) (A) (A) (A) (A) (A) (A) (A)
                 (A) (A) (A) (A) (A) (A) (A) (A) (A) (A) (A) (A)
                 (A) (A) (A) (A) (A) (A) (A) (A) (A) (A) (A) (A)
                 (A) (A) (A) (A) (A) (A) (A) (A) (A) (A) (A) (A)
                 (A) (A) (A) (A) (A) (A) (A) (A) (A) (A) (A) (A)
                 (A) (A) (A) (A) (A) (A) (A) (A) (A) (A) (A) (A)
                 (A) (A) (A) (A) (A) (A) (A) (A) (A) (A) (A) (A)
                 (A) (A) (A) (A) (A) (A) (A) (A) (A) (A) (A) (A)
                 (A) (A) (A) (A) (A) (A) (A) (A) (A) (A) (A) (A)
                 (A) (A) (A) (A) (A) (A) (A) (A) (A) (A) (A) (A)
                 (A) (A) (A) (A) (A) (A) (A) (A) (A) (A) (A) (A)
                 (A) (A) (A) (A) (A) (A) (A) (A) (A) (A) (A) (A)
                 (A) (A) (A) (A) (A) (A) (A) (A) (A) (A) (A) (A)
                 (A) (A) (A) (A) (A) (A) (A) (A)
     4 initial guesses have been made.
 Convergence on wavefunction:    0.001000000000000
 Iteration     1 Dimension     4 NMult     0 NNew      4
 CISAX will form     4 AO SS matrices at one time.
 Iteration     2 Dimension     6 NMult     4 NNew      2
 Iteration     3 Dimension     8 NMult     6 NNew      2
 Iteration     4 Dimension    10 NMult     8 NNew      2
 Iteration     5 Dimension    12 NMult    10 NNew      2
 Iteration     6 Dimension    14 NMult    12 NNew      2
 ***********************************************************************
 Excited states from <AA,BB:AA,BB> singles matrix:
 ***********************************************************************
 
 Ground to excited state transition densities written to RWF  633
 Ground to excited state transition electric dipole moments (Au):
       state          X           Y           Z        Dip. S.      Osc.
         1        -7.6813      0.0048     -0.1523     59.0254      2.8405
 Ground to excited state transition velocity dipole moments (Au):
       state          X           Y           Z        Dip. S.      Osc.
         1         0.5387     -0.0003      0.0119      0.2904      2.6818
 Ground to excited state transition magnetic dipole moments (Au):
       state          X           Y           Z
         1         0.0098      0.2844     -2.1886
 Ground to excited state transition velocity quadrupole moments (Au):
       state          XX          YY          ZZ          XY          XZ          YZ
         1         1.4893      0.2071      0.0235     -0.2935     -0.0794      0.0384
 <0|del|b> * <b|rxdel|0> + <0|del|b> * <b|delr+rdel|0>
 Rotatory Strengths (R) in cgs (10**-40 erg-esu-cm/Gauss)
       state          XX          YY          ZZ    R(velocity)    E-M Angle
         1      -145.3722     16.7228    -75.9449    -68.1981       91.01
 1/2[<0|r|b>*<b|rxdel|0> + (<0|rxdel|b>*<b|r|0>)*]
 Rotatory Strengths (R) in cgs (10**-40 erg-esu-cm/Gauss)
       state          XX          YY          ZZ     R(length)
         1        53.1675     -0.9652   -235.7408    -61.1795
  1/2[<0|del|b>*<b|r|0> + (<0|r|b>*<b|del|0>)*] (Au)
       state          X           Y           Z        Dip. S.   Osc.(frdel)
         1        -4.1382     -0.0000     -0.0018      4.1400      2.7600

 Excitation energies and oscillator strengths:
 
 Excited State   1:      Singlet-A      1.9642 eV  631.21 nm  f=2.8405  <S**2>=0.000
     163 ->166         0.12446
     164 ->165         0.70117
     164 <-165        -0.11324
 This state for optimization and/or second-order correction.
 Total Energy, E(TD-HF/TD-DFT) =  -1857.17290856    
 Copying the excited state density for this state as the 1-particle RhoCI density.
 SavETr:  write IOETrn=   770 NScale= 10 NData=  16 NLR=1 NState=    1 LETran=      28.

 **********************************************************************

            Population analysis using the SCF density.

 **********************************************************************

 Orbital symmetries:
       Occupied  (A) (A) (A) (A) (A) (A) (A) (A) (A) (A) (A) (A)
                 (A) (A) (A) (A) (A) (A) (A) (A) (A) (A) (A) (A)
                 (A) (A) (A) (A) (A) (A) (A) (A) (A) (A) (A) (A)
                 (A) (A) (A) (A) (A) (A) (A) (A) (A) (A) (A) (A)
                 (A) (A) (A) (A) (A) (A) (A) (A) (A) (A) (A) (A)
                 (A) (A) (A) (A) (A) (A) (A) (A) (A) (A) (A) (A)
                 (A) (A) (A) (A) (A) (A) (A) (A) (A) (A) (A) (A)
                 (A) (A) (A) (A) (A) (A) (A) (A) (A) (A) (A) (A)
                 (A) (A) (A) (A) (A) (A) (A) (A) (A) (A) (A) (A)
                 (A) (A) (A) (A) (A) (A) (A) (A) (A) (A) (A) (A)
                 (A) (A) (A) (A) (A) (A) (A) (A) (A) (A) (A) (A)
                 (A) (A) (A) (A) (A) (A) (A) (A) (A) (A) (A) (A)
                 (A) (A) (A) (A) (A) (A) (A) (A) (A) (A) (A) (A)
                 (A) (A) (A) (A) (A) (A) (A) (A)
       Virtual   (A) (A) (A) (A) (A) (A) (A) (A) (A) (A) (A) (A)
                 (A) (A) (A) (A) (A) (A) (A) (A) (A) (A) (A) (A)
                 (A) (A) (A) (A) (A) (A) (A) (A) (A) (A) (A) (A)
                 (A) (A) (A) (A) (A) (A) (A) (A) (A) (A) (A) (A)
                 (A) (A) (A) (A) (A) (A) (A) (A) (A) (A) (A) (A)
                 (A) (A) (A) (A) (A) (A) (A) (A) (A) (A) (A) (A)
                 (A) (A) (A) (A) (A) (A) (A) (A) (A) (A) (A) (A)
                 (A) (A) (A) (A) (A) (A) (A) (A) (A) (A) (A) (A)
                 (A) (A) (A) (A) (A) (A) (A) (A) (A) (A) (A) (A)
                 (A) (A) (A) (A) (A) (A) (A) (A) (A) (A) (A) (A)
                 (A) (A) (A) (A) (A) (A) (A) (A) (A) (A) (A) (A)
                 (A) (A) (A) (A) (A) (A) (A) (A) (A) (A) (A) (A)
                 (A) (A) (A) (A) (A) (A) (A) (A) (A) (A) (A) (A)
                 (A) (A) (A) (A) (A) (A) (A) (A) (A) (A) (A) (A)
                 (A) (A) (A) (A) (A) (A) (A) (A) (A) (A) (A) (A)
                 (A) (A) (A) (A) (A) (A) (A) (A) (A) (A) (A) (A)
                 (A) (A) (A) (A) (A) (A) (A) (A) (A) (A) (A) (A)
                 (A) (A) (A) (A) (A) (A) (A) (A) (A) (A) (A) (A)
                 (A) (A) (A) (A) (A) (A) (A) (A) (A) (A) (A) (A)
                 (A) (A) (A) (A) (A) (A) (A) (A) (A) (A) (A) (A)
                 (A) (A) (A) (A) (A) (A) (A) (A) (A) (A) (A) (A)
                 (A) (A) (A) (A) (A) (A) (A) (A) (A) (A) (A) (A)
                 (A) (A) (A) (A) (A) (A) (A) (A) (A) (A) (A) (A)
                 (A) (A) (A) (A) (A) (A) (A) (A) (A) (A) (A) (A)
                 (A) (A) (A) (A) (A) (A) (A) (A) (A) (A) (A) (A)
                 (A) (A) (A) (A) (A) (A) (A) (A) (A) (A) (A) (A)
                 (A) (A) (A) (A) (A) (A) (A) (A) (A) (A) (A) (A)
                 (A) (A) (A) (A) (A) (A) (A) (A) (A) (A) (A) (A)
                 (A) (A) (A) (A) (A) (A) (A) (A) (A) (A) (A) (A)
                 (A) (A) (A) (A) (A) (A) (A) (A) (A) (A) (A) (A)
                 (A) (A) (A) (A) (A) (A) (A) (A) (A) (A) (A) (A)
                 (A) (A) (A) (A) (A) (A) (A) (A) (A) (A) (A) (A)
                 (A) (A) (A) (A) (A) (A) (A) (A) (A) (A) (A) (A)
                 (A) (A) (A) (A) (A) (A) (A) (A) (A) (A) (A) (A)
                 (A) (A) (A) (A) (A) (A) (A) (A) (A) (A) (A) (A)
                 (A) (A) (A) (A) (A) (A) (A) (A) (A) (A) (A) (A)
                 (A) (A) (A) (A) (A) (A) (A) (A) (A) (A) (A) (A)
                 (A) (A) (A) (A) (A) (A) (A) (A) (A) (A) (A) (A)
                 (A) (A) (A) (A) (A) (A) (A) (A) (A) (A) (A) (A)
                 (A) (A) (A) (A) (A) (A) (A) (A) (A) (A) (A) (A)
                 (A) (A) (A) (A) (A) (A) (A) (A) (A) (A) (A) (A)
                 (A) (A) (A) (A) (A) (A) (A) (A) (A) (A) (A) (A)
                 (A) (A) (A) (A) (A) (A) (A) (A) (A) (A) (A) (A)
                 (A) (A) (A) (A) (A) (A) (A) (A) (A) (A) (A) (A)
                 (A) (A) (A) (A) (A) (A) (A) (A) (A) (A) (A) (A)
                 (A) (A) (A) (A) (A) (A) (A) (A) (A) (A) (A) (A)
                 (A) (A) (A) (A) (A) (A) (A) (A) (A) (A) (A) (A)
                 (A) (A) (A) (A) (A) (A) (A) (A) (A) (A) (A) (A)
                 (A) (A) (A) (A) (A) (A) (A) (A) (A) (A) (A) (A)
                 (A) (A) (A) (A) (A) (A) (A) (A) (A) (A) (A) (A)
                 (A) (A) (A) (A) (A) (A) (A) (A) (A) (A) (A) (A)
                 (A) (A) (A) (A) (A) (A) (A) (A) (A) (A) (A) (A)
                 (A) (A) (A) (A) (A) (A) (A) (A) (A) (A) (A) (A)
                 (A) (A) (A) (A) (A) (A) (A) (A) (A) (A) (A) (A)
                 (A) (A) (A) (A) (A) (A) (A) (A) (A) (A) (A) (A)
                 (A) (A) (A) (A) (A) (A) (A) (A) (A) (A) (A) (A)
                 (A) (A) (A) (A) (A) (A) (A) (A) (A) (A) (A) (A)
                 (A) (A) (A) (A) (A) (A) (A) (A) (A) (A) (A) (A)
                 (A) (A) (A) (A) (A) (A) (A) (A) (A) (A) (A) (A)
                 (A) (A) (A) (A) (A) (A) (A) (A) (A) (A) (A) (A)
                 (A) (A) (A) (A) (A) (A) (A) (A) (A) (A) (A) (A)
                 (A) (A) (A) (A) (A) (A) (A) (A) (A) (A) (A) (A)
                 (A) (A) (A) (A) (A) (A) (A) (A) (A) (A) (A) (A)
                 (A) (A) (A) (A) (A) (A) (A) (A) (A) (A) (A) (A)
                 (A) (A) (A) (A) (A) (A) (A) (A)
 The electronic state is 1-A.
 Alpha  occ. eigenvalues --  -19.22334 -19.21378 -19.21182 -19.21111 -10.32178
 Alpha  occ. eigenvalues --  -10.31921 -10.31635 -10.30053 -10.29099 -10.28848
 Alpha  occ. eigenvalues --  -10.28610 -10.28506 -10.28226 -10.28113 -10.28075
 Alpha  occ. eigenvalues --  -10.28064 -10.28049 -10.27805 -10.27523 -10.27415
 Alpha  occ. eigenvalues --  -10.27223 -10.27115 -10.27082 -10.27061 -10.27027
 Alpha  occ. eigenvalues --  -10.27019 -10.26920 -10.26915 -10.26683 -10.26550
 Alpha  occ. eigenvalues --  -10.26400 -10.26178 -10.26036 -10.25929 -10.25644
 Alpha  occ. eigenvalues --  -10.25501 -10.25360 -10.25297 -10.25261 -10.25219
 Alpha  occ. eigenvalues --  -10.24803 -10.24406 -10.24048 -10.22876  -1.14359
 Alpha  occ. eigenvalues --   -1.11487  -1.09347  -1.08813  -0.93619  -0.92547
 Alpha  occ. eigenvalues --   -0.92266  -0.91528  -0.91134  -0.90233  -0.87947
 Alpha  occ. eigenvalues --   -0.86754  -0.85913  -0.85688  -0.84806  -0.83242
 Alpha  occ. eigenvalues --   -0.82601  -0.80575  -0.80488  -0.78567  -0.77652
 Alpha  occ. eigenvalues --   -0.77446  -0.76880  -0.76698  -0.76456  -0.75725
 Alpha  occ. eigenvalues --   -0.75444  -0.74527  -0.73259  -0.71146  -0.70419
 Alpha  occ. eigenvalues --   -0.69064  -0.67496  -0.66124  -0.65295  -0.64965
 Alpha  occ. eigenvalues --   -0.63494  -0.61699  -0.60813  -0.59953  -0.59439
 Alpha  occ. eigenvalues --   -0.58899  -0.58314  -0.57746  -0.56859  -0.56679
 Alpha  occ. eigenvalues --   -0.55995  -0.55456  -0.55169  -0.54646  -0.54133
 Alpha  occ. eigenvalues --   -0.53341  -0.53134  -0.52900  -0.52450  -0.52190
 Alpha  occ. eigenvalues --   -0.51887  -0.51400  -0.51287  -0.50829  -0.50623
 Alpha  occ. eigenvalues --   -0.50005  -0.49877  -0.49745  -0.49371  -0.49070
 Alpha  occ. eigenvalues --   -0.48320  -0.48067  -0.47827  -0.47490  -0.46727
 Alpha  occ. eigenvalues --   -0.46425  -0.46283  -0.45892  -0.45732  -0.45488
 Alpha  occ. eigenvalues --   -0.45294  -0.45021  -0.44592  -0.44536  -0.44275
 Alpha  occ. eigenvalues --   -0.44166  -0.44064  -0.43687  -0.43625  -0.43162
 Alpha  occ. eigenvalues --   -0.42943  -0.42806  -0.41881  -0.41409  -0.41384
 Alpha  occ. eigenvalues --   -0.41242  -0.40583  -0.40390  -0.40211  -0.40000
 Alpha  occ. eigenvalues --   -0.39636  -0.39467  -0.39403  -0.39173  -0.38604
 Alpha  occ. eigenvalues --   -0.38396  -0.38135  -0.37590  -0.37293  -0.37260
 Alpha  occ. eigenvalues --   -0.36768  -0.36320  -0.35626  -0.35153  -0.34715
 Alpha  occ. eigenvalues --   -0.32910  -0.31896  -0.31595  -0.30662  -0.30261
 Alpha  occ. eigenvalues --   -0.29557  -0.28092  -0.24169  -0.19315
 Alpha virt. eigenvalues --   -0.06846  -0.01192   0.02623   0.06122   0.06743
 Alpha virt. eigenvalues --    0.07416   0.08744   0.10530   0.11264   0.11509
 Alpha virt. eigenvalues --    0.12331   0.12790   0.12949   0.13342   0.13475
 Alpha virt. eigenvalues --    0.14247   0.14386   0.14555   0.14745   0.14899
 Alpha virt. eigenvalues --    0.15079   0.15376   0.15530   0.16028   0.16296
 Alpha virt. eigenvalues --    0.16635   0.16783   0.17086   0.17420   0.17825
 Alpha virt. eigenvalues --    0.17914   0.18374   0.18569   0.18972   0.19484
 Alpha virt. eigenvalues --    0.19604   0.19962   0.20020   0.20194   0.20499
 Alpha virt. eigenvalues --    0.20562   0.20633   0.21336   0.21634   0.21695
 Alpha virt. eigenvalues --    0.22089   0.22212   0.22304   0.22858   0.23095
 Alpha virt. eigenvalues --    0.23194   0.23594   0.24046   0.24120   0.24445
 Alpha virt. eigenvalues --    0.24674   0.24704   0.24893   0.24954   0.25338
 Alpha virt. eigenvalues --    0.25899   0.26409   0.26740   0.26912   0.27140
 Alpha virt. eigenvalues --    0.27618   0.27797   0.28137   0.28482   0.28665
 Alpha virt. eigenvalues --    0.28949   0.29108   0.29167   0.29629   0.29975
 Alpha virt. eigenvalues --    0.30729   0.30845   0.31495   0.31600   0.32080
 Alpha virt. eigenvalues --    0.32245   0.32546   0.32651   0.33081   0.34022
 Alpha virt. eigenvalues --    0.34160   0.34736   0.35838   0.36631   0.36775
 Alpha virt. eigenvalues --    0.37160   0.37513   0.37890   0.39679   0.39802
 Alpha virt. eigenvalues --    0.40485   0.41174   0.41619   0.42977   0.43198
 Alpha virt. eigenvalues --    0.43718   0.44909   0.45256   0.45600   0.46555
 Alpha virt. eigenvalues --    0.47555   0.48863   0.49387   0.51046   0.52485
 Alpha virt. eigenvalues --    0.53486   0.54174   0.54648   0.55186   0.56151
 Alpha virt. eigenvalues --    0.56371   0.56645   0.56843   0.57259   0.57499
 Alpha virt. eigenvalues --    0.57670   0.58063   0.58320   0.58850   0.59063
 Alpha virt. eigenvalues --    0.59950   0.60217   0.60429   0.60979   0.61275
 Alpha virt. eigenvalues --    0.61788   0.62009   0.62159   0.62241   0.62399
 Alpha virt. eigenvalues --    0.62881   0.63224   0.63316   0.63600   0.63865
 Alpha virt. eigenvalues --    0.64064   0.64664   0.64881   0.65354   0.65463
 Alpha virt. eigenvalues --    0.65616   0.66201   0.66300   0.66571   0.66842
 Alpha virt. eigenvalues --    0.66966   0.66992   0.67511   0.67640   0.67855
 Alpha virt. eigenvalues --    0.68008   0.68398   0.68700   0.69046   0.69682
 Alpha virt. eigenvalues --    0.70090   0.70100   0.70406   0.70559   0.70720
 Alpha virt. eigenvalues --    0.71181   0.71927   0.72109   0.72544   0.73153
 Alpha virt. eigenvalues --    0.73595   0.74317   0.74521   0.75401   0.75478
 Alpha virt. eigenvalues --    0.75651   0.76227   0.76767   0.77295   0.77592
 Alpha virt. eigenvalues --    0.78139   0.78983   0.79171   0.79500   0.79564
 Alpha virt. eigenvalues --    0.79713   0.79950   0.80284   0.81323   0.81469
 Alpha virt. eigenvalues --    0.81595   0.81936   0.82496   0.82887   0.83176
 Alpha virt. eigenvalues --    0.83326   0.83778   0.83800   0.84352   0.84738
 Alpha virt. eigenvalues --    0.84890   0.85150   0.85282   0.85479   0.85642
 Alpha virt. eigenvalues --    0.86141   0.86571   0.86871   0.86904   0.87415
 Alpha virt. eigenvalues --    0.87699   0.88162   0.88472   0.88971   0.89144
 Alpha virt. eigenvalues --    0.89354   0.89707   0.89969   0.90481   0.90749
 Alpha virt. eigenvalues --    0.90958   0.91607   0.92296   0.92711   0.92761
 Alpha virt. eigenvalues --    0.93025   0.93231   0.93380   0.93723   0.93895
 Alpha virt. eigenvalues --    0.94118   0.94263   0.94756   0.94892   0.95038
 Alpha virt. eigenvalues --    0.95209   0.95472   0.96429   0.96710   0.96873
 Alpha virt. eigenvalues --    0.96955   0.97576   0.97802   0.98164   0.98383
 Alpha virt. eigenvalues --    0.98544   0.99028   0.99122   0.99633   0.99974
 Alpha virt. eigenvalues --    1.00255   1.01098   1.01416   1.01638   1.01938
 Alpha virt. eigenvalues --    1.02238   1.03333   1.03555   1.03950   1.04087
 Alpha virt. eigenvalues --    1.04557   1.04642   1.04841   1.05040   1.05482
 Alpha virt. eigenvalues --    1.06430   1.06567   1.07031   1.07579   1.07961
 Alpha virt. eigenvalues --    1.08664   1.08959   1.09576   1.09680   1.09744
 Alpha virt. eigenvalues --    1.10706   1.11302   1.11534   1.12612   1.13084
 Alpha virt. eigenvalues --    1.13627   1.13775   1.14300   1.14513   1.15484
 Alpha virt. eigenvalues --    1.16116   1.16791   1.16997   1.17114   1.19242
 Alpha virt. eigenvalues --    1.19929   1.20083   1.20502   1.20817   1.21324
 Alpha virt. eigenvalues --    1.21952   1.22786   1.23152   1.23916   1.24330
 Alpha virt. eigenvalues --    1.25161   1.25400   1.26123   1.26894   1.27734
 Alpha virt. eigenvalues --    1.28023   1.28102   1.28768   1.30225   1.30608
 Alpha virt. eigenvalues --    1.30773   1.31240   1.32063   1.32861   1.33481
 Alpha virt. eigenvalues --    1.33846   1.34395   1.35359   1.36758   1.36935
 Alpha virt. eigenvalues --    1.37713   1.37915   1.39077   1.39416   1.40254
 Alpha virt. eigenvalues --    1.40408   1.41821   1.42385   1.42867   1.43428
 Alpha virt. eigenvalues --    1.44444   1.44547   1.45655   1.46860   1.48071
 Alpha virt. eigenvalues --    1.48352   1.48833   1.49424   1.50746   1.52305
 Alpha virt. eigenvalues --    1.52668   1.52745   1.54273   1.54411   1.55158
 Alpha virt. eigenvalues --    1.55498   1.56696   1.57161   1.57426   1.57886
 Alpha virt. eigenvalues --    1.58760   1.58861   1.59246   1.59441   1.60347
 Alpha virt. eigenvalues --    1.60938   1.62338   1.62726   1.63817   1.64649
 Alpha virt. eigenvalues --    1.65554   1.65948   1.66263   1.67115   1.67534
 Alpha virt. eigenvalues --    1.68575   1.68700   1.69223   1.70019   1.71215
 Alpha virt. eigenvalues --    1.71397   1.72910   1.73831   1.74843   1.76466
 Alpha virt. eigenvalues --    1.76711   1.77000   1.77854   1.78103   1.78338
 Alpha virt. eigenvalues --    1.79259   1.79358   1.79748   1.81144   1.81519
 Alpha virt. eigenvalues --    1.81640   1.82419   1.83054   1.83572   1.84208
 Alpha virt. eigenvalues --    1.84385   1.84939   1.85505   1.85601   1.86016
 Alpha virt. eigenvalues --    1.86809   1.87039   1.87406   1.87756   1.88292
 Alpha virt. eigenvalues --    1.88545   1.88910   1.89032   1.89314   1.90253
 Alpha virt. eigenvalues --    1.90347   1.90711   1.91087   1.91350   1.92285
 Alpha virt. eigenvalues --    1.92297   1.92912   1.93452   1.93544   1.94053
 Alpha virt. eigenvalues --    1.94566   1.95627   1.95951   1.96633   1.96807
 Alpha virt. eigenvalues --    1.97490   1.97549   1.98077   1.98105   1.98398
 Alpha virt. eigenvalues --    1.99339   1.99486   2.00113   2.00203   2.00663
 Alpha virt. eigenvalues --    2.00995   2.01560   2.02062   2.02374   2.03208
 Alpha virt. eigenvalues --    2.03440   2.04597   2.05035   2.05095   2.05273
 Alpha virt. eigenvalues --    2.06122   2.06943   2.07250   2.07550   2.07716
 Alpha virt. eigenvalues --    2.08334   2.08908   2.09090   2.09609   2.09983
 Alpha virt. eigenvalues --    2.10315   2.10576   2.11044   2.11714   2.11916
 Alpha virt. eigenvalues --    2.12450   2.12611   2.12835   2.13324   2.13418
 Alpha virt. eigenvalues --    2.13962   2.14271   2.14393   2.14769   2.14966
 Alpha virt. eigenvalues --    2.15182   2.15311   2.15942   2.16675   2.17251
 Alpha virt. eigenvalues --    2.17490   2.18307   2.18683   2.19168   2.19398
 Alpha virt. eigenvalues --    2.19969   2.20062   2.20381   2.20846   2.21116
 Alpha virt. eigenvalues --    2.21505   2.22174   2.22377   2.22607   2.23443
 Alpha virt. eigenvalues --    2.23854   2.23990   2.24554   2.25225   2.25567
 Alpha virt. eigenvalues --    2.25714   2.26446   2.26909   2.27213   2.27255
 Alpha virt. eigenvalues --    2.27557   2.27909   2.28646   2.28725   2.29124
 Alpha virt. eigenvalues --    2.29910   2.30168   2.30250   2.30773   2.31785
 Alpha virt. eigenvalues --    2.32496   2.33354   2.33550   2.33907   2.34439
 Alpha virt. eigenvalues --    2.34493   2.34672   2.35101   2.35429   2.35878
 Alpha virt. eigenvalues --    2.36369   2.36496   2.37801   2.38117   2.38529
 Alpha virt. eigenvalues --    2.38824   2.39185   2.39281   2.40008   2.40224
 Alpha virt. eigenvalues --    2.41210   2.42156   2.42438   2.42682   2.43094
 Alpha virt. eigenvalues --    2.43828   2.44666   2.45310   2.45966   2.45991
 Alpha virt. eigenvalues --    2.46256   2.46408   2.46918   2.47264   2.47479
 Alpha virt. eigenvalues --    2.47702   2.48228   2.48903   2.48910   2.49594
 Alpha virt. eigenvalues --    2.49892   2.50079   2.50908   2.51415   2.52031
 Alpha virt. eigenvalues --    2.53058   2.53192   2.53583   2.54816   2.55179
 Alpha virt. eigenvalues --    2.55668   2.55898   2.56712   2.56862   2.57511
 Alpha virt. eigenvalues --    2.57874   2.58604   2.59143   2.59391   2.59965
 Alpha virt. eigenvalues --    2.60415   2.60866   2.61099   2.61751   2.62018
 Alpha virt. eigenvalues --    2.62410   2.62972   2.63135   2.64166   2.64629
 Alpha virt. eigenvalues --    2.65003   2.65094   2.65775   2.66052   2.66941
 Alpha virt. eigenvalues --    2.67082   2.67349   2.67464   2.68335   2.68354
 Alpha virt. eigenvalues --    2.68988   2.69557   2.69779   2.70158   2.70723
 Alpha virt. eigenvalues --    2.71199   2.71935   2.72316   2.72999   2.73967
 Alpha virt. eigenvalues --    2.74298   2.74376   2.74624   2.74634   2.75427
 Alpha virt. eigenvalues --    2.75729   2.76125   2.76751   2.77244   2.77635
 Alpha virt. eigenvalues --    2.78758   2.79206   2.79239   2.79447   2.79597
 Alpha virt. eigenvalues --    2.79815   2.81143   2.81466   2.81863   2.82654
 Alpha virt. eigenvalues --    2.83231   2.83510   2.83796   2.84221   2.84969
 Alpha virt. eigenvalues --    2.85349   2.86466   2.87420   2.87698   2.88469
 Alpha virt. eigenvalues --    2.89046   2.89150   2.89599   2.90060   2.90826
 Alpha virt. eigenvalues --    2.90977   2.91785   2.92780   2.93433   2.94069
 Alpha virt. eigenvalues --    2.94167   2.94898   2.95231   2.95287   2.95808
 Alpha virt. eigenvalues --    2.96836   2.97804   2.98005   2.98270   2.99082
 Alpha virt. eigenvalues --    2.99552   2.99746   3.01038   3.01373   3.01682
 Alpha virt. eigenvalues --    3.02278   3.03180   3.03241   3.04730   3.05185
 Alpha virt. eigenvalues --    3.05612   3.06415   3.06926   3.07397   3.07923
 Alpha virt. eigenvalues --    3.08188   3.08868   3.09706   3.11735   3.12368
 Alpha virt. eigenvalues --    3.14778   3.15061   3.15459   3.16177   3.16629
 Alpha virt. eigenvalues --    3.17331   3.18650   3.18917   3.19075   3.20716
 Alpha virt. eigenvalues --    3.22295   3.22530   3.23291   3.25389   3.25561
 Alpha virt. eigenvalues --    3.27795   3.28804   3.29185   3.30192   3.30352
 Alpha virt. eigenvalues --    3.30674   3.31830   3.32077   3.34961   3.35692
 Alpha virt. eigenvalues --    3.37419   3.39676   3.40843   3.41605   3.42662
 Alpha virt. eigenvalues --    3.43031   3.44126   3.45254   3.45591   3.46084
 Alpha virt. eigenvalues --    3.46228   3.47942   3.48286   3.48929   3.49109
 Alpha virt. eigenvalues --    3.50864   3.50875   3.52316   3.53911   3.54928
 Alpha virt. eigenvalues --    3.55549   3.55706   3.56777   3.57397   3.60404
 Alpha virt. eigenvalues --    3.60697   3.62008   3.62187   3.62898   3.63844
 Alpha virt. eigenvalues --    3.64633   3.67761   3.69258   3.71522   3.73191
 Alpha virt. eigenvalues --    3.73538   3.75970   3.77039   3.81704   3.85902
 Alpha virt. eigenvalues --    3.99657   4.01598   4.02559   4.06844   4.09816
 Alpha virt. eigenvalues --    4.17603   4.18189   4.18783   4.19529   4.23522
 Alpha virt. eigenvalues --    4.24915   4.26262   4.28378   4.30788   4.34142
 Alpha virt. eigenvalues --    4.35482   4.37754   4.40302   4.43688   4.43818
 Alpha virt. eigenvalues --    4.45638   4.47967   4.49246   4.53509   4.53869
 Alpha virt. eigenvalues --    4.56368   4.57050   4.58563   4.59213   4.61023
 Alpha virt. eigenvalues --    4.61461   4.63484   4.66010   4.70631   4.72596
 Alpha virt. eigenvalues --    4.72973   4.75597   4.79344   4.82988   4.84688
 Alpha virt. eigenvalues --    4.85548   4.88703   4.90927   4.95370   4.96682
 Alpha virt. eigenvalues --    4.97580
          Condensed to atoms (all electrons):
 Mulliken charges:
               1
     1  O   -0.518478
     2  O   -0.537246
     3  O   -0.552489
     4  O   -0.566894
     5  C    0.123235
     6  C    0.311142
     7  C    0.009058
     8  C   -0.222978
     9  C   -0.176431
    10  C    0.157200
    11  C   -0.316521
    12  C   -0.108096
    13  C   -0.296707
    14  C   -0.248752
    15  C   -0.086710
    16  C    0.087741
    17  C   -0.402651
    18  C   -0.118863
    19  C   -0.030251
    20  C    0.019701
    21  C    0.237271
    22  C   -0.193637
    23  C    0.190997
    24  C   -0.200840
    25  C   -0.086001
    26  C   -0.318213
    27  C   -0.303874
    28  C   -0.299442
    29  C   -0.130480
    30  C    0.135360
    31  C    0.101631
    32  C   -0.277053
    33  C   -0.399518
    34  C   -0.123155
    35  C    0.121864
    36  C   -0.356465
    37  C   -0.110098
    38  C   -0.050377
    39  C   -0.089405
    40  C   -0.111938
    41  C   -0.105266
    42  C   -0.114331
    43  C    0.066709
    44  C   -0.345248
    45  H    0.072901
    46  H    0.089653
    47  H    0.099481
    48  H    0.101417
    49  H    0.102217
    50  H    0.109060
    51  H    0.109112
    52  H    0.127733
    53  H    0.121647
    54  H    0.097933
    55  H    0.115367
    56  H    0.036875
    57  H    0.129958
    58  H    0.069072
    59  H    0.104869
    60  H    0.302728
    61  H    0.085789
    62  H    0.135182
    63  H    0.120215
    64  H    0.112777
    65  H    0.071447
    66  H    0.066662
    67  H    0.036410
    68  H    0.112117
    69  H    0.088310
    70  H    0.112396
    71  H    0.124774
    72  H    0.106666
    73  H    0.060908
    74  H    0.119489
    75  H    0.133508
    76  H    0.107567
    77  H    0.097143
    78  H    0.122271
    79  H    0.093040
    80  H    0.111499
    81  H    0.071383
    82  H    0.303867
    83  H    0.312976
    84  H    0.105252
    85  H    0.126276
    86  H    0.132328
    87  H    0.116566
    88  H    0.078265
    89  H    0.094534
    90  H    0.128597
    91  H    0.130584
    92  H    0.040853
    93  H    0.078351
    94  H    0.077903
    95  H    0.089788
    96  H    0.085083
    97  H    0.092066
    98  H    0.094714
    99  H    0.133054
   100  H    0.135868
 Sum of Mulliken charges =  -0.00000
 Mulliken charges with hydrogens summed into heavy atoms:
               1
     1  O   -0.518478
     2  O   -0.234517
     3  O   -0.248622
     4  O   -0.253918
     5  C    0.123235
     6  C    0.311142
     7  C    0.009058
     8  C   -0.060424
     9  C    0.024467
    10  C    0.259417
    11  C    0.029384
    12  C    0.013551
    13  C   -0.046532
    14  C    0.055147
    15  C   -0.000921
    16  C    0.087741
    17  C   -0.034477
    18  C   -0.047416
    19  C    0.036410
    20  C    0.019701
    21  C    0.237271
    22  C   -0.045110
    23  C    0.279307
    24  C    0.036331
    25  C   -0.086001
    26  C   -0.031151
    27  C    0.034345
    28  C    0.027367
    29  C   -0.059097
    30  C    0.135360
    31  C    0.101631
    32  C   -0.171801
    33  C   -0.024348
    34  C   -0.044891
    35  C    0.121864
    36  C   -0.002749
    37  C   -0.069246
    38  C    0.027974
    39  C   -0.011502
    40  C   -0.022150
    41  C   -0.020183
    42  C   -0.022265
    43  C    0.066709
    44  C    0.018388
 Electronic spatial extent (au):  <R**2>=         114988.9541
 Charge=             -0.0000 electrons
 Dipole moment (field-independent basis, Debye):
    X=             -2.3308    Y=              1.0694    Z=             -2.5523  Tot=              3.6181
 Quadrupole moment (field-independent basis, Debye-Ang):
   XX=           -309.1389   YY=           -264.2627   ZZ=           -276.1650
   XY=              6.9633   XZ=             24.5650   YZ=              3.9210
 Traceless Quadrupole moment (field-independent basis, Debye-Ang):
   XX=            -25.9501   YY=             18.9262   ZZ=              7.0239
   XY=              6.9633   XZ=             24.5650   YZ=              3.9210
 Octapole moment (field-independent basis, Debye-Ang**2):
  XXX=           -638.0850  YYY=             21.7220  ZZZ=              0.9835  XYY=            -17.4636
  XXY=            231.1009  XXZ=           -383.5342  XZZ=            -61.0023  YZZ=             -6.5062
  YYZ=             20.4090  XYZ=           -107.9872
 Hexadecapole moment (field-independent basis, Debye-Ang**3):
 XXXX=        -157846.4284 YYYY=          -3715.6799 ZZZZ=          -2239.8661 XXXY=           2200.5594
 XXXZ=           6429.8699 YYYX=            323.1086 YYYZ=             38.0945 ZZZX=            -46.1437
 ZZZY=            -12.9213 XXYY=         -26145.9188 XXZZ=         -25859.7185 YYZZ=          -1029.2834
 XXYZ=           -470.7527 YYXZ=            159.6009 ZZXY=             46.4463
 N-N= 4.453896230345D+03 E-N=-1.321783834918D+04  KE= 1.840188253871D+03
 1\1\GINC-RYZEN-SSD3\SP\RCAM-B3LYP TD-FC\6-31G(d,p)\C40H56O4\PADAWAN\30
 -Jul-2019\0\\# td=(NStates=1) CAM-B3LYP/6-31G(d,p)\\TD\\0,1\O,0,-11.65
 97726449,0.2279334417,-1.6535625199\O,0,-13.1845292887,-2.4402323312,1
 .1543511201\O,0,10.5475502749,-1.2295028382,-2.1707408004\O,0,14.61655
 50222,-0.9170904305,-0.2829027777\C,0,-11.0053487021,-0.2469386486,-0.
 3832177462\C,0,-11.4889151812,-1.1471758975,-1.3190407444\C,0,-11.8729
 693399,0.4289695798,0.7327729323\C,0,-12.773372541,-1.8160517631,-1.12
 14837824\C,0,-13.3014886069,-0.0353009777,0.659830671\C,0,-13.60927736
 12,-1.5261041482,0.2034491122\C,0,-10.571592748,-2.0306884863,-2.19395
 17135\C,0,-9.5119006339,0.1307902128,-0.3823851966\C,0,-11.2930252799,
 0.052389643,2.1079958667\C,0,-11.8170620865,1.9788629894,0.6390719989\
 C,0,-8.6682302447,-0.8154295842,0.1799267317\C,0,-7.2465326429,-0.5918
 910352,0.3247501753\C,0,-6.4539794128,-1.7161503038,0.8713993762\C,0,-
 6.6234280045,0.6785286828,0.0262340682\C,0,-5.238903832,0.9205740941,0
 .0249381636\C,0,12.017170964,0.0905590854,1.1188914172\C,0,11.57951524
 16,-0.6736335186,-1.4204859283\C,0,12.7683140595,-1.191953425,1.373372
 0706\C,0,13.481092796,-1.6935538888,0.0130152659\C,0,12.5447394086,-1.
 8788523942,-1.0340673692\C,0,11.040580946,-0.0491101631,-0.0907718969\
 C,0,11.0810195069,0.135970239,2.3699193321\C,0,12.8782709438,1.3651097
 318,1.067239775\C,0,12.316507957,0.3758664599,-2.3124051883\C,0,-4.673
 2138171,2.1194544514,-0.258630712\C,0,9.7881300005,0.3805088537,-0.076
 5988366\C,0,-3.3750326617,2.5746962233,-0.329573218\C,0,8.5451142974,0
 .8147378076,-0.1438487249\C,0,-3.0204237275,3.9976812276,-0.6138311152
 \C,0,-2.2566625814,1.6422360723,0.0212695923\C,0,7.4054500875,0.092369
 825,0.0778786038\C,0,7.6423489714,-1.3559125434,0.4484847714\C,0,6.196
 6910171,0.5848454148,-0.0125451905\C,0,-0.8899131228,1.93766289,-0.121
 3803131\C,0,4.9215037532,0.0813872548,0.2768990587\C,0,0.0503515142,0.
 9581091208,0.0507959768\C,0,3.7890283105,0.8057509255,0.1370862396\C,0
 ,1.4572776686,1.2413758653,-0.0422266036\C,0,2.4820561061,0.3873880385
 ,0.3852918871\C,0,2.227442606,-1.0941135917,0.8951281064\H,0,-12.61911
 37122,-3.1022432021,-1.1907943034\H,0,-13.5229475185,-1.6532393081,-2.
 0527817329\H,0,-13.6501828205,0.1791449833,1.5336860513\H,0,-13.789898
 3834,0.5491400411,-0.1907714115\H,0,-14.5697742815,-1.6835270661,-0.05
 76841641\H,0,-10.0628549024,-2.8314199248,-1.5770930047\H,0,-11.368667
 0756,-2.3246572571,-2.9408823744\H,0,-9.9077229558,-1.4812773363,-2.73
 2564869\H,0,-9.0697956344,1.0913712681,-0.852769087\H,0,-10.5378451121
 ,0.8209533594,2.664992242\H,0,-12.1242277837,0.1095276544,2.8555539055
 \H,0,-10.6709577895,-1.1346903455,2.0385546452\H,0,-12.3123837809,2.16
 45425763,-0.128919676\H,0,-12.3771139508,2.5820637819,1.5494786597\H,0
 ,-10.9297032524,2.2063012206,0.6515694504\H,0,-12.1902020927,-2.123705
 2441,1.369041383\H,0,-9.0623370756,-1.7880471624,0.5580048994\H,0,-5.7
 288823343,-2.058859211,0.2015221078\H,0,-5.7310255179,-1.4547007027,1.
 6707354697\H,0,-6.9866387745,-2.5582580988,1.2924954003\H,0,-7.3648877
 999,1.4809164207,-0.2214318197\H,0,-4.6926859133,0.1307016886,0.310307
 255\H,0,13.6643121083,-0.8252142088,2.1854934899\H,0,12.2024354205,-1.
 910310411,1.7877947792\H,0,13.9089132482,-2.5646981348,0.2319101169\H,
 0,13.1890363421,-2.184324911,-1.8263157263\H,0,11.7375037586,-2.621751
 299,-0.835708913\H,0,11.4004196502,0.1928796547,3.3971447532\H,0,10.61
 63886166,1.2729428574,2.1199995242\H,0,10.1935769789,-0.4518234968,2.3
 587121124\H,0,13.6749043923,1.3607647007,0.376031668\H,0,12.1286954827
 ,2.1994793857,1.2158062863\H,0,13.2937452116,1.341018581,2.0887153531\
 H,0,12.5496157811,-0.27160377,-3.1327657285\H,0,11.6738244508,1.252507
 3416,-2.4552934642\H,0,13.2240632389,0.7842744803,-1.7265581412\H,0,-5
 .4758698109,2.9044448313,-0.2990013109\H,0,9.8897502256,-0.5928279404,
 -2.3584181776\H,0,14.9924720924,-0.7168314975,0.7050791072\H,0,8.51903
 37542,1.953467674,-0.3797352507\H,0,-2.4001550997,4.3519316429,0.28479
 43091\H,0,-2.2698157459,4.1673939642,-1.4027433834\H,0,-3.9071771028,4
 .6833265145,-0.6699367952\H,0,-2.4707466948,0.5966418762,0.2330103464\
 H,0,6.6545482047,-1.8361731794,0.2982023049\H,0,8.3033155461,-1.720356
 7605,-0.3575965338\H,0,8.1158315048,-1.3296752959,1.4317369346\H,0,6.2
 581509622,1.8079646019,-0.1681188316\H,0,-0.8028916462,3.0198060241,-0
 .5912090324\H,0,5.0510910955,-1.0563521319,0.2936920503\H,0,-0.3367826
 015,-0.0711389268,0.4766802791\H,0,4.021341302,1.9411197482,-0.0742696
 52\H,0,1.706397515,2.2467004619,-0.4796806665\H,0,1.1190207369,-1.1433
 409383,1.1954485405\H,0,2.4494862734,-1.7316794694,0.0195741874\H,0,2.
 7081275092,-1.3063048595,1.7243657232\\Version=ES64L-G16RevA.03\State=
 1-A\HF=-1857.2450927\RMSD=7.162e-09\PG=C01 [X(C40H56O4)]\\@


 A people that values its privileges above its principles soon loses both.
 -- Dwight D. Eisenhower
 Job cpu time:       0 days  6 hours 36 minutes 10.5 seconds.
 Elapsed time:       0 days  2 hours 12 minutes 17.7 seconds.
 File lengths (MBytes):  RWF=   3379 Int=      0 D2E=      0 Chk=     90 Scr=      1
 Normal termination of Gaussian 16 at Tue Jul 30 15:19:20 2019.
