 Entering Gaussian System, Link 0=g16
 Input=Geometria-341-.com
 Output=Geometria-341-.log
 Initial command:
 /usr/local/g16/l1.exe "/home/padawan/israel-mol/neoxanthin/spectra/emi/Gau-112375.inp" -scrdir="/home/padawan/israel-mol/neoxanthin/spectra/emi/"
 Entering Link 1 = /usr/local/g16/l1.exe PID=    112377.
  
 Copyright (c) 1988,1990,1992,1993,1995,1998,2003,2009,2016,
            Gaussian, Inc.  All Rights Reserved.
  
 This is part of the Gaussian(R) 16 program.  It is based on
 the Gaussian(R) 09 system (copyright 2009, Gaussian, Inc.),
 the Gaussian(R) 03 system (copyright 2003, Gaussian, Inc.),
 the Gaussian(R) 98 system (copyright 1998, Gaussian, Inc.),
 the Gaussian(R) 94 system (copyright 1995, Gaussian, Inc.),
 the Gaussian 92(TM) system (copyright 1992, Gaussian, Inc.),
 the Gaussian 90(TM) system (copyright 1990, Gaussian, Inc.),
 the Gaussian 88(TM) system (copyright 1988, Gaussian, Inc.),
 the Gaussian 86(TM) system (copyright 1986, Carnegie Mellon
 University), and the Gaussian 82(TM) system (copyright 1983,
 Carnegie Mellon University). Gaussian is a federally registered
 trademark of Gaussian, Inc.
  
 This software contains proprietary and confidential information,
 including trade secrets, belonging to Gaussian, Inc.
  
 This software is provided under written license and may be
 used, copied, transmitted, or stored only in accord with that
 written license.
  
 The following legend is applicable only to US Government
 contracts under FAR:
  
                    RESTRICTED RIGHTS LEGEND
  
 Use, reproduction and disclosure by the US Government is
 subject to restrictions as set forth in subparagraphs (a)
 and (c) of the Commercial Computer Software - Restricted
 Rights clause in FAR 52.227-19.
  
 Gaussian, Inc.
 340 Quinnipiac St., Bldg. 40, Wallingford CT 06492
  
  
 ---------------------------------------------------------------
 Warning -- This program may not be used in any manner that
 competes with the business of Gaussian, Inc. or will provide
 assistance to any competitor of Gaussian, Inc.  The licensee
 of this program is prohibited from giving any competitor of
 Gaussian, Inc. access to this program.  By using this program,
 the user acknowledges that Gaussian, Inc. is engaged in the
 business of creating and licensing software in the field of
 computational chemistry and represents and warrants to the
 licensee that it is not a competitor of Gaussian, Inc. and that
 it will not use this program in any manner prohibited above.
 ---------------------------------------------------------------
  

 Cite this work as:
 Gaussian 16, Revision A.03,
 M. J. Frisch, G. W. Trucks, H. B. Schlegel, G. E. Scuseria, 
 M. A. Robb, J. R. Cheeseman, G. Scalmani, V. Barone, 
 G. A. Petersson, H. Nakatsuji, X. Li, M. Caricato, A. V. Marenich, 
 J. Bloino, B. G. Janesko, R. Gomperts, B. Mennucci, H. P. Hratchian, 
 J. V. Ortiz, A. F. Izmaylov, J. L. Sonnenberg, D. Williams-Young, 
 F. Ding, F. Lipparini, F. Egidi, J. Goings, B. Peng, A. Petrone, 
 T. Henderson, D. Ranasinghe, V. G. Zakrzewski, J. Gao, N. Rega, 
 G. Zheng, W. Liang, M. Hada, M. Ehara, K. Toyota, R. Fukuda, 
 J. Hasegawa, M. Ishida, T. Nakajima, Y. Honda, O. Kitao, H. Nakai, 
 T. Vreven, K. Throssell, J. A. Montgomery, Jr., J. E. Peralta, 
 F. Ogliaro, M. J. Bearpark, J. J. Heyd, E. N. Brothers, K. N. Kudin, 
 V. N. Staroverov, T. A. Keith, R. Kobayashi, J. Normand, 
 K. Raghavachari, A. P. Rendell, J. C. Burant, S. S. Iyengar, 
 J. Tomasi, M. Cossi, J. M. Millam, M. Klene, C. Adamo, R. Cammi, 
 J. W. Ochterski, R. L. Martin, K. Morokuma, O. Farkas, 
 J. B. Foresman, and D. J. Fox, Gaussian, Inc., Wallingford CT, 2016.
 
 ******************************************
 Gaussian 16:  ES64L-G16RevA.03 25-Dec-2016
                31-Jul-2019 
 ******************************************
 %nproc=3
 Will use up to    3 processors via shared memory.
 %Mem=2GB
 -------------------------------------
 # td=(NStates=1) CAM-B3LYP/6-31G(d,p)
 -------------------------------------
 1/38=1,172=1/1;
 2/12=2,17=6,18=5,40=1/2;
 3/5=1,6=6,7=101,11=9,25=1,30=1,74=-40/1,2,3,8;
 4//1;
 5/5=2,38=5/2;
 8/6=1,10=2,108=1/1;
 9/41=1,42=1,70=2/14;
 6/7=2,8=2,9=2,10=2/1;
 99/5=1,9=1/99;
 --
 TD
 --
 Symbolic Z-matrix:
 Charge =  0 Multiplicity = 1
 8                    -11.75499   0.14661  -1.52134 
 8                    -13.18749  -2.42348   1.42998 
 8                     10.6933  -1.00665  -2.23521 
 8                     14.44977  -0.94462   0.09079 
 6                    -11.07237  -0.22049  -0.42561 
 6                    -11.70613  -1.24401  -1.27505 
 6                    -11.7222   0.26919   0.91483 
 6                    -13.03806  -1.86182  -0.95621 
 6                    -13.22223  -0.04732   0.85924 
 6                    -13.61701  -1.49325   0.53412 
 6                    -10.81943  -2.17168  -2.08683 
 6                    -9.60291   0.0301   -0.4787 
 6                    -10.99361  -0.2647    2.18506 
 6                    -11.57857   1.80784   0.97197 
 6                    -8.59516  -0.66319   0.093 
 6                    -7.18921  -0.45072   0.20165 
 6                    -6.31698  -1.61401   0.60993 
 6                    -6.57047   0.75923  -0.08997 
 6                    -5.18566   1.07149   0.04725 
 6                     11.87931   0.05702   1.35108 
 6                     11.74963  -0.63499  -1.24038 
 6                     12.57326  -1.38919   1.50913 
 6                     13.33066  -1.7628    0.32644 
 6                     12.53881  -1.84113  -0.9535 
 6                     11.02415  -0.08634   0.06927 
 6                     10.8418   0.14506   2.43104 
 6                     12.89381   1.12594   1.32558 
 6                     12.65693   0.3723   -1.99745 
 6                    -4.71507   2.33949  -0.38779 
 6                     9.91226   0.46677  -0.14153 
 6                    -3.35132   2.64741  -0.41673 
 6                     8.61119   0.96036  -0.13995 
 6                    -3.01928   4.091    -0.75198 
 6                    -2.31949   1.73308  -0.20989 
 6                     7.47267   0.11147  -0.04889 
 6                     7.54114  -1.42939  -0.01864 
 6                     6.25239   0.74027  -0.17989 
 6                    -1.00069   1.93983  -0.18531 
 6                     4.96225   0.07061   0.02063 
 6                     0.05434   0.99933  -0.12728 
 6                     3.7641    0.78605  -0.11207 
 6                     1.42537   1.2781   -0.12398 
 6                     2.39129   0.39827   0.04273 
 6                     2.20991  -1.03285   0.36791 
 1                    -13.04939  -2.83159  -1.19156 
 1                    -13.6137  -1.57957  -1.75175 
 1                    -13.88981   0.31306   1.8493 
 1                    -13.51515   0.59012  -0.01258 
 1                    -14.83338  -1.69429   0.35554 
 1                    -10.63033  -2.98145  -1.41877 
 1                    -11.37414  -2.42391  -3.15791 
 1                    -9.88287  -1.55864  -2.30646 
 1                    -9.26939   0.87436  -1.31051 
 1                    -10.01634   0.22363   2.25748 
 1                    -11.76999  -0.16605   2.88259 
 1                    -10.83863  -1.38332   2.30341 
 1                    -11.89657   2.24722   0.12149 
 1                    -12.0901   2.38227   1.8344 
 1                    -10.38165   1.97793   1.1125 
 1                    -12.18452  -2.49792   1.4825 
 1                    -8.91327  -1.76839   0.57549 
 1                    -5.30579  -1.79027  -0.17268 
 1                    -5.72321  -1.59544   1.59459 
 1                    -6.89766  -2.53051   0.9445 
 1                    -7.19665   1.56764  -0.47243 
 1                    -4.51924   0.15803   0.342 
 1                     13.10377  -1.21611   2.45082 
 1                     11.8205  -2.12959   1.55225 
 1                     13.72296  -2.87359   0.35283 
 1                     13.15899  -1.90331  -1.6546 
 1                     11.91868  -2.76471  -0.80992 
 1                     11.26785   0.18378   3.45191 
 1                     10.47831   1.17432   2.35264 
 1                     10.21716  -0.86988   2.39213 
 1                     13.4644   1.28207   0.37669 
 1                     12.55816   2.20916   1.36014 
 1                     13.53808   0.90716   2.25637 
 1                     12.93188  -0.02094  -2.88015 
 1                     12.13699   1.29203  -2.15706 
 1                     13.57991   0.4947   -1.38755 
 1                    -5.34716   3.20599  -0.82629 
 1                     10.34901  -0.06056  -2.67384 
 1                     14.94717  -1.12947   0.9135 
 1                     8.37374   2.03401  -0.19862 
 1                    -2.2628    4.58573  -0.07981 
 1                    -2.27993   4.1993   -1.66301 
 1                    -3.74053   4.64875  -1.09577 
 1                    -2.79794   0.62103  -0.22101 
 1                     6.64095  -1.95701  -0.31355 
 1                     8.21887  -1.81352  -0.74394 
 1                     7.78802  -1.79496   1.09238 
 1                     6.35187   1.77079  -0.47989 
 1                    -0.5403    3.08358  -0.34841 
 1                     4.93561  -0.99885   0.44635 
 1                    -0.24875  -0.09322  -0.04127 
 1                     4.02287   1.79825  -0.34873 
 1                     1.6206    2.40452  -0.13486 
 1                     1.08391  -1.28629   0.56824 
 1                     2.42619  -1.82051  -0.4356 
 1                     2.96815  -1.36612   1.0785 
 
 Stoichiometry    C40H56O4
 Framework group  C1[X(C40H56O4)]
 Deg. of freedom   294
 Full point group                 C1      NOp   1
 Largest Abelian subgroup         C1      NOp   1
 Largest concise Abelian subgroup C1      NOp   1
                         Standard orientation:                         
 ---------------------------------------------------------------------
 Center     Atomic      Atomic             Coordinates (Angstroms)
 Number     Number       Type             X           Y           Z
 ---------------------------------------------------------------------
      1          8           0      -11.756290    0.194007   -1.525331
      2          8           0      -13.193015   -2.449475    1.358329
      3          8           0       10.691978   -0.954356   -2.247922
      4          8           0       14.446328   -0.953820    0.082316
      5          6           0      -11.074891   -0.201262   -0.438680
      6          6           0      -11.708466   -1.202450   -1.314460
      7          6           0      -11.725681    0.254545    0.913198
      8          6           0      -13.041053   -1.827364   -1.012656
      9          6           0      -13.225840   -0.059542    0.848209
     10          6           0      -13.621162   -1.496489    0.486043
     11          6           0      -10.821559   -2.109709   -2.148782
     12          6           0       -9.605240    0.049701   -0.484045
     13          6           0      -10.998568   -0.311943    2.170095
     14          6           0      -11.581198    1.791148    1.009598
     15          6           0       -8.598427   -0.658529    0.070746
     16          6           0       -7.192448   -0.449740    0.186045
     17          6           0       -6.321275   -1.623576    0.565388
     18          6           0       -6.572738    0.766856   -0.074125
     19          6           0       -5.187869    1.074684    0.072253
     20          6           0       11.875289    0.016988    1.365351
     21          6           0       11.747604   -0.608772   -1.242998
     22          6           0       12.568255   -1.433196    1.487170
     23          6           0       13.326522   -1.777048    0.296046
     24          6           0       12.535810   -1.822300   -0.986188
     25          6           0       11.021232   -0.093189    0.079531
     26          6           0       10.836833    0.078155    2.446250
     27          6           0       12.890443    1.085594    1.367972
     28          6           0       12.656191    0.416900   -1.973372
     29          6           0       -4.716136    2.353054   -0.329957
     30          6           0        9.909864    0.465783   -0.118135
     31          6           0       -3.352182    2.660789   -0.349811
     32          6           0        8.609080    0.959969   -0.105180
     33          6           0       -3.018992    4.112237   -0.647919
     34          6           0       -2.321077    1.740856   -0.165369
     35          6           0        7.469977    0.109729   -0.036791
     36          6           0        7.537520   -1.431445   -0.045696
     37          6           0        6.250186    0.742399   -0.152854
     38          6           0       -1.002185    1.946120   -0.134331
     39          6           0        4.959471    0.068633    0.029394
     40          6           0        0.052248    1.003807   -0.099299
     41          6           0        3.761860    0.787949   -0.086148
     42          6           0        1.423439    1.281565   -0.087664
     43          6           0        2.388683    0.397191    0.057483
     44          6           0        2.206170   -1.041626    0.345974
     45          1           0      -13.052730   -2.790824   -1.272624
     46          1           0      -13.615790   -1.524618   -1.801283
     47          1           0      -13.894120    0.275935    1.846509
     48          1           0      -13.517582    0.600060   -0.007378
     49          1           0      -14.837487   -1.692178    0.301296
     50          1           0      -10.633554   -2.936333   -1.501369
     51          1           0      -11.375427   -2.334260   -3.226440
     52          1           0       -9.884442   -1.491841   -2.351892
     53          1           0       -9.270455    0.914650   -1.293798
     54          1           0      -10.021087    0.173798    2.255804
     55          1           0      -11.775541   -0.230600    2.869197
     56          1           0      -10.844360   -1.433299    2.260080
     57          1           0      -11.898160    2.252225    0.170286
     58          1           0      -12.093186    2.343765    1.885903
     59          1           0      -10.384310    1.956881    1.155498
     60          1           0      -12.190140   -2.525839    1.409852
     61          1           0       -8.917628   -1.775446    0.524666
     62          1           0       -5.309470   -1.780482   -0.220533
     63          1           0       -5.728413   -1.630433    1.550736
     64          1           0       -6.902803   -2.547935    0.875998
     65          1           0       -7.198090    1.585115   -0.436458
     66          1           0       -4.522255    0.153619    0.344268
     67          1           0       13.097988   -1.284457    2.433445
     68          1           0       11.815016   -2.173995    1.510757
     69          1           0       13.718155   -2.888387    0.294523
     70          1           0       13.156605   -1.866995   -1.688079
     71          1           0       11.915010   -2.748854   -0.866717
     72          1           0       11.261963    0.090624    3.468166
     73          1           0       10.474026    1.109299    2.393744
     74          1           0       10.211639   -0.935083    2.380958
     75          1           0       13.462001    1.265473    0.423887
     76          1           0       12.555390    2.167792    1.429786
     77          1           0       13.533722    0.842807    2.293485
     78          1           0       12.931728    0.046087   -2.865540
     79          1           0       12.136935    1.340715   -2.109999
     80          1           0       13.578675    0.523179   -1.359718
     81          1           0       -5.347313    3.230824   -0.746839
     82          1           0       10.348638    0.002794   -2.662650
     83          1           0       14.942859   -1.159847    0.900503
     84          1           0        8.372311    2.034902   -0.136725
     85          1           0       -2.262842    4.589237    0.037312
     86          1           0       -2.278731    4.243231   -1.555221
     87          1           0       -3.739595    4.678995   -0.978055
     88          1           0       -2.800167    0.629749   -0.205209
     89          1           0        6.637292   -1.950838   -0.354751
     90          1           0        8.215693   -1.797403   -0.779913
     91          1           0        7.783160   -1.825320    1.055890
     92          1           0        6.350549    1.780159   -0.426441
     93          1           0       -0.540967    3.093369   -0.267864
     94          1           0        4.931814   -1.011289    0.427731
     95          1           0       -0.251566   -0.090398   -0.041394
     96          1           0        4.021446    1.805683   -0.296738
     97          1           0        1.619332    2.407775   -0.069691
     98          1           0        1.079834   -1.299395    0.538767
     99          1           0        2.422734   -1.808718   -0.477119
    100          1           0        2.963561   -1.393335    1.048547
 ---------------------------------------------------------------------
 Rotational constants (GHZ):           0.2591508           0.0088628           0.0087779
 Standard basis: 6-31G(d,p) (6D, 7F)
 There are   940 symmetry adapted cartesian basis functions of A   symmetry.
 There are   940 symmetry adapted basis functions of A   symmetry.
   940 basis functions,  1624 primitive gaussians,   940 cartesian basis functions
   164 alpha electrons      164 beta electrons
       nuclear repulsion energy      4454.5536709628 Hartrees.
 NAtoms=  100 NActive=  100 NUniq=  100 SFac= 1.00D+00 NAtFMM=   60 NAOKFM=T Big=T
 Integral buffers will be    131072 words long.
 Raffenetti 1 integral format.
 Two-electron integral symmetry is turned on.
 One-electron integrals computed using PRISM.
 NBasis=   940 RedAO= T EigKep=  4.46D-04  NBF=   940
 NBsUse=   940 1.00D-06 EigRej= -1.00D+00 NBFU=   940
 ExpMin= 1.61D-01 ExpMax= 5.48D+03 ExpMxC= 8.25D+02 IAcc=3 IRadAn=         5 AccDes= 0.00D+00
 Harris functional with IExCor=20419 and IRadAn=       5 diagonalized for initial guess.
 HarFok:  IExCor=20419 AccDes= 0.00D+00 IRadAn=         5 IDoV= 1 UseB2=F ITyADJ=14
 ICtDFT=  3500011 ScaDFX=  1.000000  1.000000  1.000000  1.000000
 FoFCou: FMM=F IPFlag=           0 FMFlag=      100000 FMFlg1=        2001
         NFxFlg=           0 DoJE=T BraDBF=F KetDBF=T FulRan=T
         wScrn=  0.000000 ICntrl=       500 IOpCl=  0 I1Cent=   200000004 NGrid=           0
         NMat0=    1 NMatS0=      1 NMatT0=    0 NMatD0=    1 NMtDS0=    0 NMtDT0=    0
 Petite list used in FoFCou.
 Requested convergence on RMS density matrix=1.00D-08 within 128 cycles.
 Requested convergence on MAX density matrix=1.00D-06.
 Requested convergence on             energy=1.00D-06.
 No special actions if energy rises.
 Integral accuracy reduced to 1.0D-05 until final iterations.
 Initial convergence to 1.0D-05 achieved.  Increase integral accuracy.
 SCF Done:  E(RCAM-B3LYP) =  -1857.29757568     A.U. after   16 cycles
            NFock= 16  Conv=0.40D-08     -V/T= 2.0099
 DoSCS=F DFT=T ScalE2(SS,OS)=  1.000000  1.000000
 ExpMin= 1.61D-01 ExpMax= 5.48D+03 ExpMxC= 8.25D+02 IAcc=3 IRadAn=         5 AccDes= 0.00D+00
 HarFok:  IExCor=  205 AccDes= 0.00D+00 IRadAn=         5 IDoV=-2 UseB2=F ITyADJ=14
 ICtDFT= 12500011 ScaDFX=  1.000000  1.000000  1.000000  1.000000
 GSVD:  LWork=       -2288 too small for GESVD, short by       10340 words or       10340 for optimal perf.
 Range of M.O.s used for correlation:    45   940
 NBasis=   940 NAE=   164 NBE=   164 NFC=    44 NFV=     0
 NROrb=    896 NOA=   120 NOB=   120 NVA=   776 NVB=   776
 Orbital symmetries:
       Occupied  (A) (A) (A) (A) (A) (A) (A) (A) (A) (A) (A) (A)
                 (A) (A) (A) (A) (A) (A) (A) (A) (A) (A) (A) (A)
                 (A) (A) (A) (A) (A) (A) (A) (A) (A) (A) (A) (A)
                 (A) (A) (A) (A) (A) (A) (A) (A) (A) (A) (A) (A)
                 (A) (A) (A) (A) (A) (A) (A) (A) (A) (A) (A) (A)
                 (A) (A) (A) (A) (A) (A) (A) (A) (A) (A) (A) (A)
                 (A) (A) (A) (A) (A) (A) (A) (A) (A) (A) (A) (A)
                 (A) (A) (A) (A) (A) (A) (A) (A) (A) (A) (A) (A)
                 (A) (A) (A) (A) (A) (A) (A) (A) (A) (A) (A) (A)
                 (A) (A) (A) (A) (A) (A) (A) (A) (A) (A) (A) (A)
                 (A) (A) (A) (A) (A) (A) (A) (A) (A) (A) (A) (A)
                 (A) (A) (A) (A) (A) (A) (A) (A) (A) (A) (A) (A)
                 (A) (A) (A) (A) (A) (A) (A) (A) (A) (A) (A) (A)
                 (A) (A) (A) (A) (A) (A) (A) (A)
       Virtual   (A) (A) (A) (A) (A) (A) (A) (A) (A) (A) (A) (A)
                 (A) (A) (A) (A) (A) (A) (A) (A) (A) (A) (A) (A)
                 (A) (A) (A) (A) (A) (A) (A) (A) (A) (A) (A) (A)
                 (A) (A) (A) (A) (A) (A) (A) (A) (A) (A) (A) (A)
                 (A) (A) (A) (A) (A) (A) (A) (A) (A) (A) (A) (A)
                 (A) (A) (A) (A) (A) (A) (A) (A) (A) (A) (A) (A)
                 (A) (A) (A) (A) (A) (A) (A) (A) (A) (A) (A) (A)
                 (A) (A) (A) (A) (A) (A) (A) (A) (A) (A) (A) (A)
                 (A) (A) (A) (A) (A) (A) (A) (A) (A) (A) (A) (A)
                 (A) (A) (A) (A) (A) (A) (A) (A) (A) (A) (A) (A)
                 (A) (A) (A) (A) (A) (A) (A) (A) (A) (A) (A) (A)
                 (A) (A) (A) (A) (A) (A) (A) (A) (A) (A) (A) (A)
                 (A) (A) (A) (A) (A) (A) (A) (A) (A) (A) (A) (A)
                 (A) (A) (A) (A) (A) (A) (A) (A) (A) (A) (A) (A)
                 (A) (A) (A) (A) (A) (A) (A) (A) (A) (A) (A) (A)
                 (A) (A) (A) (A) (A) (A) (A) (A) (A) (A) (A) (A)
                 (A) (A) (A) (A) (A) (A) (A) (A) (A) (A) (A) (A)
                 (A) (A) (A) (A) (A) (A) (A) (A) (A) (A) (A) (A)
                 (A) (A) (A) (A) (A) (A) (A) (A) (A) (A) (A) (A)
                 (A) (A) (A) (A) (A) (A) (A) (A) (A) (A) (A) (A)
                 (A) (A) (A) (A) (A) (A) (A) (A) (A) (A) (A) (A)
                 (A) (A) (A) (A) (A) (A) (A) (A) (A) (A) (A) (A)
                 (A) (A) (A) (A) (A) (A) (A) (A) (A) (A) (A) (A)
                 (A) (A) (A) (A) (A) (A) (A) (A) (A) (A) (A) (A)
                 (A) (A) (A) (A) (A) (A) (A) (A) (A) (A) (A) (A)
                 (A) (A) (A) (A) (A) (A) (A) (A) (A) (A) (A) (A)
                 (A) (A) (A) (A) (A) (A) (A) (A) (A) (A) (A) (A)
                 (A) (A) (A) (A) (A) (A) (A) (A) (A) (A) (A) (A)
                 (A) (A) (A) (A) (A) (A) (A) (A) (A) (A) (A) (A)
                 (A) (A) (A) (A) (A) (A) (A) (A) (A) (A) (A) (A)
                 (A) (A) (A) (A) (A) (A) (A) (A) (A) (A) (A) (A)
                 (A) (A) (A) (A) (A) (A) (A) (A) (A) (A) (A) (A)
                 (A) (A) (A) (A) (A) (A) (A) (A) (A) (A) (A) (A)
                 (A) (A) (A) (A) (A) (A) (A) (A) (A) (A) (A) (A)
                 (A) (A) (A) (A) (A) (A) (A) (A) (A) (A) (A) (A)
                 (A) (A) (A) (A) (A) (A) (A) (A) (A) (A) (A) (A)
                 (A) (A) (A) (A) (A) (A) (A) (A) (A) (A) (A) (A)
                 (A) (A) (A) (A) (A) (A) (A) (A) (A) (A) (A) (A)
                 (A) (A) (A) (A) (A) (A) (A) (A) (A) (A) (A) (A)
                 (A) (A) (A) (A) (A) (A) (A) (A) (A) (A) (A) (A)
                 (A) (A) (A) (A) (A) (A) (A) (A) (A) (A) (A) (A)
                 (A) (A) (A) (A) (A) (A) (A) (A) (A) (A) (A) (A)
                 (A) (A) (A) (A) (A) (A) (A) (A) (A) (A) (A) (A)
                 (A) (A) (A) (A) (A) (A) (A) (A) (A) (A) (A) (A)
                 (A) (A) (A) (A) (A) (A) (A) (A) (A) (A) (A) (A)
                 (A) (A) (A) (A) (A) (A) (A) (A) (A) (A) (A) (A)
                 (A) (A) (A) (A) (A) (A) (A) (A) (A) (A) (A) (A)
                 (A) (A) (A) (A) (A) (A) (A) (A) (A) (A) (A) (A)
                 (A) (A) (A) (A) (A) (A) (A) (A) (A) (A) (A) (A)
                 (A) (A) (A) (A) (A) (A) (A) (A) (A) (A) (A) (A)
                 (A) (A) (A) (A) (A) (A) (A) (A) (A) (A) (A) (A)
                 (A) (A) (A) (A) (A) (A) (A) (A) (A) (A) (A) (A)
                 (A) (A) (A) (A) (A) (A) (A) (A) (A) (A) (A) (A)
                 (A) (A) (A) (A) (A) (A) (A) (A) (A) (A) (A) (A)
                 (A) (A) (A) (A) (A) (A) (A) (A) (A) (A) (A) (A)
                 (A) (A) (A) (A) (A) (A) (A) (A) (A) (A) (A) (A)
                 (A) (A) (A) (A) (A) (A) (A) (A) (A) (A) (A) (A)
                 (A) (A) (A) (A) (A) (A) (A) (A) (A) (A) (A) (A)
                 (A) (A) (A) (A) (A) (A) (A) (A) (A) (A) (A) (A)
                 (A) (A) (A) (A) (A) (A) (A) (A) (A) (A) (A) (A)
                 (A) (A) (A) (A) (A) (A) (A) (A) (A) (A) (A) (A)
                 (A) (A) (A) (A) (A) (A) (A) (A) (A) (A) (A) (A)
                 (A) (A) (A) (A) (A) (A) (A) (A) (A) (A) (A) (A)
                 (A) (A) (A) (A) (A) (A) (A) (A) (A) (A) (A) (A)
                 (A) (A) (A) (A) (A) (A) (A) (A)
     4 initial guesses have been made.
 Convergence on wavefunction:    0.001000000000000
 Iteration     1 Dimension     4 NMult     0 NNew      4
 CISAX will form     4 AO SS matrices at one time.
 Iteration     2 Dimension     6 NMult     4 NNew      2
 Iteration     3 Dimension     8 NMult     6 NNew      2
 Iteration     4 Dimension    10 NMult     8 NNew      2
 Iteration     5 Dimension    12 NMult    10 NNew      2
 Iteration     6 Dimension    14 NMult    12 NNew      2
 ***********************************************************************
 Excited states from <AA,BB:AA,BB> singles matrix:
 ***********************************************************************
 
 Ground to excited state transition densities written to RWF  633
 Ground to excited state transition electric dipole moments (Au):
       state          X           Y           Z        Dip. S.      Osc.
         1         7.7555     -0.1409      0.0622     60.1716      2.8974
 Ground to excited state transition velocity dipole moments (Au):
       state          X           Y           Z        Dip. S.      Osc.
         1        -0.5437      0.0098     -0.0038      0.2958      2.7299
 Ground to excited state transition magnetic dipole moments (Au):
       state          X           Y           Z
         1         0.0418      0.2548      2.4620
 Ground to excited state transition velocity quadrupole moments (Au):
       state          XX          YY          ZZ          XY          XZ          YZ
         1         1.0147      0.2314      0.0271      0.3590     -0.0211     -0.0162
 <0|del|b> * <b|rxdel|0> + <0|del|b> * <b|delr+rdel|0>
 Rotatory Strengths (R) in cgs (10**-40 erg-esu-cm/Gauss)
       state          XX          YY          ZZ    R(velocity)    E-M Angle
         1       -38.5378   -106.9570   -143.1051    -96.2000       91.25
 1/2[<0|r|b>*<b|rxdel|0> + (<0|rxdel|b>*<b|r|0>)*]
 Rotatory Strengths (R) in cgs (10**-40 erg-esu-cm/Gauss)
       state          XX          YY          ZZ     R(length)
         1      -229.4051     25.3973   -108.2668   -104.0915
  1/2[<0|del|b>*<b|r|0> + (<0|r|b>*<b|del|0>)*] (Au)
       state          X           Y           Z        Dip. S.   Osc.(frdel)
         1        -4.2169     -0.0014     -0.0002      4.2186      2.8124

 Excitation energies and oscillator strengths:
 
 Excited State   1:      Singlet-A      1.9654 eV  630.83 nm  f=2.8974  <S**2>=0.000
     163 ->166        -0.13080
     164 ->165         0.69738
     164 <-165        -0.10192
 This state for optimization and/or second-order correction.
 Total Energy, E(TD-HF/TD-DFT) =  -1857.22534836    
 Copying the excited state density for this state as the 1-particle RhoCI density.
 SavETr:  write IOETrn=   770 NScale= 10 NData=  16 NLR=1 NState=    1 LETran=      28.

 **********************************************************************

            Population analysis using the SCF density.

 **********************************************************************

 Orbital symmetries:
       Occupied  (A) (A) (A) (A) (A) (A) (A) (A) (A) (A) (A) (A)
                 (A) (A) (A) (A) (A) (A) (A) (A) (A) (A) (A) (A)
                 (A) (A) (A) (A) (A) (A) (A) (A) (A) (A) (A) (A)
                 (A) (A) (A) (A) (A) (A) (A) (A) (A) (A) (A) (A)
                 (A) (A) (A) (A) (A) (A) (A) (A) (A) (A) (A) (A)
                 (A) (A) (A) (A) (A) (A) (A) (A) (A) (A) (A) (A)
                 (A) (A) (A) (A) (A) (A) (A) (A) (A) (A) (A) (A)
                 (A) (A) (A) (A) (A) (A) (A) (A) (A) (A) (A) (A)
                 (A) (A) (A) (A) (A) (A) (A) (A) (A) (A) (A) (A)
                 (A) (A) (A) (A) (A) (A) (A) (A) (A) (A) (A) (A)
                 (A) (A) (A) (A) (A) (A) (A) (A) (A) (A) (A) (A)
                 (A) (A) (A) (A) (A) (A) (A) (A) (A) (A) (A) (A)
                 (A) (A) (A) (A) (A) (A) (A) (A) (A) (A) (A) (A)
                 (A) (A) (A) (A) (A) (A) (A) (A)
       Virtual   (A) (A) (A) (A) (A) (A) (A) (A) (A) (A) (A) (A)
                 (A) (A) (A) (A) (A) (A) (A) (A) (A) (A) (A) (A)
                 (A) (A) (A) (A) (A) (A) (A) (A) (A) (A) (A) (A)
                 (A) (A) (A) (A) (A) (A) (A) (A) (A) (A) (A) (A)
                 (A) (A) (A) (A) (A) (A) (A) (A) (A) (A) (A) (A)
                 (A) (A) (A) (A) (A) (A) (A) (A) (A) (A) (A) (A)
                 (A) (A) (A) (A) (A) (A) (A) (A) (A) (A) (A) (A)
                 (A) (A) (A) (A) (A) (A) (A) (A) (A) (A) (A) (A)
                 (A) (A) (A) (A) (A) (A) (A) (A) (A) (A) (A) (A)
                 (A) (A) (A) (A) (A) (A) (A) (A) (A) (A) (A) (A)
                 (A) (A) (A) (A) (A) (A) (A) (A) (A) (A) (A) (A)
                 (A) (A) (A) (A) (A) (A) (A) (A) (A) (A) (A) (A)
                 (A) (A) (A) (A) (A) (A) (A) (A) (A) (A) (A) (A)
                 (A) (A) (A) (A) (A) (A) (A) (A) (A) (A) (A) (A)
                 (A) (A) (A) (A) (A) (A) (A) (A) (A) (A) (A) (A)
                 (A) (A) (A) (A) (A) (A) (A) (A) (A) (A) (A) (A)
                 (A) (A) (A) (A) (A) (A) (A) (A) (A) (A) (A) (A)
                 (A) (A) (A) (A) (A) (A) (A) (A) (A) (A) (A) (A)
                 (A) (A) (A) (A) (A) (A) (A) (A) (A) (A) (A) (A)
                 (A) (A) (A) (A) (A) (A) (A) (A) (A) (A) (A) (A)
                 (A) (A) (A) (A) (A) (A) (A) (A) (A) (A) (A) (A)
                 (A) (A) (A) (A) (A) (A) (A) (A) (A) (A) (A) (A)
                 (A) (A) (A) (A) (A) (A) (A) (A) (A) (A) (A) (A)
                 (A) (A) (A) (A) (A) (A) (A) (A) (A) (A) (A) (A)
                 (A) (A) (A) (A) (A) (A) (A) (A) (A) (A) (A) (A)
                 (A) (A) (A) (A) (A) (A) (A) (A) (A) (A) (A) (A)
                 (A) (A) (A) (A) (A) (A) (A) (A) (A) (A) (A) (A)
                 (A) (A) (A) (A) (A) (A) (A) (A) (A) (A) (A) (A)
                 (A) (A) (A) (A) (A) (A) (A) (A) (A) (A) (A) (A)
                 (A) (A) (A) (A) (A) (A) (A) (A) (A) (A) (A) (A)
                 (A) (A) (A) (A) (A) (A) (A) (A) (A) (A) (A) (A)
                 (A) (A) (A) (A) (A) (A) (A) (A) (A) (A) (A) (A)
                 (A) (A) (A) (A) (A) (A) (A) (A) (A) (A) (A) (A)
                 (A) (A) (A) (A) (A) (A) (A) (A) (A) (A) (A) (A)
                 (A) (A) (A) (A) (A) (A) (A) (A) (A) (A) (A) (A)
                 (A) (A) (A) (A) (A) (A) (A) (A) (A) (A) (A) (A)
                 (A) (A) (A) (A) (A) (A) (A) (A) (A) (A) (A) (A)
                 (A) (A) (A) (A) (A) (A) (A) (A) (A) (A) (A) (A)
                 (A) (A) (A) (A) (A) (A) (A) (A) (A) (A) (A) (A)
                 (A) (A) (A) (A) (A) (A) (A) (A) (A) (A) (A) (A)
                 (A) (A) (A) (A) (A) (A) (A) (A) (A) (A) (A) (A)
                 (A) (A) (A) (A) (A) (A) (A) (A) (A) (A) (A) (A)
                 (A) (A) (A) (A) (A) (A) (A) (A) (A) (A) (A) (A)
                 (A) (A) (A) (A) (A) (A) (A) (A) (A) (A) (A) (A)
                 (A) (A) (A) (A) (A) (A) (A) (A) (A) (A) (A) (A)
                 (A) (A) (A) (A) (A) (A) (A) (A) (A) (A) (A) (A)
                 (A) (A) (A) (A) (A) (A) (A) (A) (A) (A) (A) (A)
                 (A) (A) (A) (A) (A) (A) (A) (A) (A) (A) (A) (A)
                 (A) (A) (A) (A) (A) (A) (A) (A) (A) (A) (A) (A)
                 (A) (A) (A) (A) (A) (A) (A) (A) (A) (A) (A) (A)
                 (A) (A) (A) (A) (A) (A) (A) (A) (A) (A) (A) (A)
                 (A) (A) (A) (A) (A) (A) (A) (A) (A) (A) (A) (A)
                 (A) (A) (A) (A) (A) (A) (A) (A) (A) (A) (A) (A)
                 (A) (A) (A) (A) (A) (A) (A) (A) (A) (A) (A) (A)
                 (A) (A) (A) (A) (A) (A) (A) (A) (A) (A) (A) (A)
                 (A) (A) (A) (A) (A) (A) (A) (A) (A) (A) (A) (A)
                 (A) (A) (A) (A) (A) (A) (A) (A) (A) (A) (A) (A)
                 (A) (A) (A) (A) (A) (A) (A) (A) (A) (A) (A) (A)
                 (A) (A) (A) (A) (A) (A) (A) (A) (A) (A) (A) (A)
                 (A) (A) (A) (A) (A) (A) (A) (A) (A) (A) (A) (A)
                 (A) (A) (A) (A) (A) (A) (A) (A) (A) (A) (A) (A)
                 (A) (A) (A) (A) (A) (A) (A) (A) (A) (A) (A) (A)
                 (A) (A) (A) (A) (A) (A) (A) (A) (A) (A) (A) (A)
                 (A) (A) (A) (A) (A) (A) (A) (A) (A) (A) (A) (A)
                 (A) (A) (A) (A) (A) (A) (A) (A)
 The electronic state is 1-A.
 Alpha  occ. eigenvalues --  -19.22599 -19.22494 -19.21527 -19.21298 -10.32367
 Alpha  occ. eigenvalues --  -10.31731 -10.31505 -10.31453 -10.31357 -10.28346
 Alpha  occ. eigenvalues --  -10.28297 -10.28126 -10.28035 -10.27932 -10.27726
 Alpha  occ. eigenvalues --  -10.27705 -10.27609 -10.27493 -10.27460 -10.27384
 Alpha  occ. eigenvalues --  -10.27347 -10.27321 -10.27222 -10.27135 -10.26897
 Alpha  occ. eigenvalues --  -10.26704 -10.26629 -10.26466 -10.26283 -10.26271
 Alpha  occ. eigenvalues --  -10.26126 -10.26103 -10.26054 -10.25869 -10.25824
 Alpha  occ. eigenvalues --  -10.25788 -10.25606 -10.25584 -10.25203 -10.25091
 Alpha  occ. eigenvalues --  -10.24678 -10.23692 -10.23640 -10.23288  -1.19192
 Alpha  occ. eigenvalues --   -1.11878  -1.10467  -1.05422  -0.93846  -0.92527
 Alpha  occ. eigenvalues --   -0.91828  -0.90805  -0.90402  -0.89758  -0.88080
 Alpha  occ. eigenvalues --   -0.86787  -0.86508  -0.85455  -0.84470  -0.82945
 Alpha  occ. eigenvalues --   -0.81634  -0.80922  -0.79712  -0.78871  -0.77517
 Alpha  occ. eigenvalues --   -0.77122  -0.76523  -0.76305  -0.76086  -0.75652
 Alpha  occ. eigenvalues --   -0.75397  -0.73828  -0.73054  -0.70030  -0.69517
 Alpha  occ. eigenvalues --   -0.68324  -0.66836  -0.65581  -0.64570  -0.63929
 Alpha  occ. eigenvalues --   -0.63314  -0.61926  -0.60215  -0.59933  -0.59880
 Alpha  occ. eigenvalues --   -0.59225  -0.58391  -0.57607  -0.57118  -0.56624
 Alpha  occ. eigenvalues --   -0.55850  -0.55200  -0.54736  -0.54463  -0.54335
 Alpha  occ. eigenvalues --   -0.53664  -0.53293  -0.52916  -0.52765  -0.52042
 Alpha  occ. eigenvalues --   -0.51391  -0.50804  -0.50612  -0.50287  -0.50002
 Alpha  occ. eigenvalues --   -0.49526  -0.49179  -0.48863  -0.48389  -0.48363
 Alpha  occ. eigenvalues --   -0.47660  -0.47163  -0.46940  -0.46843  -0.46617
 Alpha  occ. eigenvalues --   -0.46241  -0.46148  -0.45620  -0.45445  -0.45332
 Alpha  occ. eigenvalues --   -0.44946  -0.44613  -0.44420  -0.44144  -0.43832
 Alpha  occ. eigenvalues --   -0.43719  -0.43502  -0.43315  -0.43247  -0.42957
 Alpha  occ. eigenvalues --   -0.42320  -0.42051  -0.41994  -0.41402  -0.41283
 Alpha  occ. eigenvalues --   -0.41093  -0.41041  -0.40665  -0.40369  -0.40323
 Alpha  occ. eigenvalues --   -0.39442  -0.39343  -0.38873  -0.38773  -0.38058
 Alpha  occ. eigenvalues --   -0.37903  -0.37750  -0.37566  -0.37396  -0.37223
 Alpha  occ. eigenvalues --   -0.36589  -0.35796  -0.34782  -0.34128  -0.33372
 Alpha  occ. eigenvalues --   -0.32881  -0.32329  -0.31981  -0.31356  -0.30766
 Alpha  occ. eigenvalues --   -0.30346  -0.27135  -0.23616  -0.19229
 Alpha virt. eigenvalues --   -0.06685  -0.00923   0.02718   0.06421   0.07299
 Alpha virt. eigenvalues --    0.09066   0.09698   0.09895   0.10779   0.11344
 Alpha virt. eigenvalues --    0.11920   0.12803   0.12811   0.12975   0.13534
 Alpha virt. eigenvalues --    0.14002   0.14161   0.14298   0.14767   0.15118
 Alpha virt. eigenvalues --    0.15184   0.15818   0.15849   0.16193   0.16320
 Alpha virt. eigenvalues --    0.16779   0.16953   0.17278   0.17505   0.17814
 Alpha virt. eigenvalues --    0.18115   0.18359   0.18579   0.19239   0.19288
 Alpha virt. eigenvalues --    0.19680   0.20178   0.20392   0.20731   0.20738
 Alpha virt. eigenvalues --    0.21029   0.21092   0.21211   0.21352   0.21509
 Alpha virt. eigenvalues --    0.21886   0.22197   0.22431   0.22559   0.22711
 Alpha virt. eigenvalues --    0.22981   0.23354   0.24026   0.24124   0.24289
 Alpha virt. eigenvalues --    0.24450   0.24742   0.25261   0.25391   0.25585
 Alpha virt. eigenvalues --    0.26362   0.26411   0.26651   0.26996   0.27080
 Alpha virt. eigenvalues --    0.27150   0.27650   0.28014   0.28924   0.29093
 Alpha virt. eigenvalues --    0.29319   0.29567   0.29968   0.30030   0.30242
 Alpha virt. eigenvalues --    0.30664   0.30766   0.30844   0.31164   0.31731
 Alpha virt. eigenvalues --    0.32098   0.32984   0.33225   0.33465   0.33686
 Alpha virt. eigenvalues --    0.33818   0.34645   0.35040   0.36744   0.37282
 Alpha virt. eigenvalues --    0.37712   0.38304   0.38746   0.38812   0.39701
 Alpha virt. eigenvalues --    0.40068   0.40367   0.41293   0.42016   0.42280
 Alpha virt. eigenvalues --    0.44306   0.45121   0.45492   0.46330   0.46424
 Alpha virt. eigenvalues --    0.47380   0.48669   0.49300   0.50793   0.52584
 Alpha virt. eigenvalues --    0.53611   0.54083   0.54805   0.55780   0.56731
 Alpha virt. eigenvalues --    0.56806   0.57318   0.57730   0.57853   0.58017
 Alpha virt. eigenvalues --    0.58550   0.58821   0.59295   0.59653   0.59866
 Alpha virt. eigenvalues --    0.60227   0.60390   0.60792   0.60910   0.61800
 Alpha virt. eigenvalues --    0.61921   0.62083   0.62228   0.62405   0.62470
 Alpha virt. eigenvalues --    0.62502   0.63197   0.63387   0.63534   0.64071
 Alpha virt. eigenvalues --    0.64301   0.64395   0.64664   0.65049   0.65819
 Alpha virt. eigenvalues --    0.65954   0.66390   0.66528   0.66585   0.67160
 Alpha virt. eigenvalues --    0.67414   0.67624   0.67862   0.68152   0.68449
 Alpha virt. eigenvalues --    0.68518   0.68550   0.68601   0.69205   0.69354
 Alpha virt. eigenvalues --    0.70048   0.70874   0.71084   0.71402   0.71915
 Alpha virt. eigenvalues --    0.72148   0.72581   0.73149   0.73709   0.73987
 Alpha virt. eigenvalues --    0.74152   0.74399   0.74843   0.75541   0.75730
 Alpha virt. eigenvalues --    0.76206   0.76560   0.77451   0.78091   0.78171
 Alpha virt. eigenvalues --    0.78609   0.79102   0.79494   0.79530   0.79949
 Alpha virt. eigenvalues --    0.80280   0.80688   0.81012   0.81310   0.81571
 Alpha virt. eigenvalues --    0.82180   0.82325   0.82443   0.82814   0.82883
 Alpha virt. eigenvalues --    0.83157   0.83720   0.83788   0.84100   0.84412
 Alpha virt. eigenvalues --    0.84720   0.84846   0.84958   0.85284   0.85856
 Alpha virt. eigenvalues --    0.86076   0.86411   0.86981   0.87188   0.87402
 Alpha virt. eigenvalues --    0.87736   0.88006   0.88265   0.88471   0.88709
 Alpha virt. eigenvalues --    0.88769   0.89276   0.89590   0.89632   0.90125
 Alpha virt. eigenvalues --    0.90300   0.90732   0.91052   0.91227   0.91630
 Alpha virt. eigenvalues --    0.92055   0.92232   0.92448   0.92727   0.93400
 Alpha virt. eigenvalues --    0.93526   0.94104   0.94589   0.94708   0.95090
 Alpha virt. eigenvalues --    0.95426   0.95494   0.95877   0.96434   0.96584
 Alpha virt. eigenvalues --    0.96611   0.97191   0.97493   0.97765   0.97947
 Alpha virt. eigenvalues --    0.98401   0.98762   0.99628   0.99818   1.00485
 Alpha virt. eigenvalues --    1.00590   1.01024   1.01081   1.01410   1.01648
 Alpha virt. eigenvalues --    1.01995   1.02425   1.02646   1.03753   1.03960
 Alpha virt. eigenvalues --    1.04123   1.04949   1.05047   1.05335   1.05498
 Alpha virt. eigenvalues --    1.06004   1.06192   1.06259   1.07046   1.07568
 Alpha virt. eigenvalues --    1.08135   1.08246   1.08692   1.08941   1.09304
 Alpha virt. eigenvalues --    1.10011   1.10224   1.10253   1.10580   1.10966
 Alpha virt. eigenvalues --    1.12405   1.12770   1.13139   1.14146   1.15322
 Alpha virt. eigenvalues --    1.15952   1.16922   1.17083   1.17458   1.17589
 Alpha virt. eigenvalues --    1.18013   1.19239   1.20191   1.20525   1.21278
 Alpha virt. eigenvalues --    1.22081   1.22859   1.23767   1.23943   1.24633
 Alpha virt. eigenvalues --    1.25638   1.25732   1.26778   1.27096   1.27382
 Alpha virt. eigenvalues --    1.27959   1.30025   1.30598   1.31109   1.32375
 Alpha virt. eigenvalues --    1.32582   1.32922   1.33168   1.33362   1.33822
 Alpha virt. eigenvalues --    1.34880   1.35837   1.36635   1.37068   1.37921
 Alpha virt. eigenvalues --    1.37991   1.38624   1.39316   1.39899   1.40061
 Alpha virt. eigenvalues --    1.40675   1.41354   1.41495   1.42414   1.44358
 Alpha virt. eigenvalues --    1.44510   1.44833   1.45120   1.45307   1.45993
 Alpha virt. eigenvalues --    1.47247   1.48027   1.48214   1.51513   1.51773
 Alpha virt. eigenvalues --    1.52000   1.52440   1.54756   1.55667   1.56276
 Alpha virt. eigenvalues --    1.56623   1.56697   1.57676   1.57919   1.58255
 Alpha virt. eigenvalues --    1.58604   1.59067   1.59756   1.59964   1.60299
 Alpha virt. eigenvalues --    1.61301   1.61976   1.62186   1.63609   1.64008
 Alpha virt. eigenvalues --    1.65337   1.66081   1.66131   1.67857   1.69058
 Alpha virt. eigenvalues --    1.69121   1.69358   1.70734   1.71395   1.72418
 Alpha virt. eigenvalues --    1.72620   1.73295   1.74712   1.75092   1.75667
 Alpha virt. eigenvalues --    1.75839   1.76574   1.76922   1.77766   1.78245
 Alpha virt. eigenvalues --    1.78867   1.80086   1.80517   1.81000   1.81249
 Alpha virt. eigenvalues --    1.81737   1.82384   1.82827   1.83126   1.83468
 Alpha virt. eigenvalues --    1.83658   1.84054   1.84243   1.84794   1.85382
 Alpha virt. eigenvalues --    1.85630   1.86841   1.87546   1.87737   1.87941
 Alpha virt. eigenvalues --    1.88360   1.88696   1.89261   1.89720   1.90058
 Alpha virt. eigenvalues --    1.90312   1.90684   1.91101   1.91970   1.92772
 Alpha virt. eigenvalues --    1.92840   1.93121   1.93806   1.94292   1.94527
 Alpha virt. eigenvalues --    1.94764   1.95171   1.95494   1.96006   1.96405
 Alpha virt. eigenvalues --    1.96662   1.97154   1.97293   1.97585   1.98037
 Alpha virt. eigenvalues --    1.98298   1.98618   1.98932   1.99376   1.99576
 Alpha virt. eigenvalues --    2.00726   2.00840   2.01118   2.01553   2.01807
 Alpha virt. eigenvalues --    2.02651   2.03371   2.03877   2.04048   2.04342
 Alpha virt. eigenvalues --    2.05218   2.05291   2.05656   2.06464   2.07172
 Alpha virt. eigenvalues --    2.07821   2.08772   2.08808   2.09022   2.09989
 Alpha virt. eigenvalues --    2.10063   2.10588   2.10893   2.11040   2.11224
 Alpha virt. eigenvalues --    2.11862   2.11878   2.12083   2.12802   2.13019
 Alpha virt. eigenvalues --    2.13492   2.14156   2.14207   2.15042   2.15460
 Alpha virt. eigenvalues --    2.15555   2.16035   2.16323   2.16576   2.16672
 Alpha virt. eigenvalues --    2.17285   2.18023   2.18464   2.18654   2.18926
 Alpha virt. eigenvalues --    2.19556   2.19918   2.20341   2.20553   2.21612
 Alpha virt. eigenvalues --    2.21772   2.21882   2.22517   2.22868   2.23306
 Alpha virt. eigenvalues --    2.23628   2.24295   2.24710   2.24849   2.25423
 Alpha virt. eigenvalues --    2.25817   2.26587   2.26685   2.27083   2.28139
 Alpha virt. eigenvalues --    2.28311   2.28582   2.29871   2.30075   2.30437
 Alpha virt. eigenvalues --    2.30743   2.30844   2.31533   2.31827   2.32316
 Alpha virt. eigenvalues --    2.32545   2.32689   2.32854   2.33631   2.33920
 Alpha virt. eigenvalues --    2.34717   2.35504   2.36029   2.36473   2.36783
 Alpha virt. eigenvalues --    2.37040   2.37323   2.38067   2.38283   2.38558
 Alpha virt. eigenvalues --    2.39321   2.39631   2.39746   2.40037   2.40961
 Alpha virt. eigenvalues --    2.41140   2.41550   2.42478   2.43156   2.43293
 Alpha virt. eigenvalues --    2.43405   2.43747   2.44513   2.45657   2.45885
 Alpha virt. eigenvalues --    2.46114   2.46818   2.47010   2.47707   2.47921
 Alpha virt. eigenvalues --    2.48179   2.48393   2.49108   2.49331   2.49722
 Alpha virt. eigenvalues --    2.50238   2.50877   2.51251   2.51403   2.51798
 Alpha virt. eigenvalues --    2.52282   2.52441   2.53543   2.54059   2.54376
 Alpha virt. eigenvalues --    2.55152   2.55494   2.55991   2.56597   2.57154
 Alpha virt. eigenvalues --    2.57422   2.57704   2.58258   2.59214   2.59649
 Alpha virt. eigenvalues --    2.60178   2.60878   2.61435   2.61520   2.61634
 Alpha virt. eigenvalues --    2.61814   2.62485   2.63235   2.63292   2.63378
 Alpha virt. eigenvalues --    2.64007   2.64577   2.65081   2.65223   2.65914
 Alpha virt. eigenvalues --    2.66605   2.66868   2.67976   2.68151   2.68472
 Alpha virt. eigenvalues --    2.69202   2.69371   2.69792   2.70217   2.70452
 Alpha virt. eigenvalues --    2.71065   2.71426   2.71481   2.72360   2.72716
 Alpha virt. eigenvalues --    2.73260   2.73716   2.74078   2.74409   2.74596
 Alpha virt. eigenvalues --    2.74817   2.74974   2.75529   2.75631   2.76783
 Alpha virt. eigenvalues --    2.77144   2.77301   2.77956   2.78333   2.78687
 Alpha virt. eigenvalues --    2.79266   2.79578   2.80559   2.80902   2.81671
 Alpha virt. eigenvalues --    2.81794   2.82172   2.82827   2.83290   2.83440
 Alpha virt. eigenvalues --    2.83625   2.84309   2.84825   2.85954   2.86246
 Alpha virt. eigenvalues --    2.86916   2.87334   2.87746   2.88976   2.89307
 Alpha virt. eigenvalues --    2.89795   2.89967   2.90344   2.91234   2.91886
 Alpha virt. eigenvalues --    2.92248   2.92989   2.93872   2.94194   2.94357
 Alpha virt. eigenvalues --    2.94425   2.95441   2.95686   2.96001   2.96744
 Alpha virt. eigenvalues --    2.97661   2.99263   2.99591   3.00291   3.00464
 Alpha virt. eigenvalues --    3.01177   3.01919   3.02353   3.02863   3.03512
 Alpha virt. eigenvalues --    3.03978   3.04789   3.05820   3.06658   3.06981
 Alpha virt. eigenvalues --    3.07379   3.09817   3.10435   3.11752   3.12645
 Alpha virt. eigenvalues --    3.13797   3.14496   3.14545   3.15449   3.16322
 Alpha virt. eigenvalues --    3.16585   3.16831   3.17360   3.17686   3.18323
 Alpha virt. eigenvalues --    3.19157   3.20589   3.22781   3.23034   3.24141
 Alpha virt. eigenvalues --    3.24608   3.24656   3.26715   3.27493   3.28661
 Alpha virt. eigenvalues --    3.29070   3.31919   3.33779   3.33890   3.35473
 Alpha virt. eigenvalues --    3.36596   3.37420   3.38927   3.40360   3.40869
 Alpha virt. eigenvalues --    3.41121   3.41885   3.42176   3.43802   3.44805
 Alpha virt. eigenvalues --    3.46284   3.46598   3.46878   3.48297   3.48980
 Alpha virt. eigenvalues --    3.49609   3.50102   3.50748   3.50895   3.51087
 Alpha virt. eigenvalues --    3.52023   3.53220   3.53972   3.55688   3.56042
 Alpha virt. eigenvalues --    3.56739   3.57600   3.58308   3.58753   3.62060
 Alpha virt. eigenvalues --    3.62999   3.63527   3.64510   3.65229   3.65699
 Alpha virt. eigenvalues --    3.67843   3.71224   3.72317   3.73958   3.78667
 Alpha virt. eigenvalues --    3.84833   3.97153   4.05850   4.07926   4.15318
 Alpha virt. eigenvalues --    4.16211   4.18751   4.19589   4.20750   4.21248
 Alpha virt. eigenvalues --    4.22327   4.25586   4.26630   4.31594   4.35198
 Alpha virt. eigenvalues --    4.35981   4.36929   4.38989   4.42329   4.44553
 Alpha virt. eigenvalues --    4.46294   4.48002   4.51139   4.51755   4.53691
 Alpha virt. eigenvalues --    4.54131   4.54659   4.58039   4.60764   4.61941
 Alpha virt. eigenvalues --    4.63692   4.64734   4.69360   4.70930   4.72935
 Alpha virt. eigenvalues --    4.74027   4.76103   4.78467   4.81744   4.83932
 Alpha virt. eigenvalues --    4.85616   4.86307   4.90534   4.93992   4.96239
 Alpha virt. eigenvalues --    4.98456
          Condensed to atoms (all electrons):
 Mulliken charges:
               1
     1  O   -0.484453
     2  O   -0.532206
     3  O   -0.581198
     4  O   -0.533164
     5  C    0.235806
     6  C    0.214070
     7  C   -0.000496
     8  C   -0.217448
     9  C   -0.193549
    10  C    0.177682
    11  C   -0.320035
    12  C   -0.150941
    13  C   -0.302084
    14  C   -0.298464
    15  C   -0.074005
    16  C    0.120689
    17  C   -0.380933
    18  C   -0.109922
    19  C   -0.083184
    20  C    0.011851
    21  C    0.226475
    22  C   -0.177731
    23  C    0.120571
    24  C   -0.146066
    25  C   -0.068215
    26  C   -0.286971
    27  C   -0.291581
    28  C   -0.337716
    29  C   -0.131130
    30  C    0.125557
    31  C    0.123748
    32  C   -0.269147
    33  C   -0.379118
    34  C   -0.098429
    35  C    0.156521
    36  C   -0.373250
    37  C   -0.131912
    38  C   -0.096463
    39  C   -0.096293
    40  C   -0.082231
    41  C   -0.125251
    42  C   -0.123029
    43  C    0.158115
    44  C   -0.382752
    45  H    0.101128
    46  H    0.115947
    47  H    0.073899
    48  H    0.117805
    49  H    0.073107
    50  H    0.120449
    51  H    0.089190
    52  H    0.118991
    53  H    0.093886
    54  H    0.121618
    55  H    0.124424
    56  H    0.058893
    57  H    0.126578
    58  H    0.098846
    59  H    0.082128
    60  H    0.313037
    61  H    0.053683
    62  H    0.091033
    63  H    0.116384
    64  H    0.104884
    65  H    0.081499
    66  H    0.096968
    67  H    0.089796
    68  H    0.104793
    69  H    0.060858
    70  H    0.110922
    71  H    0.110909
    72  H    0.082491
    73  H    0.115288
    74  H    0.101315
    75  H    0.129918
    76  H    0.091300
    77  H    0.082132
    78  H    0.127155
    79  H    0.093349
    80  H    0.136315
    81  H    0.099544
    82  H    0.303840
    83  H    0.308143
    84  H    0.103825
    85  H    0.124090
    86  H    0.098257
    87  H    0.112337
    88  H    0.069752
    89  H    0.114236
    90  H    0.146346
    91  H    0.094392
    92  H    0.080340
    93  H    0.064120
    94  H    0.083585
    95  H    0.075892
    96  H    0.074548
    97  H    0.083622
    98  H    0.098797
    99  H    0.115782
   100  H    0.125914
 Sum of Mulliken charges =  -0.00000
 Mulliken charges with hydrogens summed into heavy atoms:
               1
     1  O   -0.484453
     2  O   -0.219168
     3  O   -0.277358
     4  O   -0.225021
     5  C    0.235806
     6  C    0.214070
     7  C   -0.000496
     8  C   -0.000372
     9  C   -0.001846
    10  C    0.250789
    11  C    0.008596
    12  C   -0.057055
    13  C    0.002851
    14  C    0.009088
    15  C   -0.020322
    16  C    0.120689
    17  C   -0.068632
    18  C   -0.028423
    19  C    0.013785
    20  C    0.011851
    21  C    0.226475
    22  C    0.016859
    23  C    0.181429
    24  C    0.075764
    25  C   -0.068215
    26  C    0.012124
    27  C    0.011768
    28  C    0.019103
    29  C   -0.031586
    30  C    0.125557
    31  C    0.123748
    32  C   -0.165322
    33  C   -0.044434
    34  C   -0.028677
    35  C    0.156521
    36  C   -0.018277
    37  C   -0.051572
    38  C   -0.032343
    39  C   -0.012708
    40  C   -0.006339
    41  C   -0.050703
    42  C   -0.039407
    43  C    0.158115
    44  C   -0.042259
 Electronic spatial extent (au):  <R**2>=         114931.4353
 Charge=             -0.0000 electrons
 Dipole moment (field-independent basis, Debye):
    X=              5.7649    Y=             -0.1430    Z=              1.2543  Tot=              5.9015
 Quadrupole moment (field-independent basis, Debye-Ang):
   XX=           -262.4886   YY=           -257.4632   ZZ=           -277.0007
   XY=             -1.6415   XZ=             28.7725   YZ=             -6.3983
 Traceless Quadrupole moment (field-independent basis, Debye-Ang):
   XX=              3.1622   YY=              8.1876   ZZ=            -11.3498
   XY=             -1.6415   XZ=             28.7725   YZ=             -6.3983
 Octapole moment (field-independent basis, Debye-Ang**2):
  XXX=           1478.1809  YYY=             14.1043  ZZZ=            -16.3900  XYY=             58.9551
  XXY=             -1.3644  XXZ=            210.6149  XZZ=             65.5721  YZZ=             -6.3482
  YYZ=            -17.2885  XYZ=           -111.2338
 Hexadecapole moment (field-independent basis, Debye-Ang**3):
 XXXX=        -147800.1520 YYYY=          -3735.9586 ZZZZ=          -2254.0506 XXXY=          -2381.4063
 XXXZ=           6190.7436 YYYX=           -208.6332 YYYZ=            -52.7625 ZZZX=            -45.4687
 ZZZY=            -20.6815 XXYY=         -25268.2395 XXZZ=         -25345.0395 YYZZ=          -1043.7916
 XXYZ=            -23.0809 YYXZ=            176.9987 ZZXY=             88.1425
 N-N= 4.454553670963D+03 E-N=-1.321892929699D+04  KE= 1.839175545764D+03
 1\1\GINC-RYZEN-SSD3\SP\RCAM-B3LYP TD-FC\6-31G(d,p)\C40H56O4\PADAWAN\01
 -Aug-2019\0\\# td=(NStates=1) CAM-B3LYP/6-31G(d,p)\\TD\\0,1\O,0,-11.75
 49921668,0.1466053089,-1.5213392975\O,0,-13.1874895848,-2.4234806561,1
 .4299786829\O,0,10.6933048504,-1.006650553,-2.235207247\O,0,14.4497683
 435,-0.9446231838,0.0907945921\C,0,-11.0723654037,-0.2204860033,-0.425
 6119856\C,0,-11.7061269024,-1.2440055805,-1.2750463449\C,0,-11.7222042
 634,0.2691936022,0.9148311381\C,0,-13.0380590096,-1.8618163395,-0.9562
 072547\C,0,-13.2222306811,-0.0473221798,0.859240612\C,0,-13.6170081343
 ,-1.4932508629,0.5341221795\C,0,-10.8194275315,-2.1716825858,-2.086831
 0014\C,0,-9.6029097348,0.0301001438,-0.4787048286\C,0,-10.9936053379,-
 0.2647020662,2.1850635735\C,0,-11.5785682371,1.8078358867,0.9719652882
 \C,0,-8.595162938,-0.6631943606,0.0929980388\C,0,-7.1892069103,-0.4507
 169178,0.2016478651\C,0,-6.3169757125,-1.6140100898,0.6099332296\C,0,-
 6.570472709,0.7592267526,-0.089967552\C,0,-5.1856585075,1.0714891856,0
 .0472503948\C,0,11.8793071776,0.0570157311,1.3510846366\C,0,11.7496322
 533,-0.6349896542,-1.2403779175\C,0,12.5732645546,-1.389193149,1.50912
 5646\C,0,13.3306577525,-1.7628008135,0.3264366081\C,0,12.5388088156,-1
 .8411286219,-0.9534993124\C,0,11.0241493028,-0.0863438865,0.0692741077
 \C,0,10.8417955845,0.1450611481,2.4310354437\C,0,12.8938124979,1.12593
 58144,1.3255756086\C,0,12.6569319994,0.3722961029,-1.9974536932\C,0,-4
 .7150680025,2.3394864546,-0.3877936283\C,0,9.9122624137,0.4667674795,-
 0.1415253292\C,0,-3.3513202904,2.647413495,-0.4167319339\C,0,8.6111909
 051,0.96036237,-0.1399483348\C,0,-3.0192836135,4.0910005596,-0.7519849
 306\C,0,-2.319488864,1.7330751562,-0.2098935241\C,0,7.4726668092,0.111
 4717352,-0.0488940735\C,0,7.5411388504,-1.4293898911,-0.0186419413\C,0
 ,6.2523865867,0.7402709574,-0.1798919252\C,0,-1.0006942009,1.939833107
 ,-0.1853067058\C,0,4.9622478276,0.0706061767,0.0206334321\C,0,0.054341
 9132,0.9993332432,-0.127281831\C,0,3.7640958173,0.7860489553,-0.112068
 6759\C,0,1.4253744782,1.2780995377,-0.1239847794\C,0,2.3912870292,0.39
 82691266,0.0427276307\C,0,2.2099108528,-1.032847465,0.3679053841\H,0,-
 13.0493867395,-2.8315861364,-1.1915643804\H,0,-13.6136965934,-1.579571
 9414,-1.7517516299\H,0,-13.8898067829,0.3130583746,1.8492976125\H,0,-1
 3.5151509087,0.5901241395,-0.0125835928\H,0,-14.8333806422,-1.69428814
 22,0.355537158\H,0,-10.6303316501,-2.9814549283,-1.4187671721\H,0,-11.
 3741376227,-2.4239071821,-3.1579140776\H,0,-9.8828704705,-1.5586350721
 ,-2.3064622587\H,0,-9.2693855934,0.874359567,-1.3105148616\H,0,-10.016
 3429619,0.2236336275,2.2574814909\H,0,-11.7699923601,-0.1660499034,2.8
 825866088\H,0,-10.8386345572,-1.383315208,2.3034111308\H,0,-11.8965721
 997,2.2472208441,0.1214853645\H,0,-12.0900952489,2.3822738029,1.834397
 1515\H,0,-10.3816484469,1.9779283833,1.1124955431\H,0,-12.1845215247,-
 2.4979226659,1.4825027292\H,0,-8.9132721691,-1.7683851962,0.5754866476
 \H,0,-5.3057900251,-1.7902723523,-0.1726753119\H,0,-5.7232147368,-1.59
 54447771,1.594587855\H,0,-6.8976598766,-2.5305053235,0.9445006009\H,0,
 -7.1966509762,1.5676350926,-0.4724269192\H,0,-4.5192385686,0.158034421
 8,0.3420004243\H,0,13.1037660537,-1.2161132987,2.4508200226\H,0,11.820
 4972267,-2.1295923392,1.5522512248\H,0,13.7229646534,-2.8735890239,0.3
 528322091\H,0,13.1589933378,-1.9033068092,-1.6545985546\H,0,11.9186818
 764,-2.7647055945,-0.8099163337\H,0,11.2678463928,0.1837787446,3.45191
 02297\H,0,10.4783148092,1.1743229954,2.3526427885\H,0,10.2171593371,-0
 .869875302,2.3921254537\H,0,13.4644033422,1.2820668309,0.376691734\H,0
 ,12.558158429,2.2091603538,1.3601407198\H,0,13.5380796451,0.9071551946
 ,2.2563721188\H,0,12.9318840079,-0.0209387035,-2.8801504669\H,0,12.136
 9907675,1.292031294,-2.1570636413\H,0,13.5799088235,0.4946955225,-1.38
 75542408\H,0,-5.3471569396,3.2059949863,-0.8262940402\H,0,10.349006151
 2,-0.0605647141,-2.6738397198\H,0,14.947167562,-1.1294727617,0.9134999
 493\H,0,8.3737392247,2.0340057278,-0.1986171389\H,0,-2.2628013643,4.58
 57250222,-0.0798121515\H,0,-2.279926757,4.1992971545,-1.66300941\H,0,-
 3.7405304381,4.6487530571,-1.0957693784\H,0,-2.797939414,0.6210343154,
 -0.2210050551\H,0,6.6409468446,-1.9570052626,-0.3135488702\H,0,8.21886
 71012,-1.8135160764,-0.7439351676\H,0,7.7880187235,-1.7949618246,1.092
 3829992\H,0,6.3518703341,1.7707908845,-0.4798900087\H,0,-0.5402953865,
 3.0835824017,-0.348414753\H,0,4.9356095474,-0.9988463813,0.4463473158\
 H,0,-0.2487537986,-0.093221135,-0.0412715161\H,0,4.022871455,1.7982454
 607,-0.3487270977\H,0,1.6205989351,2.4045162435,-0.134856184\H,0,1.083
 9072255,-1.2862852327,0.5682358192\H,0,2.4261939442,-1.8205083523,-0.4
 356013301\H,0,2.9681535118,-1.3661208411,1.0785011367\\Version=ES64L-G
 16RevA.03\State=1-A\HF=-1857.2975757\RMSD=3.990e-09\PG=C01 [X(C40H56O4
 )]\\@


    WHAT WE HAVE LEARNED
 IS LIKE A HANDFUL OF EARTH;
  WHAT WE HAVE YET TO LEARN
   IS LIKE THE WHOLE WORLD.

         -- AVVAYIAR
 Job cpu time:       0 days  6 hours 47 minutes 51.1 seconds.
 Elapsed time:       0 days  2 hours 16 minutes 12.9 seconds.
 File lengths (MBytes):  RWF=   3379 Int=      0 D2E=      0 Chk=     90 Scr=      1
 Normal termination of Gaussian 16 at Thu Aug  1 02:13:44 2019.
