 Entering Gaussian System, Link 0=g16
 Input=Geometria-247-.com
 Output=Geometria-247-.log
 Initial command:
 /usr/local/g16/l1.exe "/home/padawan/israel-mol/neoxanthin/spectra/emi/Gau-89511.inp" -scrdir="/home/padawan/israel-mol/neoxanthin/spectra/emi/"
 Entering Link 1 = /usr/local/g16/l1.exe PID=     89513.
  
 Copyright (c) 1988,1990,1992,1993,1995,1998,2003,2009,2016,
            Gaussian, Inc.  All Rights Reserved.
  
 This is part of the Gaussian(R) 16 program.  It is based on
 the Gaussian(R) 09 system (copyright 2009, Gaussian, Inc.),
 the Gaussian(R) 03 system (copyright 2003, Gaussian, Inc.),
 the Gaussian(R) 98 system (copyright 1998, Gaussian, Inc.),
 the Gaussian(R) 94 system (copyright 1995, Gaussian, Inc.),
 the Gaussian 92(TM) system (copyright 1992, Gaussian, Inc.),
 the Gaussian 90(TM) system (copyright 1990, Gaussian, Inc.),
 the Gaussian 88(TM) system (copyright 1988, Gaussian, Inc.),
 the Gaussian 86(TM) system (copyright 1986, Carnegie Mellon
 University), and the Gaussian 82(TM) system (copyright 1983,
 Carnegie Mellon University). Gaussian is a federally registered
 trademark of Gaussian, Inc.
  
 This software contains proprietary and confidential information,
 including trade secrets, belonging to Gaussian, Inc.
  
 This software is provided under written license and may be
 used, copied, transmitted, or stored only in accord with that
 written license.
  
 The following legend is applicable only to US Government
 contracts under FAR:
  
                    RESTRICTED RIGHTS LEGEND
  
 Use, reproduction and disclosure by the US Government is
 subject to restrictions as set forth in subparagraphs (a)
 and (c) of the Commercial Computer Software - Restricted
 Rights clause in FAR 52.227-19.
  
 Gaussian, Inc.
 340 Quinnipiac St., Bldg. 40, Wallingford CT 06492
  
  
 ---------------------------------------------------------------
 Warning -- This program may not be used in any manner that
 competes with the business of Gaussian, Inc. or will provide
 assistance to any competitor of Gaussian, Inc.  The licensee
 of this program is prohibited from giving any competitor of
 Gaussian, Inc. access to this program.  By using this program,
 the user acknowledges that Gaussian, Inc. is engaged in the
 business of creating and licensing software in the field of
 computational chemistry and represents and warrants to the
 licensee that it is not a competitor of Gaussian, Inc. and that
 it will not use this program in any manner prohibited above.
 ---------------------------------------------------------------
  

 Cite this work as:
 Gaussian 16, Revision A.03,
 M. J. Frisch, G. W. Trucks, H. B. Schlegel, G. E. Scuseria, 
 M. A. Robb, J. R. Cheeseman, G. Scalmani, V. Barone, 
 G. A. Petersson, H. Nakatsuji, X. Li, M. Caricato, A. V. Marenich, 
 J. Bloino, B. G. Janesko, R. Gomperts, B. Mennucci, H. P. Hratchian, 
 J. V. Ortiz, A. F. Izmaylov, J. L. Sonnenberg, D. Williams-Young, 
 F. Ding, F. Lipparini, F. Egidi, J. Goings, B. Peng, A. Petrone, 
 T. Henderson, D. Ranasinghe, V. G. Zakrzewski, J. Gao, N. Rega, 
 G. Zheng, W. Liang, M. Hada, M. Ehara, K. Toyota, R. Fukuda, 
 J. Hasegawa, M. Ishida, T. Nakajima, Y. Honda, O. Kitao, H. Nakai, 
 T. Vreven, K. Throssell, J. A. Montgomery, Jr., J. E. Peralta, 
 F. Ogliaro, M. J. Bearpark, J. J. Heyd, E. N. Brothers, K. N. Kudin, 
 V. N. Staroverov, T. A. Keith, R. Kobayashi, J. Normand, 
 K. Raghavachari, A. P. Rendell, J. C. Burant, S. S. Iyengar, 
 J. Tomasi, M. Cossi, J. M. Millam, M. Klene, C. Adamo, R. Cammi, 
 J. W. Ochterski, R. L. Martin, K. Morokuma, O. Farkas, 
 J. B. Foresman, and D. J. Fox, Gaussian, Inc., Wallingford CT, 2016.
 
 ******************************************
 Gaussian 16:  ES64L-G16RevA.03 25-Dec-2016
                31-Jul-2019 
 ******************************************
 %nproc=3
 Will use up to    3 processors via shared memory.
 %Mem=2GB
 -------------------------------------
 # td=(NStates=1) CAM-B3LYP/6-31G(d,p)
 -------------------------------------
 1/38=1,172=1/1;
 2/12=2,17=6,18=5,40=1/2;
 3/5=1,6=6,7=101,11=9,25=1,30=1,74=-40/1,2,3,8;
 4//1;
 5/5=2,38=5/2;
 8/6=1,10=2,108=1/1;
 9/41=1,42=1,70=2/14;
 6/7=2,8=2,9=2,10=2/1;
 99/5=1,9=1/99;
 --
 TD
 --
 Symbolic Z-matrix:
 Charge =  0 Multiplicity = 1
 8                    -11.72717   0.48082  -1.46147 
 8                    -13.14038  -2.36976   1.21016 
 8                     10.70327  -1.01623  -1.89816 
 8                     14.56263  -0.80402  -0.13588 
 6                    -11.14205  -0.00656  -0.26967 
 6                    -11.68945  -0.99432  -1.23925 
 6                    -11.82922   0.43571   1.00395 
 6                    -13.09167  -1.56062  -0.94637 
 6                    -13.32643   0.08156   0.86339 
 6                    -13.66259  -1.33787   0.44988 
 6                    -10.86226  -1.8112   -2.20221 
 6                    -9.59037   0.09829  -0.3342 
 6                    -11.1079  -0.17867   2.21187 
 6                    -11.64816   1.95132   1.07818 
 6                    -8.70451  -0.73771   0.25131 
 6                    -7.23148  -0.59189   0.41213 
 6                    -6.51299  -1.86092   0.78275 
 6                    -6.57661   0.5668    0.08178 
 6                    -5.22049   0.78334   0.00731 
 6                     11.98767   0.12976   1.39517 
 6                     11.63952  -0.49014  -1.10312 
 6                     12.7694  -1.14842   1.52814 
 6                     13.43722  -1.62805   0.23829 
 6                     12.56008  -1.8246   -0.8944 
 6                     10.97915   0.09911   0.08172 
 6                     10.97413   0.25261   2.65828 
 6                     12.85349   1.38272   1.3445 
 6                     12.47219   0.59124  -1.8749 
 6                    -4.72069   1.9726   -0.43074 
 6                     9.89703   0.69125   0.10295 
 6                    -3.34371   2.35969  -0.56224 
 6                     8.63697   0.9374   -0.20331 
 6                    -3.02083   3.79582  -0.56397 
 6                    -2.29147   1.36965  -0.43751 
 6                     7.47594   0.04577  -0.11139 
 6                     7.76146  -1.42609   0.24202 
 6                     6.25996   0.61871  -0.23089 
 6                    -0.88157   1.65208  -0.44381 
 6                     4.96627  -0.06323  -0.21473 
 6                     0.03611   0.69713  -0.27262 
 6                     3.75983   0.7122   -0.40263 
 6                     1.38618   0.88441  -0.2973 
 6                     2.53396   0.12131  -0.19484 
 6                     2.35928  -1.34383   0.11623 
 1                    -13.14702  -2.64821  -1.37236 
 1                    -13.55074  -0.97649  -1.73621 
 1                    -13.92535   0.17779   1.83805 
 1                    -13.96471   0.62736   0.08495 
 1                    -14.89955  -1.53396   0.52293 
 1                    -10.742   -2.80239  -1.87014 
 1                    -11.47763  -2.04011  -3.20671 
 1                    -9.89056  -1.36982  -2.54188 
 1                    -9.08108   1.05494  -0.79649 
 1                    -10.16231   0.24156   2.12476 
 1                    -11.64813   0.33177   2.97125 
 1                    -11.15006  -1.31494   2.2146 
 1                    -11.81231   2.40332   0.01125 
 1                    -12.36324   2.24802   1.81504 
 1                    -10.70503   2.47953   1.68955 
 1                    -12.12841  -2.2506    1.16958 
 1                    -9.04974  -1.7782    0.74111 
 1                    -6.14646  -2.22924  -0.34188 
 1                    -5.78661  -1.65425   1.30842 
 1                    -7.30719  -2.51207   0.95668 
 1                    -7.2146    1.44796  -0.29039 
 1                    -4.54767  -0.05343   0.10296 
 1                     13.47533  -1.09644   2.21866 
 1                     11.77475  -1.90194   1.70517 
 1                     13.86717  -2.69517   0.27241 
 1                     13.10049  -2.07345  -1.80986 
 1                     12.02526  -2.73689  -0.41726 
 1                     11.70716   0.16812   3.50819 
 1                     10.6084   1.08574   2.58836 
 1                     10.18194  -0.61853   2.67207 
 1                     13.81407   1.32678   0.74618 
 1                     12.50808   2.20654   1.22268 
 1                     13.11487   1.28725   2.316 
 1                     13.08877   0.20091  -2.95836 
 1                     11.80122   1.53191  -2.17226 
 1                     13.34347   0.91812  -1.04741 
 1                    -5.38532   2.95909  -0.65019 
 1                     9.73555  -0.45995  -1.76702 
 1                     14.98957  -0.69397   0.81168 
 1                     8.46508   1.96403  -0.4566 
 1                    -2.68797   4.23658   0.3487 
 1                    -2.26767   3.9649   -1.44045 
 1                    -3.8202    4.39191  -0.75419 
 1                    -2.4732    0.3134   -0.45088 
 1                     6.91875  -2.11366  -0.12416 
 1                     8.64195  -1.83011  -0.39292 
 1                     7.86882  -1.67783   1.36869 
 1                     6.17645   1.7692   -0.52516 
 1                    -0.72752   2.68975  -0.46643 
 1                     4.91065  -1.20526  -0.12704 
 1                    -0.16505  -0.43959  -0.22683 
 1                     3.87869   1.72959  -0.64651 
 1                     1.66025   2.0115   -0.62257 
 1                     1.5411   -1.74383   0.34162 
 1                     2.75923  -2.08424  -0.82059 
 1                     2.8742   -1.52943   0.83301 
 
 Stoichiometry    C40H56O4
 Framework group  C1[X(C40H56O4)]
 Deg. of freedom   294
 Full point group                 C1      NOp   1
 Largest Abelian subgroup         C1      NOp   1
 Largest concise Abelian subgroup C1      NOp   1
                         Standard orientation:                         
 ---------------------------------------------------------------------
 Center     Atomic      Atomic             Coordinates (Angstroms)
 Number     Number       Type             X           Y           Z
 ---------------------------------------------------------------------
      1          8           0      -11.725863    0.499927   -1.454582
      2          8           0      -13.139064   -2.380135    1.185241
      3          8           0       10.704403   -0.994044   -1.910110
      4          8           0       14.563954   -0.801816   -0.145942
      5          6           0      -11.140673   -0.000761   -0.268339
      6          6           0      -11.688243   -0.977601   -1.248824
      7          6           0      -11.827686    0.427345    1.010195
      8          6           0      -13.090492   -1.547009   -0.962133
      9          6           0      -13.324935    0.074910    0.865842
     10          6           0      -13.661257   -1.339789    0.436569
     11          6           0      -10.861221   -1.783760   -2.220911
     12          6           0       -9.588986    0.104673   -0.331851
     13          6           0      -11.106294   -0.200527    2.211117
     14          6           0      -11.646480    1.942018    1.101295
     15          6           0       -8.703147   -0.737876    0.244221
     16          6           0       -7.230086   -0.593980    0.406509
     17          6           0       -6.511663   -1.867127    0.762891
     18          6           0       -6.575151    0.568264    0.089034
     19          6           0       -5.219019    0.785510    0.016848
     20          6           0       11.989219    0.115056    1.395669
     21          6           0       11.640779   -0.476923   -1.109346
     22          6           0       12.770859   -1.164594    1.514304
     23          6           0       13.438509   -1.629869    0.219123
     24          6           0       12.561246   -1.813706   -0.915604
     25          6           0       10.980577    0.099137    0.082053
     26          6           0       10.975811    0.223901    2.660168
     27          6           0       12.855141    1.368429    1.358885
     28          6           0       12.473469    0.612917   -1.869100
     29          6           0       -4.719156    1.979537   -0.407959
     30          6           0        9.898505    0.691090    0.109992
     31          6           0       -3.342157    2.367958   -0.535268
     32          6           0        8.638439    0.940745   -0.193386
     33          6           0       -3.019159    3.803987   -0.521019
     34          6           0       -2.289986    1.376495   -0.421685
     35          6           0        7.477336    0.048238   -0.111295
     36          6           0        7.762769   -1.427489    0.225661
     37          6           0        6.261393    0.622580   -0.224279
     38          6           0       -0.880069    1.658865   -0.424979
     39          6           0        4.967648   -0.059385   -0.215600
     40          6           0        0.037549    0.701987   -0.264528
     41          6           0        3.761253    0.718192   -0.394725
     42          6           0        1.387633    0.889414   -0.287256
     43          6           0        2.535359    0.125125   -0.193414
     44          6           0        2.360578   -1.343378    0.101316
     45          1           0      -13.145968   -2.629779   -1.400222
     46          1           0      -13.549584   -0.954077   -1.745371
     47          1           0      -13.923753    0.160323    1.841568
     48          1           0      -13.963238    0.629405    0.093592
     49          1           0      -14.898222   -1.536585    0.507549
     50          1           0      -10.741015   -2.778601   -1.899923
     51          1           0      -11.476704   -2.001408   -3.227837
     52          1           0       -9.889516   -1.338702   -2.555726
     53          1           0       -9.079658    1.066375   -0.783500
     54          1           0      -10.160677    0.220568    2.128608
     55          1           0      -11.646411    0.301464    2.976192
     56          1           0      -11.148549   -1.336748    2.201190
     57          1           0      -11.810702    2.405894    0.039495
     58          1           0      -12.361471    2.230545    1.841486
     59          1           0      -10.703252    2.463299    1.718432
     60          1           0      -12.127079   -2.260617    1.145898
     61          1           0       -9.048410   -1.783727    0.722424
     62          1           0       -6.145281   -2.222909   -0.365814
     63          1           0       -5.785220   -1.666387    1.290760
     64          1           0       -7.305907   -2.520108    0.929629
     65          1           0       -7.213102    1.453577   -0.273226
     66          1           0       -4.546260   -0.052328    0.103099
     67          1           0       13.476859   -1.120377    2.205292
     68          1           0       11.776160   -1.919958    1.683018
     69          1           0       13.868372   -2.697343    0.241309
     70          1           0       13.101543   -2.052387   -1.833835
     71          1           0       12.026395   -2.731219   -0.448606
     72          1           0       11.708917    0.129875    3.509009
     73          1           0       10.610144    1.057792    2.599574
     74          1           0       10.183546   -0.647274    2.664327
     75          1           0       13.815658    1.319082    0.759887
     76          1           0       12.509794    2.193584    1.246290
     77          1           0       13.116605    1.262114    2.329236
     78          1           0       13.089908    0.234644   -2.956901
     79          1           0       11.802544    1.556897   -2.155884
     80          1           0       13.344848    0.930479   -1.038101
     81          1           0       -5.383726    2.968468   -0.616332
     82          1           0        9.736752   -0.439183   -1.772678
     83          1           0       14.990996   -0.702372    0.802742
     84          1           0        8.466607    1.970148   -0.435197
     85          1           0       -2.686174    4.234516    0.396473
     86          1           0       -2.266061    3.982767   -1.395633
     87          1           0       -3.818492    4.402224   -0.704503
     88          1           0       -2.471808    0.320479   -0.446813
     89          1           0        6.919969   -2.110865   -0.148084
     90          1           0        8.643162   -1.824478   -0.413833
     91          1           0        7.870211   -1.691784    1.349441
     92          1           0        6.177958    1.776288   -0.505705
     93          1           0       -0.725934    2.696708   -0.436038
     94          1           0        4.911938   -1.202317   -0.140642
     95          1           0       -0.163699   -0.435155   -0.231398
     96          1           0        3.880178    1.738224   -0.627258
     97          1           0        1.661770    2.020034   -0.599970
     98          1           0        1.542393   -1.745799    0.322315
     99          1           0        2.760377   -2.073337   -0.843739
    100          1           0        2.875560   -1.536999    0.815929
 ---------------------------------------------------------------------
 Rotational constants (GHZ):           0.2829711           0.0087967           0.0087348
 Standard basis: 6-31G(d,p) (6D, 7F)
 There are   940 symmetry adapted cartesian basis functions of A   symmetry.
 There are   940 symmetry adapted basis functions of A   symmetry.
   940 basis functions,  1624 primitive gaussians,   940 cartesian basis functions
   164 alpha electrons      164 beta electrons
       nuclear repulsion energy      4460.3738674218 Hartrees.
 NAtoms=  100 NActive=  100 NUniq=  100 SFac= 1.00D+00 NAtFMM=   60 NAOKFM=T Big=T
 Integral buffers will be    131072 words long.
 Raffenetti 1 integral format.
 Two-electron integral symmetry is turned on.
 One-electron integrals computed using PRISM.
 NBasis=   940 RedAO= T EigKep=  4.99D-04  NBF=   940
 NBsUse=   940 1.00D-06 EigRej= -1.00D+00 NBFU=   940
 ExpMin= 1.61D-01 ExpMax= 5.48D+03 ExpMxC= 8.25D+02 IAcc=3 IRadAn=         5 AccDes= 0.00D+00
 Harris functional with IExCor=20419 and IRadAn=       5 diagonalized for initial guess.
 HarFok:  IExCor=20419 AccDes= 0.00D+00 IRadAn=         5 IDoV= 1 UseB2=F ITyADJ=14
 ICtDFT=  3500011 ScaDFX=  1.000000  1.000000  1.000000  1.000000
 FoFCou: FMM=F IPFlag=           0 FMFlag=      100000 FMFlg1=        2001
         NFxFlg=           0 DoJE=T BraDBF=F KetDBF=T FulRan=T
         wScrn=  0.000000 ICntrl=       500 IOpCl=  0 I1Cent=   200000004 NGrid=           0
         NMat0=    1 NMatS0=      1 NMatT0=    0 NMatD0=    1 NMtDS0=    0 NMtDT0=    0
 Petite list used in FoFCou.
 Requested convergence on RMS density matrix=1.00D-08 within 128 cycles.
 Requested convergence on MAX density matrix=1.00D-06.
 Requested convergence on             energy=1.00D-06.
 No special actions if energy rises.
 Integral accuracy reduced to 1.0D-05 until final iterations.
 Initial convergence to 1.0D-05 achieved.  Increase integral accuracy.
 SCF Done:  E(RCAM-B3LYP) =  -1857.13693900     A.U. after   15 cycles
            NFock= 15  Conv=0.55D-08     -V/T= 2.0092
 DoSCS=F DFT=T ScalE2(SS,OS)=  1.000000  1.000000
 ExpMin= 1.61D-01 ExpMax= 5.48D+03 ExpMxC= 8.25D+02 IAcc=3 IRadAn=         5 AccDes= 0.00D+00
 HarFok:  IExCor=  205 AccDes= 0.00D+00 IRadAn=         5 IDoV=-2 UseB2=F ITyADJ=14
 ICtDFT= 12500011 ScaDFX=  1.000000  1.000000  1.000000  1.000000
 GSVD:  LWork=       -2288 too small for GESVD, short by       10340 words or       10340 for optimal perf.
 Range of M.O.s used for correlation:    45   940
 NBasis=   940 NAE=   164 NBE=   164 NFC=    44 NFV=     0
 NROrb=    896 NOA=   120 NOB=   120 NVA=   776 NVB=   776
 Orbital symmetries:
       Occupied  (A) (A) (A) (A) (A) (A) (A) (A) (A) (A) (A) (A)
                 (A) (A) (A) (A) (A) (A) (A) (A) (A) (A) (A) (A)
                 (A) (A) (A) (A) (A) (A) (A) (A) (A) (A) (A) (A)
                 (A) (A) (A) (A) (A) (A) (A) (A) (A) (A) (A) (A)
                 (A) (A) (A) (A) (A) (A) (A) (A) (A) (A) (A) (A)
                 (A) (A) (A) (A) (A) (A) (A) (A) (A) (A) (A) (A)
                 (A) (A) (A) (A) (A) (A) (A) (A) (A) (A) (A) (A)
                 (A) (A) (A) (A) (A) (A) (A) (A) (A) (A) (A) (A)
                 (A) (A) (A) (A) (A) (A) (A) (A) (A) (A) (A) (A)
                 (A) (A) (A) (A) (A) (A) (A) (A) (A) (A) (A) (A)
                 (A) (A) (A) (A) (A) (A) (A) (A) (A) (A) (A) (A)
                 (A) (A) (A) (A) (A) (A) (A) (A) (A) (A) (A) (A)
                 (A) (A) (A) (A) (A) (A) (A) (A) (A) (A) (A) (A)
                 (A) (A) (A) (A) (A) (A) (A) (A)
       Virtual   (A) (A) (A) (A) (A) (A) (A) (A) (A) (A) (A) (A)
                 (A) (A) (A) (A) (A) (A) (A) (A) (A) (A) (A) (A)
                 (A) (A) (A) (A) (A) (A) (A) (A) (A) (A) (A) (A)
                 (A) (A) (A) (A) (A) (A) (A) (A) (A) (A) (A) (A)
                 (A) (A) (A) (A) (A) (A) (A) (A) (A) (A) (A) (A)
                 (A) (A) (A) (A) (A) (A) (A) (A) (A) (A) (A) (A)
                 (A) (A) (A) (A) (A) (A) (A) (A) (A) (A) (A) (A)
                 (A) (A) (A) (A) (A) (A) (A) (A) (A) (A) (A) (A)
                 (A) (A) (A) (A) (A) (A) (A) (A) (A) (A) (A) (A)
                 (A) (A) (A) (A) (A) (A) (A) (A) (A) (A) (A) (A)
                 (A) (A) (A) (A) (A) (A) (A) (A) (A) (A) (A) (A)
                 (A) (A) (A) (A) (A) (A) (A) (A) (A) (A) (A) (A)
                 (A) (A) (A) (A) (A) (A) (A) (A) (A) (A) (A) (A)
                 (A) (A) (A) (A) (A) (A) (A) (A) (A) (A) (A) (A)
                 (A) (A) (A) (A) (A) (A) (A) (A) (A) (A) (A) (A)
                 (A) (A) (A) (A) (A) (A) (A) (A) (A) (A) (A) (A)
                 (A) (A) (A) (A) (A) (A) (A) (A) (A) (A) (A) (A)
                 (A) (A) (A) (A) (A) (A) (A) (A) (A) (A) (A) (A)
                 (A) (A) (A) (A) (A) (A) (A) (A) (A) (A) (A) (A)
                 (A) (A) (A) (A) (A) (A) (A) (A) (A) (A) (A) (A)
                 (A) (A) (A) (A) (A) (A) (A) (A) (A) (A) (A) (A)
                 (A) (A) (A) (A) (A) (A) (A) (A) (A) (A) (A) (A)
                 (A) (A) (A) (A) (A) (A) (A) (A) (A) (A) (A) (A)
                 (A) (A) (A) (A) (A) (A) (A) (A) (A) (A) (A) (A)
                 (A) (A) (A) (A) (A) (A) (A) (A) (A) (A) (A) (A)
                 (A) (A) (A) (A) (A) (A) (A) (A) (A) (A) (A) (A)
                 (A) (A) (A) (A) (A) (A) (A) (A) (A) (A) (A) (A)
                 (A) (A) (A) (A) (A) (A) (A) (A) (A) (A) (A) (A)
                 (A) (A) (A) (A) (A) (A) (A) (A) (A) (A) (A) (A)
                 (A) (A) (A) (A) (A) (A) (A) (A) (A) (A) (A) (A)
                 (A) (A) (A) (A) (A) (A) (A) (A) (A) (A) (A) (A)
                 (A) (A) (A) (A) (A) (A) (A) (A) (A) (A) (A) (A)
                 (A) (A) (A) (A) (A) (A) (A) (A) (A) (A) (A) (A)
                 (A) (A) (A) (A) (A) (A) (A) (A) (A) (A) (A) (A)
                 (A) (A) (A) (A) (A) (A) (A) (A) (A) (A) (A) (A)
                 (A) (A) (A) (A) (A) (A) (A) (A) (A) (A) (A) (A)
                 (A) (A) (A) (A) (A) (A) (A) (A) (A) (A) (A) (A)
                 (A) (A) (A) (A) (A) (A) (A) (A) (A) (A) (A) (A)
                 (A) (A) (A) (A) (A) (A) (A) (A) (A) (A) (A) (A)
                 (A) (A) (A) (A) (A) (A) (A) (A) (A) (A) (A) (A)
                 (A) (A) (A) (A) (A) (A) (A) (A) (A) (A) (A) (A)
                 (A) (A) (A) (A) (A) (A) (A) (A) (A) (A) (A) (A)
                 (A) (A) (A) (A) (A) (A) (A) (A) (A) (A) (A) (A)
                 (A) (A) (A) (A) (A) (A) (A) (A) (A) (A) (A) (A)
                 (A) (A) (A) (A) (A) (A) (A) (A) (A) (A) (A) (A)
                 (A) (A) (A) (A) (A) (A) (A) (A) (A) (A) (A) (A)
                 (A) (A) (A) (A) (A) (A) (A) (A) (A) (A) (A) (A)
                 (A) (A) (A) (A) (A) (A) (A) (A) (A) (A) (A) (A)
                 (A) (A) (A) (A) (A) (A) (A) (A) (A) (A) (A) (A)
                 (A) (A) (A) (A) (A) (A) (A) (A) (A) (A) (A) (A)
                 (A) (A) (A) (A) (A) (A) (A) (A) (A) (A) (A) (A)
                 (A) (A) (A) (A) (A) (A) (A) (A) (A) (A) (A) (A)
                 (A) (A) (A) (A) (A) (A) (A) (A) (A) (A) (A) (A)
                 (A) (A) (A) (A) (A) (A) (A) (A) (A) (A) (A) (A)
                 (A) (A) (A) (A) (A) (A) (A) (A) (A) (A) (A) (A)
                 (A) (A) (A) (A) (A) (A) (A) (A) (A) (A) (A) (A)
                 (A) (A) (A) (A) (A) (A) (A) (A) (A) (A) (A) (A)
                 (A) (A) (A) (A) (A) (A) (A) (A) (A) (A) (A) (A)
                 (A) (A) (A) (A) (A) (A) (A) (A) (A) (A) (A) (A)
                 (A) (A) (A) (A) (A) (A) (A) (A) (A) (A) (A) (A)
                 (A) (A) (A) (A) (A) (A) (A) (A) (A) (A) (A) (A)
                 (A) (A) (A) (A) (A) (A) (A) (A) (A) (A) (A) (A)
                 (A) (A) (A) (A) (A) (A) (A) (A) (A) (A) (A) (A)
                 (A) (A) (A) (A) (A) (A) (A) (A) (A) (A) (A) (A)
                 (A) (A) (A) (A) (A) (A) (A) (A)
     4 initial guesses have been made.
 Convergence on wavefunction:    0.001000000000000
 Iteration     1 Dimension     4 NMult     0 NNew      4
 CISAX will form     4 AO SS matrices at one time.
 Iteration     2 Dimension     6 NMult     4 NNew      2
 Iteration     3 Dimension     8 NMult     6 NNew      2
 Iteration     4 Dimension    10 NMult     8 NNew      2
 Iteration     5 Dimension    12 NMult    10 NNew      2
 Iteration     6 Dimension    14 NMult    12 NNew      2
 ***********************************************************************
 Excited states from <AA,BB:AA,BB> singles matrix:
 ***********************************************************************
 
 Ground to excited state transition densities written to RWF  633
 Ground to excited state transition electric dipole moments (Au):
       state          X           Y           Z        Dip. S.      Osc.
         1        -7.7606      0.3301     -0.0553     60.3396      3.1999
 Ground to excited state transition velocity dipole moments (Au):
       state          X           Y           Z        Dip. S.      Osc.
         1         0.5981     -0.0260      0.0046      0.3584      3.0037
 Ground to excited state transition magnetic dipole moments (Au):
       state          X           Y           Z
         1        -0.1349     -0.5879     -2.0789
 Ground to excited state transition velocity quadrupole moments (Au):
       state          XX          YY          ZZ          XY          XZ          YZ
         1         0.1765     -0.2542      0.0068     -0.3157      0.0752      0.0306
 <0|del|b> * <b|rxdel|0> + <0|del|b> * <b|delr+rdel|0>
 Rotatory Strengths (R) in cgs (10**-40 erg-esu-cm/Gauss)
       state          XX          YY          ZZ    R(velocity)    E-M Angle
         1        28.2502   -312.9439   -380.6168   -221.7701       93.31
 1/2[<0|r|b>*<b|rxdel|0> + (<0|rxdel|b>*<b|r|0>)*]
 Rotatory Strengths (R) in cgs (10**-40 erg-esu-cm/Gauss)
       state          XX          YY          ZZ     R(length)
         1      -740.2688    137.2365    -81.2346   -228.0890
  1/2[<0|del|b>*<b|r|0> + (<0|r|b>*<b|del|0>)*] (Au)
       state          X           Y           Z        Dip. S.   Osc.(frdel)
         1        -4.6415     -0.0086     -0.0003      4.6504      3.1003

 Excitation energies and oscillator strengths:
 
 Excited State   1:      Singlet-A      2.1646 eV  572.78 nm  f=3.1999  <S**2>=0.000
     163 ->166         0.14180
     164 ->165         0.69342
 This state for optimization and/or second-order correction.
 Total Energy, E(TD-HF/TD-DFT) =  -1857.05739145    
 Copying the excited state density for this state as the 1-particle RhoCI density.
 SavETr:  write IOETrn=   770 NScale= 10 NData=  16 NLR=1 NState=    1 LETran=      28.

 **********************************************************************

            Population analysis using the SCF density.

 **********************************************************************

 Orbital symmetries:
       Occupied  (A) (A) (A) (A) (A) (A) (A) (A) (A) (A) (A) (A)
                 (A) (A) (A) (A) (A) (A) (A) (A) (A) (A) (A) (A)
                 (A) (A) (A) (A) (A) (A) (A) (A) (A) (A) (A) (A)
                 (A) (A) (A) (A) (A) (A) (A) (A) (A) (A) (A) (A)
                 (A) (A) (A) (A) (A) (A) (A) (A) (A) (A) (A) (A)
                 (A) (A) (A) (A) (A) (A) (A) (A) (A) (A) (A) (A)
                 (A) (A) (A) (A) (A) (A) (A) (A) (A) (A) (A) (A)
                 (A) (A) (A) (A) (A) (A) (A) (A) (A) (A) (A) (A)
                 (A) (A) (A) (A) (A) (A) (A) (A) (A) (A) (A) (A)
                 (A) (A) (A) (A) (A) (A) (A) (A) (A) (A) (A) (A)
                 (A) (A) (A) (A) (A) (A) (A) (A) (A) (A) (A) (A)
                 (A) (A) (A) (A) (A) (A) (A) (A) (A) (A) (A) (A)
                 (A) (A) (A) (A) (A) (A) (A) (A) (A) (A) (A) (A)
                 (A) (A) (A) (A) (A) (A) (A) (A)
       Virtual   (A) (A) (A) (A) (A) (A) (A) (A) (A) (A) (A) (A)
                 (A) (A) (A) (A) (A) (A) (A) (A) (A) (A) (A) (A)
                 (A) (A) (A) (A) (A) (A) (A) (A) (A) (A) (A) (A)
                 (A) (A) (A) (A) (A) (A) (A) (A) (A) (A) (A) (A)
                 (A) (A) (A) (A) (A) (A) (A) (A) (A) (A) (A) (A)
                 (A) (A) (A) (A) (A) (A) (A) (A) (A) (A) (A) (A)
                 (A) (A) (A) (A) (A) (A) (A) (A) (A) (A) (A) (A)
                 (A) (A) (A) (A) (A) (A) (A) (A) (A) (A) (A) (A)
                 (A) (A) (A) (A) (A) (A) (A) (A) (A) (A) (A) (A)
                 (A) (A) (A) (A) (A) (A) (A) (A) (A) (A) (A) (A)
                 (A) (A) (A) (A) (A) (A) (A) (A) (A) (A) (A) (A)
                 (A) (A) (A) (A) (A) (A) (A) (A) (A) (A) (A) (A)
                 (A) (A) (A) (A) (A) (A) (A) (A) (A) (A) (A) (A)
                 (A) (A) (A) (A) (A) (A) (A) (A) (A) (A) (A) (A)
                 (A) (A) (A) (A) (A) (A) (A) (A) (A) (A) (A) (A)
                 (A) (A) (A) (A) (A) (A) (A) (A) (A) (A) (A) (A)
                 (A) (A) (A) (A) (A) (A) (A) (A) (A) (A) (A) (A)
                 (A) (A) (A) (A) (A) (A) (A) (A) (A) (A) (A) (A)
                 (A) (A) (A) (A) (A) (A) (A) (A) (A) (A) (A) (A)
                 (A) (A) (A) (A) (A) (A) (A) (A) (A) (A) (A) (A)
                 (A) (A) (A) (A) (A) (A) (A) (A) (A) (A) (A) (A)
                 (A) (A) (A) (A) (A) (A) (A) (A) (A) (A) (A) (A)
                 (A) (A) (A) (A) (A) (A) (A) (A) (A) (A) (A) (A)
                 (A) (A) (A) (A) (A) (A) (A) (A) (A) (A) (A) (A)
                 (A) (A) (A) (A) (A) (A) (A) (A) (A) (A) (A) (A)
                 (A) (A) (A) (A) (A) (A) (A) (A) (A) (A) (A) (A)
                 (A) (A) (A) (A) (A) (A) (A) (A) (A) (A) (A) (A)
                 (A) (A) (A) (A) (A) (A) (A) (A) (A) (A) (A) (A)
                 (A) (A) (A) (A) (A) (A) (A) (A) (A) (A) (A) (A)
                 (A) (A) (A) (A) (A) (A) (A) (A) (A) (A) (A) (A)
                 (A) (A) (A) (A) (A) (A) (A) (A) (A) (A) (A) (A)
                 (A) (A) (A) (A) (A) (A) (A) (A) (A) (A) (A) (A)
                 (A) (A) (A) (A) (A) (A) (A) (A) (A) (A) (A) (A)
                 (A) (A) (A) (A) (A) (A) (A) (A) (A) (A) (A) (A)
                 (A) (A) (A) (A) (A) (A) (A) (A) (A) (A) (A) (A)
                 (A) (A) (A) (A) (A) (A) (A) (A) (A) (A) (A) (A)
                 (A) (A) (A) (A) (A) (A) (A) (A) (A) (A) (A) (A)
                 (A) (A) (A) (A) (A) (A) (A) (A) (A) (A) (A) (A)
                 (A) (A) (A) (A) (A) (A) (A) (A) (A) (A) (A) (A)
                 (A) (A) (A) (A) (A) (A) (A) (A) (A) (A) (A) (A)
                 (A) (A) (A) (A) (A) (A) (A) (A) (A) (A) (A) (A)
                 (A) (A) (A) (A) (A) (A) (A) (A) (A) (A) (A) (A)
                 (A) (A) (A) (A) (A) (A) (A) (A) (A) (A) (A) (A)
                 (A) (A) (A) (A) (A) (A) (A) (A) (A) (A) (A) (A)
                 (A) (A) (A) (A) (A) (A) (A) (A) (A) (A) (A) (A)
                 (A) (A) (A) (A) (A) (A) (A) (A) (A) (A) (A) (A)
                 (A) (A) (A) (A) (A) (A) (A) (A) (A) (A) (A) (A)
                 (A) (A) (A) (A) (A) (A) (A) (A) (A) (A) (A) (A)
                 (A) (A) (A) (A) (A) (A) (A) (A) (A) (A) (A) (A)
                 (A) (A) (A) (A) (A) (A) (A) (A) (A) (A) (A) (A)
                 (A) (A) (A) (A) (A) (A) (A) (A) (A) (A) (A) (A)
                 (A) (A) (A) (A) (A) (A) (A) (A) (A) (A) (A) (A)
                 (A) (A) (A) (A) (A) (A) (A) (A) (A) (A) (A) (A)
                 (A) (A) (A) (A) (A) (A) (A) (A) (A) (A) (A) (A)
                 (A) (A) (A) (A) (A) (A) (A) (A) (A) (A) (A) (A)
                 (A) (A) (A) (A) (A) (A) (A) (A) (A) (A) (A) (A)
                 (A) (A) (A) (A) (A) (A) (A) (A) (A) (A) (A) (A)
                 (A) (A) (A) (A) (A) (A) (A) (A) (A) (A) (A) (A)
                 (A) (A) (A) (A) (A) (A) (A) (A) (A) (A) (A) (A)
                 (A) (A) (A) (A) (A) (A) (A) (A) (A) (A) (A) (A)
                 (A) (A) (A) (A) (A) (A) (A) (A) (A) (A) (A) (A)
                 (A) (A) (A) (A) (A) (A) (A) (A) (A) (A) (A) (A)
                 (A) (A) (A) (A) (A) (A) (A) (A) (A) (A) (A) (A)
                 (A) (A) (A) (A) (A) (A) (A) (A) (A) (A) (A) (A)
                 (A) (A) (A) (A) (A) (A) (A) (A)
 The electronic state is 1-A.
 Alpha  occ. eigenvalues --  -19.22185 -19.22062 -19.21702 -19.19730 -10.32828
 Alpha  occ. eigenvalues --  -10.32294 -10.32235 -10.30938 -10.30119 -10.28772
 Alpha  occ. eigenvalues --  -10.28409 -10.28287 -10.28234 -10.28143 -10.27969
 Alpha  occ. eigenvalues --  -10.27782 -10.27753 -10.27737 -10.27637 -10.27560
 Alpha  occ. eigenvalues --  -10.27486 -10.27284 -10.26939 -10.26865 -10.26842
 Alpha  occ. eigenvalues --  -10.26788 -10.26641 -10.26634 -10.26618 -10.26603
 Alpha  occ. eigenvalues --  -10.26529 -10.26487 -10.26402 -10.26116 -10.25859
 Alpha  occ. eigenvalues --  -10.25815 -10.25598 -10.25479 -10.25450 -10.25087
 Alpha  occ. eigenvalues --  -10.25026 -10.24695 -10.23928 -10.22301  -1.14578
 Alpha  occ. eigenvalues --   -1.10530  -1.09463  -1.08459  -0.92962  -0.92783
 Alpha  occ. eigenvalues --   -0.92420  -0.91823  -0.91005  -0.90478  -0.88205
 Alpha  occ. eigenvalues --   -0.86665  -0.86468  -0.85544  -0.85346  -0.83497
 Alpha  occ. eigenvalues --   -0.82615  -0.81516  -0.80290  -0.79909  -0.78359
 Alpha  occ. eigenvalues --   -0.77439  -0.77289  -0.76813  -0.76805  -0.75762
 Alpha  occ. eigenvalues --   -0.75118  -0.74432  -0.73000  -0.70682  -0.69013
 Alpha  occ. eigenvalues --   -0.67690  -0.66785  -0.65504  -0.64856  -0.63704
 Alpha  occ. eigenvalues --   -0.63546  -0.61892  -0.61686  -0.60658  -0.59664
 Alpha  occ. eigenvalues --   -0.59297  -0.58107  -0.57736  -0.57252  -0.56628
 Alpha  occ. eigenvalues --   -0.55991  -0.55739  -0.55517  -0.55143  -0.54419
 Alpha  occ. eigenvalues --   -0.53878  -0.53765  -0.53177  -0.53005  -0.52729
 Alpha  occ. eigenvalues --   -0.51597  -0.51128  -0.50931  -0.50659  -0.50252
 Alpha  occ. eigenvalues --   -0.49526  -0.49230  -0.49156  -0.49099  -0.48209
 Alpha  occ. eigenvalues --   -0.48122  -0.47952  -0.47873  -0.47475  -0.47316
 Alpha  occ. eigenvalues --   -0.46887  -0.46406  -0.45993  -0.45911  -0.45636
 Alpha  occ. eigenvalues --   -0.45226  -0.45099  -0.44984  -0.44471  -0.44353
 Alpha  occ. eigenvalues --   -0.43943  -0.43717  -0.42998  -0.42817  -0.42129
 Alpha  occ. eigenvalues --   -0.41962  -0.41879  -0.41657  -0.41559  -0.41153
 Alpha  occ. eigenvalues --   -0.40866  -0.40716  -0.40495  -0.40440  -0.40102
 Alpha  occ. eigenvalues --   -0.39794  -0.39594  -0.39295  -0.39080  -0.39003
 Alpha  occ. eigenvalues --   -0.38791  -0.38217  -0.38063  -0.37983  -0.36500
 Alpha  occ. eigenvalues --   -0.36239  -0.36032  -0.35301  -0.34353  -0.33778
 Alpha  occ. eigenvalues --   -0.32517  -0.31971  -0.31575  -0.31321  -0.30800
 Alpha  occ. eigenvalues --   -0.29018  -0.28032  -0.24494  -0.19904
 Alpha virt. eigenvalues --   -0.06396  -0.01262   0.02925   0.06121   0.07594
 Alpha virt. eigenvalues --    0.09079   0.09169   0.09811   0.11497   0.11665
 Alpha virt. eigenvalues --    0.11785   0.12242   0.12827   0.13118   0.13388
 Alpha virt. eigenvalues --    0.13547   0.13566   0.14194   0.14416   0.14641
 Alpha virt. eigenvalues --    0.15012   0.15250   0.15636   0.15811   0.15984
 Alpha virt. eigenvalues --    0.16354   0.16503   0.16776   0.17222   0.17564
 Alpha virt. eigenvalues --    0.17765   0.17818   0.18261   0.18386   0.18466
 Alpha virt. eigenvalues --    0.19199   0.19266   0.19800   0.19952   0.20163
 Alpha virt. eigenvalues --    0.20820   0.21099   0.21298   0.21370   0.21741
 Alpha virt. eigenvalues --    0.21984   0.22130   0.22517   0.22951   0.23223
 Alpha virt. eigenvalues --    0.23585   0.24145   0.24198   0.24470   0.24805
 Alpha virt. eigenvalues --    0.24896   0.25014   0.25427   0.25548   0.25593
 Alpha virt. eigenvalues --    0.25755   0.26100   0.26294   0.26335   0.26830
 Alpha virt. eigenvalues --    0.27085   0.27547   0.27931   0.27979   0.28088
 Alpha virt. eigenvalues --    0.28497   0.28652   0.29189   0.29330   0.29957
 Alpha virt. eigenvalues --    0.30036   0.30224   0.30676   0.30900   0.31488
 Alpha virt. eigenvalues --    0.31803   0.32208   0.32429   0.32969   0.33553
 Alpha virt. eigenvalues --    0.34140   0.34535   0.35275   0.36616   0.37230
 Alpha virt. eigenvalues --    0.37524   0.38437   0.38886   0.39147   0.40347
 Alpha virt. eigenvalues --    0.40686   0.40857   0.41204   0.42744   0.43051
 Alpha virt. eigenvalues --    0.44039   0.44160   0.45299   0.46634   0.47370
 Alpha virt. eigenvalues --    0.47654   0.48913   0.49602   0.50601   0.51658
 Alpha virt. eigenvalues --    0.53369   0.53839   0.54012   0.54368   0.55465
 Alpha virt. eigenvalues --    0.55776   0.56428   0.56572   0.56728   0.56815
 Alpha virt. eigenvalues --    0.57383   0.57784   0.58156   0.58643   0.58882
 Alpha virt. eigenvalues --    0.59332   0.59809   0.60204   0.60590   0.60761
 Alpha virt. eigenvalues --    0.61293   0.61631   0.62068   0.62154   0.62578
 Alpha virt. eigenvalues --    0.62624   0.62731   0.62857   0.63093   0.63506
 Alpha virt. eigenvalues --    0.63909   0.64552   0.64616   0.64807   0.64886
 Alpha virt. eigenvalues --    0.65323   0.65764   0.65817   0.66118   0.66189
 Alpha virt. eigenvalues --    0.66536   0.66720   0.67019   0.67776   0.67810
 Alpha virt. eigenvalues --    0.68258   0.68343   0.68860   0.69535   0.69657
 Alpha virt. eigenvalues --    0.69760   0.70647   0.70719   0.71153   0.71408
 Alpha virt. eigenvalues --    0.72010   0.72261   0.72496   0.73200   0.73315
 Alpha virt. eigenvalues --    0.73452   0.74054   0.74698   0.75366   0.75879
 Alpha virt. eigenvalues --    0.76136   0.76286   0.76976   0.77167   0.77664
 Alpha virt. eigenvalues --    0.78193   0.78536   0.79128   0.79627   0.79792
 Alpha virt. eigenvalues --    0.80145   0.80490   0.80824   0.81055   0.81382
 Alpha virt. eigenvalues --    0.81693   0.81718   0.82167   0.82929   0.83123
 Alpha virt. eigenvalues --    0.83201   0.83418   0.83929   0.84002   0.84110
 Alpha virt. eigenvalues --    0.84259   0.84526   0.85134   0.85544   0.85723
 Alpha virt. eigenvalues --    0.86187   0.86221   0.86444   0.86727   0.86986
 Alpha virt. eigenvalues --    0.87144   0.87298   0.87635   0.88266   0.88864
 Alpha virt. eigenvalues --    0.89057   0.89383   0.89870   0.90066   0.90353
 Alpha virt. eigenvalues --    0.90458   0.90734   0.90755   0.90934   0.91915
 Alpha virt. eigenvalues --    0.92509   0.92565   0.92819   0.93325   0.93516
 Alpha virt. eigenvalues --    0.93857   0.93959   0.94055   0.94602   0.94678
 Alpha virt. eigenvalues --    0.95497   0.95763   0.95802   0.96341   0.96781
 Alpha virt. eigenvalues --    0.96896   0.97788   0.98854   0.99085   0.99499
 Alpha virt. eigenvalues --    0.99670   0.99967   1.00263   1.00547   1.00917
 Alpha virt. eigenvalues --    1.01475   1.01612   1.01682   1.02066   1.02280
 Alpha virt. eigenvalues --    1.02401   1.02799   1.02898   1.03462   1.03691
 Alpha virt. eigenvalues --    1.03994   1.04561   1.04697   1.05198   1.05589
 Alpha virt. eigenvalues --    1.06449   1.06676   1.07531   1.07877   1.08962
 Alpha virt. eigenvalues --    1.09525   1.09637   1.09988   1.10507   1.10978
 Alpha virt. eigenvalues --    1.11309   1.11799   1.12520   1.13199   1.13530
 Alpha virt. eigenvalues --    1.13955   1.14219   1.14381   1.14915   1.16108
 Alpha virt. eigenvalues --    1.16612   1.17228   1.17446   1.17575   1.18015
 Alpha virt. eigenvalues --    1.19292   1.19650   1.20470   1.21370   1.21864
 Alpha virt. eigenvalues --    1.22196   1.23587   1.24227   1.24466   1.25504
 Alpha virt. eigenvalues --    1.26329   1.26984   1.27568   1.28616   1.29064
 Alpha virt. eigenvalues --    1.29223   1.29807   1.30339   1.30945   1.31067
 Alpha virt. eigenvalues --    1.31380   1.31995   1.32683   1.33259   1.34164
 Alpha virt. eigenvalues --    1.35716   1.35920   1.36927   1.37444   1.37683
 Alpha virt. eigenvalues --    1.38222   1.38679   1.39429   1.39665   1.40048
 Alpha virt. eigenvalues --    1.40539   1.40697   1.40837   1.41416   1.42856
 Alpha virt. eigenvalues --    1.43378   1.45436   1.46192   1.46475   1.46883
 Alpha virt. eigenvalues --    1.47170   1.47520   1.49065   1.49466   1.50022
 Alpha virt. eigenvalues --    1.50515   1.51356   1.52256   1.52946   1.53070
 Alpha virt. eigenvalues --    1.54982   1.55080   1.55358   1.56114   1.57353
 Alpha virt. eigenvalues --    1.57593   1.58142   1.58765   1.60058   1.60546
 Alpha virt. eigenvalues --    1.61815   1.62270   1.62366   1.62652   1.62991
 Alpha virt. eigenvalues --    1.63815   1.64919   1.65639   1.66121   1.67467
 Alpha virt. eigenvalues --    1.68711   1.69261   1.70833   1.70952   1.71829
 Alpha virt. eigenvalues --    1.71920   1.72627   1.73574   1.74615   1.74825
 Alpha virt. eigenvalues --    1.77672   1.77978   1.78232   1.78552   1.79266
 Alpha virt. eigenvalues --    1.79875   1.80203   1.80288   1.80409   1.81283
 Alpha virt. eigenvalues --    1.81750   1.82235   1.83258   1.83383   1.83837
 Alpha virt. eigenvalues --    1.84219   1.84375   1.84855   1.85564   1.85777
 Alpha virt. eigenvalues --    1.86159   1.86364   1.86960   1.87723   1.87822
 Alpha virt. eigenvalues --    1.88451   1.88723   1.89336   1.90000   1.90107
 Alpha virt. eigenvalues --    1.90334   1.90698   1.91367   1.91777   1.92182
 Alpha virt. eigenvalues --    1.92437   1.92710   1.93209   1.93498   1.93914
 Alpha virt. eigenvalues --    1.94408   1.94835   1.95452   1.95503   1.96060
 Alpha virt. eigenvalues --    1.96351   1.97205   1.97663   1.98198   1.98495
 Alpha virt. eigenvalues --    1.98767   1.98977   1.99380   2.00237   2.00403
 Alpha virt. eigenvalues --    2.00934   2.01076   2.01248   2.01669   2.02096
 Alpha virt. eigenvalues --    2.02784   2.02951   2.03715   2.04056   2.04514
 Alpha virt. eigenvalues --    2.04956   2.05860   2.05916   2.06318   2.06592
 Alpha virt. eigenvalues --    2.06964   2.07500   2.07867   2.08176   2.08219
 Alpha virt. eigenvalues --    2.09226   2.09683   2.10540   2.10976   2.11042
 Alpha virt. eigenvalues --    2.11723   2.12060   2.12784   2.12952   2.13214
 Alpha virt. eigenvalues --    2.13828   2.14209   2.14549   2.15294   2.15425
 Alpha virt. eigenvalues --    2.16034   2.16182   2.16511   2.16862   2.16897
 Alpha virt. eigenvalues --    2.17540   2.18011   2.18320   2.18691   2.18980
 Alpha virt. eigenvalues --    2.19495   2.19789   2.20112   2.20372   2.20761
 Alpha virt. eigenvalues --    2.21197   2.21433   2.22141   2.22742   2.22981
 Alpha virt. eigenvalues --    2.23149   2.23297   2.24104   2.24629   2.24746
 Alpha virt. eigenvalues --    2.25000   2.25795   2.26386   2.26605   2.27477
 Alpha virt. eigenvalues --    2.27870   2.28026   2.29325   2.29652   2.29879
 Alpha virt. eigenvalues --    2.30364   2.30669   2.30718   2.31723   2.32022
 Alpha virt. eigenvalues --    2.32995   2.33104   2.33631   2.33878   2.34041
 Alpha virt. eigenvalues --    2.34454   2.35372   2.35742   2.36041   2.36418
 Alpha virt. eigenvalues --    2.37265   2.37368   2.37842   2.38389   2.38870
 Alpha virt. eigenvalues --    2.39247   2.39517   2.39682   2.40320   2.40813
 Alpha virt. eigenvalues --    2.41099   2.41709   2.42236   2.42566   2.43679
 Alpha virt. eigenvalues --    2.43831   2.44283   2.44520   2.44946   2.45267
 Alpha virt. eigenvalues --    2.45950   2.46995   2.47024   2.47402   2.47508
 Alpha virt. eigenvalues --    2.48519   2.48634   2.48967   2.49308   2.50005
 Alpha virt. eigenvalues --    2.50454   2.50734   2.50869   2.51612   2.51785
 Alpha virt. eigenvalues --    2.52990   2.53064   2.53417   2.54160   2.54332
 Alpha virt. eigenvalues --    2.55281   2.55796   2.56695   2.57235   2.57606
 Alpha virt. eigenvalues --    2.58382   2.58868   2.59121   2.59273   2.59778
 Alpha virt. eigenvalues --    2.60203   2.60887   2.61083   2.61608   2.62651
 Alpha virt. eigenvalues --    2.62917   2.63205   2.63615   2.64002   2.64226
 Alpha virt. eigenvalues --    2.64521   2.64912   2.65215   2.65535   2.65779
 Alpha virt. eigenvalues --    2.66335   2.67090   2.67372   2.67835   2.68110
 Alpha virt. eigenvalues --    2.68521   2.68806   2.69304   2.69913   2.70033
 Alpha virt. eigenvalues --    2.70643   2.71377   2.71445   2.71681   2.72610
 Alpha virt. eigenvalues --    2.72942   2.73894   2.74002   2.74169   2.74306
 Alpha virt. eigenvalues --    2.75068   2.75156   2.75718   2.76376   2.76572
 Alpha virt. eigenvalues --    2.77040   2.77441   2.78498   2.78922   2.79233
 Alpha virt. eigenvalues --    2.80343   2.81095   2.81771   2.82049   2.82158
 Alpha virt. eigenvalues --    2.82660   2.83005   2.83855   2.84540   2.84566
 Alpha virt. eigenvalues --    2.85136   2.85261   2.85460   2.85594   2.86552
 Alpha virt. eigenvalues --    2.87021   2.87657   2.88087   2.88893   2.90292
 Alpha virt. eigenvalues --    2.90512   2.90887   2.91470   2.92431   2.93753
 Alpha virt. eigenvalues --    2.94063   2.94418   2.94855   2.95390   2.96576
 Alpha virt. eigenvalues --    2.96787   2.97122   2.97189   2.97735   2.98475
 Alpha virt. eigenvalues --    2.99281   2.99573   3.00529   3.01243   3.01584
 Alpha virt. eigenvalues --    3.02411   3.03636   3.03863   3.04190   3.05299
 Alpha virt. eigenvalues --    3.05438   3.06740   3.07008   3.07183   3.09150
 Alpha virt. eigenvalues --    3.10141   3.10596   3.11641   3.12670   3.12724
 Alpha virt. eigenvalues --    3.12962   3.13631   3.14934   3.15091   3.15199
 Alpha virt. eigenvalues --    3.16138   3.16329   3.16330   3.19418   3.19869
 Alpha virt. eigenvalues --    3.20660   3.21938   3.24477   3.24821   3.25003
 Alpha virt. eigenvalues --    3.25080   3.25433   3.26458   3.27637   3.28240
 Alpha virt. eigenvalues --    3.30747   3.30789   3.34505   3.35194   3.36280
 Alpha virt. eigenvalues --    3.36946   3.37994   3.38704   3.39123   3.39561
 Alpha virt. eigenvalues --    3.39696   3.41938   3.42521   3.42912   3.43903
 Alpha virt. eigenvalues --    3.44529   3.45807   3.46219   3.46556   3.48144
 Alpha virt. eigenvalues --    3.49201   3.50898   3.50999   3.51132   3.53149
 Alpha virt. eigenvalues --    3.54104   3.55089   3.55964   3.57278   3.58154
 Alpha virt. eigenvalues --    3.59297   3.60436   3.62063   3.65075   3.65141
 Alpha virt. eigenvalues --    3.66942   3.68100   3.68174   3.70446   3.74439
 Alpha virt. eigenvalues --    3.75181   3.82505   3.98610   4.03667   4.05454
 Alpha virt. eigenvalues --    4.05944   4.06429   4.08647   4.12548   4.14274
 Alpha virt. eigenvalues --    4.17845   4.18054   4.20204   4.21540   4.22118
 Alpha virt. eigenvalues --    4.24683   4.25678   4.28605   4.31012   4.34417
 Alpha virt. eigenvalues --    4.35351   4.38298   4.41496   4.44077   4.45360
 Alpha virt. eigenvalues --    4.46003   4.47146   4.48412   4.52372   4.54000
 Alpha virt. eigenvalues --    4.54563   4.57083   4.58513   4.60017   4.60902
 Alpha virt. eigenvalues --    4.61401   4.63911   4.68342   4.70265   4.71055
 Alpha virt. eigenvalues --    4.72510   4.75238   4.80620   4.81315   4.82793
 Alpha virt. eigenvalues --    4.86015   4.87989   4.90365   4.92802   4.95360
 Alpha virt. eigenvalues --    4.98196
          Condensed to atoms (all electrons):
 Mulliken charges:
               1
     1  O   -0.519700
     2  O   -0.531070
     3  O   -0.571048
     4  O   -0.545617
     5  C    0.224846
     6  C    0.223587
     7  C    0.003846
     8  C   -0.206764
     9  C   -0.188028
    10  C    0.143029
    11  C   -0.341780
    12  C   -0.134265
    13  C   -0.284686
    14  C   -0.321588
    15  C   -0.068447
    16  C    0.039941
    17  C   -0.313832
    18  C   -0.095377
    19  C   -0.061915
    20  C   -0.031387
    21  C    0.291178
    22  C   -0.170118
    23  C    0.152350
    24  C   -0.175111
    25  C   -0.026610
    26  C   -0.277775
    27  C   -0.282501
    28  C   -0.271447
    29  C   -0.121610
    30  C    0.048972
    31  C    0.069831
    32  C   -0.246484
    33  C   -0.378998
    34  C   -0.112875
    35  C    0.130642
    36  C   -0.377408
    37  C   -0.115102
    38  C   -0.069521
    39  C   -0.116798
    40  C   -0.071714
    41  C   -0.111354
    42  C   -0.137931
    43  C    0.119574
    44  C   -0.325361
    45  H    0.093788
    46  H    0.126585
    47  H    0.093552
    48  H    0.118395
    49  H    0.077682
    50  H    0.123711
    51  H    0.095283
    52  H    0.130254
    53  H    0.098554
    54  H    0.136298
    55  H    0.109507
    56  H    0.075291
    57  H    0.130318
    58  H    0.113486
    59  H    0.082246
    60  H    0.303021
    61  H    0.054322
    62  H    0.099077
    63  H    0.125107
    64  H    0.115068
    65  H    0.074711
    66  H    0.091185
    67  H    0.086064
    68  H    0.084974
    69  H    0.065115
    70  H    0.125216
    71  H    0.093524
    72  H    0.085501
    73  H    0.120311
    74  H    0.096404
    75  H    0.110408
    76  H    0.110087
    77  H    0.092679
    78  H    0.070932
    79  H    0.076600
    80  H    0.101971
    81  H    0.070988
    82  H    0.296292
    83  H    0.298797
    84  H    0.100937
    85  H    0.138699
    86  H    0.111925
    87  H    0.116866
    88  H    0.077876
    89  H    0.104828
    90  H    0.123822
    91  H    0.120603
    92  H    0.082182
    93  H    0.089902
    94  H    0.097796
    95  H    0.079390
    96  H    0.094824
    97  H    0.048884
    98  H    0.105078
    99  H    0.078146
   100  H    0.131361
 Sum of Mulliken charges =  -0.00000
 Mulliken charges with hydrogens summed into heavy atoms:
               1
     1  O   -0.519700
     2  O   -0.228049
     3  O   -0.274756
     4  O   -0.246821
     5  C    0.224846
     6  C    0.223587
     7  C    0.003846
     8  C    0.013609
     9  C    0.023919
    10  C    0.220711
    11  C    0.007468
    12  C   -0.035711
    13  C    0.036410
    14  C    0.004464
    15  C   -0.014125
    16  C    0.039941
    17  C    0.025419
    18  C   -0.020665
    19  C    0.029269
    20  C   -0.031387
    21  C    0.291178
    22  C    0.000920
    23  C    0.217465
    24  C    0.043629
    25  C   -0.026610
    26  C    0.024442
    27  C    0.030674
    28  C   -0.021944
    29  C   -0.050623
    30  C    0.048972
    31  C    0.069831
    32  C   -0.145547
    33  C   -0.011507
    34  C   -0.035000
    35  C    0.130642
    36  C   -0.028154
    37  C   -0.032920
    38  C    0.020381
    39  C   -0.019001
    40  C    0.007676
    41  C   -0.016530
    42  C   -0.089046
    43  C    0.119574
    44  C   -0.010776
 Electronic spatial extent (au):  <R**2>=         115558.5372
 Charge=             -0.0000 electrons
 Dipole moment (field-independent basis, Debye):
    X=             -0.3071    Y=              0.2452    Z=              3.1558  Tot=              3.1802
 Quadrupole moment (field-independent basis, Debye-Ang):
   XX=           -312.0108   YY=           -259.4374   ZZ=           -279.1549
   XY=             -2.2016   XZ=             38.5979   YZ=              0.6098
 Traceless Quadrupole moment (field-independent basis, Debye-Ang):
   XX=            -28.4765   YY=             24.0970   ZZ=              4.3795
   XY=             -2.2016   XZ=             38.5979   YZ=              0.6098
 Octapole moment (field-independent basis, Debye-Ang**2):
  XXX=            278.3739  YYY=             26.6179  ZZZ=              3.9036  XYY=             42.7474
  XXY=             84.8984  XXZ=            507.3201  XZZ=              8.2125  YZZ=             -6.4420
  YYZ=            -14.0415  XYZ=           -115.7747
 Hexadecapole moment (field-independent basis, Debye-Ang**3):
 XXXX=        -158794.2156 YYYY=          -3337.5809 ZZZZ=          -2301.8204 XXXY=          -1695.0877
 XXXZ=           7638.5131 YYYX=           -215.9284 YYYZ=             18.4934 ZZZX=             81.0787
 ZZZY=             24.4898 XXYY=         -26131.2995 XXZZ=         -26078.4748 YYZZ=           -958.7072
 XXYZ=            629.1150 YYXZ=            156.6096 ZZXY=             25.8486
 N-N= 4.460373867422D+03 E-N=-1.323057329453D+04  KE= 1.840133932025D+03
 1\1\GINC-RYZEN-SSD3\SP\RCAM-B3LYP TD-FC\6-31G(d,p)\C40H56O4\PADAWAN\31
 -Jul-2019\0\\# td=(NStates=1) CAM-B3LYP/6-31G(d,p)\\TD\\0,1\O,0,-11.72
 71693845,0.4808187303,-1.4614733109\O,0,-13.1403848743,-2.3697552835,1
 .2101567007\O,0,10.7032658465,-1.0162315111,-1.8981635427\O,0,14.56262
 96297,-0.8040191234,-0.1358780752\C,0,-11.1420523724,-0.0065646112,-0.
 269666391\C,0,-11.6894452342,-0.994320612,-1.2392527656\C,0,-11.829224
 9655,0.4357102538,1.00395005\C,0,-13.0916743711,-1.5606162195,-0.94636
 62706\C,0,-13.3264311011,0.0815607085,0.863391027\C,0,-13.6625926928,-
 1.3378653243,0.4498837557\C,0,-10.8622618149,-1.8111965372,-2.20221253
 96\C,0,-9.5903684806,0.0982869625,-0.3342003781\C,0,-11.1078967671,-0.
 1786734633,2.2118662537\C,0,-11.6481551958,1.9513202351,1.0781759093\C
 ,0,-8.7045138731,-0.7377118124,0.2513138704\C,0,-7.2314811377,-0.59189
 10352,0.4121289132\C,0,-6.5129853134,-1.8609247813,0.7827505114\C,0,-6
 .576613323,0.5667975097,0.0817796228\C,0,-5.2204919908,0.7833403707,0.
 0073064004\C,0,11.9876680137,0.1297630058,1.395169045\C,0,11.639521242
 2,-0.4901351687,-1.1031241921\C,0,12.7694041685,-1.1484190716,1.528137
 5472\C,0,13.4372184085,-1.6280473381,0.2382877932\C,0,12.5600809428,-1
 .8245969687,-0.8944034028\C,0,10.9791548034,0.0991146594,0.0817153518\
 C,0,10.9741288178,0.2526119032,2.658278168\C,0,12.8534884655,1.3827214
 929,1.3444975008\C,0,12.4721935256,0.5912379971,-1.8749014379\C,0,-4.7
 206885646,1.972599766,-0.4307379227\C,0,9.8970308906,0.6912499278,0.10
 29491182\C,0,-3.3437095294,2.3596947232,-0.5622364843\C,0,8.6369734833
 ,0.9374000738,-0.2033146715\C,0,-3.0208337685,3.7958210416,-0.56396612
 87\C,0,-2.2914660617,1.3696488136,-0.4375062853\C,0,7.4759371362,0.045
 7651645,-0.1113903231\C,0,7.7614608826,-1.4260895611,0.2420241253\C,0,
 6.2599573437,0.6187088012,-0.2308870247\C,0,-0.8815722887,1.6520843321
 ,-0.4438125564\C,0,4.9662682296,-0.0632272066,-0.2147301042\C,0,0.0361
 1009,0.6971330232,-0.2726163644\C,0,3.7598253902,0.7122015706,-0.40262
 77318\C,0,1.3861805589,0.8844101687,-0.2973021111\C,0,2.5339612966,0.1
 213114308,-0.1948361257\C,0,2.3592757893,-1.3438285632,0.1162302166\H,
 0,-13.1470165025,-2.6482077986,-1.3723624602\H,0,-13.5507402977,-0.976
 4916334,-1.7362100757\H,0,-13.9253503372,0.1777948483,1.8380464873\H,0
 ,-13.9647058642,0.6273578629,0.0849461602\H,0,-14.8995472588,-1.533962
 1096,0.5229338977\H,0,-10.7420028172,-2.8023870215,-1.8701423096\H,0,-
 11.4776279717,-2.0401088023,-3.2067089571\H,0,-9.8905612396,-1.3698161
 902,-2.5418758001\H,0,-9.0810767625,1.0549376248,-0.7964934594\H,0,-10
 .1623075584,0.2415554196,2.1247582186\H,0,-11.6481301739,0.3317698786,
 2.9712454746\H,0,-11.1500556993,-1.3149383703,2.2146022499\H,0,-11.812
 3137739,2.4033164536,0.0112543414\H,0,-12.3632425637,2.2480203775,1.81
 50352153\H,0,-10.7050307852,2.4795285434,1.6895532488\H,0,-12.12840591
 31,-2.2505979334,1.169581437\H,0,-9.0497358155,-1.7781961773,0.7411132
 102\H,0,-6.1464640925,-2.2292362487,-0.3418822326\H,0,-5.7866110764,-1
 .6542506577,1.3084192381\H,0,-7.3071908297,-2.5120734803,0.956681819\H
 ,0,-7.2146027714,1.4479631254,-0.2903887154\H,0,-4.5476714118,-0.05342
 67243,0.10295652\H,0,13.4753332104,-1.0964413315,2.2186568063\H,0,11.7
 747526523,-1.901939574,1.7051665164\H,0,13.8671690738,-2.6951711821,0.
 2724141673\H,0,13.1004874872,-2.0734538239,-1.8098640811\H,0,12.025262
 5345,-2.7368928132,-0.4172570678\H,0,11.7071603242,0.1681171784,3.5081
 858573\H,0,10.6083978175,1.0857441375,2.5883563598\H,0,10.1819358148,-
 0.6185301675,2.6720734485\H,0,13.8140683087,1.3267813023,0.7461786827\
 H,0,12.5080834215,2.2065400918,1.2226769734\H,0,13.1148673238,1.287253
 2044,2.3159980814\H,0,13.0887696965,0.2009134817,-2.9583582877\H,0,11.
 8012171901,1.5319052814,-2.1722551604\H,0,13.3434651791,0.9181178647,-
 1.0474102264\H,0,-5.385320756,2.9590902958,-0.6501864294\H,0,9.7355548
 061,-0.4599546531,-1.7670190377\H,0,14.9895718024,-0.6939692113,0.8116
 797673\H,0,8.4650783586,1.9640287301,-0.4566029375\H,0,-2.6879738816,4
 .2365801077,0.3487006998\H,0,-2.2676655309,3.9649037152,-1.4404471538\
 H,0,-3.8201984049,4.3919073725,-0.75418522\H,0,-2.4731969398,0.3134035
 524,-0.4508780424\H,0,6.9187546254,-2.1136609282,-0.1241599313\H,0,8.6
 419494094,-1.8301077356,-0.3929200661\H,0,7.8688168033,-1.6778301114,1
 .36869063\H,0,6.1764527924,1.7692007255,-0.5251645362\H,0,-0.727524109
 4,2.6897530188,-0.4664265542\H,0,4.9106470511,-1.2052570224,-0.1270400
 229\H,0,-0.1650454277,-0.4395857715,-0.2268300719\H,0,3.8786870366,1.7
 295885951,-0.6465068757\H,0,1.6602529005,2.0114969416,-0.6225749559\H,
 0,1.5411029451,-1.7438309873,0.3416231579\H,0,2.7592272475,-2.08424472
 6,-0.820589829\H,0,2.8742041168,-1.5294271717,0.8330065873\\Version=ES
 64L-G16RevA.03\State=1-A\HF=-1857.136939\RMSD=5.507e-09\PG=C01 [X(C40H
 56O4)]\\@


 SUCCESS-- IF YOU HAVE TRIED TO DO SOMETHING AND FAILED
           YOU ARE BETTER OFF THAN IF YOU HAD TRIED TO DO
           NOTHING AND SUCCEEDED.

                   -- FROM THE BACK OF A SUGAR PACKET
 Job cpu time:       0 days  6 hours 36 minutes 36.3 seconds.
 Elapsed time:       0 days  2 hours 12 minutes 25.1 seconds.
 File lengths (MBytes):  RWF=   3379 Int=      0 D2E=      0 Chk=     90 Scr=      1
 Normal termination of Gaussian 16 at Wed Jul 31 04:44:47 2019.
