 Entering Gaussian System, Link 0=g16
 Input=Geometria-8-.com
 Output=Geometria-8-.log
 Initial command:
 /usr/local/g16/l1.exe "/home/padawan/israel-mol/neoxanthin/spectra/emi/Gau-44278.inp" -scrdir="/home/padawan/israel-mol/neoxanthin/spectra/emi/"
 Entering Link 1 = /usr/local/g16/l1.exe PID=     44301.
  
 Copyright (c) 1988,1990,1992,1993,1995,1998,2003,2009,2016,
            Gaussian, Inc.  All Rights Reserved.
  
 This is part of the Gaussian(R) 16 program.  It is based on
 the Gaussian(R) 09 system (copyright 2009, Gaussian, Inc.),
 the Gaussian(R) 03 system (copyright 2003, Gaussian, Inc.),
 the Gaussian(R) 98 system (copyright 1998, Gaussian, Inc.),
 the Gaussian(R) 94 system (copyright 1995, Gaussian, Inc.),
 the Gaussian 92(TM) system (copyright 1992, Gaussian, Inc.),
 the Gaussian 90(TM) system (copyright 1990, Gaussian, Inc.),
 the Gaussian 88(TM) system (copyright 1988, Gaussian, Inc.),
 the Gaussian 86(TM) system (copyright 1986, Carnegie Mellon
 University), and the Gaussian 82(TM) system (copyright 1983,
 Carnegie Mellon University). Gaussian is a federally registered
 trademark of Gaussian, Inc.
  
 This software contains proprietary and confidential information,
 including trade secrets, belonging to Gaussian, Inc.
  
 This software is provided under written license and may be
 used, copied, transmitted, or stored only in accord with that
 written license.
  
 The following legend is applicable only to US Government
 contracts under FAR:
  
                    RESTRICTED RIGHTS LEGEND
  
 Use, reproduction and disclosure by the US Government is
 subject to restrictions as set forth in subparagraphs (a)
 and (c) of the Commercial Computer Software - Restricted
 Rights clause in FAR 52.227-19.
  
 Gaussian, Inc.
 340 Quinnipiac St., Bldg. 40, Wallingford CT 06492
  
  
 ---------------------------------------------------------------
 Warning -- This program may not be used in any manner that
 competes with the business of Gaussian, Inc. or will provide
 assistance to any competitor of Gaussian, Inc.  The licensee
 of this program is prohibited from giving any competitor of
 Gaussian, Inc. access to this program.  By using this program,
 the user acknowledges that Gaussian, Inc. is engaged in the
 business of creating and licensing software in the field of
 computational chemistry and represents and warrants to the
 licensee that it is not a competitor of Gaussian, Inc. and that
 it will not use this program in any manner prohibited above.
 ---------------------------------------------------------------
  

 Cite this work as:
 Gaussian 16, Revision A.03,
 M. J. Frisch, G. W. Trucks, H. B. Schlegel, G. E. Scuseria, 
 M. A. Robb, J. R. Cheeseman, G. Scalmani, V. Barone, 
 G. A. Petersson, H. Nakatsuji, X. Li, M. Caricato, A. V. Marenich, 
 J. Bloino, B. G. Janesko, R. Gomperts, B. Mennucci, H. P. Hratchian, 
 J. V. Ortiz, A. F. Izmaylov, J. L. Sonnenberg, D. Williams-Young, 
 F. Ding, F. Lipparini, F. Egidi, J. Goings, B. Peng, A. Petrone, 
 T. Henderson, D. Ranasinghe, V. G. Zakrzewski, J. Gao, N. Rega, 
 G. Zheng, W. Liang, M. Hada, M. Ehara, K. Toyota, R. Fukuda, 
 J. Hasegawa, M. Ishida, T. Nakajima, Y. Honda, O. Kitao, H. Nakai, 
 T. Vreven, K. Throssell, J. A. Montgomery, Jr., J. E. Peralta, 
 F. Ogliaro, M. J. Bearpark, J. J. Heyd, E. N. Brothers, K. N. Kudin, 
 V. N. Staroverov, T. A. Keith, R. Kobayashi, J. Normand, 
 K. Raghavachari, A. P. Rendell, J. C. Burant, S. S. Iyengar, 
 J. Tomasi, M. Cossi, J. M. Millam, M. Klene, C. Adamo, R. Cammi, 
 J. W. Ochterski, R. L. Martin, K. Morokuma, O. Farkas, 
 J. B. Foresman, and D. J. Fox, Gaussian, Inc., Wallingford CT, 2016.
 
 ******************************************
 Gaussian 16:  ES64L-G16RevA.03 25-Dec-2016
                28-Jul-2019 
 ******************************************
 %nproc=3
 Will use up to    3 processors via shared memory.
 %Mem=2GB
 -------------------------------------
 # td=(NStates=1) CAM-B3LYP/6-31G(d,p)
 -------------------------------------
 1/38=1,172=1/1;
 2/12=2,17=6,18=5,40=1/2;
 3/5=1,6=6,7=101,11=9,25=1,30=1,74=-40/1,2,3,8;
 4//1;
 5/5=2,38=5/2;
 8/6=1,10=2,108=1/1;
 9/41=1,42=1,70=2/14;
 6/7=2,8=2,9=2,10=2/1;
 99/5=1,9=1/99;
 --
 TD
 --
 Symbolic Z-matrix:
 Charge =  0 Multiplicity = 1
 8                    -11.63646   0.19303  -1.48243 
 8                    -12.84857  -2.55338   1.24448 
 8                     10.6372  -1.03636  -2.20293 
 8                     14.47789  -1.09606  -0.23414 
 6                    -11.03091  -0.23365  -0.33157 
 6                    -11.68006  -1.16024  -1.19673 
 6                    -11.85435   0.37187   0.77077 
 6                    -13.05169  -1.80104  -1.05504 
 6                    -13.30356  -0.12876   0.68467 
 6                    -13.46927  -1.55772   0.38046 
 6                    -10.66802  -2.02936  -2.12373 
 6                    -9.60677   0.18044  -0.33738 
 6                    -11.2595   0.13313   2.19732 
 6                    -11.82814   1.95197   0.75536 
 6                    -8.68561  -0.6308    0.23666 
 6                    -7.28044  -0.53393   0.20058 
 6                    -6.36833  -1.68685   0.73528 
 6                    -6.57364   0.57922  -0.19224 
 6                    -5.21227   0.88513  -0.05822 
 6                     11.99334   0.02683   1.31796 
 6                     11.6202  -0.56239  -1.29787 
 6                     12.70431  -1.28114   1.40554 
 6                     13.34115  -1.87132   0.13596 
 6                     12.43567  -1.80817  -1.04368 
 6                     11.04726  -0.0096   -0.03513 
 6                     11.08487   0.1197    2.5834 
 6                     12.91063   1.21803   1.24397 
 6                     12.50038   0.47666  -2.03454 
 6                    -4.68853   2.15643  -0.41005 
 6                     9.88525   0.4939    0.04023 
 6                    -3.33583   2.61165  -0.44576 
 6                     8.56051   0.86027  -0.20354 
 6                    -3.02836   4.04065  -0.73137 
 6                    -2.28324   1.63616  -0.20976 
 6                     7.43224   0.11703   0.02944 
 6                     7.51943  -1.41218   0.3816 
 6                     6.21366   0.8321   -0.1012 
 6                    -0.89578   1.88857  -0.06617 
 6                     4.91605   0.25253   0.05844 
 6                     0.02034   0.86839   0.06086 
 6                     3.71974   0.87525  -0.04537 
 6                     1.36764   1.26283  -0.01921 
 6                     2.42062   0.29301   0.16111 
 6                     2.30553  -1.13344   0.55865 
 1                    -12.91981  -2.97151  -1.13054 
 1                    -13.74305  -1.40122  -1.77631 
 1                    -13.82591  -0.15404   1.8232 
 1                    -13.91896   0.44128  -0.07272 
 1                    -14.73026  -1.73577   0.52036 
 1                    -10.45279  -2.94217  -1.48789 
 1                    -11.31674  -2.2395   -3.03383 
 1                    -9.8239   -1.40286  -2.44378 
 1                    -9.27351   0.90599  -0.9352 
 1                    -10.18029   0.59174   2.01082 
 1                    -11.81603   0.85254   2.83563 
 1                    -11.18445  -0.88701   2.6126 
 1                    -12.11402   2.22408  -0.29826 
 1                    -12.48999   2.36287   1.42622 
 1                    -10.69139   1.9804    1.04296 
 1                    -11.8466  -2.70143   0.93716 
 1                    -8.89023  -1.56557   0.73533 
 1                    -5.69158  -2.26567  -0.04974 
 1                    -5.60285  -1.44177   1.86684 
 1                    -7.10904  -2.69791   1.08468 
 1                    -7.05665   1.4058   -0.67063 
 1                    -4.50541   0.04957   0.41485 
 1                     13.61909  -1.21398   2.18599 
 1                     12.13413  -1.81629   1.9271 
 1                     13.66766  -2.83878   0.35774 
 1                     12.93142  -2.07825  -2.046 
 1                     11.62785  -2.60008  -1.00725 
 1                     11.74689   0.21713   3.42749 
 1                     10.49274   1.07506   2.52308 
 1                     10.43042  -0.75623   2.48805 
 1                     13.6281   1.06382   0.35165 
 1                     12.24354   2.16443   1.31603 
 1                     13.70405   1.19681   2.04616 
 1                     12.78005   0.31163  -3.12983 
 1                     11.92082   1.36392  -2.06163 
 1                     13.53234   0.6713   -1.69765 
 1                    -5.30385   2.92512  -0.57335 
 1                     10.00577  -0.20689  -2.33158 
 1                     15.35228  -1.31333   0.39536 
 1                     8.3453    1.8697   -0.4425 
 1                    -2.38057   4.63316  -0.05415 
 1                    -2.47414   4.09902  -1.65767 
 1                    -4.02194   4.56909  -1.0924 
 1                    -2.50098   0.54131  -0.31787 
 1                     6.68271  -2.07365   0.11495 
 1                     8.34094  -1.8471   -0.36821 
 1                     7.88942  -1.37435   1.36322 
 1                     6.41375   1.82906  -0.43738 
 1                    -0.5176    2.84649  -0.13378 
 1                     4.83417  -0.7559    0.46782 
 1                    -0.22405  -0.21671   0.26447 
 1                     3.82335   2.00568  -0.47482 
 1                     1.70622   2.28397  -0.24148 
 1                     1.33632  -1.31405   0.72596 
 1                     2.68071  -1.89813  -0.2593 
 1                     2.76328  -1.23374   1.54018 
 
 Stoichiometry    C40H56O4
 Framework group  C1[X(C40H56O4)]
 Deg. of freedom   294
 Full point group                 C1      NOp   1
 Largest Abelian subgroup         C1      NOp   1
 Largest concise Abelian subgroup C1      NOp   1
                         Standard orientation:                         
 ---------------------------------------------------------------------
 Center     Atomic      Atomic             Coordinates (Angstroms)
 Number     Number       Type             X           Y           Z
 ---------------------------------------------------------------------
      1          8           0      -11.637559    0.191023   -1.481817
      2          8           0      -12.848941   -2.564339    1.236369
      3          8           0       10.636835   -1.025592   -2.201328
      4          8           0       14.477135   -1.089522   -0.231902
      5          6           0      -11.032052   -0.238905   -0.332152
      6          6           0      -11.680581   -1.163137   -1.200293
      7          6           0      -11.856010    0.362833    0.771868
      8          6           0      -13.051933   -1.805023   -1.060867
      9          6           0      -13.304966   -0.138221    0.683924
     10          6           0      -13.469937   -1.566314    0.375279
     11          6           0      -10.667930   -2.028923   -2.129751
     12          6           0       -9.608107    0.175869   -0.336381
     13          6           0      -11.261355    0.119982    2.197812
     14          6           0      -11.830553    1.942982    0.761330
     15          6           0       -8.686686   -0.636693    0.235362
     16          6           0       -7.281548   -0.539040    0.199876
     17          6           0       -6.369010   -1.693169    0.731222
     18          6           0       -6.575200    0.575641   -0.189362
     19          6           0       -5.214002    0.881785   -0.054113
     20          6           0       11.991720    0.027412    1.323111
     21          6           0       11.619417   -0.553941   -1.294604
     22          6           0       12.703291   -1.280489    1.406814
     23          6           0       13.340682   -1.866459    0.135564
     24          6           0       12.435423   -1.800104   -1.044066
     25          6           0       11.045948   -0.005303   -0.030285
     26          6           0       11.082938    0.115955    2.588635
     27          6           0       12.908466    1.219261    1.252978
     28          6           0       12.499258    0.487785   -2.027879
     29          6           0       -4.690785    2.154406   -0.401914
     30          6           0        9.883681    0.497408    0.046373
     31          6           0       -3.338297    2.610377   -0.435943
     32          6           0        8.558816    0.863901   -0.196560
     33          6           0       -3.031450    4.040390   -0.717089
     34          6           0       -2.285291    1.634660   -0.202718
     35          6           0        7.430856    0.119413    0.033899
     36          6           0        7.518691   -1.410832    0.381368
     37          6           0        6.211965    0.834302   -0.094810
     38          6           0       -0.897990    1.887287   -0.058056
     39          6           0        4.914596    0.253633    0.062770
     40          6           0        0.018590    0.867158    0.066034
     41          6           0        3.718011    0.876096   -0.039380
     42          6           0        1.365719    1.262479   -0.012535
     43          6           0        2.419122    0.292608    0.165031
     44          6           0        2.304625   -1.135108    0.558163
     45          1           0      -12.919485   -2.975192   -1.139939
     46          1           0      -13.743328   -1.403318   -1.781059
     47          1           0      -13.827548   -0.167248    1.822251
     48          1           0      -13.920477    0.433854   -0.071844
     49          1           0      -14.730869   -1.745396    0.514367
     50          1           0      -10.452403   -2.943585   -1.496674
     51          1           0      -11.316355   -2.236571   -3.040629
     52          1           0       -9.824041   -1.401043   -2.447683
     53          1           0       -9.275060    0.903419   -0.931892
     54          1           0      -10.182321    0.579678    2.012947
     55          1           0      -11.818358    0.837166    2.838210
     56          1           0      -11.185907   -0.901388    2.609966
     57          1           0      -12.116338    2.218194   -0.291510
     58          1           0      -12.492733    2.351504    1.433301
     59          1           0      -10.693874    1.971064    1.049255
     60          1           0      -11.846838   -2.710967    0.928808
     61          1           0       -8.890966   -1.573093    0.731111
     62          1           0       -5.691816   -2.269254   -0.055429
     63          1           0       -5.603889   -1.451210    1.863693
     64          1           0       -7.109315   -2.705655    1.077360
     65          1           0       -7.058494    1.403460   -0.665310
     66          1           0       -4.506842    0.045112    0.416535
     67          1           0       13.617872   -1.215297    2.187672
     68          1           0       12.133255   -1.817509    1.926607
     69          1           0       13.667604   -2.834435    0.354443
     70          1           0       12.931517   -2.066874   -2.047105
     71          1           0       11.627976   -2.592508   -1.010243
     72          1           0       11.744736    0.211106    3.433160
     73          1           0       10.490363    1.071220    2.531126
     74          1           0       10.428924   -0.759990    2.490446
     75          1           0       13.626194    1.068136    0.360343
     76          1           0       12.240904    2.165120    1.327804
     77          1           0       13.701717    1.195959    2.055273
     78          1           0       12.779242    0.326265   -3.123610
     79          1           0       11.919285    1.374852   -2.052371
     80          1           0       13.531061    0.681884   -1.690169
     81          1           0       -5.306442    2.923302   -0.562984
     82          1           0       10.005041   -0.196026   -2.327553
     83          1           0       15.351491   -1.308316    0.397111
     84          1           0        8.343178    1.873956   -0.432458
     85          1           0       -2.384084    4.631125   -0.037908
     86          1           0       -2.477052    4.101873   -1.643082
     87          1           0       -4.025198    4.569466   -1.076701
     88          1           0       -2.502493    0.540046   -0.314242
     89          1           0        6.682346   -2.071874    0.112511
     90          1           0        8.340569   -1.843056   -0.369596
     91          1           0        7.888456   -1.375847    1.363181
     92          1           0        6.411647    1.832382   -0.427871
     93          1           0       -0.520249    2.845591   -0.122637
     94          1           0        4.833104   -0.756097    0.469031
     95          1           0       -0.225329   -0.218683    0.266256
     96          1           0        3.821176    2.007888   -0.465327
     97          1           0        1.703861    2.284464   -0.231583
     98          1           0        1.335467   -1.316692    0.724706
     99          1           0        2.680341   -1.897099   -0.262063
    100          1           0        2.762216   -1.238210    1.539470
 ---------------------------------------------------------------------
 Rotational constants (GHZ):           0.2626913           0.0088639           0.0087803
 Standard basis: 6-31G(d,p) (6D, 7F)
 There are   940 symmetry adapted cartesian basis functions of A   symmetry.
 There are   940 symmetry adapted basis functions of A   symmetry.
   940 basis functions,  1624 primitive gaussians,   940 cartesian basis functions
   164 alpha electrons      164 beta electrons
       nuclear repulsion energy      4453.3767546168 Hartrees.
 NAtoms=  100 NActive=  100 NUniq=  100 SFac= 1.00D+00 NAtFMM=   60 NAOKFM=T Big=T
 Integral buffers will be    131072 words long.
 Raffenetti 1 integral format.
 Two-electron integral symmetry is turned on.
 One-electron integrals computed using PRISM.
 NBasis=   940 RedAO= T EigKep=  5.12D-04  NBF=   940
 NBsUse=   940 1.00D-06 EigRej= -1.00D+00 NBFU=   940
 ExpMin= 1.61D-01 ExpMax= 5.48D+03 ExpMxC= 8.25D+02 IAcc=3 IRadAn=         5 AccDes= 0.00D+00
 Harris functional with IExCor=20419 and IRadAn=       5 diagonalized for initial guess.
 HarFok:  IExCor=20419 AccDes= 0.00D+00 IRadAn=         5 IDoV= 1 UseB2=F ITyADJ=14
 ICtDFT=  3500011 ScaDFX=  1.000000  1.000000  1.000000  1.000000
 FoFCou: FMM=F IPFlag=           0 FMFlag=      100000 FMFlg1=        2001
         NFxFlg=           0 DoJE=T BraDBF=F KetDBF=T FulRan=T
         wScrn=  0.000000 ICntrl=       500 IOpCl=  0 I1Cent=   200000004 NGrid=           0
         NMat0=    1 NMatS0=      1 NMatT0=    0 NMatD0=    1 NMtDS0=    0 NMtDT0=    0
 Petite list used in FoFCou.
 Requested convergence on RMS density matrix=1.00D-08 within 128 cycles.
 Requested convergence on MAX density matrix=1.00D-06.
 Requested convergence on             energy=1.00D-06.
 No special actions if energy rises.
 Integral accuracy reduced to 1.0D-05 until final iterations.
 Initial convergence to 1.0D-05 achieved.  Increase integral accuracy.
 SCF Done:  E(RCAM-B3LYP) =  -1857.29555090     A.U. after   16 cycles
            NFock= 16  Conv=0.44D-08     -V/T= 2.0099
 DoSCS=F DFT=T ScalE2(SS,OS)=  1.000000  1.000000
 ExpMin= 1.61D-01 ExpMax= 5.48D+03 ExpMxC= 8.25D+02 IAcc=3 IRadAn=         5 AccDes= 0.00D+00
 HarFok:  IExCor=  205 AccDes= 0.00D+00 IRadAn=         5 IDoV=-2 UseB2=F ITyADJ=14
 ICtDFT= 12500011 ScaDFX=  1.000000  1.000000  1.000000  1.000000
 GSVD:  LWork=       -2288 too small for GESVD, short by       10340 words or       10340 for optimal perf.
 Range of M.O.s used for correlation:    45   940
 NBasis=   940 NAE=   164 NBE=   164 NFC=    44 NFV=     0
 NROrb=    896 NOA=   120 NOB=   120 NVA=   776 NVB=   776
 Orbital symmetries:
       Occupied  (A) (A) (A) (A) (A) (A) (A) (A) (A) (A) (A) (A)
                 (A) (A) (A) (A) (A) (A) (A) (A) (A) (A) (A) (A)
                 (A) (A) (A) (A) (A) (A) (A) (A) (A) (A) (A) (A)
                 (A) (A) (A) (A) (A) (A) (A) (A) (A) (A) (A) (A)
                 (A) (A) (A) (A) (A) (A) (A) (A) (A) (A) (A) (A)
                 (A) (A) (A) (A) (A) (A) (A) (A) (A) (A) (A) (A)
                 (A) (A) (A) (A) (A) (A) (A) (A) (A) (A) (A) (A)
                 (A) (A) (A) (A) (A) (A) (A) (A) (A) (A) (A) (A)
                 (A) (A) (A) (A) (A) (A) (A) (A) (A) (A) (A) (A)
                 (A) (A) (A) (A) (A) (A) (A) (A) (A) (A) (A) (A)
                 (A) (A) (A) (A) (A) (A) (A) (A) (A) (A) (A) (A)
                 (A) (A) (A) (A) (A) (A) (A) (A) (A) (A) (A) (A)
                 (A) (A) (A) (A) (A) (A) (A) (A) (A) (A) (A) (A)
                 (A) (A) (A) (A) (A) (A) (A) (A)
       Virtual   (A) (A) (A) (A) (A) (A) (A) (A) (A) (A) (A) (A)
                 (A) (A) (A) (A) (A) (A) (A) (A) (A) (A) (A) (A)
                 (A) (A) (A) (A) (A) (A) (A) (A) (A) (A) (A) (A)
                 (A) (A) (A) (A) (A) (A) (A) (A) (A) (A) (A) (A)
                 (A) (A) (A) (A) (A) (A) (A) (A) (A) (A) (A) (A)
                 (A) (A) (A) (A) (A) (A) (A) (A) (A) (A) (A) (A)
                 (A) (A) (A) (A) (A) (A) (A) (A) (A) (A) (A) (A)
                 (A) (A) (A) (A) (A) (A) (A) (A) (A) (A) (A) (A)
                 (A) (A) (A) (A) (A) (A) (A) (A) (A) (A) (A) (A)
                 (A) (A) (A) (A) (A) (A) (A) (A) (A) (A) (A) (A)
                 (A) (A) (A) (A) (A) (A) (A) (A) (A) (A) (A) (A)
                 (A) (A) (A) (A) (A) (A) (A) (A) (A) (A) (A) (A)
                 (A) (A) (A) (A) (A) (A) (A) (A) (A) (A) (A) (A)
                 (A) (A) (A) (A) (A) (A) (A) (A) (A) (A) (A) (A)
                 (A) (A) (A) (A) (A) (A) (A) (A) (A) (A) (A) (A)
                 (A) (A) (A) (A) (A) (A) (A) (A) (A) (A) (A) (A)
                 (A) (A) (A) (A) (A) (A) (A) (A) (A) (A) (A) (A)
                 (A) (A) (A) (A) (A) (A) (A) (A) (A) (A) (A) (A)
                 (A) (A) (A) (A) (A) (A) (A) (A) (A) (A) (A) (A)
                 (A) (A) (A) (A) (A) (A) (A) (A) (A) (A) (A) (A)
                 (A) (A) (A) (A) (A) (A) (A) (A) (A) (A) (A) (A)
                 (A) (A) (A) (A) (A) (A) (A) (A) (A) (A) (A) (A)
                 (A) (A) (A) (A) (A) (A) (A) (A) (A) (A) (A) (A)
                 (A) (A) (A) (A) (A) (A) (A) (A) (A) (A) (A) (A)
                 (A) (A) (A) (A) (A) (A) (A) (A) (A) (A) (A) (A)
                 (A) (A) (A) (A) (A) (A) (A) (A) (A) (A) (A) (A)
                 (A) (A) (A) (A) (A) (A) (A) (A) (A) (A) (A) (A)
                 (A) (A) (A) (A) (A) (A) (A) (A) (A) (A) (A) (A)
                 (A) (A) (A) (A) (A) (A) (A) (A) (A) (A) (A) (A)
                 (A) (A) (A) (A) (A) (A) (A) (A) (A) (A) (A) (A)
                 (A) (A) (A) (A) (A) (A) (A) (A) (A) (A) (A) (A)
                 (A) (A) (A) (A) (A) (A) (A) (A) (A) (A) (A) (A)
                 (A) (A) (A) (A) (A) (A) (A) (A) (A) (A) (A) (A)
                 (A) (A) (A) (A) (A) (A) (A) (A) (A) (A) (A) (A)
                 (A) (A) (A) (A) (A) (A) (A) (A) (A) (A) (A) (A)
                 (A) (A) (A) (A) (A) (A) (A) (A) (A) (A) (A) (A)
                 (A) (A) (A) (A) (A) (A) (A) (A) (A) (A) (A) (A)
                 (A) (A) (A) (A) (A) (A) (A) (A) (A) (A) (A) (A)
                 (A) (A) (A) (A) (A) (A) (A) (A) (A) (A) (A) (A)
                 (A) (A) (A) (A) (A) (A) (A) (A) (A) (A) (A) (A)
                 (A) (A) (A) (A) (A) (A) (A) (A) (A) (A) (A) (A)
                 (A) (A) (A) (A) (A) (A) (A) (A) (A) (A) (A) (A)
                 (A) (A) (A) (A) (A) (A) (A) (A) (A) (A) (A) (A)
                 (A) (A) (A) (A) (A) (A) (A) (A) (A) (A) (A) (A)
                 (A) (A) (A) (A) (A) (A) (A) (A) (A) (A) (A) (A)
                 (A) (A) (A) (A) (A) (A) (A) (A) (A) (A) (A) (A)
                 (A) (A) (A) (A) (A) (A) (A) (A) (A) (A) (A) (A)
                 (A) (A) (A) (A) (A) (A) (A) (A) (A) (A) (A) (A)
                 (A) (A) (A) (A) (A) (A) (A) (A) (A) (A) (A) (A)
                 (A) (A) (A) (A) (A) (A) (A) (A) (A) (A) (A) (A)
                 (A) (A) (A) (A) (A) (A) (A) (A) (A) (A) (A) (A)
                 (A) (A) (A) (A) (A) (A) (A) (A) (A) (A) (A) (A)
                 (A) (A) (A) (A) (A) (A) (A) (A) (A) (A) (A) (A)
                 (A) (A) (A) (A) (A) (A) (A) (A) (A) (A) (A) (A)
                 (A) (A) (A) (A) (A) (A) (A) (A) (A) (A) (A) (A)
                 (A) (A) (A) (A) (A) (A) (A) (A) (A) (A) (A) (A)
                 (A) (A) (A) (A) (A) (A) (A) (A) (A) (A) (A) (A)
                 (A) (A) (A) (A) (A) (A) (A) (A) (A) (A) (A) (A)
                 (A) (A) (A) (A) (A) (A) (A) (A) (A) (A) (A) (A)
                 (A) (A) (A) (A) (A) (A) (A) (A) (A) (A) (A) (A)
                 (A) (A) (A) (A) (A) (A) (A) (A) (A) (A) (A) (A)
                 (A) (A) (A) (A) (A) (A) (A) (A) (A) (A) (A) (A)
                 (A) (A) (A) (A) (A) (A) (A) (A) (A) (A) (A) (A)
                 (A) (A) (A) (A) (A) (A) (A) (A) (A) (A) (A) (A)
                 (A) (A) (A) (A) (A) (A) (A) (A)
     4 initial guesses have been made.
 Convergence on wavefunction:    0.001000000000000
 Iteration     1 Dimension     4 NMult     0 NNew      4
 CISAX will form     4 AO SS matrices at one time.
 Iteration     2 Dimension     6 NMult     4 NNew      2
 Iteration     3 Dimension     8 NMult     6 NNew      2
 Iteration     4 Dimension    10 NMult     8 NNew      2
 Iteration     5 Dimension    12 NMult    10 NNew      2
 Iteration     6 Dimension    14 NMult    12 NNew      2
 ***********************************************************************
 Excited states from <AA,BB:AA,BB> singles matrix:
 ***********************************************************************
 
 Ground to excited state transition densities written to RWF  633
 Ground to excited state transition electric dipole moments (Au):
       state          X           Y           Z        Dip. S.      Osc.
         1        -8.1357      0.1508     -0.0551     66.2158      3.1028
 Ground to excited state transition velocity dipole moments (Au):
       state          X           Y           Z        Dip. S.      Osc.
         1         0.5535     -0.0108      0.0020      0.3065      2.9068
 Ground to excited state transition magnetic dipole moments (Au):
       state          X           Y           Z
         1         0.0482     -0.3234     -2.2570
 Ground to excited state transition velocity quadrupole moments (Au):
       state          XX          YY          ZZ          XY          XZ          YZ
         1        -0.4198     -0.2315     -0.0053     -0.2874      0.1551      0.0295
 <0|del|b> * <b|rxdel|0> + <0|del|b> * <b|delr+rdel|0>
 Rotatory Strengths (R) in cgs (10**-40 erg-esu-cm/Gauss)
       state          XX          YY          ZZ    R(velocity)    E-M Angle
         1         0.9406    197.0796     61.1392     86.3865       88.83
 1/2[<0|r|b>*<b|rxdel|0> + (<0|rxdel|b>*<b|r|0>)*]
 Rotatory Strengths (R) in cgs (10**-40 erg-esu-cm/Gauss)
       state          XX          YY          ZZ     R(length)
         1       277.3972     34.4782    -87.9961     74.6264
  1/2[<0|del|b>*<b|r|0> + (<0|r|b>*<b|del|0>)*] (Au)
       state          X           Y           Z        Dip. S.   Osc.(frdel)
         1        -4.5030     -0.0016     -0.0001      4.5048      3.0032

 Excitation energies and oscillator strengths:
 
 Excited State   1:      Singlet-A      1.9126 eV  648.24 nm  f=3.1028  <S**2>=0.000
     163 ->166        -0.13580
     164 ->165         0.69687
     164 <-165        -0.10323
 This state for optimization and/or second-order correction.
 Total Energy, E(TD-HF/TD-DFT) =  -1857.22526302    
 Copying the excited state density for this state as the 1-particle RhoCI density.
 SavETr:  write IOETrn=   770 NScale= 10 NData=  16 NLR=1 NState=    1 LETran=      28.

 **********************************************************************

            Population analysis using the SCF density.

 **********************************************************************

 Orbital symmetries:
       Occupied  (A) (A) (A) (A) (A) (A) (A) (A) (A) (A) (A) (A)
                 (A) (A) (A) (A) (A) (A) (A) (A) (A) (A) (A) (A)
                 (A) (A) (A) (A) (A) (A) (A) (A) (A) (A) (A) (A)
                 (A) (A) (A) (A) (A) (A) (A) (A) (A) (A) (A) (A)
                 (A) (A) (A) (A) (A) (A) (A) (A) (A) (A) (A) (A)
                 (A) (A) (A) (A) (A) (A) (A) (A) (A) (A) (A) (A)
                 (A) (A) (A) (A) (A) (A) (A) (A) (A) (A) (A) (A)
                 (A) (A) (A) (A) (A) (A) (A) (A) (A) (A) (A) (A)
                 (A) (A) (A) (A) (A) (A) (A) (A) (A) (A) (A) (A)
                 (A) (A) (A) (A) (A) (A) (A) (A) (A) (A) (A) (A)
                 (A) (A) (A) (A) (A) (A) (A) (A) (A) (A) (A) (A)
                 (A) (A) (A) (A) (A) (A) (A) (A) (A) (A) (A) (A)
                 (A) (A) (A) (A) (A) (A) (A) (A) (A) (A) (A) (A)
                 (A) (A) (A) (A) (A) (A) (A) (A)
       Virtual   (A) (A) (A) (A) (A) (A) (A) (A) (A) (A) (A) (A)
                 (A) (A) (A) (A) (A) (A) (A) (A) (A) (A) (A) (A)
                 (A) (A) (A) (A) (A) (A) (A) (A) (A) (A) (A) (A)
                 (A) (A) (A) (A) (A) (A) (A) (A) (A) (A) (A) (A)
                 (A) (A) (A) (A) (A) (A) (A) (A) (A) (A) (A) (A)
                 (A) (A) (A) (A) (A) (A) (A) (A) (A) (A) (A) (A)
                 (A) (A) (A) (A) (A) (A) (A) (A) (A) (A) (A) (A)
                 (A) (A) (A) (A) (A) (A) (A) (A) (A) (A) (A) (A)
                 (A) (A) (A) (A) (A) (A) (A) (A) (A) (A) (A) (A)
                 (A) (A) (A) (A) (A) (A) (A) (A) (A) (A) (A) (A)
                 (A) (A) (A) (A) (A) (A) (A) (A) (A) (A) (A) (A)
                 (A) (A) (A) (A) (A) (A) (A) (A) (A) (A) (A) (A)
                 (A) (A) (A) (A) (A) (A) (A) (A) (A) (A) (A) (A)
                 (A) (A) (A) (A) (A) (A) (A) (A) (A) (A) (A) (A)
                 (A) (A) (A) (A) (A) (A) (A) (A) (A) (A) (A) (A)
                 (A) (A) (A) (A) (A) (A) (A) (A) (A) (A) (A) (A)
                 (A) (A) (A) (A) (A) (A) (A) (A) (A) (A) (A) (A)
                 (A) (A) (A) (A) (A) (A) (A) (A) (A) (A) (A) (A)
                 (A) (A) (A) (A) (A) (A) (A) (A) (A) (A) (A) (A)
                 (A) (A) (A) (A) (A) (A) (A) (A) (A) (A) (A) (A)
                 (A) (A) (A) (A) (A) (A) (A) (A) (A) (A) (A) (A)
                 (A) (A) (A) (A) (A) (A) (A) (A) (A) (A) (A) (A)
                 (A) (A) (A) (A) (A) (A) (A) (A) (A) (A) (A) (A)
                 (A) (A) (A) (A) (A) (A) (A) (A) (A) (A) (A) (A)
                 (A) (A) (A) (A) (A) (A) (A) (A) (A) (A) (A) (A)
                 (A) (A) (A) (A) (A) (A) (A) (A) (A) (A) (A) (A)
                 (A) (A) (A) (A) (A) (A) (A) (A) (A) (A) (A) (A)
                 (A) (A) (A) (A) (A) (A) (A) (A) (A) (A) (A) (A)
                 (A) (A) (A) (A) (A) (A) (A) (A) (A) (A) (A) (A)
                 (A) (A) (A) (A) (A) (A) (A) (A) (A) (A) (A) (A)
                 (A) (A) (A) (A) (A) (A) (A) (A) (A) (A) (A) (A)
                 (A) (A) (A) (A) (A) (A) (A) (A) (A) (A) (A) (A)
                 (A) (A) (A) (A) (A) (A) (A) (A) (A) (A) (A) (A)
                 (A) (A) (A) (A) (A) (A) (A) (A) (A) (A) (A) (A)
                 (A) (A) (A) (A) (A) (A) (A) (A) (A) (A) (A) (A)
                 (A) (A) (A) (A) (A) (A) (A) (A) (A) (A) (A) (A)
                 (A) (A) (A) (A) (A) (A) (A) (A) (A) (A) (A) (A)
                 (A) (A) (A) (A) (A) (A) (A) (A) (A) (A) (A) (A)
                 (A) (A) (A) (A) (A) (A) (A) (A) (A) (A) (A) (A)
                 (A) (A) (A) (A) (A) (A) (A) (A) (A) (A) (A) (A)
                 (A) (A) (A) (A) (A) (A) (A) (A) (A) (A) (A) (A)
                 (A) (A) (A) (A) (A) (A) (A) (A) (A) (A) (A) (A)
                 (A) (A) (A) (A) (A) (A) (A) (A) (A) (A) (A) (A)
                 (A) (A) (A) (A) (A) (A) (A) (A) (A) (A) (A) (A)
                 (A) (A) (A) (A) (A) (A) (A) (A) (A) (A) (A) (A)
                 (A) (A) (A) (A) (A) (A) (A) (A) (A) (A) (A) (A)
                 (A) (A) (A) (A) (A) (A) (A) (A) (A) (A) (A) (A)
                 (A) (A) (A) (A) (A) (A) (A) (A) (A) (A) (A) (A)
                 (A) (A) (A) (A) (A) (A) (A) (A) (A) (A) (A) (A)
                 (A) (A) (A) (A) (A) (A) (A) (A) (A) (A) (A) (A)
                 (A) (A) (A) (A) (A) (A) (A) (A) (A) (A) (A) (A)
                 (A) (A) (A) (A) (A) (A) (A) (A) (A) (A) (A) (A)
                 (A) (A) (A) (A) (A) (A) (A) (A) (A) (A) (A) (A)
                 (A) (A) (A) (A) (A) (A) (A) (A) (A) (A) (A) (A)
                 (A) (A) (A) (A) (A) (A) (A) (A) (A) (A) (A) (A)
                 (A) (A) (A) (A) (A) (A) (A) (A) (A) (A) (A) (A)
                 (A) (A) (A) (A) (A) (A) (A) (A) (A) (A) (A) (A)
                 (A) (A) (A) (A) (A) (A) (A) (A) (A) (A) (A) (A)
                 (A) (A) (A) (A) (A) (A) (A) (A) (A) (A) (A) (A)
                 (A) (A) (A) (A) (A) (A) (A) (A) (A) (A) (A) (A)
                 (A) (A) (A) (A) (A) (A) (A) (A) (A) (A) (A) (A)
                 (A) (A) (A) (A) (A) (A) (A) (A) (A) (A) (A) (A)
                 (A) (A) (A) (A) (A) (A) (A) (A) (A) (A) (A) (A)
                 (A) (A) (A) (A) (A) (A) (A) (A) (A) (A) (A) (A)
                 (A) (A) (A) (A) (A) (A) (A) (A)
 The electronic state is 1-A.
 Alpha  occ. eigenvalues --  -19.22462 -19.22240 -19.21905 -19.21628 -10.32245
 Alpha  occ. eigenvalues --  -10.31684 -10.31561 -10.30848 -10.30771 -10.30755
 Alpha  occ. eigenvalues --  -10.28453 -10.28156 -10.27921 -10.27819 -10.27588
 Alpha  occ. eigenvalues --  -10.27457 -10.27422 -10.27388 -10.27267 -10.27240
 Alpha  occ. eigenvalues --  -10.27178 -10.26980 -10.26903 -10.26790 -10.26600
 Alpha  occ. eigenvalues --  -10.26524 -10.26499 -10.26489 -10.26474 -10.26442
 Alpha  occ. eigenvalues --  -10.26284 -10.26224 -10.26134 -10.26003 -10.25993
 Alpha  occ. eigenvalues --  -10.25699 -10.25195 -10.25063 -10.24995 -10.24902
 Alpha  occ. eigenvalues --  -10.24527 -10.24275 -10.24002 -10.23662  -1.19791
 Alpha  occ. eigenvalues --   -1.09159  -1.08121  -1.07236  -0.92935  -0.92407
 Alpha  occ. eigenvalues --   -0.91845  -0.91238  -0.90479  -0.89826  -0.87943
 Alpha  occ. eigenvalues --   -0.86904  -0.86012  -0.85419  -0.84849  -0.83255
 Alpha  occ. eigenvalues --   -0.81403  -0.79973  -0.79851  -0.79276  -0.77353
 Alpha  occ. eigenvalues --   -0.76473  -0.76190  -0.75640  -0.75582  -0.75356
 Alpha  occ. eigenvalues --   -0.73785  -0.73093  -0.72803  -0.70504  -0.70292
 Alpha  occ. eigenvalues --   -0.68334  -0.66571  -0.65363  -0.64678  -0.64227
 Alpha  occ. eigenvalues --   -0.63660  -0.62588  -0.60935  -0.60168  -0.58994
 Alpha  occ. eigenvalues --   -0.58649  -0.58511  -0.57871  -0.57260  -0.56327
 Alpha  occ. eigenvalues --   -0.55883  -0.55677  -0.54881  -0.54539  -0.54180
 Alpha  occ. eigenvalues --   -0.53746  -0.52957  -0.52676  -0.52286  -0.52078
 Alpha  occ. eigenvalues --   -0.51657  -0.50785  -0.50347  -0.50249  -0.49962
 Alpha  occ. eigenvalues --   -0.49689  -0.49335  -0.48902  -0.48726  -0.48342
 Alpha  occ. eigenvalues --   -0.47915  -0.47682  -0.47189  -0.46960  -0.46665
 Alpha  occ. eigenvalues --   -0.46230  -0.46001  -0.45959  -0.45183  -0.44816
 Alpha  occ. eigenvalues --   -0.44756  -0.44465  -0.44192  -0.43873  -0.43655
 Alpha  occ. eigenvalues --   -0.43504  -0.43185  -0.42931  -0.42710  -0.42183
 Alpha  occ. eigenvalues --   -0.41536  -0.41130  -0.41046  -0.40496  -0.40475
 Alpha  occ. eigenvalues --   -0.40371  -0.40223  -0.40106  -0.39697  -0.39574
 Alpha  occ. eigenvalues --   -0.39551  -0.39432  -0.39333  -0.38961  -0.38498
 Alpha  occ. eigenvalues --   -0.38438  -0.38181  -0.37904  -0.37445  -0.37074
 Alpha  occ. eigenvalues --   -0.36744  -0.35502  -0.34969  -0.34683  -0.33468
 Alpha  occ. eigenvalues --   -0.32807  -0.32480  -0.31758  -0.31446  -0.31261
 Alpha  occ. eigenvalues --   -0.30879  -0.27471  -0.23632  -0.19199
 Alpha virt. eigenvalues --   -0.06949  -0.01739   0.02242   0.06258   0.07298
 Alpha virt. eigenvalues --    0.08358   0.08491   0.09788   0.10951   0.11614
 Alpha virt. eigenvalues --    0.11793   0.12703   0.12756   0.13226   0.13786
 Alpha virt. eigenvalues --    0.13830   0.14089   0.14241   0.14770   0.15260
 Alpha virt. eigenvalues --    0.15422   0.15771   0.15811   0.16072   0.16312
 Alpha virt. eigenvalues --    0.16728   0.16882   0.17267   0.17323   0.17437
 Alpha virt. eigenvalues --    0.18153   0.18264   0.18395   0.18923   0.19169
 Alpha virt. eigenvalues --    0.19220   0.19768   0.20090   0.20304   0.20914
 Alpha virt. eigenvalues --    0.21080   0.21243   0.21628   0.21696   0.21845
 Alpha virt. eigenvalues --    0.21897   0.22032   0.22261   0.22436   0.22587
 Alpha virt. eigenvalues --    0.22839   0.23660   0.23712   0.24139   0.24316
 Alpha virt. eigenvalues --    0.24531   0.24646   0.24805   0.25352   0.25457
 Alpha virt. eigenvalues --    0.25647   0.25859   0.26010   0.26551   0.26713
 Alpha virt. eigenvalues --    0.26954   0.27749   0.27970   0.28009   0.28412
 Alpha virt. eigenvalues --    0.28591   0.28756   0.29326   0.29630   0.29943
 Alpha virt. eigenvalues --    0.30220   0.30542   0.30863   0.31385   0.31670
 Alpha virt. eigenvalues --    0.32296   0.32617   0.32820   0.33074   0.34131
 Alpha virt. eigenvalues --    0.34451   0.34605   0.36281   0.36557   0.36579
 Alpha virt. eigenvalues --    0.37144   0.38314   0.38881   0.39286   0.39841
 Alpha virt. eigenvalues --    0.40301   0.40995   0.41331   0.43234   0.43468
 Alpha virt. eigenvalues --    0.43688   0.44386   0.45296   0.46563   0.47462
 Alpha virt. eigenvalues --    0.47832   0.48163   0.48952   0.49665   0.51499
 Alpha virt. eigenvalues --    0.53139   0.54775   0.54874   0.55167   0.55717
 Alpha virt. eigenvalues --    0.56910   0.57093   0.57733   0.57826   0.57946
 Alpha virt. eigenvalues --    0.58487   0.58926   0.59206   0.59367   0.59829
 Alpha virt. eigenvalues --    0.59954   0.60578   0.60835   0.61155   0.61413
 Alpha virt. eigenvalues --    0.61697   0.61811   0.61838   0.61983   0.62655
 Alpha virt. eigenvalues --    0.62790   0.62857   0.63563   0.63807   0.63970
 Alpha virt. eigenvalues --    0.64475   0.64689   0.64997   0.65272   0.65671
 Alpha virt. eigenvalues --    0.65703   0.65819   0.66010   0.66073   0.66279
 Alpha virt. eigenvalues --    0.66600   0.67040   0.67338   0.67640   0.67997
 Alpha virt. eigenvalues --    0.68188   0.68583   0.69015   0.69312   0.70127
 Alpha virt. eigenvalues --    0.70390   0.71029   0.71261   0.71478   0.71759
 Alpha virt. eigenvalues --    0.71975   0.72335   0.72691   0.72966   0.73095
 Alpha virt. eigenvalues --    0.73863   0.74769   0.74926   0.75770   0.76122
 Alpha virt. eigenvalues --    0.76239   0.76439   0.76685   0.77410   0.77476
 Alpha virt. eigenvalues --    0.78098   0.78336   0.78535   0.78727   0.79290
 Alpha virt. eigenvalues --    0.79974   0.80115   0.80683   0.80772   0.81330
 Alpha virt. eigenvalues --    0.81445   0.82002   0.82020   0.82426   0.82499
 Alpha virt. eigenvalues --    0.82948   0.83145   0.83448   0.83989   0.84551
 Alpha virt. eigenvalues --    0.84581   0.84882   0.85093   0.85644   0.86166
 Alpha virt. eigenvalues --    0.86522   0.86989   0.87344   0.87717   0.88160
 Alpha virt. eigenvalues --    0.88229   0.88788   0.89151   0.89217   0.89824
 Alpha virt. eigenvalues --    0.90309   0.90439   0.90497   0.91073   0.91354
 Alpha virt. eigenvalues --    0.91597   0.91644   0.91929   0.92116   0.92324
 Alpha virt. eigenvalues --    0.92606   0.92747   0.92906   0.93143   0.93364
 Alpha virt. eigenvalues --    0.93644   0.93943   0.94116   0.94520   0.95301
 Alpha virt. eigenvalues --    0.95353   0.95380   0.95436   0.95638   0.95778
 Alpha virt. eigenvalues --    0.96043   0.96751   0.97123   0.97328   0.97417
 Alpha virt. eigenvalues --    0.97596   0.98247   0.98543   0.98559   0.98989
 Alpha virt. eigenvalues --    0.99172   0.99715   1.00105   1.00650   1.00768
 Alpha virt. eigenvalues --    1.01393   1.01611   1.01930   1.02506   1.02833
 Alpha virt. eigenvalues --    1.02935   1.03697   1.04313   1.04571   1.04945
 Alpha virt. eigenvalues --    1.05214   1.05402   1.06135   1.06277   1.06735
 Alpha virt. eigenvalues --    1.07547   1.07589   1.07996   1.08667   1.09408
 Alpha virt. eigenvalues --    1.10149   1.10542   1.11052   1.11437   1.11854
 Alpha virt. eigenvalues --    1.12100   1.12604   1.12720   1.13370   1.14209
 Alpha virt. eigenvalues --    1.14224   1.15371   1.15952   1.16588   1.17720
 Alpha virt. eigenvalues --    1.18794   1.19803   1.20251   1.20591   1.22212
 Alpha virt. eigenvalues --    1.22742   1.22854   1.23412   1.23617   1.24702
 Alpha virt. eigenvalues --    1.25426   1.25782   1.26733   1.27750   1.28419
 Alpha virt. eigenvalues --    1.28740   1.28980   1.29685   1.30383   1.31104
 Alpha virt. eigenvalues --    1.31777   1.31918   1.32941   1.33905   1.34923
 Alpha virt. eigenvalues --    1.35337   1.36553   1.36954   1.37755   1.38505
 Alpha virt. eigenvalues --    1.38849   1.39367   1.39590   1.40422   1.41001
 Alpha virt. eigenvalues --    1.41767   1.41911   1.42288   1.42653   1.43044
 Alpha virt. eigenvalues --    1.43723   1.44035   1.44676   1.46170   1.47835
 Alpha virt. eigenvalues --    1.48763   1.49421   1.50385   1.50715   1.51193
 Alpha virt. eigenvalues --    1.51934   1.52699   1.53737   1.54669   1.54721
 Alpha virt. eigenvalues --    1.55147   1.55768   1.56283   1.56800   1.57637
 Alpha virt. eigenvalues --    1.57986   1.58435   1.58934   1.59402   1.60341
 Alpha virt. eigenvalues --    1.60844   1.60990   1.62423   1.63424   1.63702
 Alpha virt. eigenvalues --    1.64607   1.64794   1.65937   1.66748   1.67230
 Alpha virt. eigenvalues --    1.67480   1.68757   1.68892   1.70814   1.71120
 Alpha virt. eigenvalues --    1.72640   1.73316   1.73773   1.75294   1.75402
 Alpha virt. eigenvalues --    1.76160   1.76653   1.77654   1.78390   1.79101
 Alpha virt. eigenvalues --    1.79407   1.80096   1.80207   1.81179   1.81742
 Alpha virt. eigenvalues --    1.82165   1.82601   1.83124   1.83426   1.84064
 Alpha virt. eigenvalues --    1.84992   1.85724   1.85817   1.85994   1.86576
 Alpha virt. eigenvalues --    1.86805   1.87033   1.87201   1.87614   1.88714
 Alpha virt. eigenvalues --    1.88985   1.89728   1.90203   1.90389   1.91715
 Alpha virt. eigenvalues --    1.92123   1.92298   1.92472   1.92525   1.93216
 Alpha virt. eigenvalues --    1.93568   1.93834   1.94292   1.94425   1.94739
 Alpha virt. eigenvalues --    1.95152   1.95821   1.96279   1.96744   1.97434
 Alpha virt. eigenvalues --    1.98126   1.98241   1.98547   1.99029   1.99412
 Alpha virt. eigenvalues --    1.99547   1.99954   2.00069   2.01083   2.01399
 Alpha virt. eigenvalues --    2.01774   2.01828   2.02186   2.02459   2.02754
 Alpha virt. eigenvalues --    2.03194   2.03339   2.03954   2.04550   2.04987
 Alpha virt. eigenvalues --    2.05316   2.05720   2.06055   2.07112   2.07340
 Alpha virt. eigenvalues --    2.07529   2.07796   2.08211   2.08738   2.09446
 Alpha virt. eigenvalues --    2.09661   2.09914   2.10265   2.10954   2.11250
 Alpha virt. eigenvalues --    2.11304   2.11758   2.12049   2.12861   2.13353
 Alpha virt. eigenvalues --    2.13464   2.13864   2.14045   2.14316   2.14528
 Alpha virt. eigenvalues --    2.15334   2.15768   2.16001   2.16668   2.16935
 Alpha virt. eigenvalues --    2.17014   2.17515   2.18044   2.18449   2.19150
 Alpha virt. eigenvalues --    2.19730   2.19822   2.19943   2.20202   2.20690
 Alpha virt. eigenvalues --    2.21206   2.21386   2.21914   2.22218   2.22579
 Alpha virt. eigenvalues --    2.22686   2.23563   2.23966   2.24220   2.24285
 Alpha virt. eigenvalues --    2.24871   2.24962   2.25519   2.25881   2.26741
 Alpha virt. eigenvalues --    2.27122   2.27373   2.28146   2.28318   2.28612
 Alpha virt. eigenvalues --    2.29223   2.29435   2.29829   2.30972   2.31172
 Alpha virt. eigenvalues --    2.32003   2.32718   2.33118   2.33288   2.33416
 Alpha virt. eigenvalues --    2.33701   2.34237   2.34417   2.34766   2.35366
 Alpha virt. eigenvalues --    2.35461   2.36387   2.36740   2.37379   2.38115
 Alpha virt. eigenvalues --    2.38411   2.38970   2.39092   2.39739   2.40230
 Alpha virt. eigenvalues --    2.40638   2.40908   2.41049   2.41365   2.42671
 Alpha virt. eigenvalues --    2.43536   2.43658   2.44229   2.44584   2.45251
 Alpha virt. eigenvalues --    2.45539   2.45697   2.46486   2.46945   2.47788
 Alpha virt. eigenvalues --    2.48267   2.48508   2.48638   2.49480   2.49717
 Alpha virt. eigenvalues --    2.49765   2.51214   2.51574   2.51771   2.51934
 Alpha virt. eigenvalues --    2.52305   2.53456   2.53832   2.54727   2.55135
 Alpha virt. eigenvalues --    2.55570   2.56022   2.56342   2.57691   2.58195
 Alpha virt. eigenvalues --    2.58346   2.59048   2.59116   2.59699   2.60360
 Alpha virt. eigenvalues --    2.60822   2.61171   2.61546   2.61745   2.61984
 Alpha virt. eigenvalues --    2.62461   2.62684   2.62918   2.64286   2.64843
 Alpha virt. eigenvalues --    2.65038   2.65220   2.65534   2.65602   2.65898
 Alpha virt. eigenvalues --    2.66264   2.66862   2.67079   2.67494   2.67989
 Alpha virt. eigenvalues --    2.68068   2.68216   2.68479   2.69296   2.69869
 Alpha virt. eigenvalues --    2.70328   2.70780   2.71014   2.71285   2.71986
 Alpha virt. eigenvalues --    2.72266   2.72526   2.73268   2.74059   2.74426
 Alpha virt. eigenvalues --    2.74584   2.75341   2.75526   2.75764   2.76153
 Alpha virt. eigenvalues --    2.76491   2.76632   2.77074   2.77698   2.77918
 Alpha virt. eigenvalues --    2.78985   2.79288   2.79505   2.79760   2.80141
 Alpha virt. eigenvalues --    2.81074   2.82258   2.82763   2.83214   2.83932
 Alpha virt. eigenvalues --    2.84192   2.84543   2.85068   2.85599   2.86143
 Alpha virt. eigenvalues --    2.86726   2.86954   2.87663   2.88033   2.88397
 Alpha virt. eigenvalues --    2.88784   2.89719   2.90381   2.90551   2.91307
 Alpha virt. eigenvalues --    2.92648   2.93009   2.93589   2.93760   2.94549
 Alpha virt. eigenvalues --    2.94913   2.95688   2.96188   2.96665   2.97077
 Alpha virt. eigenvalues --    2.97232   2.97465   2.98205   2.98885   2.99397
 Alpha virt. eigenvalues --    3.00311   3.01066   3.01364   3.02745   3.03026
 Alpha virt. eigenvalues --    3.03571   3.04842   3.05090   3.05397   3.05962
 Alpha virt. eigenvalues --    3.07559   3.07978   3.08458   3.08889   3.11404
 Alpha virt. eigenvalues --    3.11807   3.11868   3.12892   3.14575   3.15131
 Alpha virt. eigenvalues --    3.16620   3.17946   3.18309   3.18470   3.20492
 Alpha virt. eigenvalues --    3.20744   3.21245   3.25277   3.25578   3.25904
 Alpha virt. eigenvalues --    3.26678   3.27766   3.27788   3.28312   3.28630
 Alpha virt. eigenvalues --    3.30777   3.32213   3.32258   3.33952   3.34306
 Alpha virt. eigenvalues --    3.34442   3.35119   3.38970   3.40929   3.41157
 Alpha virt. eigenvalues --    3.41784   3.43064   3.43632   3.44199   3.44582
 Alpha virt. eigenvalues --    3.46590   3.47027   3.48188   3.48709   3.48953
 Alpha virt. eigenvalues --    3.50302   3.50557   3.50913   3.52178   3.52366
 Alpha virt. eigenvalues --    3.53045   3.53466   3.54148   3.54424   3.55014
 Alpha virt. eigenvalues --    3.55141   3.55589   3.56962   3.57807   3.58262
 Alpha virt. eigenvalues --    3.60061   3.62131   3.63949   3.64648   3.65241
 Alpha virt. eigenvalues --    3.66447   3.70288   3.75048   3.75557   3.78222
 Alpha virt. eigenvalues --    3.82206   3.98425   4.01243   4.01333   4.14964
 Alpha virt. eigenvalues --    4.17073   4.18263   4.19439   4.19912   4.20084
 Alpha virt. eigenvalues --    4.22563   4.24359   4.26838   4.30043   4.33646
 Alpha virt. eigenvalues --    4.36251   4.38444   4.40069   4.44290   4.45080
 Alpha virt. eigenvalues --    4.47870   4.48419   4.51610   4.51967   4.54256
 Alpha virt. eigenvalues --    4.55512   4.57289   4.58592   4.61190   4.62978
 Alpha virt. eigenvalues --    4.63636   4.64573   4.69272   4.71196   4.74635
 Alpha virt. eigenvalues --    4.75771   4.77115   4.79200   4.81728   4.84090
 Alpha virt. eigenvalues --    4.84954   4.88880   4.91334   4.92491   4.94712
 Alpha virt. eigenvalues --    5.00744
          Condensed to atoms (all electrons):
 Mulliken charges:
               1
     1  O   -0.479522
     2  O   -0.560868
     3  O   -0.568088
     4  O   -0.557167
     5  C    0.227717
     6  C    0.196274
     7  C    0.005603
     8  C   -0.212887
     9  C   -0.169077
    10  C    0.173853
    11  C   -0.314002
    12  C   -0.137694
    13  C   -0.300340
    14  C   -0.293902
    15  C   -0.032808
    16  C    0.069809
    17  C   -0.334133
    18  C   -0.098949
    19  C   -0.066328
    20  C    0.002339
    21  C    0.249872
    22  C   -0.142179
    23  C    0.158958
    24  C   -0.191501
    25  C   -0.049596
    26  C   -0.309836
    27  C   -0.287493
    28  C   -0.315313
    29  C   -0.107498
    30  C    0.069506
    31  C    0.086388
    32  C   -0.256697
    33  C   -0.391139
    34  C   -0.125782
    35  C    0.144418
    36  C   -0.371167
    37  C   -0.123960
    38  C   -0.075288
    39  C   -0.103440
    40  C   -0.077602
    41  C   -0.101277
    42  C   -0.115380
    43  C    0.081836
    44  C   -0.362642
    45  H    0.101060
    46  H    0.128199
    47  H    0.076653
    48  H    0.103248
    49  H    0.057448
    50  H    0.093383
    51  H    0.104811
    52  H    0.124060
    53  H    0.105259
    54  H    0.086795
    55  H    0.100778
    56  H    0.099709
    57  H    0.109600
    58  H    0.115524
    59  H    0.088968
    60  H    0.306033
    61  H    0.069975
    62  H    0.120947
    63  H    0.073866
    64  H    0.056998
    65  H    0.078466
    66  H    0.084601
    67  H    0.049009
    68  H    0.096774
    69  H    0.087854
    70  H    0.111921
    71  H    0.107819
    72  H    0.106531
    73  H    0.103631
    74  H    0.107172
    75  H    0.124788
    76  H    0.089524
    77  H    0.082809
    78  H    0.098511
    79  H    0.088695
    80  H    0.135705
    81  H    0.073422
    82  H    0.305211
    83  H    0.305661
    84  H    0.105047
    85  H    0.130248
    86  H    0.135148
    87  H    0.100163
    88  H    0.088274
    89  H    0.121432
    90  H    0.118405
    91  H    0.137177
    92  H    0.078139
    93  H    0.081151
    94  H    0.080974
    95  H    0.098678
    96  H    0.063486
    97  H    0.096317
    98  H    0.113550
    99  H    0.120679
   100  H    0.136693
 Sum of Mulliken charges =  -0.00000
 Mulliken charges with hydrogens summed into heavy atoms:
               1
     1  O   -0.479522
     2  O   -0.254835
     3  O   -0.262877
     4  O   -0.251505
     5  C    0.227717
     6  C    0.196274
     7  C    0.005603
     8  C    0.016372
     9  C    0.010825
    10  C    0.231301
    11  C    0.008251
    12  C   -0.032434
    13  C   -0.013058
    14  C    0.020191
    15  C    0.037167
    16  C    0.069809
    17  C   -0.082321
    18  C   -0.020483
    19  C    0.018273
    20  C    0.002339
    21  C    0.249872
    22  C    0.003604
    23  C    0.246812
    24  C    0.028239
    25  C   -0.049596
    26  C    0.007499
    27  C    0.009628
    28  C    0.007598
    29  C   -0.034077
    30  C    0.069506
    31  C    0.086388
    32  C   -0.151649
    33  C   -0.025580
    34  C   -0.037508
    35  C    0.144418
    36  C    0.005847
    37  C   -0.045821
    38  C    0.005862
    39  C   -0.022466
    40  C    0.021076
    41  C   -0.037792
    42  C   -0.019063
    43  C    0.081836
    44  C    0.008279
 Electronic spatial extent (au):  <R**2>=         114990.8474
 Charge=             -0.0000 electrons
 Dipole moment (field-independent basis, Debye):
    X=              5.2993    Y=             -0.3201    Z=              0.6399  Tot=              5.3474
 Quadrupole moment (field-independent basis, Debye-Ang):
   XX=           -282.1964   YY=           -259.9437   ZZ=           -280.3916
   XY=            -11.6612   XZ=             39.5279   YZ=             -5.3130
 Traceless Quadrupole moment (field-independent basis, Debye-Ang):
   XX=             -8.0192   YY=             14.2336   ZZ=             -6.2144
   XY=            -11.6612   XZ=             39.5279   YZ=             -5.3130
 Octapole moment (field-independent basis, Debye-Ang**2):
  XXX=           1391.9638  YYY=             10.2340  ZZZ=            -14.8587  XYY=             69.3162
  XXY=            -99.4174  XXZ=            139.6752  XZZ=             47.8247  YZZ=              1.6545
  YYZ=            -21.2454  XYZ=           -121.4658
 Hexadecapole moment (field-independent basis, Debye-Ang**3):
 XXXX=        -143517.9868 YYYY=          -3705.1188 ZZZZ=          -2286.9855 XXXY=          -4568.9023
 XXXZ=           7357.0632 YYYX=           -282.5112 YYYZ=            -28.5924 ZZZX=             37.0443
 ZZZY=            -16.7840 XXYY=         -25764.0076 XXZZ=         -26149.7981 YYZZ=          -1043.8028
 XXYZ=             -5.4866 YYXZ=            193.4652 ZZXY=              3.2538
 N-N= 4.453376754617D+03 E-N=-1.321673388277D+04  KE= 1.839046597366D+03
 1\1\GINC-RYZEN-SSD3\SP\RCAM-B3LYP TD-FC\6-31G(d,p)\C40H56O4\PADAWAN\28
 -Jul-2019\0\\# td=(NStates=1) CAM-B3LYP/6-31G(d,p)\\TD\\0,1\O,0,-11.63
 64603136,0.1930299514,-1.4824254061\O,0,-12.8485656924,-2.5533836464,1
 .244480133\O,0,10.6371992398,-1.0363635243,-2.2029340197\O,0,14.477891
 1558,-1.0960583273,-0.2341379012\C,0,-11.0309112583,-0.2336473194,-0.3
 315725817\C,0,-11.6800642961,-1.1602372036,-1.1967285132\C,0,-11.85434
 74777,0.3718738702,0.7707667317\C,0,-13.0516903727,-1.8010402619,-1.05
 50371377\C,0,-13.3035588139,-0.1287603236,0.6846731552\C,0,-13.4692733
 608,-1.5577173095,0.380456813\C,0,-10.6680223909,-2.0293583533,-2.1237
 346918\C,0,-9.6067701208,0.1804351773,-0.3373806962\C,0,-11.2595019276
 ,0.1331277168,2.1973247996\C,0,-11.8281431946,1.9519703001,0.755363628
 1\C,0,-8.6856119829,-0.6308011213,0.2366624052\C,0,-7.2804360332,-0.53
 39252386,0.2005777581\C,0,-6.368330848,-1.6868473735,0.7352757639\C,0,
 -6.573643026,0.5792187518,-0.192237779\C,0,-5.2122711687,0.8851305498,
 -0.0582201522\C,0,11.9933385808,0.0268327128,1.3179613242\C,0,11.62019
 931,-0.5623923944,-1.2978736671\C,0,12.7043076589,-1.2811423439,1.4055
 352869\C,0,13.3411488016,-1.8713216656,0.1359575602\C,0,12.4356685016,
 -1.8081653255,-1.0436783303\C,0,11.0472616141,-0.0095962117,-0.0351263
 323\C,0,11.0848698919,0.1196986119,2.5834006803\C,0,12.9106341801,1.21
 80250233,1.2439674477\C,0,12.5003763438,0.476656539,-2.0345374015\C,0,
 -4.6885253482,2.1564281488,-0.4100458535\C,0,9.8852497125,0.4939001928
 ,0.0402328466\C,0,-3.3358287413,2.6116499187,-0.4457648372\C,0,8.56050
 58366,0.860272361,-0.2035446945\C,0,-3.0283645216,4.0406455241,-0.7313
 728694\C,0,-2.2832352386,1.6361554642,-0.2097635111\C,0,7.4322427668,0
 .1170322912,0.0294437603\C,0,7.5194266792,-1.4121781699,0.3815980827\C
 ,0,6.2136627143,0.8321001403,-0.1012040564\C,0,-0.8957837099,1.8885679
 805,-0.0661747926\C,0,4.9160532081,0.2525343695,0.0584372125\C,0,0.020
 3385129,0.8683901489,0.0608569829\C,0,3.7197413818,0.8752478752,-0.045
 3720062\C,0,1.3676387047,1.2628280105,-0.0192143023\C,0,2.4206199625,0
 .2930086006,0.1611094688\C,0,2.3055304147,-1.1334375241,0.558654459\H,
 0,-12.9198137822,-2.9715101288,-1.1305382778\H,0,-13.7430495287,-1.401
 2241066,-1.7763140861\H,0,-13.8259103932,-0.154038335,1.8231950022\H,0
 ,-13.9189612897,0.441279255,-0.0727196064\H,0,-14.7302603301,-1.735772
 2906,0.5203636407\H,0,-10.4527938963,-2.9421709999,-1.4878940848\H,0,-
 11.3167418831,-2.2394987413,-3.0338316694\H,0,-9.823904574,-1.40285949
 45,-2.4437759901\H,0,-9.2735060054,0.9059927303,-0.9351973298\H,0,-10.
 1802893565,0.5917404381,2.0108168245\H,0,-11.8160269636,0.8525419558,2
 .8356319133\H,0,-11.1844491386,-0.8870055771,2.6126020499\H,0,-12.1140
 239449,2.2240785299,-0.2982566097\H,0,-12.4899852379,2.3628718627,1.42
 62163334\H,0,-10.691389421,1.9803986304,1.0429585894\H,0,-11.846597732
 3,-2.7014330169,0.9371581947\H,0,-8.8902298649,-1.5655749152,0.7353326
 322\H,0,-5.691578604,-2.2656698921,-0.0497430187\H,0,-5.6028527006,-1.
 4417694095,1.8668350797\H,0,-7.1090410147,-2.6979120642,1.0846846193\H
 ,0,-7.0566469758,1.405798909,-0.6706267392\H,0,-4.5054071854,0.0495735
 758,0.4148477091\H,0,13.6190875859,-1.2139830857,2.18599354\H,0,12.134
 1285899,-1.8162910091,1.9270987096\H,0,13.6676591228,-2.8387755426,0.3
 577427002\H,0,12.9314205806,-2.0782543039,-2.0459976945\H,0,11.6278527
 935,-2.6000791318,-1.0072460667\H,0,11.7468942976,0.2171320799,3.42748
 77875\H,0,10.4927362513,1.0750630694,2.5230798322\H,0,10.4304206633,-0
 .7562339379,2.4880450457\H,0,13.6280997119,1.0638150057,0.3516492297\H
 ,0,12.2435369669,2.1644258804,1.3160263083\H,0,13.7040462417,1.1968141
 605,2.0461610977\H,0,12.7800488244,0.3116345539,-3.1298254344\H,0,11.9
 208191503,1.3639184827,-2.0616340983\H,0,13.532344067,0.6713031832,-1.
 6976452499\H,0,-5.3038526092,2.9251168985,-0.5733487457\H,0,10.0057718
 278,-0.2068893465,-2.3315754933\H,0,15.352278073,-1.3133311475,0.39535
 81351\H,0,8.3452963804,1.8696992971,-0.4425015274\H,0,-2.3805731415,4.
 6331597657,-0.0541495853\H,0,-2.4741361779,4.0990171265,-1.657668876\H
 ,0,-4.021938579,4.5690850903,-1.0923990414\H,0,-2.5009797181,0.5413063
 426,-0.3178747421\H,0,6.682711021,-2.0736469268,0.1149539801\H,0,8.340
 9393084,-1.8470994347,-0.3682075949\H,0,7.8894188635,-1.3743497634,1.3
 632200829\H,0,6.4137465218,1.8290567111,-0.4373757573\H,0,-0.517603117
 3,2.8464886924,-0.1337832898\H,0,4.8341694033,-0.7559020869,0.46781946
 3\H,0,-0.2240513283,-0.2167134842,0.264469058\H,0,3.8233515031,2.00567
 62038,-0.474819707\H,0,1.7062174969,2.2839741893,-0.2414768461\H,0,1.3
 36322467,-1.314048009,0.7259615918\H,0,2.6807093957,-1.8981261141,-0.2
 593037004\H,0,2.7632830247,-1.2337376028,1.5401773043\\Version=ES64L-G
 16RevA.03\State=1-A\HF=-1857.2955509\RMSD=4.382e-09\PG=C01 [X(C40H56O4
 )]\\@


 WISDOM IS KNOWING WHAT TO DO,
 SKILL IS KNOWING HOW TO DO IT,
 AND VIRTUE IS NOT DOING IT.
 Job cpu time:       0 days  6 hours 41 minutes 36.5 seconds.
 Elapsed time:       0 days  2 hours 14 minutes  4.5 seconds.
 File lengths (MBytes):  RWF=   3379 Int=      0 D2E=      0 Chk=     90 Scr=      1
 Normal termination of Gaussian 16 at Sun Jul 28 23:25:14 2019.
