 Entering Gaussian System, Link 0=g16
 Input=Geometria-338-.com
 Output=Geometria-338-.log
 Initial command:
 /usr/local/g16/l1.exe "/home/padawan/israel-mol/neoxanthin/spectra/emi/Gau-111303.inp" -scrdir="/home/padawan/israel-mol/neoxanthin/spectra/emi/"
 Entering Link 1 = /usr/local/g16/l1.exe PID=    111305.
  
 Copyright (c) 1988,1990,1992,1993,1995,1998,2003,2009,2016,
            Gaussian, Inc.  All Rights Reserved.
  
 This is part of the Gaussian(R) 16 program.  It is based on
 the Gaussian(R) 09 system (copyright 2009, Gaussian, Inc.),
 the Gaussian(R) 03 system (copyright 2003, Gaussian, Inc.),
 the Gaussian(R) 98 system (copyright 1998, Gaussian, Inc.),
 the Gaussian(R) 94 system (copyright 1995, Gaussian, Inc.),
 the Gaussian 92(TM) system (copyright 1992, Gaussian, Inc.),
 the Gaussian 90(TM) system (copyright 1990, Gaussian, Inc.),
 the Gaussian 88(TM) system (copyright 1988, Gaussian, Inc.),
 the Gaussian 86(TM) system (copyright 1986, Carnegie Mellon
 University), and the Gaussian 82(TM) system (copyright 1983,
 Carnegie Mellon University). Gaussian is a federally registered
 trademark of Gaussian, Inc.
  
 This software contains proprietary and confidential information,
 including trade secrets, belonging to Gaussian, Inc.
  
 This software is provided under written license and may be
 used, copied, transmitted, or stored only in accord with that
 written license.
  
 The following legend is applicable only to US Government
 contracts under FAR:
  
                    RESTRICTED RIGHTS LEGEND
  
 Use, reproduction and disclosure by the US Government is
 subject to restrictions as set forth in subparagraphs (a)
 and (c) of the Commercial Computer Software - Restricted
 Rights clause in FAR 52.227-19.
  
 Gaussian, Inc.
 340 Quinnipiac St., Bldg. 40, Wallingford CT 06492
  
  
 ---------------------------------------------------------------
 Warning -- This program may not be used in any manner that
 competes with the business of Gaussian, Inc. or will provide
 assistance to any competitor of Gaussian, Inc.  The licensee
 of this program is prohibited from giving any competitor of
 Gaussian, Inc. access to this program.  By using this program,
 the user acknowledges that Gaussian, Inc. is engaged in the
 business of creating and licensing software in the field of
 computational chemistry and represents and warrants to the
 licensee that it is not a competitor of Gaussian, Inc. and that
 it will not use this program in any manner prohibited above.
 ---------------------------------------------------------------
  

 Cite this work as:
 Gaussian 16, Revision A.03,
 M. J. Frisch, G. W. Trucks, H. B. Schlegel, G. E. Scuseria, 
 M. A. Robb, J. R. Cheeseman, G. Scalmani, V. Barone, 
 G. A. Petersson, H. Nakatsuji, X. Li, M. Caricato, A. V. Marenich, 
 J. Bloino, B. G. Janesko, R. Gomperts, B. Mennucci, H. P. Hratchian, 
 J. V. Ortiz, A. F. Izmaylov, J. L. Sonnenberg, D. Williams-Young, 
 F. Ding, F. Lipparini, F. Egidi, J. Goings, B. Peng, A. Petrone, 
 T. Henderson, D. Ranasinghe, V. G. Zakrzewski, J. Gao, N. Rega, 
 G. Zheng, W. Liang, M. Hada, M. Ehara, K. Toyota, R. Fukuda, 
 J. Hasegawa, M. Ishida, T. Nakajima, Y. Honda, O. Kitao, H. Nakai, 
 T. Vreven, K. Throssell, J. A. Montgomery, Jr., J. E. Peralta, 
 F. Ogliaro, M. J. Bearpark, J. J. Heyd, E. N. Brothers, K. N. Kudin, 
 V. N. Staroverov, T. A. Keith, R. Kobayashi, J. Normand, 
 K. Raghavachari, A. P. Rendell, J. C. Burant, S. S. Iyengar, 
 J. Tomasi, M. Cossi, J. M. Millam, M. Klene, C. Adamo, R. Cammi, 
 J. W. Ochterski, R. L. Martin, K. Morokuma, O. Farkas, 
 J. B. Foresman, and D. J. Fox, Gaussian, Inc., Wallingford CT, 2016.
 
 ******************************************
 Gaussian 16:  ES64L-G16RevA.03 25-Dec-2016
                31-Jul-2019 
 ******************************************
 %nproc=3
 Will use up to    3 processors via shared memory.
 %Mem=2GB
 -------------------------------------
 # td=(NStates=1) CAM-B3LYP/6-31G(d,p)
 -------------------------------------
 1/38=1,172=1/1;
 2/12=2,17=6,18=5,40=1/2;
 3/5=1,6=6,7=101,11=9,25=1,30=1,74=-40/1,2,3,8;
 4//1;
 5/5=2,38=5/2;
 8/6=1,10=2,108=1/1;
 9/41=1,42=1,70=2/14;
 6/7=2,8=2,9=2,10=2/1;
 99/5=1,9=1/99;
 --
 TD
 --
 Symbolic Z-matrix:
 Charge =  0 Multiplicity = 1
 8                    -11.62461   0.16447  -1.64432 
 8                    -13.08233  -2.41209   1.40536 
 8                     10.69177  -0.99502  -2.17762 
 8                     14.48994  -1.0479    0.1359 
 6                    -10.99577  -0.12549  -0.38242 
 6                    -11.65583  -1.22302  -1.21167 
 6                    -11.74646   0.34358   0.87726 
 6                    -13.084   -1.78778  -0.98219 
 6                    -13.22256  -0.08694   0.8991 
 6                    -13.61439  -1.45346   0.50464 
 6                    -10.71678  -2.04087  -2.08551 
 6                    -9.55463   0.17436  -0.27325 
 6                    -11.1358  -0.18482   2.25771 
 6                    -11.82681   1.93258   1.05445 
 6                    -8.63952  -0.73122   0.05926 
 6                    -7.22951  -0.51961   0.19483 
 6                    -6.38475  -1.81591   0.56182 
 6                    -6.59634   0.6746   -0.04911 
 6                    -5.21443   0.8712    0.13844 
 6                     11.81614  -0.04454   1.43343 
 6                     11.73285  -0.59875  -1.10607 
 6                     12.55864  -1.34144   1.64227 
 6                     13.32437  -1.89823   0.38735 
 6                     12.53544  -1.82318  -0.87867 
 6                     10.99845   0.02241   0.15019 
 6                     10.87991   0.28279   2.60241 
 6                     12.86205   1.14483   1.42974 
 6                     12.61902   0.32589  -2.00895 
 6                    -4.62437   2.17766  -0.25888 
 6                     9.81315   0.5444   -0.08566 
 6                    -3.28797   2.56366  -0.32223 
 6                     8.57877   1.05966  -0.41778 
 6                    -3.15928   3.94398  -0.70061 
 6                    -2.27779   1.59339  -0.16516 
 6                     7.3533    0.09125  -0.29526 
 6                     7.61343  -1.33655  -0.12889 
 6                     6.15427   0.86977  -0.28007 
 6                    -0.88899   1.86018  -0.3477 
 6                     5.03441   0.14806  -0.16294 
 6                     0.05265   0.9765   -0.23501 
 6                     3.84386   0.93575  -0.19209 
 6                     1.46068   1.25065  -0.17881 
 6                     2.5527    0.36479  -0.1193 
 6                     2.38261  -1.10938   0.11451 
 1                    -13.13694  -2.84229  -1.03755 
 1                    -13.63631  -1.09855  -1.74995 
 1                    -13.85086   0.436     1.76978 
 1                    -13.6388   0.49587   0.25733 
 1                    -14.67306  -1.79146   0.44481 
 1                    -10.63069  -3.13215  -1.51064 
 1                    -11.46954  -2.61062  -2.85272 
 1                    -9.83581  -1.49175  -2.48378 
 1                    -9.32736   1.18906  -0.76515 
 1                    -10.16217   0.25925   2.35181 
 1                    -11.71333   0.48984   3.21758 
 1                    -11.18525  -1.18965   2.48152 
 1                    -12.11441   2.43268   0.14415 
 1                    -12.30379   2.02994   1.88145 
 1                    -10.75429   2.24856   1.27307 
 1                    -11.93188  -2.22894   1.34559 
 1                    -8.90086  -1.6674    0.55954 
 1                    -5.5849   -1.81974  -0.17 
 1                    -5.93841  -1.92145   1.5095 
 1                    -7.03059  -2.97055   0.19981 
 1                    -7.28635   1.39072  -0.2743 
 1                    -4.65721   0.03827   0.70133 
 1                     13.04247  -1.3602    2.53578 
 1                     11.92239  -2.13288   1.69201 
 1                     13.72099  -2.82627   0.55429 
 1                     13.22536  -2.19422  -1.67181 
 1                     11.78931  -2.73444  -0.93479 
 1                     11.30801   0.50462   3.60593 
 1                     10.20935   1.16799   2.34447 
 1                     10.1149  -0.60236   2.55247 
 1                     13.80869   1.078     0.70149 
 1                     12.36232   2.072     1.18663 
 1                     13.32772   1.14553   2.54244 
 1                     12.95289  -0.16515  -2.97477 
 1                     11.95527   1.22911  -2.29345 
 1                     13.40181   0.59446  -1.42841 
 1                    -5.28172   2.96803  -0.43988 
 1                     10.0065  -0.21678  -2.18938 
 1                     14.98459  -0.75014   1.06321 
 1                     8.26918   2.01528  -0.62491 
 1                    -2.27832   4.30002  -0.00218 
 1                    -2.73693   4.01074  -1.84203 
 1                    -3.97121   4.61432  -0.61326 
 1                    -2.58535   0.61526  -0.23341 
 1                     6.83055  -1.97598  -0.50492 
 1                     8.39909  -1.73305  -0.66295 
 1                     7.74339  -1.57913   0.92156 
 1                     5.97641   1.99647  -0.11288 
 1                    -0.60229   2.87424  -0.54486 
 1                     4.84864  -0.98221  -0.14764 
 1                    -0.04601  -0.03099  -0.39587 
 1                     4.03684   1.93404  -0.19743 
 1                     1.72893   2.15142  -0.24991 
 1                     1.33896  -1.44231  -0.14874 
 1                     3.12686  -1.6862   -0.63743 
 1                     2.72428  -1.30241   1.16528 
 
 Stoichiometry    C40H56O4
 Framework group  C1[X(C40H56O4)]
 Deg. of freedom   294
 Full point group                 C1      NOp   1
 Largest Abelian subgroup         C1      NOp   1
 Largest concise Abelian subgroup C1      NOp   1
                         Standard orientation:                         
 ---------------------------------------------------------------------
 Center     Atomic      Atomic             Coordinates (Angstroms)
 Number     Number       Type             X           Y           Z
 ---------------------------------------------------------------------
      1          8           0      -11.621208    0.129770   -1.660939
      2          8           0      -13.082512   -2.382455    1.440261
      3          8           0       10.695915   -1.038252   -2.142106
      4          8           0       14.491207   -1.042226    0.176730
      5          6           0      -10.993913   -0.133603   -0.392455
      6          6           0      -11.652857   -1.248351   -1.199340
      7          6           0      -11.746206    0.361684    0.856178
      8          6           0      -13.081267   -1.808325   -0.959846
      9          6           0      -13.222302   -0.068439    0.885211
     10          6           0      -13.613527   -1.442969    0.518989
     11          6           0      -10.712650   -2.084232   -2.054680
     12          6           0       -9.552942    0.168624   -0.287811
     13          6           0      -11.137224   -0.137605    2.248161
     14          6           0      -11.826912    1.954038    0.999930
     15          6           0       -8.638165   -0.729695    0.064752
     16          6           0       -7.228346   -0.515142    0.197600
     17          6           0       -6.383939   -1.803371    0.592730
     18          6           0       -6.594964    0.673763   -0.070531
     19          6           0       -5.213310    0.874399    0.114576
     20          6           0       11.815712   -0.012177    1.449627
     21          6           0       11.735626   -0.619494   -1.077808
     22          6           0       12.558059   -1.304330    1.686522
     23          6           0       13.325389   -1.887224    0.444504
     24          6           0       12.538029   -1.838804   -0.823795
     25          6           0       10.999610    0.027775    0.164250
     26          6           0       10.878001    0.339492    2.610325
     27          6           0       12.861528    1.176968    1.422300
     28          6           0       12.622841    0.286111   -1.998770
     29          6           0       -4.622860    2.172309   -0.309308
     30          6           0        9.814567    0.544578   -0.083963
     31          6           0       -3.286418    2.557034   -0.379076
     32          6           0        8.580555    1.052639   -0.428339
     33          6           0       -3.157363    3.929135   -0.786142
     34          6           0       -2.276356    1.590384   -0.200446
     35          6           0        7.355019    0.086876   -0.287072
     36          6           0        7.615049   -1.337096   -0.090493
     37          6           0        6.155900    0.865419   -0.289696
     38          6           0       -0.887350    1.853432   -0.386817
     39          6           0        5.035952    0.146203   -0.158858
     40          6           0        0.054225    0.972414   -0.254460
     41          6           0        3.845384    0.932982   -0.205982
     42          6           0        1.462158    1.247829   -0.202268
     43          6           0        2.554180    0.363526   -0.122846
     44          6           0        2.383914   -1.105428    0.141599
     45          1           0      -13.134045   -2.863768   -0.993156
     46          1           0      -13.632673   -1.135403   -1.742571
     47          1           0      -13.851729    0.472565    1.743953
     48          1           0      -13.637793    0.500748    0.230849
     49          1           0      -14.672101   -1.782263    0.464939
     50          1           0      -10.627191   -3.163214   -1.456952
     51          1           0      -11.464409   -2.670015   -2.810716
     52          1           0       -9.831228   -1.543485   -2.463277
     53          1           0       -9.325139    1.172812   -0.800585
     54          1           0      -10.163746    0.308445    2.334142
     55          1           0      -11.715999    0.556963    3.192961
     56          1           0      -11.186871   -1.137521    2.492920
     57          1           0      -12.113421    2.434918    0.078986
     58          1           0      -12.304921    2.068659    1.824113
     59          1           0      -10.754683    2.274642    1.213209
     60          1           0      -11.932000   -2.200471    1.378097
     61          1           0       -8.900055   -1.655205    0.584210
     62          1           0       -5.583175   -1.822448   -0.137848
     63          1           0       -5.938764   -1.888974    1.542969
     64          1           0       -7.029236   -2.965413    0.254197
     65          1           0       -7.284756    1.384931   -0.311532
     66          1           0       -4.656724    0.053514    0.695489
     67          1           0       13.040776   -1.304305    2.580828
     68          1           0       11.921806   -2.094626    1.752046
     69          1           0       13.721883   -2.811519    0.631351
     70          1           0       13.228967   -2.226312   -1.608125
     71          1           0       11.792044   -2.751125   -0.861726
     72          1           0       11.304836    0.582348    3.609499
     73          1           0       10.207689    1.219017    2.333055
     74          1           0       10.113125   -0.546596    2.577998
     75          1           0       13.809077    1.094989    0.696795
     76          1           0       12.362026    2.098784    1.159197
     77          1           0       13.325813    1.201041    2.535323
     78          1           0       12.957949   -0.225034   -2.953665
     79          1           0       11.959376    1.183092   -2.302955
     80          1           0       13.404889    0.566868   -1.423008
     81          1           0       -5.280049    2.958642   -0.507645
     82          1           0       10.010595   -0.260503   -2.171026
     83          1           0       14.984678   -0.725043    1.098214
     84          1           0        8.271146    2.003676   -0.655841
     85          1           0       -2.277307    4.299830   -0.094239
     86          1           0       -2.733604    3.972003   -1.928183
     87          1           0       -3.969461    4.601075   -0.713871
     88          1           0       -2.583746    0.611008   -0.248559
     89          1           0        6.832689   -1.984347   -0.454005
     90          1           0        8.401403   -1.744616   -0.615143
     91          1           0        7.743730   -1.557591    0.964970
     92          1           0        5.977747    1.995356   -0.146381
     93          1           0       -0.600486    2.863173   -0.604834
     94          1           0        4.850260   -0.983527   -0.120098
     95          1           0       -0.044159   -0.038242   -0.394284
     96          1           0        4.038289    1.930956   -0.232010
     97          1           0        1.730425    2.146943   -0.291897
     98          1           0        1.340623   -1.443920   -0.115907
     99          1           0        3.129151   -1.697812   -0.597162
    100          1           0        2.724293   -1.276364    1.196607
 ---------------------------------------------------------------------
 Rotational constants (GHZ):           0.2602007           0.0088658           0.0087897
 Standard basis: 6-31G(d,p) (6D, 7F)
 There are   940 symmetry adapted cartesian basis functions of A   symmetry.
 There are   940 symmetry adapted basis functions of A   symmetry.
   940 basis functions,  1624 primitive gaussians,   940 cartesian basis functions
   164 alpha electrons      164 beta electrons
       nuclear repulsion energy      4442.5603667929 Hartrees.
 NAtoms=  100 NActive=  100 NUniq=  100 SFac= 1.00D+00 NAtFMM=   60 NAOKFM=T Big=T
 Integral buffers will be    131072 words long.
 Raffenetti 1 integral format.
 Two-electron integral symmetry is turned on.
 One-electron integrals computed using PRISM.
 NBasis=   940 RedAO= T EigKep=  4.49D-04  NBF=   940
 NBsUse=   940 1.00D-06 EigRej= -1.00D+00 NBFU=   940
 ExpMin= 1.61D-01 ExpMax= 5.48D+03 ExpMxC= 8.25D+02 IAcc=3 IRadAn=         5 AccDes= 0.00D+00
 Harris functional with IExCor=20419 and IRadAn=       5 diagonalized for initial guess.
 HarFok:  IExCor=20419 AccDes= 0.00D+00 IRadAn=         5 IDoV= 1 UseB2=F ITyADJ=14
 ICtDFT=  3500011 ScaDFX=  1.000000  1.000000  1.000000  1.000000
 FoFCou: FMM=F IPFlag=           0 FMFlag=      100000 FMFlg1=        2001
         NFxFlg=           0 DoJE=T BraDBF=F KetDBF=T FulRan=T
         wScrn=  0.000000 ICntrl=       500 IOpCl=  0 I1Cent=   200000004 NGrid=           0
         NMat0=    1 NMatS0=      1 NMatT0=    0 NMatD0=    1 NMtDS0=    0 NMtDT0=    0
 Petite list used in FoFCou.
 Requested convergence on RMS density matrix=1.00D-08 within 128 cycles.
 Requested convergence on MAX density matrix=1.00D-06.
 Requested convergence on             energy=1.00D-06.
 No special actions if energy rises.
 Integral accuracy reduced to 1.0D-05 until final iterations.
 Initial convergence to 1.0D-05 achieved.  Increase integral accuracy.
 SCF Done:  E(RCAM-B3LYP) =  -1857.20544574     A.U. after   16 cycles
            NFock= 16  Conv=0.69D-08     -V/T= 2.0097
 DoSCS=F DFT=T ScalE2(SS,OS)=  1.000000  1.000000
 ExpMin= 1.61D-01 ExpMax= 5.48D+03 ExpMxC= 8.25D+02 IAcc=3 IRadAn=         5 AccDes= 0.00D+00
 HarFok:  IExCor=  205 AccDes= 0.00D+00 IRadAn=         5 IDoV=-2 UseB2=F ITyADJ=14
 ICtDFT= 12500011 ScaDFX=  1.000000  1.000000  1.000000  1.000000
 GSVD:  LWork=       -2288 too small for GESVD, short by       10340 words or       10340 for optimal perf.
 Range of M.O.s used for correlation:    45   940
 NBasis=   940 NAE=   164 NBE=   164 NFC=    44 NFV=     0
 NROrb=    896 NOA=   120 NOB=   120 NVA=   776 NVB=   776
 Orbital symmetries:
       Occupied  (A) (A) (A) (A) (A) (A) (A) (A) (A) (A) (A) (A)
                 (A) (A) (A) (A) (A) (A) (A) (A) (A) (A) (A) (A)
                 (A) (A) (A) (A) (A) (A) (A) (A) (A) (A) (A) (A)
                 (A) (A) (A) (A) (A) (A) (A) (A) (A) (A) (A) (A)
                 (A) (A) (A) (A) (A) (A) (A) (A) (A) (A) (A) (A)
                 (A) (A) (A) (A) (A) (A) (A) (A) (A) (A) (A) (A)
                 (A) (A) (A) (A) (A) (A) (A) (A) (A) (A) (A) (A)
                 (A) (A) (A) (A) (A) (A) (A) (A) (A) (A) (A) (A)
                 (A) (A) (A) (A) (A) (A) (A) (A) (A) (A) (A) (A)
                 (A) (A) (A) (A) (A) (A) (A) (A) (A) (A) (A) (A)
                 (A) (A) (A) (A) (A) (A) (A) (A) (A) (A) (A) (A)
                 (A) (A) (A) (A) (A) (A) (A) (A) (A) (A) (A) (A)
                 (A) (A) (A) (A) (A) (A) (A) (A) (A) (A) (A) (A)
                 (A) (A) (A) (A) (A) (A) (A) (A)
       Virtual   (A) (A) (A) (A) (A) (A) (A) (A) (A) (A) (A) (A)
                 (A) (A) (A) (A) (A) (A) (A) (A) (A) (A) (A) (A)
                 (A) (A) (A) (A) (A) (A) (A) (A) (A) (A) (A) (A)
                 (A) (A) (A) (A) (A) (A) (A) (A) (A) (A) (A) (A)
                 (A) (A) (A) (A) (A) (A) (A) (A) (A) (A) (A) (A)
                 (A) (A) (A) (A) (A) (A) (A) (A) (A) (A) (A) (A)
                 (A) (A) (A) (A) (A) (A) (A) (A) (A) (A) (A) (A)
                 (A) (A) (A) (A) (A) (A) (A) (A) (A) (A) (A) (A)
                 (A) (A) (A) (A) (A) (A) (A) (A) (A) (A) (A) (A)
                 (A) (A) (A) (A) (A) (A) (A) (A) (A) (A) (A) (A)
                 (A) (A) (A) (A) (A) (A) (A) (A) (A) (A) (A) (A)
                 (A) (A) (A) (A) (A) (A) (A) (A) (A) (A) (A) (A)
                 (A) (A) (A) (A) (A) (A) (A) (A) (A) (A) (A) (A)
                 (A) (A) (A) (A) (A) (A) (A) (A) (A) (A) (A) (A)
                 (A) (A) (A) (A) (A) (A) (A) (A) (A) (A) (A) (A)
                 (A) (A) (A) (A) (A) (A) (A) (A) (A) (A) (A) (A)
                 (A) (A) (A) (A) (A) (A) (A) (A) (A) (A) (A) (A)
                 (A) (A) (A) (A) (A) (A) (A) (A) (A) (A) (A) (A)
                 (A) (A) (A) (A) (A) (A) (A) (A) (A) (A) (A) (A)
                 (A) (A) (A) (A) (A) (A) (A) (A) (A) (A) (A) (A)
                 (A) (A) (A) (A) (A) (A) (A) (A) (A) (A) (A) (A)
                 (A) (A) (A) (A) (A) (A) (A) (A) (A) (A) (A) (A)
                 (A) (A) (A) (A) (A) (A) (A) (A) (A) (A) (A) (A)
                 (A) (A) (A) (A) (A) (A) (A) (A) (A) (A) (A) (A)
                 (A) (A) (A) (A) (A) (A) (A) (A) (A) (A) (A) (A)
                 (A) (A) (A) (A) (A) (A) (A) (A) (A) (A) (A) (A)
                 (A) (A) (A) (A) (A) (A) (A) (A) (A) (A) (A) (A)
                 (A) (A) (A) (A) (A) (A) (A) (A) (A) (A) (A) (A)
                 (A) (A) (A) (A) (A) (A) (A) (A) (A) (A) (A) (A)
                 (A) (A) (A) (A) (A) (A) (A) (A) (A) (A) (A) (A)
                 (A) (A) (A) (A) (A) (A) (A) (A) (A) (A) (A) (A)
                 (A) (A) (A) (A) (A) (A) (A) (A) (A) (A) (A) (A)
                 (A) (A) (A) (A) (A) (A) (A) (A) (A) (A) (A) (A)
                 (A) (A) (A) (A) (A) (A) (A) (A) (A) (A) (A) (A)
                 (A) (A) (A) (A) (A) (A) (A) (A) (A) (A) (A) (A)
                 (A) (A) (A) (A) (A) (A) (A) (A) (A) (A) (A) (A)
                 (A) (A) (A) (A) (A) (A) (A) (A) (A) (A) (A) (A)
                 (A) (A) (A) (A) (A) (A) (A) (A) (A) (A) (A) (A)
                 (A) (A) (A) (A) (A) (A) (A) (A) (A) (A) (A) (A)
                 (A) (A) (A) (A) (A) (A) (A) (A) (A) (A) (A) (A)
                 (A) (A) (A) (A) (A) (A) (A) (A) (A) (A) (A) (A)
                 (A) (A) (A) (A) (A) (A) (A) (A) (A) (A) (A) (A)
                 (A) (A) (A) (A) (A) (A) (A) (A) (A) (A) (A) (A)
                 (A) (A) (A) (A) (A) (A) (A) (A) (A) (A) (A) (A)
                 (A) (A) (A) (A) (A) (A) (A) (A) (A) (A) (A) (A)
                 (A) (A) (A) (A) (A) (A) (A) (A) (A) (A) (A) (A)
                 (A) (A) (A) (A) (A) (A) (A) (A) (A) (A) (A) (A)
                 (A) (A) (A) (A) (A) (A) (A) (A) (A) (A) (A) (A)
                 (A) (A) (A) (A) (A) (A) (A) (A) (A) (A) (A) (A)
                 (A) (A) (A) (A) (A) (A) (A) (A) (A) (A) (A) (A)
                 (A) (A) (A) (A) (A) (A) (A) (A) (A) (A) (A) (A)
                 (A) (A) (A) (A) (A) (A) (A) (A) (A) (A) (A) (A)
                 (A) (A) (A) (A) (A) (A) (A) (A) (A) (A) (A) (A)
                 (A) (A) (A) (A) (A) (A) (A) (A) (A) (A) (A) (A)
                 (A) (A) (A) (A) (A) (A) (A) (A) (A) (A) (A) (A)
                 (A) (A) (A) (A) (A) (A) (A) (A) (A) (A) (A) (A)
                 (A) (A) (A) (A) (A) (A) (A) (A) (A) (A) (A) (A)
                 (A) (A) (A) (A) (A) (A) (A) (A) (A) (A) (A) (A)
                 (A) (A) (A) (A) (A) (A) (A) (A) (A) (A) (A) (A)
                 (A) (A) (A) (A) (A) (A) (A) (A) (A) (A) (A) (A)
                 (A) (A) (A) (A) (A) (A) (A) (A) (A) (A) (A) (A)
                 (A) (A) (A) (A) (A) (A) (A) (A) (A) (A) (A) (A)
                 (A) (A) (A) (A) (A) (A) (A) (A) (A) (A) (A) (A)
                 (A) (A) (A) (A) (A) (A) (A) (A) (A) (A) (A) (A)
                 (A) (A) (A) (A) (A) (A) (A) (A)
     4 initial guesses have been made.
 Convergence on wavefunction:    0.001000000000000
 Iteration     1 Dimension     4 NMult     0 NNew      4
 CISAX will form     4 AO SS matrices at one time.
 Iteration     2 Dimension     6 NMult     4 NNew      2
 Iteration     3 Dimension     8 NMult     6 NNew      2
 Iteration     4 Dimension    10 NMult     8 NNew      2
 Iteration     5 Dimension    12 NMult    10 NNew      2
 ***********************************************************************
 Excited states from <AA,BB:AA,BB> singles matrix:
 ***********************************************************************
 
 Ground to excited state transition densities written to RWF  633
 Ground to excited state transition electric dipole moments (Au):
       state          X           Y           Z        Dip. S.      Osc.
         1         7.8640     -0.1105     -0.0012     61.8542      3.0414
 Ground to excited state transition velocity dipole moments (Au):
       state          X           Y           Z        Dip. S.      Osc.
         1        -0.5610      0.0105     -0.0006      0.3149      2.8460
 Ground to excited state transition magnetic dipole moments (Au):
       state          X           Y           Z
         1         0.0763      0.4794      2.3566
 Ground to excited state transition velocity quadrupole moments (Au):
       state          XX          YY          ZZ          XY          XZ          YZ
         1         0.4508      0.2054      0.0046      0.3493     -0.0938     -0.0371
 <0|del|b> * <b|rxdel|0> + <0|del|b> * <b|delr+rdel|0>
 Rotatory Strengths (R) in cgs (10**-40 erg-esu-cm/Gauss)
       state          XX          YY          ZZ    R(velocity)    E-M Angle
         1        20.8579   -111.3701   -285.6153   -125.3758       91.67
 1/2[<0|r|b>*<b|rxdel|0> + (<0|rxdel|b>*<b|r|0>)*]
 Rotatory Strengths (R) in cgs (10**-40 erg-esu-cm/Gauss)
       state          XX          YY          ZZ     R(length)
         1      -424.3667     37.4781      2.0565   -128.2774
  1/2[<0|del|b>*<b|r|0> + (<0|r|b>*<b|del|0>)*] (Au)
       state          X           Y           Z        Dip. S.   Osc.(frdel)
         1        -4.4119     -0.0012      0.0000      4.4131      2.9420

 Excitation energies and oscillator strengths:
 
 Excited State   1:      Singlet-A      2.0070 eV  617.75 nm  f=3.0414  <S**2>=0.000
     163 ->166         0.14190
     164 ->165         0.69443
 This state for optimization and/or second-order correction.
 Total Energy, E(TD-HF/TD-DFT) =  -1857.13168934    
 Copying the excited state density for this state as the 1-particle RhoCI density.
 SavETr:  write IOETrn=   770 NScale= 10 NData=  16 NLR=1 NState=    1 LETran=      28.

 **********************************************************************

            Population analysis using the SCF density.

 **********************************************************************

 Orbital symmetries:
       Occupied  (A) (A) (A) (A) (A) (A) (A) (A) (A) (A) (A) (A)
                 (A) (A) (A) (A) (A) (A) (A) (A) (A) (A) (A) (A)
                 (A) (A) (A) (A) (A) (A) (A) (A) (A) (A) (A) (A)
                 (A) (A) (A) (A) (A) (A) (A) (A) (A) (A) (A) (A)
                 (A) (A) (A) (A) (A) (A) (A) (A) (A) (A) (A) (A)
                 (A) (A) (A) (A) (A) (A) (A) (A) (A) (A) (A) (A)
                 (A) (A) (A) (A) (A) (A) (A) (A) (A) (A) (A) (A)
                 (A) (A) (A) (A) (A) (A) (A) (A) (A) (A) (A) (A)
                 (A) (A) (A) (A) (A) (A) (A) (A) (A) (A) (A) (A)
                 (A) (A) (A) (A) (A) (A) (A) (A) (A) (A) (A) (A)
                 (A) (A) (A) (A) (A) (A) (A) (A) (A) (A) (A) (A)
                 (A) (A) (A) (A) (A) (A) (A) (A) (A) (A) (A) (A)
                 (A) (A) (A) (A) (A) (A) (A) (A) (A) (A) (A) (A)
                 (A) (A) (A) (A) (A) (A) (A) (A)
       Virtual   (A) (A) (A) (A) (A) (A) (A) (A) (A) (A) (A) (A)
                 (A) (A) (A) (A) (A) (A) (A) (A) (A) (A) (A) (A)
                 (A) (A) (A) (A) (A) (A) (A) (A) (A) (A) (A) (A)
                 (A) (A) (A) (A) (A) (A) (A) (A) (A) (A) (A) (A)
                 (A) (A) (A) (A) (A) (A) (A) (A) (A) (A) (A) (A)
                 (A) (A) (A) (A) (A) (A) (A) (A) (A) (A) (A) (A)
                 (A) (A) (A) (A) (A) (A) (A) (A) (A) (A) (A) (A)
                 (A) (A) (A) (A) (A) (A) (A) (A) (A) (A) (A) (A)
                 (A) (A) (A) (A) (A) (A) (A) (A) (A) (A) (A) (A)
                 (A) (A) (A) (A) (A) (A) (A) (A) (A) (A) (A) (A)
                 (A) (A) (A) (A) (A) (A) (A) (A) (A) (A) (A) (A)
                 (A) (A) (A) (A) (A) (A) (A) (A) (A) (A) (A) (A)
                 (A) (A) (A) (A) (A) (A) (A) (A) (A) (A) (A) (A)
                 (A) (A) (A) (A) (A) (A) (A) (A) (A) (A) (A) (A)
                 (A) (A) (A) (A) (A) (A) (A) (A) (A) (A) (A) (A)
                 (A) (A) (A) (A) (A) (A) (A) (A) (A) (A) (A) (A)
                 (A) (A) (A) (A) (A) (A) (A) (A) (A) (A) (A) (A)
                 (A) (A) (A) (A) (A) (A) (A) (A) (A) (A) (A) (A)
                 (A) (A) (A) (A) (A) (A) (A) (A) (A) (A) (A) (A)
                 (A) (A) (A) (A) (A) (A) (A) (A) (A) (A) (A) (A)
                 (A) (A) (A) (A) (A) (A) (A) (A) (A) (A) (A) (A)
                 (A) (A) (A) (A) (A) (A) (A) (A) (A) (A) (A) (A)
                 (A) (A) (A) (A) (A) (A) (A) (A) (A) (A) (A) (A)
                 (A) (A) (A) (A) (A) (A) (A) (A) (A) (A) (A) (A)
                 (A) (A) (A) (A) (A) (A) (A) (A) (A) (A) (A) (A)
                 (A) (A) (A) (A) (A) (A) (A) (A) (A) (A) (A) (A)
                 (A) (A) (A) (A) (A) (A) (A) (A) (A) (A) (A) (A)
                 (A) (A) (A) (A) (A) (A) (A) (A) (A) (A) (A) (A)
                 (A) (A) (A) (A) (A) (A) (A) (A) (A) (A) (A) (A)
                 (A) (A) (A) (A) (A) (A) (A) (A) (A) (A) (A) (A)
                 (A) (A) (A) (A) (A) (A) (A) (A) (A) (A) (A) (A)
                 (A) (A) (A) (A) (A) (A) (A) (A) (A) (A) (A) (A)
                 (A) (A) (A) (A) (A) (A) (A) (A) (A) (A) (A) (A)
                 (A) (A) (A) (A) (A) (A) (A) (A) (A) (A) (A) (A)
                 (A) (A) (A) (A) (A) (A) (A) (A) (A) (A) (A) (A)
                 (A) (A) (A) (A) (A) (A) (A) (A) (A) (A) (A) (A)
                 (A) (A) (A) (A) (A) (A) (A) (A) (A) (A) (A) (A)
                 (A) (A) (A) (A) (A) (A) (A) (A) (A) (A) (A) (A)
                 (A) (A) (A) (A) (A) (A) (A) (A) (A) (A) (A) (A)
                 (A) (A) (A) (A) (A) (A) (A) (A) (A) (A) (A) (A)
                 (A) (A) (A) (A) (A) (A) (A) (A) (A) (A) (A) (A)
                 (A) (A) (A) (A) (A) (A) (A) (A) (A) (A) (A) (A)
                 (A) (A) (A) (A) (A) (A) (A) (A) (A) (A) (A) (A)
                 (A) (A) (A) (A) (A) (A) (A) (A) (A) (A) (A) (A)
                 (A) (A) (A) (A) (A) (A) (A) (A) (A) (A) (A) (A)
                 (A) (A) (A) (A) (A) (A) (A) (A) (A) (A) (A) (A)
                 (A) (A) (A) (A) (A) (A) (A) (A) (A) (A) (A) (A)
                 (A) (A) (A) (A) (A) (A) (A) (A) (A) (A) (A) (A)
                 (A) (A) (A) (A) (A) (A) (A) (A) (A) (A) (A) (A)
                 (A) (A) (A) (A) (A) (A) (A) (A) (A) (A) (A) (A)
                 (A) (A) (A) (A) (A) (A) (A) (A) (A) (A) (A) (A)
                 (A) (A) (A) (A) (A) (A) (A) (A) (A) (A) (A) (A)
                 (A) (A) (A) (A) (A) (A) (A) (A) (A) (A) (A) (A)
                 (A) (A) (A) (A) (A) (A) (A) (A) (A) (A) (A) (A)
                 (A) (A) (A) (A) (A) (A) (A) (A) (A) (A) (A) (A)
                 (A) (A) (A) (A) (A) (A) (A) (A) (A) (A) (A) (A)
                 (A) (A) (A) (A) (A) (A) (A) (A) (A) (A) (A) (A)
                 (A) (A) (A) (A) (A) (A) (A) (A) (A) (A) (A) (A)
                 (A) (A) (A) (A) (A) (A) (A) (A) (A) (A) (A) (A)
                 (A) (A) (A) (A) (A) (A) (A) (A) (A) (A) (A) (A)
                 (A) (A) (A) (A) (A) (A) (A) (A) (A) (A) (A) (A)
                 (A) (A) (A) (A) (A) (A) (A) (A) (A) (A) (A) (A)
                 (A) (A) (A) (A) (A) (A) (A) (A) (A) (A) (A) (A)
                 (A) (A) (A) (A) (A) (A) (A) (A) (A) (A) (A) (A)
                 (A) (A) (A) (A) (A) (A) (A) (A)
 The electronic state is 1-A.
 Alpha  occ. eigenvalues --  -19.22231 -19.21762 -19.21376 -19.19483 -10.32415
 Alpha  occ. eigenvalues --  -10.32050 -10.32005 -10.30742 -10.30651 -10.29210
 Alpha  occ. eigenvalues --  -10.28974 -10.28678 -10.28637 -10.28516 -10.28243
 Alpha  occ. eigenvalues --  -10.28231 -10.27766 -10.27759 -10.27648 -10.27498
 Alpha  occ. eigenvalues --  -10.27453 -10.27250 -10.27122 -10.26945 -10.26843
 Alpha  occ. eigenvalues --  -10.26736 -10.26642 -10.26590 -10.26584 -10.26427
 Alpha  occ. eigenvalues --  -10.26240 -10.26214 -10.25822 -10.25762 -10.25516
 Alpha  occ. eigenvalues --  -10.25514 -10.25513 -10.25025 -10.24975 -10.24762
 Alpha  occ. eigenvalues --  -10.24532 -10.24063 -10.23730 -10.23511  -1.14254
 Alpha  occ. eigenvalues --   -1.06861  -1.06536  -1.04068  -0.93163  -0.92884
 Alpha  occ. eigenvalues --   -0.92391  -0.91599  -0.90568  -0.90083  -0.88049
 Alpha  occ. eigenvalues --   -0.86289  -0.85971  -0.85556  -0.84690  -0.83614
 Alpha  occ. eigenvalues --   -0.81213  -0.80798  -0.80017  -0.79222  -0.77723
 Alpha  occ. eigenvalues --   -0.76411  -0.76327  -0.76282  -0.75847  -0.75712
 Alpha  occ. eigenvalues --   -0.74863  -0.74668  -0.73424  -0.70283  -0.69908
 Alpha  occ. eigenvalues --   -0.68216  -0.67090  -0.65234  -0.64894  -0.63926
 Alpha  occ. eigenvalues --   -0.63852  -0.62505  -0.62343  -0.60974  -0.59415
 Alpha  occ. eigenvalues --   -0.58910  -0.57996  -0.57794  -0.56676  -0.56606
 Alpha  occ. eigenvalues --   -0.56462  -0.55773  -0.55037  -0.54619  -0.53862
 Alpha  occ. eigenvalues --   -0.53647  -0.53369  -0.52361  -0.51998  -0.51758
 Alpha  occ. eigenvalues --   -0.51101  -0.50822  -0.50589  -0.50221  -0.49952
 Alpha  occ. eigenvalues --   -0.49575  -0.49274  -0.49177  -0.48673  -0.48258
 Alpha  occ. eigenvalues --   -0.48175  -0.48038  -0.47900  -0.47636  -0.47525
 Alpha  occ. eigenvalues --   -0.46895  -0.46414  -0.46235  -0.45854  -0.45800
 Alpha  occ. eigenvalues --   -0.45238  -0.44739  -0.44491  -0.44258  -0.43874
 Alpha  occ. eigenvalues --   -0.43742  -0.43345  -0.42848  -0.42839  -0.42370
 Alpha  occ. eigenvalues --   -0.42190  -0.42105  -0.41846  -0.41049  -0.40906
 Alpha  occ. eigenvalues --   -0.40817  -0.40709  -0.40511  -0.40502  -0.39946
 Alpha  occ. eigenvalues --   -0.39755  -0.39413  -0.39112  -0.38897  -0.38829
 Alpha  occ. eigenvalues --   -0.38239  -0.37863  -0.37368  -0.36560  -0.36321
 Alpha  occ. eigenvalues --   -0.35968  -0.35788  -0.34936  -0.33914  -0.33415
 Alpha  occ. eigenvalues --   -0.32007  -0.31918  -0.31699  -0.30778  -0.30677
 Alpha  occ. eigenvalues --   -0.30290  -0.28512  -0.23533  -0.19215
 Alpha virt. eigenvalues --   -0.06446  -0.01717   0.03227   0.05550   0.06011
 Alpha virt. eigenvalues --    0.07544   0.08967   0.09247   0.10616   0.11290
 Alpha virt. eigenvalues --    0.11611   0.11923   0.12785   0.13271   0.13628
 Alpha virt. eigenvalues --    0.13731   0.13954   0.14349   0.14669   0.15233
 Alpha virt. eigenvalues --    0.15376   0.15578   0.15830   0.16246   0.16330
 Alpha virt. eigenvalues --    0.16828   0.17207   0.17626   0.17896   0.17995
 Alpha virt. eigenvalues --    0.18388   0.18496   0.18658   0.19047   0.19305
 Alpha virt. eigenvalues --    0.19353   0.19744   0.19991   0.20085   0.20203
 Alpha virt. eigenvalues --    0.20373   0.20657   0.20909   0.20978   0.21281
 Alpha virt. eigenvalues --    0.21415   0.21478   0.22171   0.22357   0.22574
 Alpha virt. eigenvalues --    0.22877   0.23126   0.23594   0.23644   0.24052
 Alpha virt. eigenvalues --    0.24101   0.24402   0.24707   0.24941   0.25458
 Alpha virt. eigenvalues --    0.25578   0.25970   0.26382   0.26830   0.27341
 Alpha virt. eigenvalues --    0.27407   0.27452   0.27582   0.28043   0.28123
 Alpha virt. eigenvalues --    0.28280   0.28675   0.28893   0.29029   0.29676
 Alpha virt. eigenvalues --    0.29856   0.30141   0.30512   0.30795   0.31150
 Alpha virt. eigenvalues --    0.31463   0.31779   0.32314   0.32617   0.33419
 Alpha virt. eigenvalues --    0.34263   0.34741   0.34942   0.35552   0.36505
 Alpha virt. eigenvalues --    0.37011   0.37243   0.37746   0.38686   0.39218
 Alpha virt. eigenvalues --    0.39467   0.39562   0.40109   0.41880   0.42535
 Alpha virt. eigenvalues --    0.42597   0.43448   0.43830   0.44207   0.44778
 Alpha virt. eigenvalues --    0.45609   0.47562   0.48738   0.49195   0.50853
 Alpha virt. eigenvalues --    0.51882   0.54517   0.54741   0.55258   0.55569
 Alpha virt. eigenvalues --    0.55772   0.56427   0.56758   0.56907   0.57303
 Alpha virt. eigenvalues --    0.57823   0.58434   0.58861   0.59025   0.59301
 Alpha virt. eigenvalues --    0.59686   0.59794   0.60361   0.60488   0.60722
 Alpha virt. eigenvalues --    0.60772   0.61622   0.61975   0.62184   0.62665
 Alpha virt. eigenvalues --    0.63050   0.63157   0.63532   0.63732   0.64108
 Alpha virt. eigenvalues --    0.64379   0.64899   0.65050   0.65469   0.65656
 Alpha virt. eigenvalues --    0.65690   0.65801   0.66077   0.66512   0.66736
 Alpha virt. eigenvalues --    0.67306   0.67756   0.68013   0.68125   0.68276
 Alpha virt. eigenvalues --    0.68446   0.68577   0.68821   0.69234   0.69901
 Alpha virt. eigenvalues --    0.70024   0.70330   0.70647   0.71186   0.72015
 Alpha virt. eigenvalues --    0.72461   0.72660   0.72674   0.73301   0.73793
 Alpha virt. eigenvalues --    0.74719   0.75185   0.75454   0.75719   0.76030
 Alpha virt. eigenvalues --    0.76381   0.76725   0.77529   0.77633   0.78094
 Alpha virt. eigenvalues --    0.78523   0.78788   0.79098   0.79319   0.79780
 Alpha virt. eigenvalues --    0.80052   0.80294   0.80742   0.81085   0.81574
 Alpha virt. eigenvalues --    0.81788   0.81886   0.82382   0.82511   0.83583
 Alpha virt. eigenvalues --    0.83683   0.83846   0.84294   0.84389   0.84900
 Alpha virt. eigenvalues --    0.85381   0.85510   0.85788   0.86148   0.86592
 Alpha virt. eigenvalues --    0.87326   0.87416   0.87575   0.87705   0.87874
 Alpha virt. eigenvalues --    0.88170   0.88314   0.88656   0.89406   0.89774
 Alpha virt. eigenvalues --    0.89896   0.90195   0.90536   0.90849   0.91010
 Alpha virt. eigenvalues --    0.91882   0.91962   0.92294   0.92424   0.92748
 Alpha virt. eigenvalues --    0.92780   0.93197   0.93369   0.93964   0.94139
 Alpha virt. eigenvalues --    0.94315   0.94611   0.94855   0.95394   0.95547
 Alpha virt. eigenvalues --    0.95645   0.95991   0.96043   0.96185   0.97049
 Alpha virt. eigenvalues --    0.97515   0.97691   0.97706   0.97899   0.98414
 Alpha virt. eigenvalues --    0.98688   0.99013   0.99386   0.99857   1.00150
 Alpha virt. eigenvalues --    1.00293   1.00664   1.00834   1.01204   1.01300
 Alpha virt. eigenvalues --    1.01558   1.01784   1.02282   1.02724   1.03430
 Alpha virt. eigenvalues --    1.03759   1.03965   1.04415   1.04815   1.05119
 Alpha virt. eigenvalues --    1.05543   1.05734   1.06299   1.06487   1.07040
 Alpha virt. eigenvalues --    1.07327   1.07836   1.07992   1.08469   1.08764
 Alpha virt. eigenvalues --    1.09531   1.09827   1.10395   1.10844   1.11514
 Alpha virt. eigenvalues --    1.12042   1.12611   1.12958   1.13922   1.14762
 Alpha virt. eigenvalues --    1.15444   1.15707   1.15962   1.16902   1.17215
 Alpha virt. eigenvalues --    1.17602   1.18491   1.18897   1.19943   1.20152
 Alpha virt. eigenvalues --    1.20883   1.21433   1.22194   1.22619   1.23830
 Alpha virt. eigenvalues --    1.24500   1.24881   1.25457   1.27537   1.27813
 Alpha virt. eigenvalues --    1.28570   1.29020   1.29127   1.30026   1.30264
 Alpha virt. eigenvalues --    1.30629   1.31707   1.32681   1.33537   1.33858
 Alpha virt. eigenvalues --    1.34441   1.34885   1.35561   1.36059   1.36651
 Alpha virt. eigenvalues --    1.36824   1.37770   1.38916   1.39293   1.40177
 Alpha virt. eigenvalues --    1.40410   1.40918   1.41346   1.41507   1.41875
 Alpha virt. eigenvalues --    1.42932   1.43639   1.44665   1.44789   1.45794
 Alpha virt. eigenvalues --    1.46201   1.46892   1.48359   1.48795   1.50377
 Alpha virt. eigenvalues --    1.50638   1.51829   1.52288   1.52958   1.53488
 Alpha virt. eigenvalues --    1.53715   1.55781   1.57130   1.58902   1.59227
 Alpha virt. eigenvalues --    1.59629   1.59877   1.60464   1.61249   1.61595
 Alpha virt. eigenvalues --    1.62366   1.62547   1.63431   1.63639   1.64308
 Alpha virt. eigenvalues --    1.64975   1.64997   1.66159   1.66683   1.67038
 Alpha virt. eigenvalues --    1.67395   1.69017   1.69441   1.70420   1.70996
 Alpha virt. eigenvalues --    1.71327   1.72045   1.72447   1.74294   1.75679
 Alpha virt. eigenvalues --    1.76393   1.76594   1.77577   1.77986   1.78443
 Alpha virt. eigenvalues --    1.79238   1.79285   1.80021   1.80605   1.81151
 Alpha virt. eigenvalues --    1.82160   1.82865   1.83314   1.84000   1.84400
 Alpha virt. eigenvalues --    1.85178   1.85364   1.85765   1.85935   1.86486
 Alpha virt. eigenvalues --    1.86974   1.87150   1.87621   1.87838   1.88427
 Alpha virt. eigenvalues --    1.88927   1.89071   1.89509   1.89637   1.89906
 Alpha virt. eigenvalues --    1.90423   1.91019   1.91387   1.91921   1.92387
 Alpha virt. eigenvalues --    1.92920   1.92964   1.93814   1.94431   1.94780
 Alpha virt. eigenvalues --    1.95048   1.95291   1.95687   1.95834   1.96200
 Alpha virt. eigenvalues --    1.96448   1.97183   1.97842   1.98146   1.98590
 Alpha virt. eigenvalues --    1.98999   1.99333   1.99638   2.00021   2.00387
 Alpha virt. eigenvalues --    2.00821   2.01249   2.01352   2.01901   2.02709
 Alpha virt. eigenvalues --    2.02858   2.03060   2.03210   2.03409   2.04798
 Alpha virt. eigenvalues --    2.05318   2.05716   2.05975   2.06106   2.06392
 Alpha virt. eigenvalues --    2.07163   2.07619   2.07860   2.08553   2.09102
 Alpha virt. eigenvalues --    2.09366   2.09785   2.10178   2.10284   2.10507
 Alpha virt. eigenvalues --    2.10963   2.11309   2.11386   2.11775   2.12037
 Alpha virt. eigenvalues --    2.12692   2.12929   2.13366   2.13742   2.14445
 Alpha virt. eigenvalues --    2.14991   2.15291   2.15629   2.15803   2.15918
 Alpha virt. eigenvalues --    2.16085   2.16497   2.16613   2.17633   2.17701
 Alpha virt. eigenvalues --    2.18300   2.18572   2.18685   2.19151   2.19667
 Alpha virt. eigenvalues --    2.20402   2.20484   2.20717   2.21449   2.21768
 Alpha virt. eigenvalues --    2.22958   2.23157   2.23331   2.23463   2.23887
 Alpha virt. eigenvalues --    2.24954   2.25330   2.25381   2.26138   2.26376
 Alpha virt. eigenvalues --    2.26625   2.27003   2.27581   2.28152   2.28711
 Alpha virt. eigenvalues --    2.28752   2.28755   2.30024   2.30091   2.30476
 Alpha virt. eigenvalues --    2.30523   2.31145   2.32430   2.32928   2.33199
 Alpha virt. eigenvalues --    2.33980   2.34150   2.34835   2.35723   2.36092
 Alpha virt. eigenvalues --    2.36394   2.36802   2.37522   2.37987   2.38558
 Alpha virt. eigenvalues --    2.38710   2.38886   2.39001   2.39511   2.39647
 Alpha virt. eigenvalues --    2.40084   2.41383   2.41814   2.42289   2.43280
 Alpha virt. eigenvalues --    2.43613   2.44033   2.44132   2.44380   2.44771
 Alpha virt. eigenvalues --    2.44989   2.45600   2.46487   2.46896   2.47625
 Alpha virt. eigenvalues --    2.47810   2.47963   2.48425   2.48703   2.49209
 Alpha virt. eigenvalues --    2.49628   2.51088   2.51448   2.52016   2.52869
 Alpha virt. eigenvalues --    2.53324   2.53771   2.54701   2.54758   2.55403
 Alpha virt. eigenvalues --    2.55817   2.55996   2.56654   2.57093   2.57561
 Alpha virt. eigenvalues --    2.57676   2.58319   2.59101   2.59176   2.59375
 Alpha virt. eigenvalues --    2.60235   2.61008   2.61063   2.61321   2.61741
 Alpha virt. eigenvalues --    2.62003   2.62348   2.63336   2.63790   2.64335
 Alpha virt. eigenvalues --    2.64667   2.65344   2.65894   2.66439   2.66823
 Alpha virt. eigenvalues --    2.67397   2.67678   2.68225   2.68341   2.68431
 Alpha virt. eigenvalues --    2.69267   2.69369   2.69680   2.69967   2.70173
 Alpha virt. eigenvalues --    2.70545   2.71179   2.71978   2.72174   2.72426
 Alpha virt. eigenvalues --    2.72816   2.73446   2.73812   2.74337   2.74581
 Alpha virt. eigenvalues --    2.74911   2.75333   2.76265   2.76631   2.77078
 Alpha virt. eigenvalues --    2.77352   2.77730   2.78468   2.78910   2.79267
 Alpha virt. eigenvalues --    2.79607   2.80262   2.80729   2.80961   2.82498
 Alpha virt. eigenvalues --    2.82763   2.83457   2.83565   2.84798   2.84885
 Alpha virt. eigenvalues --    2.85588   2.85727   2.85981   2.86565   2.87582
 Alpha virt. eigenvalues --    2.87659   2.87958   2.88023   2.88838   2.89079
 Alpha virt. eigenvalues --    2.89372   2.90001   2.90337   2.91206   2.92114
 Alpha virt. eigenvalues --    2.92305   2.92875   2.94285   2.94636   2.95051
 Alpha virt. eigenvalues --    2.95784   2.96981   2.97030   2.97648   2.98060
 Alpha virt. eigenvalues --    2.98562   2.99280   2.99448   2.99553   3.00072
 Alpha virt. eigenvalues --    3.00667   3.01212   3.01366   3.01542   3.02090
 Alpha virt. eigenvalues --    3.03039   3.04637   3.05751   3.06505   3.06672
 Alpha virt. eigenvalues --    3.07435   3.08197   3.09095   3.10282   3.12755
 Alpha virt. eigenvalues --    3.13017   3.13039   3.13497   3.15757   3.15767
 Alpha virt. eigenvalues --    3.17816   3.17953   3.18792   3.19860   3.20561
 Alpha virt. eigenvalues --    3.21379   3.23926   3.24342   3.26053   3.26092
 Alpha virt. eigenvalues --    3.29375   3.30546   3.32079   3.33360   3.33868
 Alpha virt. eigenvalues --    3.34926   3.35104   3.35223   3.36708   3.36736
 Alpha virt. eigenvalues --    3.37436   3.38571   3.38983   3.39981   3.40399
 Alpha virt. eigenvalues --    3.41420   3.43104   3.43476   3.44009   3.44224
 Alpha virt. eigenvalues --    3.45024   3.45085   3.46260   3.48739   3.52163
 Alpha virt. eigenvalues --    3.52484   3.54242   3.55450   3.55759   3.55823
 Alpha virt. eigenvalues --    3.56028   3.57263   3.58034   3.58110   3.59156
 Alpha virt. eigenvalues --    3.61049   3.64165   3.65519   3.65868   3.66583
 Alpha virt. eigenvalues --    3.67158   3.67247   3.71809   3.72077   3.73508
 Alpha virt. eigenvalues --    3.74703   3.76632   3.77174   3.85708   3.86474
 Alpha virt. eigenvalues --    3.90632   3.95286   3.97063   3.99960   4.04713
 Alpha virt. eigenvalues --    4.08666   4.18412   4.18953   4.19281   4.20531
 Alpha virt. eigenvalues --    4.22682   4.23818   4.27422   4.29419   4.31430
 Alpha virt. eigenvalues --    4.32927   4.36930   4.39448   4.41199   4.43870
 Alpha virt. eigenvalues --    4.45636   4.48469   4.49403   4.50883   4.54165
 Alpha virt. eigenvalues --    4.55141   4.55689   4.57572   4.59273   4.61450
 Alpha virt. eigenvalues --    4.63904   4.64232   4.68568   4.70659   4.72424
 Alpha virt. eigenvalues --    4.73495   4.77658   4.79588   4.81251   4.83365
 Alpha virt. eigenvalues --    4.85347   4.87529   4.89788   4.92809   4.93195
 Alpha virt. eigenvalues --    4.93489
          Condensed to atoms (all electrons):
 Mulliken charges:
               1
     1  O   -0.515455
     2  O   -0.545116
     3  O   -0.593297
     4  O   -0.573123
     5  C    0.226835
     6  C    0.227137
     7  C   -0.025781
     8  C   -0.214873
     9  C   -0.155283
    10  C    0.141721
    11  C   -0.313244
    12  C   -0.137784
    13  C   -0.301265
    14  C   -0.301135
    15  C   -0.057126
    16  C    0.046469
    17  C   -0.369285
    18  C   -0.054951
    19  C   -0.111651
    20  C    0.025545
    21  C    0.226302
    22  C   -0.192222
    23  C    0.165158
    24  C   -0.195922
    25  C   -0.063241
    26  C   -0.308375
    27  C   -0.298083
    28  C   -0.266491
    29  C   -0.138555
    30  C    0.122500
    31  C    0.130977
    32  C   -0.256224
    33  C   -0.377339
    34  C   -0.114071
    35  C    0.070692
    36  C   -0.383926
    37  C   -0.120645
    38  C   -0.085676
    39  C   -0.053295
    40  C   -0.052956
    41  C   -0.121534
    42  C   -0.100650
    43  C    0.095306
    44  C   -0.370771
    45  H    0.114941
    46  H    0.122941
    47  H    0.076899
    48  H    0.114161
    49  H    0.102140
    50  H    0.077976
    51  H    0.091559
    52  H    0.137626
    53  H    0.111409
    54  H    0.118394
    55  H    0.063197
    56  H    0.108123
    57  H    0.123463
    58  H    0.117012
    59  H    0.086005
    60  H    0.285525
    61  H    0.086953
    62  H    0.131673
    63  H    0.134517
    64  H    0.055200
    65  H    0.074767
    66  H    0.102287
    67  H    0.096447
    68  H    0.106937
    69  H    0.092819
    70  H    0.129170
    71  H    0.102329
    72  H    0.101559
    73  H    0.110289
    74  H    0.089968
    75  H    0.111810
    76  H    0.111508
    77  H    0.067219
    78  H    0.114816
    79  H    0.067807
    80  H    0.122642
    81  H    0.081581
    82  H    0.302026
    83  H    0.300954
    84  H    0.110760
    85  H    0.107257
    86  H    0.110646
    87  H    0.125351
    88  H    0.086893
    89  H    0.115172
    90  H    0.148547
    91  H    0.133842
    92  H    0.106009
    93  H    0.081971
    94  H    0.092485
    95  H    0.066153
    96  H    0.069857
    97  H    0.043003
    98  H    0.112840
    99  H    0.097671
   100  H    0.135598
 Sum of Mulliken charges =  -0.00000
 Mulliken charges with hydrogens summed into heavy atoms:
               1
     1  O   -0.515455
     2  O   -0.259590
     3  O   -0.291271
     4  O   -0.272169
     5  C    0.226835
     6  C    0.227137
     7  C   -0.025781
     8  C    0.023009
     9  C    0.035777
    10  C    0.243862
    11  C   -0.006083
    12  C   -0.026375
    13  C   -0.011551
    14  C    0.025345
    15  C    0.029827
    16  C    0.046469
    17  C   -0.047895
    18  C    0.019815
    19  C   -0.009365
    20  C    0.025545
    21  C    0.226302
    22  C    0.011162
    23  C    0.257977
    24  C    0.035577
    25  C   -0.063241
    26  C   -0.006559
    27  C   -0.007546
    28  C    0.038774
    29  C   -0.056974
    30  C    0.122500
    31  C    0.130977
    32  C   -0.145464
    33  C   -0.034085
    34  C   -0.027179
    35  C    0.070692
    36  C    0.013635
    37  C   -0.014636
    38  C   -0.003705
    39  C    0.039189
    40  C    0.013197
    41  C   -0.051677
    42  C   -0.057646
    43  C    0.095306
    44  C   -0.024662
 Electronic spatial extent (au):  <R**2>=         114894.6301
 Charge=             -0.0000 electrons
 Dipole moment (field-independent basis, Debye):
    X=              2.8584    Y=              0.8710    Z=              2.7629  Tot=              4.0697
 Quadrupole moment (field-independent basis, Debye-Ang):
   XX=           -304.8745   YY=           -258.2105   ZZ=           -280.4992
   XY=            -10.7266   XZ=             41.8851   YZ=             -2.1115
 Traceless Quadrupole moment (field-independent basis, Debye-Ang):
   XX=            -23.6797   YY=             22.9843   ZZ=              0.6955
   XY=            -10.7266   XZ=             41.8851   YZ=             -2.1115
 Octapole moment (field-independent basis, Debye-Ang**2):
  XXX=            630.3855  YYY=             13.0781  ZZZ=             12.2422  XYY=             47.4500
  XXY=             96.9584  XXZ=            423.3161  XZZ=             78.3389  YZZ=             -0.9292
  YYZ=            -20.8408  XYZ=           -116.6075
 Hexadecapole moment (field-independent basis, Debye-Ang**3):
 XXXX=        -155125.3132 YYYY=          -3668.8102 ZZZZ=          -2374.1698 XXXY=          -2751.9904
 XXXZ=           8243.6048 YYYX=           -346.4869 YYYZ=            -10.8199 ZZZX=             90.1906
 ZZZY=            -13.1123 XXYY=         -25397.1338 XXZZ=         -26111.6843 YYZZ=          -1046.8786
 XXYZ=            350.5627 YYXZ=            220.9158 ZZXY=            -65.6492
 N-N= 4.442560366793D+03 E-N=-1.319510818380D+04  KE= 1.839375693396D+03
 1\1\GINC-RYZEN-SSD3\SP\RCAM-B3LYP TD-FC\6-31G(d,p)\C40H56O4\PADAWAN\01
 -Aug-2019\0\\# td=(NStates=1) CAM-B3LYP/6-31G(d,p)\\TD\\0,1\O,0,-11.62
 46091285,0.1644670951,-1.6443215958\O,0,-13.0823290687,-2.412089517,1.
 4053562206\O,0,10.6917746974,-0.9950193898,-2.1776214884\O,0,14.489942
 3609,-1.0479035119,0.1358991025\C,0,-10.995767744,-0.1254865034,-0.382
 4176662\C,0,-11.6558318729,-1.2230234822,-1.2116700073\C,0,-11.7464566
 887,0.3435810409,0.8772573807\C,0,-13.0840036041,-1.7877789358,-0.9821
 89853\C,0,-13.2225607141,-0.0869361412,0.8991045984\C,0,-13.6143878723
 ,-1.4534568835,0.5046392312\C,0,-10.7167772664,-2.0408695045,-2.085510
 8694\C,0,-9.5546349073,0.1743645703,-0.2732542835\C,0,-11.1357995574,-
 0.1848240784,2.2577108382\C,0,-11.8268130616,1.9325783609,1.0544535371
 \C,0,-8.6395173734,-0.7312211633,0.0592646655\C,0,-7.2295109407,-0.519
 6138075,0.194827183\C,0,-6.3847524901,-1.8159102798,0.5618184181\C,0,-
 6.5963352952,0.6745982897,-0.0491134665\C,0,-5.2144313847,0.8711991566
 ,0.1384395138\C,0,11.816140861,-0.0445444249,1.4334328714\C,0,11.73285
 05752,-0.5987460298,-1.1060744871\C,0,12.5586430924,-1.3414383735,1.64
 22689603\C,0,13.3243671234,-1.8982343568,0.3873526997\C,0,12.535438478
 5,-1.8231768267,-0.8786718297\C,0,10.9984467326,0.0224069886,0.1501921
 995\C,0,10.8799093958,0.2827949215,2.6024125815\C,0,12.8620493216,1.14
 48277036,1.4297360246\C,0,12.619018208,0.3258914624,-2.0089548433\C,0,
 -4.6243689326,2.177660272,-0.258880737\C,0,9.8131525028,0.5443952423,-
 0.0856597427\C,0,-3.2879739558,2.5636551192,-0.3222324839\C,0,8.578767
 6628,1.0596623,-0.4177761176\C,0,-3.1592776129,3.9439758571,-0.7006097
 931\C,0,-2.2777946946,1.5933911878,-0.1651590506\C,0,7.353304873,0.091
 249713,-0.29525871\C,0,7.6134260791,-1.3365506072,-0.1288929664\C,0,6.
 1542667747,0.8697739077,-0.2800719432\C,0,-0.8889930308,1.8601751412,-
 0.3477029454\C,0,5.0344050433,0.1480639225,-0.1629449257\C,0,0.0526517
 442,0.97650096,-0.2350126041\C,0,3.8438637941,0.9357539258,-0.19208667
 77\C,0,1.4606780086,1.2506467924,-0.1788102619\C,0,2.5527031708,0.3647
 857783,-0.119298572\C,0,2.3826081225,-1.1093751178,0.1145100446\H,0,-1
 3.1369354943,-2.8422872065,-1.0375489789\H,0,-13.6363088546,-1.0985538
 396,-1.7499514498\H,0,-13.8508628885,0.4360006689,1.7697796607\H,0,-13
 .6388032739,0.4958747146,0.2573333989\H,0,-14.6730646106,-1.7914578592
 ,0.4448060849\H,0,-10.6306916861,-3.1321499978,-1.510636359\H,0,-11.46
 95371626,-2.610615853,-2.8527235586\H,0,-9.8358057641,-1.4917483834,-2
 .4837799905\H,0,-9.3273613909,1.1890610371,-0.7651503251\H,0,-10.16216
 75444,0.2592471888,2.3518109239\H,0,-11.7133266936,0.4898356852,3.2175
 801081\H,0,-11.1852492186,-1.1896458411,2.4815189416\H,0,-12.114413983
 9,2.4326793899,0.1441476308\H,0,-12.3037866181,2.0299385694,1.88145185
 7\H,0,-10.7542857107,2.248555446,1.2730716007\H,0,-11.9318762601,-2.22
 89357672,1.3455890378\H,0,-8.900860928,-1.6673950972,0.5595350524\H,0,
 -5.5848979359,-1.8197352986,-0.1699950439\H,0,-5.9384062559,-1.9214473
 773,1.5094993461\H,0,-7.0305931699,-2.9705493279,0.1998061314\H,0,-7.2
 863499461,1.3907174008,-0.2742971062\H,0,-4.6572123659,0.0382724456,0.
 7013263569\H,0,13.0424699241,-1.3601977072,2.5357785185\H,0,11.9223874
 157,-2.1328826683,1.6920052002\H,0,13.7209944563,-2.8262742924,0.55429
 23551\H,0,13.2253599745,-2.1942159001,-1.6718102757\H,0,11.7893089391,
 -2.7344425682,-0.934788821\H,0,11.3080104092,0.5046208288,3.6059256313
 \H,0,10.2093479125,1.1679923623,2.3444719714\H,0,10.1148991111,-0.6023
 585504,2.5524714883\H,0,13.8086877707,1.0779964238,0.7014942142\H,0,12
 .3623188451,2.0719966375,1.186633369\H,0,13.327718609,1.145529032,2.54
 24407257\H,0,12.9528861081,-0.1651531249,-2.9747699289\H,0,11.95527259
 57,1.2291050014,-2.2934472796\H,0,13.4018110137,0.5944554984,-1.428408
 3262\H,0,-5.2817203959,2.9680311899,-0.4398753983\H,0,10.0065019008,-0
 .2167803356,-2.1893812739\H,0,14.9845913043,-0.7501448289,1.0632149208
 \H,0,8.2691787687,2.0152838556,-0.6249097682\H,0,-2.2783229165,4.30001
 64513,-0.0021843887\H,0,-2.7369324575,4.0107382986,-1.8420273118\H,0,-
 3.9712135065,4.6143196138,-0.6132611276\H,0,-2.5853481549,0.6152637384
 ,-0.2334062952\H,0,6.8305458045,-1.9759771598,-0.5049180071\H,0,8.3990
 85123,-1.7330480296,-0.6629470688\H,0,7.743394261,-1.5791302414,0.9215
 559165\H,0,5.9764127884,1.9964734527,-0.112883308\H,0,-0.6022915862,2.
 8742414676,-0.5448643979\H,0,4.8486408505,-0.9822147182,-0.1476420831\
 H,0,-0.0460135246,-0.0309949124,-0.3958669756\H,0,4.0368428522,1.93403
 90401,-0.1974319682\H,0,1.7289297682,2.151420934,-0.2499076892\H,0,1.3
 389627311,-1.4423108353,-0.148735878\H,0,3.1268640112,-1.686204922,-0.
 6374315132\H,0,2.7242791243,-1.3024144704,1.1652798146\\Version=ES64L-
 G16RevA.03\State=1-A\HF=-1857.2054457\RMSD=6.890e-09\PG=C01 [X(C40H56O
 4)]\\@


       THE DEATH-KNELL OF THE ATOM

 SO THE ATOMS IN TURN, WE NOW CLEARLY DISCERN,
 FLY TO BITS WITH THE UTMOST FACILITY;
 THEY WEND ON THEIR WAY, AND, IN SPLITTING, DISPLAY
 AN ABSOLUTE LACK OF STABILITY.

          SIR WM. RAMSAY, 1905
 Job cpu time:       0 days  6 hours  8 minutes  3.9 seconds.
 Elapsed time:       0 days  2 hours  2 minutes 56.2 seconds.
 File lengths (MBytes):  RWF=   3379 Int=      0 D2E=      0 Chk=     90 Scr=      1
 Normal termination of Gaussian 16 at Thu Aug  1 01:00:26 2019.
