 Entering Gaussian System, Link 0=g16
 Input=Geometria-221-.com
 Output=Geometria-221-.log
 Initial command:
 /usr/local/g16/l1.exe "/home/padawan/israel-mol/neoxanthin/spectra/emi/Gau-84821.inp" -scrdir="/home/padawan/israel-mol/neoxanthin/spectra/emi/"
 Entering Link 1 = /usr/local/g16/l1.exe PID=     84823.
  
 Copyright (c) 1988,1990,1992,1993,1995,1998,2003,2009,2016,
            Gaussian, Inc.  All Rights Reserved.
  
 This is part of the Gaussian(R) 16 program.  It is based on
 the Gaussian(R) 09 system (copyright 2009, Gaussian, Inc.),
 the Gaussian(R) 03 system (copyright 2003, Gaussian, Inc.),
 the Gaussian(R) 98 system (copyright 1998, Gaussian, Inc.),
 the Gaussian(R) 94 system (copyright 1995, Gaussian, Inc.),
 the Gaussian 92(TM) system (copyright 1992, Gaussian, Inc.),
 the Gaussian 90(TM) system (copyright 1990, Gaussian, Inc.),
 the Gaussian 88(TM) system (copyright 1988, Gaussian, Inc.),
 the Gaussian 86(TM) system (copyright 1986, Carnegie Mellon
 University), and the Gaussian 82(TM) system (copyright 1983,
 Carnegie Mellon University). Gaussian is a federally registered
 trademark of Gaussian, Inc.
  
 This software contains proprietary and confidential information,
 including trade secrets, belonging to Gaussian, Inc.
  
 This software is provided under written license and may be
 used, copied, transmitted, or stored only in accord with that
 written license.
  
 The following legend is applicable only to US Government
 contracts under FAR:
  
                    RESTRICTED RIGHTS LEGEND
  
 Use, reproduction and disclosure by the US Government is
 subject to restrictions as set forth in subparagraphs (a)
 and (c) of the Commercial Computer Software - Restricted
 Rights clause in FAR 52.227-19.
  
 Gaussian, Inc.
 340 Quinnipiac St., Bldg. 40, Wallingford CT 06492
  
  
 ---------------------------------------------------------------
 Warning -- This program may not be used in any manner that
 competes with the business of Gaussian, Inc. or will provide
 assistance to any competitor of Gaussian, Inc.  The licensee
 of this program is prohibited from giving any competitor of
 Gaussian, Inc. access to this program.  By using this program,
 the user acknowledges that Gaussian, Inc. is engaged in the
 business of creating and licensing software in the field of
 computational chemistry and represents and warrants to the
 licensee that it is not a competitor of Gaussian, Inc. and that
 it will not use this program in any manner prohibited above.
 ---------------------------------------------------------------
  

 Cite this work as:
 Gaussian 16, Revision A.03,
 M. J. Frisch, G. W. Trucks, H. B. Schlegel, G. E. Scuseria, 
 M. A. Robb, J. R. Cheeseman, G. Scalmani, V. Barone, 
 G. A. Petersson, H. Nakatsuji, X. Li, M. Caricato, A. V. Marenich, 
 J. Bloino, B. G. Janesko, R. Gomperts, B. Mennucci, H. P. Hratchian, 
 J. V. Ortiz, A. F. Izmaylov, J. L. Sonnenberg, D. Williams-Young, 
 F. Ding, F. Lipparini, F. Egidi, J. Goings, B. Peng, A. Petrone, 
 T. Henderson, D. Ranasinghe, V. G. Zakrzewski, J. Gao, N. Rega, 
 G. Zheng, W. Liang, M. Hada, M. Ehara, K. Toyota, R. Fukuda, 
 J. Hasegawa, M. Ishida, T. Nakajima, Y. Honda, O. Kitao, H. Nakai, 
 T. Vreven, K. Throssell, J. A. Montgomery, Jr., J. E. Peralta, 
 F. Ogliaro, M. J. Bearpark, J. J. Heyd, E. N. Brothers, K. N. Kudin, 
 V. N. Staroverov, T. A. Keith, R. Kobayashi, J. Normand, 
 K. Raghavachari, A. P. Rendell, J. C. Burant, S. S. Iyengar, 
 J. Tomasi, M. Cossi, J. M. Millam, M. Klene, C. Adamo, R. Cammi, 
 J. W. Ochterski, R. L. Martin, K. Morokuma, O. Farkas, 
 J. B. Foresman, and D. J. Fox, Gaussian, Inc., Wallingford CT, 2016.
 
 ******************************************
 Gaussian 16:  ES64L-G16RevA.03 25-Dec-2016
                30-Jul-2019 
 ******************************************
 %nproc=3
 Will use up to    3 processors via shared memory.
 %Mem=2GB
 -------------------------------------
 # td=(NStates=1) CAM-B3LYP/6-31G(d,p)
 -------------------------------------
 1/38=1,172=1/1;
 2/12=2,17=6,18=5,40=1/2;
 3/5=1,6=6,7=101,11=9,25=1,30=1,74=-40/1,2,3,8;
 4//1;
 5/5=2,38=5/2;
 8/6=1,10=2,108=1/1;
 9/41=1,42=1,70=2/14;
 6/7=2,8=2,9=2,10=2/1;
 99/5=1,9=1/99;
 --
 TD
 --
 Symbolic Z-matrix:
 Charge =  0 Multiplicity = 1
 8                    -11.84101   0.21687  -1.55759 
 8                    -13.10067  -2.55284   1.44079 
 8                     10.65507  -0.90149  -2.16388 
 8                     14.5499  -1.11075  -0.1786 
 6                    -11.10357  -0.1126   -0.37573 
 6                    -11.68139  -1.18936  -1.20904 
 6                    -11.88783   0.33132   0.86158 
 6                    -12.97151  -1.84871  -1.04425 
 6                    -13.41052  -0.16335   0.87673 
 6                    -13.61372  -1.5839    0.38405 
 6                    -10.6944  -1.83898  -2.17711 
 6                    -9.68606   0.2302   -0.33038 
 6                    -11.21923  -0.11792   2.17476 
 6                    -11.82586   1.89709   0.8892 
 6                    -8.69957  -0.64159   0.08141 
 6                    -7.23983  -0.40142   0.22278 
 6                    -6.27863  -1.64304   0.59953 
 6                    -6.53136   0.73301  -0.09423 
 6                    -5.16058   0.96675  -0.08955 
 6                     11.93948   0.18635   1.34735 
 6                     11.68062  -0.58235  -1.21874 
 6                     12.69835  -1.24609   1.5204 
 6                     13.29512  -1.76887   0.31309 
 6                     12.3181  -1.94263  -0.83747 
 6                     11.13332   0.10086   0.02766 
 6                     11.09453   0.32923   2.6147 
 6                     12.96046   1.29495   1.2666 
 6                     12.65967   0.29658  -1.98042 
 6                    -4.68235   2.20533  -0.31936 
 6                     9.88881   0.63932  -0.05584 
 6                    -3.33099   2.58642  -0.39062 
 6                     8.60697   1.01767  -0.22752 
 6                    -2.90562   3.97169  -0.75398 
 6                    -2.31003   1.6175   -0.08074 
 6                     7.44554   0.10449  -0.05045 
 6                     7.73023  -1.45889   0.07954 
 6                     6.19595   0.65387  -0.19727 
 6                    -1.01894   1.87903  -0.17178 
 6                     4.98682  -0.02587  -0.12909 
 6                     0.00754   0.86195  -0.04198 
 6                     3.78225   0.73545  -0.1114 
 6                     1.42316   1.0958   -0.07508 
 6                     2.49577   0.17203  -0.00299 
 6                     2.37384  -1.21834   0.43631 
 1                    -12.80535  -2.79205  -1.23335 
 1                    -13.69361  -1.55066  -1.64251 
 1                    -13.73341  -0.08867   1.91563 
 1                    -14.01613   0.78938   0.34551 
 1                    -14.61399  -1.78661   0.53349 
 1                    -10.58141  -2.81641  -1.79851 
 1                    -11.25184  -1.92293  -3.22739 
 1                    -9.83616  -1.29042  -2.25031 
 1                    -9.50802   1.31477  -0.55231 
 1                    -10.35755   0.43818   2.28238 
 1                    -11.91052   0.18413   2.9129 
 1                    -11.08727  -1.22139   2.20908 
 1                    -12.25886   2.30479  -0.23177 
 1                    -12.25764   2.33912   1.78426 
 1                    -10.69442   2.04888   0.80941 
 1                    -12.14383  -2.57926   1.44557 
 1                    -9.07859  -1.79329   0.22533 
 1                    -5.80039  -1.99951  -0.32202 
 1                    -5.60541  -1.41133   1.29786 
 1                    -7.02787  -2.36541   0.98207 
 1                    -6.88901   1.70262  -0.21873 
 1                    -4.42847   0.22545   0.343 
 1                     13.41418  -1.3369    2.50551 
 1                     11.71491  -1.93059   1.61867 
 1                     13.73689  -2.82715   0.39258 
 1                     12.8914  -2.22491  -1.78085 
 1                     11.65857  -2.63019  -0.4998 
 1                     11.51961   0.15897   3.62134 
 1                     10.58837   1.32422   2.46333 
 1                     10.37601  -0.36163   2.4939 
 1                     13.67891   1.05434   0.42356 
 1                     12.54633   2.32528   1.09578 
 1                     13.50319   1.23476   2.25128 
 1                     13.02455  -0.14016  -2.95688 
 1                     12.18866   1.18925  -2.27533 
 1                     13.56789   0.59709  -1.454 
 1                    -5.40898   3.01488  -0.61375 
 1                     10.01108  -0.17341  -2.11997 
 1                     15.12828  -0.92274   0.40396 
 1                     8.41305   2.03696  -0.27277 
 1                    -2.6444    4.45135   0.1868 
 1                    -2.22595   3.99622  -1.63587 
 1                    -3.84967   4.41228  -1.02508 
 1                    -2.36386   0.62925   0.56196 
 1                     6.93447  -2.14339   0.02012 
 1                     8.35244  -1.86798  -0.77877 
 1                     8.28681  -1.60082   1.05639 
 1                     6.36816   1.73184  -0.44573 
 1                    -0.68274   2.77017  -0.5038 
 1                     5.06632  -1.06836   0.07206 
 1                    -0.31373  -0.21193   0.43644 
 1                     3.92082   1.75255  -0.3131 
 1                     1.72895   2.19268  -0.19224 
 1                     1.27072  -1.3792    0.56315 
 1                     2.49361  -2.1307   -0.35103 
 1                     2.8008   -1.55764   1.40903 
 
 Stoichiometry    C40H56O4
 Framework group  C1[X(C40H56O4)]
 Deg. of freedom   294
 Full point group                 C1      NOp   1
 Largest Abelian subgroup         C1      NOp   1
 Largest concise Abelian subgroup C1      NOp   1
                         Standard orientation:                         
 ---------------------------------------------------------------------
 Center     Atomic      Atomic             Coordinates (Angstroms)
 Number     Number       Type             X           Y           Z
 ---------------------------------------------------------------------
      1          8           0      -11.843223    0.211708   -1.566896
      2          8           0      -13.104582   -2.547977    1.440009
      3          8           0       10.653170   -0.909005   -2.157053
      4          8           0       14.546900   -1.111703   -0.168943
      5          6           0      -11.106438   -0.113828   -0.383532
      6          6           0      -11.683823   -1.193357   -1.213569
      7          6           0      -11.891375    0.334221    0.851851
      8          6           0      -12.974042   -1.852129   -1.047289
      9          6           0      -13.414080   -0.160377    0.867818
     10          6           0      -13.617030   -1.582555    0.379759
     11          6           0      -10.696301   -1.846215   -2.178924
     12          6           0       -9.688947    0.229095   -0.338547
     13          6           0      -11.223503   -0.110646    2.166897
     14          6           0      -11.829396    1.900078    0.874287
     15          6           0       -8.702704   -0.641334    0.076688
     16          6           0       -7.243037   -0.400716    0.218064
     17          6           0       -6.282065   -1.641088    0.599483
     18          6           0       -6.534370    0.732646   -0.102334
     19          6           0       -5.163586    0.966375   -0.097683
     20          6           0       11.935666    0.190514    1.351242
     21          6           0       11.678199   -0.586736   -1.212413
     22          6           0       12.694410   -1.241350    1.529478
     23          6           0       13.291844   -1.768163    0.324245
     24          6           0       12.315447   -1.945741   -0.826261
     25          6           0       11.130229    0.100643    0.031396
     26          6           0       11.090017    0.337632    2.617643
     27          6           0       12.956705    1.298827    1.267355
     28          6           0       12.657690    0.289638   -1.976485
     29          6           0       -4.685217    2.204179   -0.331351
     30          6           0        9.885774    0.638840   -0.054581
     31          6           0       -3.333805    2.585003   -0.403139
     32          6           0        8.604035    1.016628   -0.228228
     33          6           0       -2.908216    3.969049   -0.770876
     34          6           0       -2.313032    1.617113   -0.089469
     35          6           0        7.442496    0.104064   -0.048762
     36          6           0        7.727082   -1.458882    0.086598
     37          6           0        6.192993    0.652971   -0.198101
     38          6           0       -1.021886    1.878312   -0.180663
     39          6           0        4.983814   -0.026525   -0.128319
     40          6           0        0.004499    0.861658   -0.046916
     41          6           0        3.779244    0.734875   -0.113828
     42          6           0        1.420147    1.095377   -0.080011
     43          6           0        2.492695    0.171831   -0.004248
     44          6           0        2.370500   -1.217057    0.439617
     45          1           0      -12.807794   -2.796104   -1.233154
     46          1           0      -13.695810   -1.556069   -1.646942
     47          1           0      -13.737543   -0.082227    1.906287
     48          1           0      -14.019382    0.790594    0.333091
     49          1           0      -14.617387   -1.784748    0.529331
     50          1           0      -10.583538   -2.822378   -1.797000
     51          1           0      -11.253164   -1.933655   -3.229226
     52          1           0       -9.838012   -1.297913   -2.253476
     53          1           0       -9.510768    1.312920   -0.563992
     54          1           0      -10.361872    0.445789    2.273139
     55          1           0      -11.915193    0.193866    2.903642
     56          1           0      -11.091582   -1.213999    2.204967
     57          1           0      -12.261766    2.304037   -0.248272
     58          1           0      -12.261660    2.345091    1.767635
     59          1           0      -10.697906    2.051575    0.794613
     60          1           0      -12.147742   -2.574393    1.445404
     61          1           0       -9.081818   -1.792538    0.224242
     62          1           0       -5.803321   -2.000636   -0.320612
     63          1           0       -5.609227   -1.407055    1.297403
     64          1           0       -7.031529   -2.362164    0.984018
     65          1           0       -6.891936    1.701836   -0.230266
     66          1           0       -4.431730    0.226512    0.337743
     67          1           0       13.409696   -1.328882    2.515278
     68          1           0       11.710904   -1.925507    1.629488
     69          1           0       13.733544   -2.826182    0.407507
     70          1           0       12.889262   -2.231173   -1.768382
     71          1           0       11.655719   -2.632165   -0.486662
     72          1           0       11.514541    0.170719    3.625072
     73          1           0       10.583953    1.332118    2.462678
     74          1           0       10.371547   -0.353620    2.498742
     75          1           0       13.675621    1.055399    0.425515
     76          1           0       12.542684    2.328588    1.092878
     77          1           0       13.498888    1.241908    2.252531
     78          1           0       13.023102   -0.150359   -2.951279
     79          1           0       12.186852    1.181330   -2.274623
     80          1           0       13.565621    0.591885   -1.450569
     81          1           0       -5.411670    3.012747   -0.628845
     82          1           0       10.009170   -0.180769   -2.115930
     83          1           0       15.124959   -0.921763    0.413307
     84          1           0        8.410160    2.035763   -0.276990
     85          1           0       -2.647504    4.451842    0.168443
     86          1           0       -2.228059    3.990627   -1.652470
     87          1           0       -3.852108    4.408748   -1.043971
     88          1           0       -2.367231    0.631003    0.556496
     89          1           0        6.931342   -2.143566    0.029029
     90          1           0        8.349761   -1.870839   -0.769997
     91          1           0        8.283122   -1.597563    1.064224
     92          1           0        6.365359    1.730099   -0.450051
     93          1           0       -0.685492    2.768339   -0.515472
     94          1           0        5.063188   -1.068340    0.076350
     95          1           0       -0.317051   -0.210619    0.434904
     96          1           0        3.917946    1.751292   -0.318847
     97          1           0        1.726016    2.191849   -0.200661
     98          1           0        1.267306   -1.377485    0.566377
     99          1           0        2.490692   -2.132042   -0.344616
    100          1           0        2.796917   -1.553123    1.413699
 ---------------------------------------------------------------------
 Rotational constants (GHZ):           0.2642604           0.0087997           0.0087215
 Standard basis: 6-31G(d,p) (6D, 7F)
 There are   940 symmetry adapted cartesian basis functions of A   symmetry.
 There are   940 symmetry adapted basis functions of A   symmetry.
   940 basis functions,  1624 primitive gaussians,   940 cartesian basis functions
   164 alpha electrons      164 beta electrons
       nuclear repulsion energy      4442.4837806782 Hartrees.
 NAtoms=  100 NActive=  100 NUniq=  100 SFac= 1.00D+00 NAtFMM=   60 NAOKFM=T Big=T
 Integral buffers will be    131072 words long.
 Raffenetti 1 integral format.
 Two-electron integral symmetry is turned on.
 One-electron integrals computed using PRISM.
 NBasis=   940 RedAO= T EigKep=  5.32D-04  NBF=   940
 NBsUse=   940 1.00D-06 EigRej= -1.00D+00 NBFU=   940
 ExpMin= 1.61D-01 ExpMax= 5.48D+03 ExpMxC= 8.25D+02 IAcc=3 IRadAn=         5 AccDes= 0.00D+00
 Harris functional with IExCor=20419 and IRadAn=       5 diagonalized for initial guess.
 HarFok:  IExCor=20419 AccDes= 0.00D+00 IRadAn=         5 IDoV= 1 UseB2=F ITyADJ=14
 ICtDFT=  3500011 ScaDFX=  1.000000  1.000000  1.000000  1.000000
 FoFCou: FMM=F IPFlag=           0 FMFlag=      100000 FMFlg1=        2001
         NFxFlg=           0 DoJE=T BraDBF=F KetDBF=T FulRan=T
         wScrn=  0.000000 ICntrl=       500 IOpCl=  0 I1Cent=   200000004 NGrid=           0
         NMat0=    1 NMatS0=      1 NMatT0=    0 NMatD0=    1 NMtDS0=    0 NMtDT0=    0
 Petite list used in FoFCou.
 Requested convergence on RMS density matrix=1.00D-08 within 128 cycles.
 Requested convergence on MAX density matrix=1.00D-06.
 Requested convergence on             energy=1.00D-06.
 No special actions if energy rises.
 Integral accuracy reduced to 1.0D-05 until final iterations.
 Initial convergence to 1.0D-05 achieved.  Increase integral accuracy.
 SCF Done:  E(RCAM-B3LYP) =  -1857.34818471     A.U. after   16 cycles
            NFock= 16  Conv=0.85D-08     -V/T= 2.0095
 DoSCS=F DFT=T ScalE2(SS,OS)=  1.000000  1.000000
 ExpMin= 1.61D-01 ExpMax= 5.48D+03 ExpMxC= 8.25D+02 IAcc=3 IRadAn=         5 AccDes= 0.00D+00
 HarFok:  IExCor=  205 AccDes= 0.00D+00 IRadAn=         5 IDoV=-2 UseB2=F ITyADJ=14
 ICtDFT= 12500011 ScaDFX=  1.000000  1.000000  1.000000  1.000000
 GSVD:  LWork=       -2288 too small for GESVD, short by       10340 words or       10340 for optimal perf.
 Range of M.O.s used for correlation:    45   940
 NBasis=   940 NAE=   164 NBE=   164 NFC=    44 NFV=     0
 NROrb=    896 NOA=   120 NOB=   120 NVA=   776 NVB=   776
 Orbital symmetries:
       Occupied  (A) (A) (A) (A) (A) (A) (A) (A) (A) (A) (A) (A)
                 (A) (A) (A) (A) (A) (A) (A) (A) (A) (A) (A) (A)
                 (A) (A) (A) (A) (A) (A) (A) (A) (A) (A) (A) (A)
                 (A) (A) (A) (A) (A) (A) (A) (A) (A) (A) (A) (A)
                 (A) (A) (A) (A) (A) (A) (A) (A) (A) (A) (A) (A)
                 (A) (A) (A) (A) (A) (A) (A) (A) (A) (A) (A) (A)
                 (A) (A) (A) (A) (A) (A) (A) (A) (A) (A) (A) (A)
                 (A) (A) (A) (A) (A) (A) (A) (A) (A) (A) (A) (A)
                 (A) (A) (A) (A) (A) (A) (A) (A) (A) (A) (A) (A)
                 (A) (A) (A) (A) (A) (A) (A) (A) (A) (A) (A) (A)
                 (A) (A) (A) (A) (A) (A) (A) (A) (A) (A) (A) (A)
                 (A) (A) (A) (A) (A) (A) (A) (A) (A) (A) (A) (A)
                 (A) (A) (A) (A) (A) (A) (A) (A) (A) (A) (A) (A)
                 (A) (A) (A) (A) (A) (A) (A) (A)
       Virtual   (A) (A) (A) (A) (A) (A) (A) (A) (A) (A) (A) (A)
                 (A) (A) (A) (A) (A) (A) (A) (A) (A) (A) (A) (A)
                 (A) (A) (A) (A) (A) (A) (A) (A) (A) (A) (A) (A)
                 (A) (A) (A) (A) (A) (A) (A) (A) (A) (A) (A) (A)
                 (A) (A) (A) (A) (A) (A) (A) (A) (A) (A) (A) (A)
                 (A) (A) (A) (A) (A) (A) (A) (A) (A) (A) (A) (A)
                 (A) (A) (A) (A) (A) (A) (A) (A) (A) (A) (A) (A)
                 (A) (A) (A) (A) (A) (A) (A) (A) (A) (A) (A) (A)
                 (A) (A) (A) (A) (A) (A) (A) (A) (A) (A) (A) (A)
                 (A) (A) (A) (A) (A) (A) (A) (A) (A) (A) (A) (A)
                 (A) (A) (A) (A) (A) (A) (A) (A) (A) (A) (A) (A)
                 (A) (A) (A) (A) (A) (A) (A) (A) (A) (A) (A) (A)
                 (A) (A) (A) (A) (A) (A) (A) (A) (A) (A) (A) (A)
                 (A) (A) (A) (A) (A) (A) (A) (A) (A) (A) (A) (A)
                 (A) (A) (A) (A) (A) (A) (A) (A) (A) (A) (A) (A)
                 (A) (A) (A) (A) (A) (A) (A) (A) (A) (A) (A) (A)
                 (A) (A) (A) (A) (A) (A) (A) (A) (A) (A) (A) (A)
                 (A) (A) (A) (A) (A) (A) (A) (A) (A) (A) (A) (A)
                 (A) (A) (A) (A) (A) (A) (A) (A) (A) (A) (A) (A)
                 (A) (A) (A) (A) (A) (A) (A) (A) (A) (A) (A) (A)
                 (A) (A) (A) (A) (A) (A) (A) (A) (A) (A) (A) (A)
                 (A) (A) (A) (A) (A) (A) (A) (A) (A) (A) (A) (A)
                 (A) (A) (A) (A) (A) (A) (A) (A) (A) (A) (A) (A)
                 (A) (A) (A) (A) (A) (A) (A) (A) (A) (A) (A) (A)
                 (A) (A) (A) (A) (A) (A) (A) (A) (A) (A) (A) (A)
                 (A) (A) (A) (A) (A) (A) (A) (A) (A) (A) (A) (A)
                 (A) (A) (A) (A) (A) (A) (A) (A) (A) (A) (A) (A)
                 (A) (A) (A) (A) (A) (A) (A) (A) (A) (A) (A) (A)
                 (A) (A) (A) (A) (A) (A) (A) (A) (A) (A) (A) (A)
                 (A) (A) (A) (A) (A) (A) (A) (A) (A) (A) (A) (A)
                 (A) (A) (A) (A) (A) (A) (A) (A) (A) (A) (A) (A)
                 (A) (A) (A) (A) (A) (A) (A) (A) (A) (A) (A) (A)
                 (A) (A) (A) (A) (A) (A) (A) (A) (A) (A) (A) (A)
                 (A) (A) (A) (A) (A) (A) (A) (A) (A) (A) (A) (A)
                 (A) (A) (A) (A) (A) (A) (A) (A) (A) (A) (A) (A)
                 (A) (A) (A) (A) (A) (A) (A) (A) (A) (A) (A) (A)
                 (A) (A) (A) (A) (A) (A) (A) (A) (A) (A) (A) (A)
                 (A) (A) (A) (A) (A) (A) (A) (A) (A) (A) (A) (A)
                 (A) (A) (A) (A) (A) (A) (A) (A) (A) (A) (A) (A)
                 (A) (A) (A) (A) (A) (A) (A) (A) (A) (A) (A) (A)
                 (A) (A) (A) (A) (A) (A) (A) (A) (A) (A) (A) (A)
                 (A) (A) (A) (A) (A) (A) (A) (A) (A) (A) (A) (A)
                 (A) (A) (A) (A) (A) (A) (A) (A) (A) (A) (A) (A)
                 (A) (A) (A) (A) (A) (A) (A) (A) (A) (A) (A) (A)
                 (A) (A) (A) (A) (A) (A) (A) (A) (A) (A) (A) (A)
                 (A) (A) (A) (A) (A) (A) (A) (A) (A) (A) (A) (A)
                 (A) (A) (A) (A) (A) (A) (A) (A) (A) (A) (A) (A)
                 (A) (A) (A) (A) (A) (A) (A) (A) (A) (A) (A) (A)
                 (A) (A) (A) (A) (A) (A) (A) (A) (A) (A) (A) (A)
                 (A) (A) (A) (A) (A) (A) (A) (A) (A) (A) (A) (A)
                 (A) (A) (A) (A) (A) (A) (A) (A) (A) (A) (A) (A)
                 (A) (A) (A) (A) (A) (A) (A) (A) (A) (A) (A) (A)
                 (A) (A) (A) (A) (A) (A) (A) (A) (A) (A) (A) (A)
                 (A) (A) (A) (A) (A) (A) (A) (A) (A) (A) (A) (A)
                 (A) (A) (A) (A) (A) (A) (A) (A) (A) (A) (A) (A)
                 (A) (A) (A) (A) (A) (A) (A) (A) (A) (A) (A) (A)
                 (A) (A) (A) (A) (A) (A) (A) (A) (A) (A) (A) (A)
                 (A) (A) (A) (A) (A) (A) (A) (A) (A) (A) (A) (A)
                 (A) (A) (A) (A) (A) (A) (A) (A) (A) (A) (A) (A)
                 (A) (A) (A) (A) (A) (A) (A) (A) (A) (A) (A) (A)
                 (A) (A) (A) (A) (A) (A) (A) (A) (A) (A) (A) (A)
                 (A) (A) (A) (A) (A) (A) (A) (A) (A) (A) (A) (A)
                 (A) (A) (A) (A) (A) (A) (A) (A) (A) (A) (A) (A)
                 (A) (A) (A) (A) (A) (A) (A) (A) (A) (A) (A) (A)
                 (A) (A) (A) (A) (A) (A) (A) (A)
     4 initial guesses have been made.
 Convergence on wavefunction:    0.001000000000000
 Iteration     1 Dimension     4 NMult     0 NNew      4
 CISAX will form     4 AO SS matrices at one time.
 Iteration     2 Dimension     6 NMult     4 NNew      2
 Iteration     3 Dimension     8 NMult     6 NNew      2
 Iteration     4 Dimension    10 NMult     8 NNew      2
 Iteration     5 Dimension    12 NMult    10 NNew      2
 Iteration     6 Dimension    14 NMult    12 NNew      2
 ***********************************************************************
 Excited states from <AA,BB:AA,BB> singles matrix:
 ***********************************************************************
 
 Ground to excited state transition densities written to RWF  633
 Ground to excited state transition electric dipole moments (Au):
       state          X           Y           Z        Dip. S.      Osc.
         1         8.1626     -0.4613      0.0939     66.8503      3.0770
 Ground to excited state transition velocity dipole moments (Au):
       state          X           Y           Z        Dip. S.      Osc.
         1        -0.5457      0.0303     -0.0080      0.2987      2.8846
 Ground to excited state transition magnetic dipole moments (Au):
       state          X           Y           Z
         1        -0.0046      0.2376      2.0871
 Ground to excited state transition velocity quadrupole moments (Au):
       state          XX          YY          ZZ          XY          XZ          YZ
         1         0.3122      0.2357     -0.0004      0.1700     -0.0005     -0.0378
 <0|del|b> * <b|rxdel|0> + <0|del|b> * <b|delr+rdel|0>
 Rotatory Strengths (R) in cgs (10**-40 erg-esu-cm/Gauss)
       state          XX          YY          ZZ    R(velocity)    E-M Angle
         1       -55.1373     40.1997    -55.9821    -23.6399       90.35
 1/2[<0|r|b>*<b|rxdel|0> + (<0|rxdel|b>*<b|r|0>)*]
 Rotatory Strengths (R) in cgs (10**-40 erg-esu-cm/Gauss)
       state          XX          YY          ZZ     R(length)
         1        26.4697     77.5090   -138.5460    -11.5224
  1/2[<0|del|b>*<b|r|0> + (<0|r|b>*<b|del|0>)*] (Au)
       state          X           Y           Z        Dip. S.   Osc.(frdel)
         1        -4.4541     -0.0140     -0.0007      4.4688      2.9792

 Excitation energies and oscillator strengths:
 
 Excited State   1:      Singlet-A      1.8787 eV  659.94 nm  f=3.0770  <S**2>=0.000
     163 ->166         0.11711
     164 ->165         0.70504
     164 <-165        -0.12665
 This state for optimization and/or second-order correction.
 Total Energy, E(TD-HF/TD-DFT) =  -1857.27914309    
 Copying the excited state density for this state as the 1-particle RhoCI density.
 SavETr:  write IOETrn=   770 NScale= 10 NData=  16 NLR=1 NState=    1 LETran=      28.

 **********************************************************************

            Population analysis using the SCF density.

 **********************************************************************

 Orbital symmetries:
       Occupied  (A) (A) (A) (A) (A) (A) (A) (A) (A) (A) (A) (A)
                 (A) (A) (A) (A) (A) (A) (A) (A) (A) (A) (A) (A)
                 (A) (A) (A) (A) (A) (A) (A) (A) (A) (A) (A) (A)
                 (A) (A) (A) (A) (A) (A) (A) (A) (A) (A) (A) (A)
                 (A) (A) (A) (A) (A) (A) (A) (A) (A) (A) (A) (A)
                 (A) (A) (A) (A) (A) (A) (A) (A) (A) (A) (A) (A)
                 (A) (A) (A) (A) (A) (A) (A) (A) (A) (A) (A) (A)
                 (A) (A) (A) (A) (A) (A) (A) (A) (A) (A) (A) (A)
                 (A) (A) (A) (A) (A) (A) (A) (A) (A) (A) (A) (A)
                 (A) (A) (A) (A) (A) (A) (A) (A) (A) (A) (A) (A)
                 (A) (A) (A) (A) (A) (A) (A) (A) (A) (A) (A) (A)
                 (A) (A) (A) (A) (A) (A) (A) (A) (A) (A) (A) (A)
                 (A) (A) (A) (A) (A) (A) (A) (A) (A) (A) (A) (A)
                 (A) (A) (A) (A) (A) (A) (A) (A)
       Virtual   (A) (A) (A) (A) (A) (A) (A) (A) (A) (A) (A) (A)
                 (A) (A) (A) (A) (A) (A) (A) (A) (A) (A) (A) (A)
                 (A) (A) (A) (A) (A) (A) (A) (A) (A) (A) (A) (A)
                 (A) (A) (A) (A) (A) (A) (A) (A) (A) (A) (A) (A)
                 (A) (A) (A) (A) (A) (A) (A) (A) (A) (A) (A) (A)
                 (A) (A) (A) (A) (A) (A) (A) (A) (A) (A) (A) (A)
                 (A) (A) (A) (A) (A) (A) (A) (A) (A) (A) (A) (A)
                 (A) (A) (A) (A) (A) (A) (A) (A) (A) (A) (A) (A)
                 (A) (A) (A) (A) (A) (A) (A) (A) (A) (A) (A) (A)
                 (A) (A) (A) (A) (A) (A) (A) (A) (A) (A) (A) (A)
                 (A) (A) (A) (A) (A) (A) (A) (A) (A) (A) (A) (A)
                 (A) (A) (A) (A) (A) (A) (A) (A) (A) (A) (A) (A)
                 (A) (A) (A) (A) (A) (A) (A) (A) (A) (A) (A) (A)
                 (A) (A) (A) (A) (A) (A) (A) (A) (A) (A) (A) (A)
                 (A) (A) (A) (A) (A) (A) (A) (A) (A) (A) (A) (A)
                 (A) (A) (A) (A) (A) (A) (A) (A) (A) (A) (A) (A)
                 (A) (A) (A) (A) (A) (A) (A) (A) (A) (A) (A) (A)
                 (A) (A) (A) (A) (A) (A) (A) (A) (A) (A) (A) (A)
                 (A) (A) (A) (A) (A) (A) (A) (A) (A) (A) (A) (A)
                 (A) (A) (A) (A) (A) (A) (A) (A) (A) (A) (A) (A)
                 (A) (A) (A) (A) (A) (A) (A) (A) (A) (A) (A) (A)
                 (A) (A) (A) (A) (A) (A) (A) (A) (A) (A) (A) (A)
                 (A) (A) (A) (A) (A) (A) (A) (A) (A) (A) (A) (A)
                 (A) (A) (A) (A) (A) (A) (A) (A) (A) (A) (A) (A)
                 (A) (A) (A) (A) (A) (A) (A) (A) (A) (A) (A) (A)
                 (A) (A) (A) (A) (A) (A) (A) (A) (A) (A) (A) (A)
                 (A) (A) (A) (A) (A) (A) (A) (A) (A) (A) (A) (A)
                 (A) (A) (A) (A) (A) (A) (A) (A) (A) (A) (A) (A)
                 (A) (A) (A) (A) (A) (A) (A) (A) (A) (A) (A) (A)
                 (A) (A) (A) (A) (A) (A) (A) (A) (A) (A) (A) (A)
                 (A) (A) (A) (A) (A) (A) (A) (A) (A) (A) (A) (A)
                 (A) (A) (A) (A) (A) (A) (A) (A) (A) (A) (A) (A)
                 (A) (A) (A) (A) (A) (A) (A) (A) (A) (A) (A) (A)
                 (A) (A) (A) (A) (A) (A) (A) (A) (A) (A) (A) (A)
                 (A) (A) (A) (A) (A) (A) (A) (A) (A) (A) (A) (A)
                 (A) (A) (A) (A) (A) (A) (A) (A) (A) (A) (A) (A)
                 (A) (A) (A) (A) (A) (A) (A) (A) (A) (A) (A) (A)
                 (A) (A) (A) (A) (A) (A) (A) (A) (A) (A) (A) (A)
                 (A) (A) (A) (A) (A) (A) (A) (A) (A) (A) (A) (A)
                 (A) (A) (A) (A) (A) (A) (A) (A) (A) (A) (A) (A)
                 (A) (A) (A) (A) (A) (A) (A) (A) (A) (A) (A) (A)
                 (A) (A) (A) (A) (A) (A) (A) (A) (A) (A) (A) (A)
                 (A) (A) (A) (A) (A) (A) (A) (A) (A) (A) (A) (A)
                 (A) (A) (A) (A) (A) (A) (A) (A) (A) (A) (A) (A)
                 (A) (A) (A) (A) (A) (A) (A) (A) (A) (A) (A) (A)
                 (A) (A) (A) (A) (A) (A) (A) (A) (A) (A) (A) (A)
                 (A) (A) (A) (A) (A) (A) (A) (A) (A) (A) (A) (A)
                 (A) (A) (A) (A) (A) (A) (A) (A) (A) (A) (A) (A)
                 (A) (A) (A) (A) (A) (A) (A) (A) (A) (A) (A) (A)
                 (A) (A) (A) (A) (A) (A) (A) (A) (A) (A) (A) (A)
                 (A) (A) (A) (A) (A) (A) (A) (A) (A) (A) (A) (A)
                 (A) (A) (A) (A) (A) (A) (A) (A) (A) (A) (A) (A)
                 (A) (A) (A) (A) (A) (A) (A) (A) (A) (A) (A) (A)
                 (A) (A) (A) (A) (A) (A) (A) (A) (A) (A) (A) (A)
                 (A) (A) (A) (A) (A) (A) (A) (A) (A) (A) (A) (A)
                 (A) (A) (A) (A) (A) (A) (A) (A) (A) (A) (A) (A)
                 (A) (A) (A) (A) (A) (A) (A) (A) (A) (A) (A) (A)
                 (A) (A) (A) (A) (A) (A) (A) (A) (A) (A) (A) (A)
                 (A) (A) (A) (A) (A) (A) (A) (A) (A) (A) (A) (A)
                 (A) (A) (A) (A) (A) (A) (A) (A) (A) (A) (A) (A)
                 (A) (A) (A) (A) (A) (A) (A) (A) (A) (A) (A) (A)
                 (A) (A) (A) (A) (A) (A) (A) (A) (A) (A) (A) (A)
                 (A) (A) (A) (A) (A) (A) (A) (A) (A) (A) (A) (A)
                 (A) (A) (A) (A) (A) (A) (A) (A) (A) (A) (A) (A)
                 (A) (A) (A) (A) (A) (A) (A) (A)
 The electronic state is 1-A.
 Alpha  occ. eigenvalues --  -19.21060 -19.20309 -19.20206 -19.19366 -10.31647
 Alpha  occ. eigenvalues --  -10.31460 -10.31329 -10.31322 -10.30941 -10.29635
 Alpha  occ. eigenvalues --  -10.28986 -10.28770 -10.28733 -10.28504 -10.28391
 Alpha  occ. eigenvalues --  -10.28359 -10.28355 -10.28086 -10.28047 -10.27953
 Alpha  occ. eigenvalues --  -10.27915 -10.27471 -10.27092 -10.27011 -10.26980
 Alpha  occ. eigenvalues --  -10.26791 -10.26518 -10.26470 -10.26460 -10.26308
 Alpha  occ. eigenvalues --  -10.26229 -10.26225 -10.26192 -10.26168 -10.25991
 Alpha  occ. eigenvalues --  -10.25756 -10.25519 -10.25125 -10.24876 -10.24810
 Alpha  occ. eigenvalues --  -10.24339 -10.24184 -10.23521 -10.22732  -1.14364
 Alpha  occ. eigenvalues --   -1.09817  -1.08930  -1.06402  -0.93300  -0.93273
 Alpha  occ. eigenvalues --   -0.92019  -0.91005  -0.90311  -0.89846  -0.88176
 Alpha  occ. eigenvalues --   -0.87484  -0.87058  -0.85863  -0.85097  -0.83354
 Alpha  occ. eigenvalues --   -0.82768  -0.80943  -0.80426  -0.78939  -0.77325
 Alpha  occ. eigenvalues --   -0.77038  -0.76968  -0.76966  -0.76300  -0.75567
 Alpha  occ. eigenvalues --   -0.75561  -0.74342  -0.72791  -0.70805  -0.69633
 Alpha  occ. eigenvalues --   -0.68717  -0.67107  -0.65596  -0.64250  -0.64114
 Alpha  occ. eigenvalues --   -0.63638  -0.62634  -0.61720  -0.61151  -0.60417
 Alpha  occ. eigenvalues --   -0.59151  -0.58482  -0.58133  -0.57090  -0.56790
 Alpha  occ. eigenvalues --   -0.56350  -0.55344  -0.54777  -0.54471  -0.54154
 Alpha  occ. eigenvalues --   -0.54046  -0.52447  -0.52058  -0.51950  -0.51702
 Alpha  occ. eigenvalues --   -0.51288  -0.51173  -0.50768  -0.49689  -0.49581
 Alpha  occ. eigenvalues --   -0.49443  -0.49030  -0.48978  -0.48734  -0.48652
 Alpha  occ. eigenvalues --   -0.48289  -0.48038  -0.47655  -0.47252  -0.46966
 Alpha  occ. eigenvalues --   -0.46722  -0.46620  -0.46490  -0.45954  -0.45303
 Alpha  occ. eigenvalues --   -0.45262  -0.45250  -0.45082  -0.44432  -0.44184
 Alpha  occ. eigenvalues --   -0.43837  -0.43540  -0.43306  -0.43147  -0.42670
 Alpha  occ. eigenvalues --   -0.42595  -0.42340  -0.42086  -0.41415  -0.41192
 Alpha  occ. eigenvalues --   -0.41002  -0.40767  -0.40634  -0.40244  -0.40199
 Alpha  occ. eigenvalues --   -0.39681  -0.39672  -0.39562  -0.39153  -0.38907
 Alpha  occ. eigenvalues --   -0.38712  -0.38393  -0.37600  -0.37123  -0.36562
 Alpha  occ. eigenvalues --   -0.36519  -0.35810  -0.35448  -0.34822  -0.34495
 Alpha  occ. eigenvalues --   -0.32402  -0.32178  -0.31717  -0.31613  -0.31387
 Alpha  occ. eigenvalues --   -0.29478  -0.28326  -0.24693  -0.19134
 Alpha virt. eigenvalues --   -0.07523  -0.01110   0.02436   0.05257   0.06660
 Alpha virt. eigenvalues --    0.09463   0.09696   0.09856   0.11106   0.11831
 Alpha virt. eigenvalues --    0.12130   0.13421   0.13687   0.14116   0.14176
 Alpha virt. eigenvalues --    0.14340   0.14480   0.14912   0.15175   0.15790
 Alpha virt. eigenvalues --    0.15977   0.16176   0.16208   0.16463   0.16704
 Alpha virt. eigenvalues --    0.16997   0.17271   0.17365   0.17620   0.17790
 Alpha virt. eigenvalues --    0.17987   0.18293   0.18729   0.18848   0.19147
 Alpha virt. eigenvalues --    0.19299   0.20060   0.20232   0.20623   0.20827
 Alpha virt. eigenvalues --    0.20964   0.21275   0.21442   0.21696   0.21792
 Alpha virt. eigenvalues --    0.22045   0.22385   0.22544   0.22660   0.23141
 Alpha virt. eigenvalues --    0.23878   0.23937   0.24099   0.24240   0.24329
 Alpha virt. eigenvalues --    0.24930   0.25069   0.25596   0.25828   0.26014
 Alpha virt. eigenvalues --    0.26233   0.26381   0.26583   0.26677   0.26928
 Alpha virt. eigenvalues --    0.27140   0.27846   0.28152   0.28366   0.28487
 Alpha virt. eigenvalues --    0.28982   0.29108   0.29401   0.29761   0.29910
 Alpha virt. eigenvalues --    0.30417   0.30482   0.30699   0.30872   0.31339
 Alpha virt. eigenvalues --    0.31858   0.32007   0.32112   0.32557   0.33340
 Alpha virt. eigenvalues --    0.33996   0.34259   0.34603   0.35662   0.36123
 Alpha virt. eigenvalues --    0.37093   0.37981   0.38450   0.38573   0.39393
 Alpha virt. eigenvalues --    0.39709   0.40671   0.41148   0.42457   0.42826
 Alpha virt. eigenvalues --    0.43424   0.44105   0.44774   0.45521   0.46147
 Alpha virt. eigenvalues --    0.47322   0.47462   0.49306   0.50266   0.51970
 Alpha virt. eigenvalues --    0.52276   0.54202   0.55037   0.55541   0.55970
 Alpha virt. eigenvalues --    0.56527   0.56596   0.56924   0.57138   0.57456
 Alpha virt. eigenvalues --    0.58132   0.58268   0.58755   0.59004   0.59221
 Alpha virt. eigenvalues --    0.59365   0.59764   0.60219   0.60442   0.60744
 Alpha virt. eigenvalues --    0.61283   0.61414   0.61709   0.61884   0.61984
 Alpha virt. eigenvalues --    0.62326   0.62496   0.62810   0.63179   0.63557
 Alpha virt. eigenvalues --    0.63702   0.64221   0.64321   0.64643   0.64907
 Alpha virt. eigenvalues --    0.64986   0.65324   0.65762   0.65990   0.66431
 Alpha virt. eigenvalues --    0.66658   0.67105   0.67257   0.67796   0.68015
 Alpha virt. eigenvalues --    0.68495   0.68582   0.69161   0.69387   0.69629
 Alpha virt. eigenvalues --    0.70192   0.70879   0.71225   0.71423   0.71685
 Alpha virt. eigenvalues --    0.71968   0.72429   0.73035   0.73249   0.73568
 Alpha virt. eigenvalues --    0.73877   0.75069   0.75131   0.75661   0.76122
 Alpha virt. eigenvalues --    0.76478   0.76953   0.76984   0.77275   0.77299
 Alpha virt. eigenvalues --    0.77965   0.78400   0.78665   0.79312   0.79440
 Alpha virt. eigenvalues --    0.79757   0.80490   0.81014   0.81147   0.81321
 Alpha virt. eigenvalues --    0.81543   0.82215   0.82327   0.82554   0.82933
 Alpha virt. eigenvalues --    0.83109   0.83359   0.83781   0.84220   0.84503
 Alpha virt. eigenvalues --    0.85661   0.85748   0.85901   0.86221   0.86718
 Alpha virt. eigenvalues --    0.86835   0.87275   0.87472   0.87896   0.88007
 Alpha virt. eigenvalues --    0.88134   0.88365   0.88728   0.89208   0.89573
 Alpha virt. eigenvalues --    0.90421   0.90782   0.91076   0.91211   0.91589
 Alpha virt. eigenvalues --    0.91894   0.92181   0.92570   0.92672   0.92753
 Alpha virt. eigenvalues --    0.92824   0.93278   0.93574   0.94285   0.94518
 Alpha virt. eigenvalues --    0.95237   0.95527   0.95760   0.95885   0.95993
 Alpha virt. eigenvalues --    0.96055   0.96262   0.96594   0.96771   0.96936
 Alpha virt. eigenvalues --    0.97550   0.98121   0.98338   0.98365   0.98408
 Alpha virt. eigenvalues --    0.98897   0.99078   0.99541   0.99696   0.99802
 Alpha virt. eigenvalues --    1.00096   1.00409   1.01074   1.01263   1.01511
 Alpha virt. eigenvalues --    1.01966   1.02608   1.02702   1.03062   1.03199
 Alpha virt. eigenvalues --    1.03864   1.04164   1.04758   1.05359   1.05750
 Alpha virt. eigenvalues --    1.05875   1.06644   1.06925   1.07043   1.07161
 Alpha virt. eigenvalues --    1.07787   1.08474   1.09358   1.10007   1.10657
 Alpha virt. eigenvalues --    1.10773   1.11032   1.11546   1.12089   1.12471
 Alpha virt. eigenvalues --    1.12913   1.13881   1.14242   1.14793   1.14974
 Alpha virt. eigenvalues --    1.15104   1.15761   1.15896   1.16455   1.17214
 Alpha virt. eigenvalues --    1.18426   1.19147   1.19732   1.20737   1.21652
 Alpha virt. eigenvalues --    1.21776   1.22479   1.22864   1.23133   1.23512
 Alpha virt. eigenvalues --    1.24119   1.24874   1.26266   1.26532   1.27052
 Alpha virt. eigenvalues --    1.27419   1.27899   1.29076   1.30026   1.31157
 Alpha virt. eigenvalues --    1.31755   1.31864   1.32863   1.33137   1.33918
 Alpha virt. eigenvalues --    1.34357   1.36078   1.36639   1.36884   1.37939
 Alpha virt. eigenvalues --    1.38084   1.39021   1.39124   1.39555   1.40225
 Alpha virt. eigenvalues --    1.41158   1.41308   1.41722   1.42085   1.42554
 Alpha virt. eigenvalues --    1.44226   1.44598   1.45564   1.46118   1.46705
 Alpha virt. eigenvalues --    1.47957   1.48649   1.49436   1.50072   1.50314
 Alpha virt. eigenvalues --    1.51036   1.51857   1.52348   1.53639   1.54320
 Alpha virt. eigenvalues --    1.54817   1.55659   1.56612   1.57246   1.58068
 Alpha virt. eigenvalues --    1.58107   1.59327   1.59461   1.60001   1.62050
 Alpha virt. eigenvalues --    1.62433   1.62532   1.62781   1.63013   1.63482
 Alpha virt. eigenvalues --    1.64049   1.65076   1.66036   1.66235   1.66433
 Alpha virt. eigenvalues --    1.67852   1.68332   1.69579   1.70276   1.71549
 Alpha virt. eigenvalues --    1.73313   1.73888   1.74197   1.74254   1.74922
 Alpha virt. eigenvalues --    1.76502   1.76572   1.77763   1.78013   1.78110
 Alpha virt. eigenvalues --    1.78902   1.79333   1.80038   1.80922   1.81266
 Alpha virt. eigenvalues --    1.81476   1.82049   1.82353   1.82916   1.83466
 Alpha virt. eigenvalues --    1.84027   1.84920   1.85200   1.85491   1.86164
 Alpha virt. eigenvalues --    1.86653   1.87111   1.87542   1.87693   1.87978
 Alpha virt. eigenvalues --    1.88816   1.89070   1.89655   1.90502   1.90858
 Alpha virt. eigenvalues --    1.91013   1.91316   1.92118   1.92437   1.92536
 Alpha virt. eigenvalues --    1.93092   1.93378   1.94104   1.94996   1.95018
 Alpha virt. eigenvalues --    1.95176   1.95837   1.96066   1.96259   1.96596
 Alpha virt. eigenvalues --    1.97158   1.97941   1.98483   1.98780   1.99005
 Alpha virt. eigenvalues --    1.99727   1.99989   2.00196   2.00502   2.01393
 Alpha virt. eigenvalues --    2.01609   2.02168   2.02312   2.02372   2.03095
 Alpha virt. eigenvalues --    2.03874   2.03935   2.04259   2.04888   2.05880
 Alpha virt. eigenvalues --    2.06221   2.06650   2.07060   2.07548   2.07968
 Alpha virt. eigenvalues --    2.08297   2.08852   2.09225   2.09884   2.10504
 Alpha virt. eigenvalues --    2.10783   2.10943   2.10996   2.11138   2.11478
 Alpha virt. eigenvalues --    2.11737   2.12343   2.12536   2.12617   2.12857
 Alpha virt. eigenvalues --    2.13400   2.13871   2.13944   2.14271   2.14758
 Alpha virt. eigenvalues --    2.15057   2.15851   2.16134   2.16673   2.16703
 Alpha virt. eigenvalues --    2.17715   2.18040   2.18289   2.18640   2.19053
 Alpha virt. eigenvalues --    2.19476   2.19605   2.19933   2.20423   2.20953
 Alpha virt. eigenvalues --    2.21359   2.21542   2.21779   2.22160   2.22219
 Alpha virt. eigenvalues --    2.22494   2.23081   2.23552   2.23797   2.24280
 Alpha virt. eigenvalues --    2.24373   2.24591   2.25592   2.25974   2.26298
 Alpha virt. eigenvalues --    2.27396   2.27763   2.28100   2.28826   2.29478
 Alpha virt. eigenvalues --    2.29803   2.30001   2.30794   2.30926   2.31240
 Alpha virt. eigenvalues --    2.31635   2.31983   2.32765   2.33375   2.33993
 Alpha virt. eigenvalues --    2.34474   2.35081   2.35512   2.35857   2.36342
 Alpha virt. eigenvalues --    2.37279   2.37448   2.37634   2.39186   2.39479
 Alpha virt. eigenvalues --    2.39825   2.39909   2.40553   2.40859   2.41453
 Alpha virt. eigenvalues --    2.41704   2.42209   2.42841   2.43227   2.43722
 Alpha virt. eigenvalues --    2.43922   2.44329   2.44669   2.44994   2.45582
 Alpha virt. eigenvalues --    2.46242   2.46648   2.47372   2.47421   2.47660
 Alpha virt. eigenvalues --    2.48502   2.48633   2.49316   2.50807   2.50916
 Alpha virt. eigenvalues --    2.51139   2.51493   2.52842   2.53038   2.53389
 Alpha virt. eigenvalues --    2.53969   2.54609   2.55611   2.55877   2.56123
 Alpha virt. eigenvalues --    2.56690   2.56869   2.57151   2.57961   2.58207
 Alpha virt. eigenvalues --    2.59212   2.59595   2.60066   2.60511   2.60937
 Alpha virt. eigenvalues --    2.61279   2.61998   2.62501   2.63208   2.63423
 Alpha virt. eigenvalues --    2.63720   2.64126   2.65149   2.65375   2.65946
 Alpha virt. eigenvalues --    2.66019   2.66646   2.66862   2.68043   2.68158
 Alpha virt. eigenvalues --    2.68314   2.68684   2.68872   2.69477   2.69792
 Alpha virt. eigenvalues --    2.70187   2.70876   2.71150   2.71431   2.71762
 Alpha virt. eigenvalues --    2.72429   2.72582   2.73196   2.73628   2.73928
 Alpha virt. eigenvalues --    2.74282   2.74834   2.75790   2.76004   2.77089
 Alpha virt. eigenvalues --    2.77394   2.77560   2.77722   2.78203   2.78320
 Alpha virt. eigenvalues --    2.78817   2.79335   2.79669   2.80208   2.80792
 Alpha virt. eigenvalues --    2.81524   2.81643   2.81965   2.82330   2.82949
 Alpha virt. eigenvalues --    2.83571   2.83921   2.84224   2.84613   2.84870
 Alpha virt. eigenvalues --    2.86019   2.86898   2.87482   2.87610   2.88890
 Alpha virt. eigenvalues --    2.89179   2.90464   2.90989   2.91636   2.91732
 Alpha virt. eigenvalues --    2.92082   2.93146   2.93327   2.93629   2.94301
 Alpha virt. eigenvalues --    2.94580   2.94826   2.96067   2.96098   2.96914
 Alpha virt. eigenvalues --    2.97107   2.97399   2.97839   2.98274   2.98443
 Alpha virt. eigenvalues --    2.98851   3.00562   3.01286   3.01745   3.02278
 Alpha virt. eigenvalues --    3.02682   3.02719   3.03358   3.03632   3.04469
 Alpha virt. eigenvalues --    3.05851   3.06391   3.07419   3.07875   3.07955
 Alpha virt. eigenvalues --    3.09404   3.09930   3.09984   3.11439   3.12618
 Alpha virt. eigenvalues --    3.13478   3.14041   3.15387   3.15466   3.17089
 Alpha virt. eigenvalues --    3.17457   3.18483   3.20380   3.21110   3.21473
 Alpha virt. eigenvalues --    3.22284   3.22352   3.25033   3.26108   3.27227
 Alpha virt. eigenvalues --    3.28330   3.29448   3.29889   3.30770   3.32743
 Alpha virt. eigenvalues --    3.33101   3.34140   3.34630   3.37512   3.38286
 Alpha virt. eigenvalues --    3.39799   3.41895   3.43258   3.43347   3.44139
 Alpha virt. eigenvalues --    3.44849   3.45544   3.45808   3.47030   3.48074
 Alpha virt. eigenvalues --    3.48595   3.49559   3.50347   3.51011   3.51056
 Alpha virt. eigenvalues --    3.51755   3.53262   3.54122   3.56144   3.56374
 Alpha virt. eigenvalues --    3.56885   3.57308   3.58153   3.59714   3.59960
 Alpha virt. eigenvalues --    3.61545   3.63824   3.64113   3.64683   3.64785
 Alpha virt. eigenvalues --    3.66384   3.69377   3.69620   3.70771   3.72235
 Alpha virt. eigenvalues --    3.73538   3.74341   3.74760   3.75199   3.76670
 Alpha virt. eigenvalues --    3.77398   3.83342   3.98427   4.10876   4.14888
 Alpha virt. eigenvalues --    4.17714   4.18340   4.18536   4.20399   4.21348
 Alpha virt. eigenvalues --    4.25036   4.26506   4.27277   4.29049   4.32717
 Alpha virt. eigenvalues --    4.36679   4.38536   4.40676   4.43759   4.44675
 Alpha virt. eigenvalues --    4.47247   4.48783   4.50480   4.52296   4.55108
 Alpha virt. eigenvalues --    4.55394   4.56981   4.58771   4.59837   4.61757
 Alpha virt. eigenvalues --    4.62101   4.63042   4.69135   4.71182   4.72533
 Alpha virt. eigenvalues --    4.75060   4.77211   4.79850   4.80090   4.83209
 Alpha virt. eigenvalues --    4.86376   4.87114   4.88882   4.91521   4.93858
 Alpha virt. eigenvalues --    4.97608
          Condensed to atoms (all electrons):
 Mulliken charges:
               1
     1  O   -0.513106
     2  O   -0.579012
     3  O   -0.574553
     4  O   -0.553450
     5  C    0.252377
     6  C    0.176129
     7  C    0.002281
     8  C   -0.167791
     9  C   -0.179448
    10  C    0.130625
    11  C   -0.309383
    12  C   -0.135546
    13  C   -0.277083
    14  C   -0.308109
    15  C   -0.079242
    16  C    0.018267
    17  C   -0.357147
    18  C   -0.083900
    19  C   -0.034073
    20  C    0.005202
    21  C    0.253169
    22  C   -0.189079
    23  C    0.155057
    24  C   -0.170673
    25  C   -0.054493
    26  C   -0.296738
    27  C   -0.286614
    28  C   -0.293595
    29  C   -0.133277
    30  C    0.068258
    31  C    0.046343
    32  C   -0.268841
    33  C   -0.369596
    34  C   -0.085905
    35  C    0.097576
    36  C   -0.378395
    37  C   -0.090684
    38  C   -0.070467
    39  C   -0.093772
    40  C   -0.114778
    41  C   -0.114473
    42  C   -0.127517
    43  C    0.138825
    44  C   -0.384836
    45  H    0.108437
    46  H    0.135108
    47  H    0.108410
    48  H    0.081053
    49  H    0.113601
    50  H    0.100839
    51  H    0.095894
    52  H    0.131626
    53  H    0.120161
    54  H    0.111737
    55  H    0.107249
    56  H    0.067577
    57  H    0.098759
    58  H    0.107553
    59  H    0.085477
    60  H    0.297971
    61  H    0.074808
    62  H    0.130424
    63  H    0.132285
    64  H    0.099527
    65  H    0.072515
    66  H    0.083709
    67  H    0.081980
    68  H    0.090699
    69  H    0.085144
    70  H    0.120842
    71  H    0.115671
    72  H    0.105529
    73  H    0.100292
    74  H    0.115706
    75  H    0.110250
    76  H    0.100150
    77  H    0.086789
    78  H    0.102211
    79  H    0.090407
    80  H    0.126891
    81  H    0.079551
    82  H    0.301775
    83  H    0.276808
    84  H    0.112720
    85  H    0.141761
    86  H    0.135086
    87  H    0.110794
    88  H    0.084421
    89  H    0.115795
    90  H    0.132902
    91  H    0.113199
    92  H    0.077933
    93  H    0.078966
    94  H    0.094775
    95  H    0.070942
    96  H    0.083300
    97  H    0.084655
    98  H    0.101429
    99  H    0.103689
   100  H    0.133684
 Sum of Mulliken charges =  -0.00000
 Mulliken charges with hydrogens summed into heavy atoms:
               1
     1  O   -0.513106
     2  O   -0.281041
     3  O   -0.272778
     4  O   -0.276642
     5  C    0.252377
     6  C    0.176129
     7  C    0.002281
     8  C    0.075754
     9  C    0.010016
    10  C    0.244226
    11  C    0.018976
    12  C   -0.015385
    13  C    0.009480
    14  C   -0.016320
    15  C   -0.004435
    16  C    0.018267
    17  C    0.005089
    18  C   -0.011385
    19  C    0.049637
    20  C    0.005202
    21  C    0.253169
    22  C   -0.016400
    23  C    0.240202
    24  C    0.065840
    25  C   -0.054493
    26  C    0.024790
    27  C    0.010576
    28  C    0.025913
    29  C   -0.053726
    30  C    0.068258
    31  C    0.046343
    32  C   -0.156122
    33  C    0.018045
    34  C   -0.001484
    35  C    0.097576
    36  C   -0.016499
    37  C   -0.012751
    38  C    0.008499
    39  C    0.001002
    40  C   -0.043837
    41  C   -0.031173
    42  C   -0.042861
    43  C    0.138825
    44  C   -0.046034
 Electronic spatial extent (au):  <R**2>=         115727.4688
 Charge=             -0.0000 electrons
 Dipole moment (field-independent basis, Debye):
    X=              2.1450    Y=              0.8732    Z=              2.7744  Tot=              3.6139
 Quadrupole moment (field-independent basis, Debye-Ang):
   XX=           -309.9158   YY=           -258.2133   ZZ=           -279.5469
   XY=             -2.0271   XZ=             35.8830   YZ=             -2.2920
 Traceless Quadrupole moment (field-independent basis, Debye-Ang):
   XX=            -27.3572   YY=             24.3454   ZZ=              3.0117
   XY=             -2.0271   XZ=             35.8830   YZ=             -2.2920
 Octapole moment (field-independent basis, Debye-Ang**2):
  XXX=            713.6696  YYY=             12.3562  ZZZ=              3.7642  XYY=             37.9832
  XXY=             86.0404  XXZ=            368.6718  XZZ=             33.8058  YZZ=             -2.7301
  YYZ=            -22.7038  XYZ=           -142.6011
 Hexadecapole moment (field-independent basis, Debye-Ang**3):
 XXXX=        -155653.1536 YYYY=          -3662.0340 ZZZZ=          -2256.1227 XXXY=          -1210.9204
 XXXZ=           7183.1680 YYYX=           -212.8571 YYYZ=              2.4998 ZZZX=             69.1403
 ZZZY=            -10.2276 XXYY=         -26014.1964 XXZZ=         -26201.6720 YYZZ=          -1016.1931
 XXYZ=            426.4930 YYXZ=            184.5781 ZZXY=             -5.6557
 N-N= 4.442483780678D+03 E-N=-1.319521453481D+04  KE= 1.839953572084D+03
 1\1\GINC-RYZEN-SSD3\SP\RCAM-B3LYP TD-FC\6-31G(d,p)\C40H56O4\PADAWAN\30
 -Jul-2019\0\\# td=(NStates=1) CAM-B3LYP/6-31G(d,p)\\TD\\0,1\O,0,-11.84
 10107687,0.2168723356,-1.5575929229\O,0,-13.1006709029,-2.5528435924,1
 .440789764\O,0,10.655071027,-0.9014900369,-2.1638801143\O,0,14.5498983
 565,-1.1107497965,-0.1786023476\C,0,-11.1035685241,-0.1125952142,-0.37
 57269971\C,0,-11.6813944291,-1.1893601159,-1.2090397443\C,0,-11.887830
 8261,0.3313198148,0.8615758126\C,0,-12.9715123549,-1.8487050284,-1.044
 2460586\C,0,-13.41051951,-0.163353783,0.8767323611\C,0,-13.6137178053,
 -1.5838999278,0.384047172\C,0,-10.6943950282,-1.8389793154,-2.17711002
 93\C,0,-9.6860580496,0.2302001538,-0.3303799961\C,0,-11.2192279002,-0.
 1179173877,2.1747625434\C,0,-11.8258629666,1.8970948126,0.8891970114\C
 ,0,-8.699573379,-0.6415922004,0.0814068797\C,0,-7.2398319728,-0.401421
 9883,0.2227799783\C,0,-6.2786318781,-1.6430429931,0.5995321895\C,0,-6.
 5313587976,0.7330141313,-0.094227978\C,0,-5.1605759992,0.9667487116,-0
 .0895532855\C,0,11.9394831952,0.1863486644,1.3473542635\C,0,11.6806153
 516,-0.5823543906,-1.2187357533\C,0,12.6983470628,-1.2460888386,1.5203
 967731\C,0,13.2951241991,-1.7688714205,0.3130852729\C,0,12.3180967444,
 -1.9426287719,-0.8374677093\C,0,11.1333202199,0.1008648344,0.027659946
 3\C,0,11.094530858,0.329229565,2.6147038106\C,0,12.9604591626,1.294952
 7161,1.266599711\C,0,12.6596722734,0.2965785312,-1.98042199\C,0,-4.682
 3547312,2.2053330393,-0.3193567846\C,0,9.8888100685,0.6393247353,-0.05
 58367604\C,0,-3.3309882572,2.5864173954,-0.3906193226\C,0,8.606970483,
 1.0176681006,-0.2275170917\C,0,-2.9056222473,3.9716886284,-0.753975129
 6\C,0,-2.3100279179,1.6175035991,-0.0807406088\C,0,7.4455440969,0.1044
 910371,-0.0504542295\C,0,7.7302277593,-1.4588928414,0.0795378767\C,0,6
 .1959509431,0.6538723175,-0.1972736634\C,0,-1.0189360251,1.8790270264,
 -0.1717753526\C,0,4.9868202848,-0.0258734712,-0.1290915404\C,0,0.00753
 72327,0.8619495049,-0.0419833011\C,0,3.7822476325,0.7354538958,-0.1113
 986089\C,0,1.4231642572,1.0958013078,-0.0750798889\C,0,2.4957674772,0.
 1720265024,-0.0029869408\C,0,2.3738372454,-1.2183360139,0.4363122248\H
 ,0,-12.805352336,-2.792052183,-1.2333485589\H,0,-13.6936145852,-1.5506
 590501,-1.6425107058\H,0,-13.7334111433,-0.0886717984,1.9156342461\H,0
 ,-14.0161310067,0.7893840655,0.3455122168\H,0,-14.613988703,-1.7866073
 741,0.5334949538\H,0,-10.5814067576,-2.8164084236,-1.7985051459\H,0,-1
 1.2518353924,-1.9229270841,-3.2273910253\H,0,-9.8361557991,-1.29041825
 04,-2.2503066432\H,0,-9.5080194567,1.3147736084,-0.552309041\H,0,-10.3
 575470823,0.4381750816,2.2823839812\H,0,-11.9105164125,0.1841251141,2.
 9128996401\H,0,-11.0872694206,-1.2213890154,2.2090816979\H,0,-12.25885
 84283,2.3047866007,-0.231769961\H,0,-12.2576420036,2.3391194874,1.7842
 62138\H,0,-10.6944197241,2.048875478,0.809405234\H,0,-12.1438274552,-2
 .5792607997,1.4455690358\H,0,-9.0785887008,-1.7932876865,0.2253316321\
 H,0,-5.800389485,-1.9995132764,-0.3220202464\H,0,-5.6054129566,-1.4113
 263652,1.297858182\H,0,-7.0278728979,-2.3654088139,0.9820743582\H,0,-6
 .8890102121,1.702618591,-0.2187315497\H,0,-4.4284694916,0.2254511635,0
 .3430005244\H,0,13.4141770948,-1.3368953769,2.5055054911\H,0,11.714906
 6677,-1.9305924392,1.6186678665\H,0,13.7368860455,-2.8271543804,0.3925
 761835\H,0,12.8913965782,-2.2249089694,-1.7808511798\H,0,11.6585658648
 ,-2.6301921431,-0.4997953216\H,0,11.5196115694,0.1589662633,3.62133717
 24\H,0,10.5883658143,1.3242179849,2.4633338576\H,0,10.3760052217,-0.36
 16344779,2.4938956308\H,0,13.6789147934,1.0543440586,0.4235564204\H,0,
 12.5463272459,2.325281966,1.0957842841\H,0,13.5031861557,1.2347579549,
 2.2512816098\H,0,13.0245532748,-0.1401606257,-2.9568781397\H,0,12.1886
 55934,1.189251016,-2.2753254674\H,0,13.5678876214,0.5970857615,-1.4540
 008855\H,0,-5.4089831222,3.0148758744,-0.6137527861\H,0,10.0110823588,
 -0.1734059982,-2.1199743332\H,0,15.1282756728,-0.9227420886,0.40395899
 52\H,0,8.4130531561,2.0369560228,-0.2727745547\H,0,-2.6443995242,4.451
 3515849,0.1868045102\H,0,-2.2259513594,3.9962168465,-1.6358666958\H,0,
 -3.8496713522,4.4122794097,-1.0250823097\H,0,-2.3638560057,0.629245136
 5,0.5619632417\H,0,6.9344661965,-2.1433939015,0.0201244971\H,0,8.35244
 04585,-1.867981523,-0.778768651\H,0,8.2868086025,-1.6008224106,1.05638
 93998\H,0,6.3681619633,1.7318369891,-0.4457265924\H,0,-0.682739631,2.7
 701710606,-0.5038002915\H,0,5.0663226187,-1.068363333,0.0720598871\H,0
 ,-0.3137302962,-0.2119330062,0.4364362547\H,0,3.92082125,1.7525508913,
 -0.3131035354\H,0,1.7289497702,2.1926750594,-0.1922419226\H,0,1.270715
 9064,-1.3792045247,0.5631453101\H,0,2.4936106859,-2.1306993714,-0.3510
 328733\H,0,2.8007967761,-1.557639993,1.40903419\\Version=ES64L-G16RevA
 .03\State=1-A\HF=-1857.3481847\RMSD=8.493e-09\PG=C01 [X(C40H56O4)]\\@


 ON INDUCTION, OR "WHY DO YOU BELIEVE THE SUN WILL RISE TOMORROW?":

 ... THE FARMER WHO HAS FED THE CHICKEN EVERY DAY THROUGHOUT ITS
 LIFE AT LAST WRINGS ITS NECK INSTEAD, SHOWING THAT MORE REFINED VIEWS
 AS TO THE UNIFORMITY OF NATURE WOULD HAVE BEEN USEFUL TO THE CHICKEN.

                               -- BERTRAND RUSSELL
 Job cpu time:       0 days  6 hours 37 minutes 51.3 seconds.
 Elapsed time:       0 days  2 hours 12 minutes 53.7 seconds.
 File lengths (MBytes):  RWF=   3379 Int=      0 D2E=      0 Chk=     90 Scr=      1
 Normal termination of Gaussian 16 at Tue Jul 30 23:26:00 2019.
