 Entering Gaussian System, Link 0=g16
 Input=Geometria-172-.com
 Output=Geometria-172-.log
 Initial command:
 /usr/local/g16/l1.exe "/home/padawan/israel-mol/neoxanthin/spectra/emi/Gau-75035.inp" -scrdir="/home/padawan/israel-mol/neoxanthin/spectra/emi/"
 Entering Link 1 = /usr/local/g16/l1.exe PID=     75037.
  
 Copyright (c) 1988,1990,1992,1993,1995,1998,2003,2009,2016,
            Gaussian, Inc.  All Rights Reserved.
  
 This is part of the Gaussian(R) 16 program.  It is based on
 the Gaussian(R) 09 system (copyright 2009, Gaussian, Inc.),
 the Gaussian(R) 03 system (copyright 2003, Gaussian, Inc.),
 the Gaussian(R) 98 system (copyright 1998, Gaussian, Inc.),
 the Gaussian(R) 94 system (copyright 1995, Gaussian, Inc.),
 the Gaussian 92(TM) system (copyright 1992, Gaussian, Inc.),
 the Gaussian 90(TM) system (copyright 1990, Gaussian, Inc.),
 the Gaussian 88(TM) system (copyright 1988, Gaussian, Inc.),
 the Gaussian 86(TM) system (copyright 1986, Carnegie Mellon
 University), and the Gaussian 82(TM) system (copyright 1983,
 Carnegie Mellon University). Gaussian is a federally registered
 trademark of Gaussian, Inc.
  
 This software contains proprietary and confidential information,
 including trade secrets, belonging to Gaussian, Inc.
  
 This software is provided under written license and may be
 used, copied, transmitted, or stored only in accord with that
 written license.
  
 The following legend is applicable only to US Government
 contracts under FAR:
  
                    RESTRICTED RIGHTS LEGEND
  
 Use, reproduction and disclosure by the US Government is
 subject to restrictions as set forth in subparagraphs (a)
 and (c) of the Commercial Computer Software - Restricted
 Rights clause in FAR 52.227-19.
  
 Gaussian, Inc.
 340 Quinnipiac St., Bldg. 40, Wallingford CT 06492
  
  
 ---------------------------------------------------------------
 Warning -- This program may not be used in any manner that
 competes with the business of Gaussian, Inc. or will provide
 assistance to any competitor of Gaussian, Inc.  The licensee
 of this program is prohibited from giving any competitor of
 Gaussian, Inc. access to this program.  By using this program,
 the user acknowledges that Gaussian, Inc. is engaged in the
 business of creating and licensing software in the field of
 computational chemistry and represents and warrants to the
 licensee that it is not a competitor of Gaussian, Inc. and that
 it will not use this program in any manner prohibited above.
 ---------------------------------------------------------------
  

 Cite this work as:
 Gaussian 16, Revision A.03,
 M. J. Frisch, G. W. Trucks, H. B. Schlegel, G. E. Scuseria, 
 M. A. Robb, J. R. Cheeseman, G. Scalmani, V. Barone, 
 G. A. Petersson, H. Nakatsuji, X. Li, M. Caricato, A. V. Marenich, 
 J. Bloino, B. G. Janesko, R. Gomperts, B. Mennucci, H. P. Hratchian, 
 J. V. Ortiz, A. F. Izmaylov, J. L. Sonnenberg, D. Williams-Young, 
 F. Ding, F. Lipparini, F. Egidi, J. Goings, B. Peng, A. Petrone, 
 T. Henderson, D. Ranasinghe, V. G. Zakrzewski, J. Gao, N. Rega, 
 G. Zheng, W. Liang, M. Hada, M. Ehara, K. Toyota, R. Fukuda, 
 J. Hasegawa, M. Ishida, T. Nakajima, Y. Honda, O. Kitao, H. Nakai, 
 T. Vreven, K. Throssell, J. A. Montgomery, Jr., J. E. Peralta, 
 F. Ogliaro, M. J. Bearpark, J. J. Heyd, E. N. Brothers, K. N. Kudin, 
 V. N. Staroverov, T. A. Keith, R. Kobayashi, J. Normand, 
 K. Raghavachari, A. P. Rendell, J. C. Burant, S. S. Iyengar, 
 J. Tomasi, M. Cossi, J. M. Millam, M. Klene, C. Adamo, R. Cammi, 
 J. W. Ochterski, R. L. Martin, K. Morokuma, O. Farkas, 
 J. B. Foresman, and D. J. Fox, Gaussian, Inc., Wallingford CT, 2016.
 
 ******************************************
 Gaussian 16:  ES64L-G16RevA.03 25-Dec-2016
                30-Jul-2019 
 ******************************************
 %nproc=3
 Will use up to    3 processors via shared memory.
 %Mem=2GB
 -------------------------------------
 # td=(NStates=1) CAM-B3LYP/6-31G(d,p)
 -------------------------------------
 1/38=1,172=1/1;
 2/12=2,17=6,18=5,40=1/2;
 3/5=1,6=6,7=101,11=9,25=1,30=1,74=-40/1,2,3,8;
 4//1;
 5/5=2,38=5/2;
 8/6=1,10=2,108=1/1;
 9/41=1,42=1,70=2/14;
 6/7=2,8=2,9=2,10=2/1;
 99/5=1,9=1/99;
 --
 TD
 --
 Symbolic Z-matrix:
 Charge =  0 Multiplicity = 1
 8                    -11.58251   0.31302  -1.65352 
 8                    -12.94456  -2.42267   1.2465 
 8                     10.42662  -1.26682  -1.9509 
 8                     14.43377  -0.88298  -0.4287 
 6                    -11.00234  -0.07191  -0.36164 
 6                    -11.58721  -1.15952  -1.28035 
 6                    -11.87239   0.3713    0.85552 
 6                    -12.95045  -1.76448  -1.02718 
 6                    -13.34701  -0.11592   0.80655 
 6                    -13.50672  -1.56785   0.38948 
 6                    -10.76645  -1.95428  -2.28992 
 6                    -9.49484   0.16012  -0.34891 
 6                    -11.24607  -0.00712   2.18098 
 6                    -11.89118   1.84295   0.77836 
 6                    -8.59764  -0.67284   0.14849 
 6                    -7.14012  -0.53067   0.31134 
 6                    -6.37224  -1.72917   0.71675 
 6                    -6.42889   0.61891   0.07342 
 6                    -5.09877   0.90328  -0.11801 
 6                     12.00747   0.08528   1.23947 
 6                     11.48572  -0.6999   -1.24493 
 6                     12.78159  -1.16263   1.44851 
 6                     13.43528  -1.74444   0.11469 
 6                     12.42228  -1.88154  -0.98062 
 6                     11.0323   0.01422   0.08327 
 6                     11.10145   0.32185   2.51821 
 6                     12.99097   1.29821   1.23546 
 6                     12.19191   0.3107   -2.19705 
 6                    -4.62228   2.17661  -0.29351 
 6                     9.8325    0.51378   0.01376 
 6                    -3.29142   2.50821  -0.34878 
 6                     8.56276   1.00344  -0.13308 
 6                    -2.91579   3.94203  -0.57521 
 6                    -2.32361   1.59986  -0.11964 
 6                     7.47568   0.19026   0.20781 
 6                     7.66229  -1.25537   0.58199 
 6                     6.21392   0.71173   0.0146 
 6                    -0.96703   1.84553  -0.24651 
 6                     4.92123   0.01507   0.11411 
 6                    -0.03656   0.85777  -0.10827 
 6                     3.73985   0.81956   0.05062 
 6                     1.38858   1.13204  -0.08336 
 6                     2.45353   0.21461  -0.03438 
 6                     2.26678  -1.21644   0.22093 
 1                    -12.77353  -2.82216  -1.21003 
 1                    -13.65201  -1.73005  -1.85701 
 1                    -13.75325   0.23721   1.765 
 1                    -13.84197   0.3999    0.03671 
 1                    -14.58073  -1.61032   0.47449 
 1                    -10.77857  -3.01191  -1.81866 
 1                    -11.32196  -1.98784  -3.1366 
 1                    -9.73912  -1.74681  -2.29582 
 1                    -9.29864   1.2015   -0.60483 
 1                    -10.45499   0.36651   2.32469 
 1                    -11.82919   0.25347   3.08806 
 1                    -11.02103  -1.05919   2.30719 
 1                    -12.2223   2.20361  -0.18623 
 1                    -12.42022   2.31884   1.67732 
 1                    -10.85063   2.25744   0.74347 
 1                    -12.0058  -2.33372   1.22168 
 1                    -8.93336  -1.57908   0.40297 
 1                    -5.39776  -1.96233  -0.17164 
 1                    -5.89166  -1.6215    1.66416 
 1                    -7.11704  -2.51278   0.92533 
 1                    -7.01407   1.73666  -0.2879 
 1                    -4.33301   0.13115   0.17252 
 1                     13.28054  -1.26997   2.49491 
 1                     11.98721  -1.95383   1.68047 
 1                     13.96056  -2.82681   0.16068 
 1                     12.94436  -2.25587  -1.77854 
 1                     11.58257  -2.74645  -0.76005 
 1                     11.62162   0.31931   3.56143 
 1                     10.52935   1.21087   2.51272 
 1                     10.35255  -0.64404   2.64541 
 1                     13.63165   1.30893   0.26663 
 1                     12.4868   2.23376   0.81546 
 1                     13.30893   1.37836   2.23839 
 1                     12.47305  -0.08144  -3.18427 
 1                     11.5185   1.02462  -2.54769 
 1                     13.06439   0.70386  -1.79082 
 1                    -5.36015   2.77192  -0.62133 
 1                     10.15476  -0.35779  -2.67656 
 1                     15.21099  -0.69655   0.09667 
 1                     8.30731   2.0097   -0.61246 
 1                    -2.5927    4.39204   0.38527 
 1                    -2.34234   4.04067  -1.33385 
 1                    -3.80603   4.49258  -0.73406 
 1                    -2.65406   0.66302   0.05581 
 1                     6.76605  -1.87866   0.71749 
 1                     8.17802  -1.79953  -0.27464 
 1                     8.51353  -1.28064   1.32892 
 1                     5.94706   1.61335  -0.18414 
 1                    -0.42701   2.91361  -0.52642 
 1                     5.00119  -0.95302   0.25808 
 1                    -0.40303  -0.18544   0.00173 
 1                     3.78007   1.8109   -0.12665 
 1                     1.49575   2.29035  -0.27015 
 1                     1.37452  -1.64397   0.32494 
 1                     2.61178  -1.74757  -0.64465 
 1                     2.91193  -1.56278   1.13613 
 
 Stoichiometry    C40H56O4
 Framework group  C1[X(C40H56O4)]
 Deg. of freedom   294
 Full point group                 C1      NOp   1
 Largest Abelian subgroup         C1      NOp   1
 Largest concise Abelian subgroup C1      NOp   1
                         Standard orientation:                         
 ---------------------------------------------------------------------
 Center     Atomic      Atomic             Coordinates (Angstroms)
 Number     Number       Type             X           Y           Z
 ---------------------------------------------------------------------
      1          8           0      -11.582212    0.169221   -1.672455
      2          8           0      -12.943703   -2.310269    1.449686
      3          8           0       10.427274   -1.425322   -1.834431
      4          8           0       14.434310   -0.912552   -0.350384
      5          6           0      -11.001974   -0.104338   -0.352516
      6          6           0      -11.586584   -1.266254   -1.175419
      7          6           0      -11.872144    0.440576    0.822539
      8          6           0      -12.949701   -1.847797   -0.871731
      9          6           0      -13.346660   -0.049372    0.815177
     10          6           0      -13.506037   -1.531542    0.523081
     11          6           0      -10.765638   -2.143804   -2.113757
     12          6           0       -9.494526    0.128271   -0.359570
     13          6           0      -11.245766    0.176372    2.175384
     14          6           0      -11.891257    1.900327    0.620523
     15          6           0       -8.597156   -0.659178    0.206862
     16          6           0       -7.139669   -0.503363    0.357028
     17          6           0       -6.371532   -1.662876    0.862885
     18          6           0       -6.428684    0.621987    0.022218
     19          6           0       -5.098624    0.889343   -0.192695
     20          6           0       12.007770    0.193509    1.229414
     21          6           0       11.486234   -0.800191   -1.179225
     22          6           0       12.782156   -1.031935    1.543805
     23          6           0       13.436002   -1.724910    0.264283
     24          6           0       12.423051   -1.954877   -0.815398
     25          6           0       11.032637    0.024174    0.083437
     26          6           0       11.101677    0.537756    2.483408
     27          6           0       12.991006    1.401926    1.122273
     28          6           0       12.192219    0.125940   -2.213835
     29          6           0       -4.622410    2.143241   -0.475842
     30          6           0        9.832733    0.515755   -0.028295
     31          6           0       -3.291628    2.469234   -0.559100
     32          6           0        8.562879    0.990870   -0.216237
     33          6           0       -2.916308    3.878686   -0.906632
     34          6           0       -2.323617    1.583873   -0.253561
     35          6           0        7.475973    0.209385    0.192565
     36          6           0        7.662898   -1.199154    0.688311
     37          6           0        6.214108    0.712256   -0.044290
     38          6           0       -0.967091    1.818167   -0.400861
     39          6           0        4.921570    0.026299    0.114103
     40          6           0       -0.036402    0.845941   -0.179127
     41          6           0        3.740014    0.822217   -0.017569
     42          6           0        1.388675    1.121656   -0.177631
     43          6           0        2.453828    0.211945   -0.050818
     44          6           0        2.267382   -1.192251    0.325253
     45          1           0      -12.772544   -2.917153   -0.963974
     46          1           0      -13.651254   -1.884208   -1.701481
     47          1           0      -13.752995    0.383889    1.740133
     48          1           0      -13.841720    0.399005    0.004271
     49          1           0      -14.580037   -1.566868    0.611396
     50          1           0      -10.777528   -3.157531   -1.554267
     51          1           0      -11.321126   -2.249363   -2.954517
     52          1           0       -9.738348   -1.937363   -2.137277
     53          1           0       -9.298550    1.144160   -0.703116
     54          1           0      -10.454768    0.561037    2.286798
     55          1           0      -11.828958    0.513018    3.057015
     56          1           0      -11.020499   -0.861112    2.390596
     57          1           0      -12.222444    2.177584   -0.371232
     58          1           0      -12.420417    2.450815    1.475767
     59          1           0      -10.850793    2.310576    0.550516
     60          1           0      -12.004970   -2.223541    1.417388
     61          1           0       -8.932682   -1.540572    0.537476
     62          1           0       -5.396982   -1.970516   -0.002461
     63          1           0       -5.890993   -1.474926    1.797709
     64          1           0       -7.116164   -2.426079    1.137337
     65          1           0       -7.014108    1.704835   -0.432835
     66          1           0       -4.332700    0.144883    0.162437
     67          1           0       13.281119   -1.049796    2.595547
     68          1           0       11.987955   -1.800725    1.842207
     69          1           0       13.961519   -2.799338    0.402151
     70          1           0       12.945232   -2.395584   -1.578598
     71          1           0       11.583528   -2.798085   -0.522081
     72          1           0       11.621828    0.624050    3.523062
     73          1           0       10.529379    1.422960    2.402338
     74          1           0       10.352988   -0.413987    2.692276
     75          1           0       13.631699    1.330364    0.156044
     76          1           0       12.486636    2.298262    0.624242
     77          1           0       13.308924    1.567136    2.114759
     78          1           0       12.473466   -0.348668   -3.164132
     79          1           0       11.518661    0.807314   -2.623910
     80          1           0       13.064607    0.552407   -1.842508
     81          1           0       -5.360405    2.708358   -0.853094
     82          1           0       10.155226   -0.581357   -2.634760
     83          1           0       15.211487   -0.681955    0.157226
     84          1           0        8.307223    1.952673   -0.779446
     85          1           0       -2.593336    4.408809    0.012105
     86          1           0       -2.342866    3.912593   -1.670912
     87          1           0       -3.806660    4.413540   -1.111727
     88          1           0       -2.653860    0.665270    0.000923
     89          1           0        6.766791   -1.808857    0.876326
     90          1           0        8.178766   -1.814072   -0.118942
     91          1           0        8.514131   -1.160629    1.434682
     92          1           0        5.947050    1.593650   -0.318975
     93          1           0       -0.427304    2.858689   -0.770577
     94          1           0        5.001733   -0.926028    0.339866
     95          1           0       -0.402647   -0.184218    0.019183
     96          1           0        3.780013    1.794896   -0.278494
     97          1           0        1.495589    2.259911   -0.462237
     98          1           0        1.375214   -1.609590    0.465242
     99          1           0        2.612521   -1.794988   -0.492031
    100          1           0        2.912593   -1.459378    1.266585
 ---------------------------------------------------------------------
 Rotational constants (GHZ):           0.2681785           0.0089026           0.0088252
 Standard basis: 6-31G(d,p) (6D, 7F)
 There are   940 symmetry adapted cartesian basis functions of A   symmetry.
 There are   940 symmetry adapted basis functions of A   symmetry.
   940 basis functions,  1624 primitive gaussians,   940 cartesian basis functions
   164 alpha electrons      164 beta electrons
       nuclear repulsion energy      4462.3884693847 Hartrees.
 NAtoms=  100 NActive=  100 NUniq=  100 SFac= 1.00D+00 NAtFMM=   60 NAOKFM=T Big=T
 Integral buffers will be    131072 words long.
 Raffenetti 1 integral format.
 Two-electron integral symmetry is turned on.
 One-electron integrals computed using PRISM.
 NBasis=   940 RedAO= T EigKep=  4.00D-04  NBF=   940
 NBsUse=   940 1.00D-06 EigRej= -1.00D+00 NBFU=   940
 ExpMin= 1.61D-01 ExpMax= 5.48D+03 ExpMxC= 8.25D+02 IAcc=3 IRadAn=         5 AccDes= 0.00D+00
 Harris functional with IExCor=20419 and IRadAn=       5 diagonalized for initial guess.
 HarFok:  IExCor=20419 AccDes= 0.00D+00 IRadAn=         5 IDoV= 1 UseB2=F ITyADJ=14
 ICtDFT=  3500011 ScaDFX=  1.000000  1.000000  1.000000  1.000000
 FoFCou: FMM=F IPFlag=           0 FMFlag=      100000 FMFlg1=        2001
         NFxFlg=           0 DoJE=T BraDBF=F KetDBF=T FulRan=T
         wScrn=  0.000000 ICntrl=       500 IOpCl=  0 I1Cent=   200000004 NGrid=           0
         NMat0=    1 NMatS0=      1 NMatT0=    0 NMatD0=    1 NMtDS0=    0 NMtDT0=    0
 Petite list used in FoFCou.
 Requested convergence on RMS density matrix=1.00D-08 within 128 cycles.
 Requested convergence on MAX density matrix=1.00D-06.
 Requested convergence on             energy=1.00D-06.
 No special actions if energy rises.
 Integral accuracy reduced to 1.0D-05 until final iterations.
 Initial convergence to 1.0D-05 achieved.  Increase integral accuracy.
 SCF Done:  E(RCAM-B3LYP) =  -1857.26160462     A.U. after   15 cycles
            NFock= 15  Conv=0.78D-08     -V/T= 2.0087
 DoSCS=F DFT=T ScalE2(SS,OS)=  1.000000  1.000000
 ExpMin= 1.61D-01 ExpMax= 5.48D+03 ExpMxC= 8.25D+02 IAcc=3 IRadAn=         5 AccDes= 0.00D+00
 HarFok:  IExCor=  205 AccDes= 0.00D+00 IRadAn=         5 IDoV=-2 UseB2=F ITyADJ=14
 ICtDFT= 12500011 ScaDFX=  1.000000  1.000000  1.000000  1.000000
 GSVD:  LWork=       -2288 too small for GESVD, short by       10340 words or       10340 for optimal perf.
 Range of M.O.s used for correlation:    45   940
 NBasis=   940 NAE=   164 NBE=   164 NFC=    44 NFV=     0
 NROrb=    896 NOA=   120 NOB=   120 NVA=   776 NVB=   776
 Orbital symmetries:
       Occupied  (A) (A) (A) (A) (A) (A) (A) (A) (A) (A) (A) (A)
                 (A) (A) (A) (A) (A) (A) (A) (A) (A) (A) (A) (A)
                 (A) (A) (A) (A) (A) (A) (A) (A) (A) (A) (A) (A)
                 (A) (A) (A) (A) (A) (A) (A) (A) (A) (A) (A) (A)
                 (A) (A) (A) (A) (A) (A) (A) (A) (A) (A) (A) (A)
                 (A) (A) (A) (A) (A) (A) (A) (A) (A) (A) (A) (A)
                 (A) (A) (A) (A) (A) (A) (A) (A) (A) (A) (A) (A)
                 (A) (A) (A) (A) (A) (A) (A) (A) (A) (A) (A) (A)
                 (A) (A) (A) (A) (A) (A) (A) (A) (A) (A) (A) (A)
                 (A) (A) (A) (A) (A) (A) (A) (A) (A) (A) (A) (A)
                 (A) (A) (A) (A) (A) (A) (A) (A) (A) (A) (A) (A)
                 (A) (A) (A) (A) (A) (A) (A) (A) (A) (A) (A) (A)
                 (A) (A) (A) (A) (A) (A) (A) (A) (A) (A) (A) (A)
                 (A) (A) (A) (A) (A) (A) (A) (A)
       Virtual   (A) (A) (A) (A) (A) (A) (A) (A) (A) (A) (A) (A)
                 (A) (A) (A) (A) (A) (A) (A) (A) (A) (A) (A) (A)
                 (A) (A) (A) (A) (A) (A) (A) (A) (A) (A) (A) (A)
                 (A) (A) (A) (A) (A) (A) (A) (A) (A) (A) (A) (A)
                 (A) (A) (A) (A) (A) (A) (A) (A) (A) (A) (A) (A)
                 (A) (A) (A) (A) (A) (A) (A) (A) (A) (A) (A) (A)
                 (A) (A) (A) (A) (A) (A) (A) (A) (A) (A) (A) (A)
                 (A) (A) (A) (A) (A) (A) (A) (A) (A) (A) (A) (A)
                 (A) (A) (A) (A) (A) (A) (A) (A) (A) (A) (A) (A)
                 (A) (A) (A) (A) (A) (A) (A) (A) (A) (A) (A) (A)
                 (A) (A) (A) (A) (A) (A) (A) (A) (A) (A) (A) (A)
                 (A) (A) (A) (A) (A) (A) (A) (A) (A) (A) (A) (A)
                 (A) (A) (A) (A) (A) (A) (A) (A) (A) (A) (A) (A)
                 (A) (A) (A) (A) (A) (A) (A) (A) (A) (A) (A) (A)
                 (A) (A) (A) (A) (A) (A) (A) (A) (A) (A) (A) (A)
                 (A) (A) (A) (A) (A) (A) (A) (A) (A) (A) (A) (A)
                 (A) (A) (A) (A) (A) (A) (A) (A) (A) (A) (A) (A)
                 (A) (A) (A) (A) (A) (A) (A) (A) (A) (A) (A) (A)
                 (A) (A) (A) (A) (A) (A) (A) (A) (A) (A) (A) (A)
                 (A) (A) (A) (A) (A) (A) (A) (A) (A) (A) (A) (A)
                 (A) (A) (A) (A) (A) (A) (A) (A) (A) (A) (A) (A)
                 (A) (A) (A) (A) (A) (A) (A) (A) (A) (A) (A) (A)
                 (A) (A) (A) (A) (A) (A) (A) (A) (A) (A) (A) (A)
                 (A) (A) (A) (A) (A) (A) (A) (A) (A) (A) (A) (A)
                 (A) (A) (A) (A) (A) (A) (A) (A) (A) (A) (A) (A)
                 (A) (A) (A) (A) (A) (A) (A) (A) (A) (A) (A) (A)
                 (A) (A) (A) (A) (A) (A) (A) (A) (A) (A) (A) (A)
                 (A) (A) (A) (A) (A) (A) (A) (A) (A) (A) (A) (A)
                 (A) (A) (A) (A) (A) (A) (A) (A) (A) (A) (A) (A)
                 (A) (A) (A) (A) (A) (A) (A) (A) (A) (A) (A) (A)
                 (A) (A) (A) (A) (A) (A) (A) (A) (A) (A) (A) (A)
                 (A) (A) (A) (A) (A) (A) (A) (A) (A) (A) (A) (A)
                 (A) (A) (A) (A) (A) (A) (A) (A) (A) (A) (A) (A)
                 (A) (A) (A) (A) (A) (A) (A) (A) (A) (A) (A) (A)
                 (A) (A) (A) (A) (A) (A) (A) (A) (A) (A) (A) (A)
                 (A) (A) (A) (A) (A) (A) (A) (A) (A) (A) (A) (A)
                 (A) (A) (A) (A) (A) (A) (A) (A) (A) (A) (A) (A)
                 (A) (A) (A) (A) (A) (A) (A) (A) (A) (A) (A) (A)
                 (A) (A) (A) (A) (A) (A) (A) (A) (A) (A) (A) (A)
                 (A) (A) (A) (A) (A) (A) (A) (A) (A) (A) (A) (A)
                 (A) (A) (A) (A) (A) (A) (A) (A) (A) (A) (A) (A)
                 (A) (A) (A) (A) (A) (A) (A) (A) (A) (A) (A) (A)
                 (A) (A) (A) (A) (A) (A) (A) (A) (A) (A) (A) (A)
                 (A) (A) (A) (A) (A) (A) (A) (A) (A) (A) (A) (A)
                 (A) (A) (A) (A) (A) (A) (A) (A) (A) (A) (A) (A)
                 (A) (A) (A) (A) (A) (A) (A) (A) (A) (A) (A) (A)
                 (A) (A) (A) (A) (A) (A) (A) (A) (A) (A) (A) (A)
                 (A) (A) (A) (A) (A) (A) (A) (A) (A) (A) (A) (A)
                 (A) (A) (A) (A) (A) (A) (A) (A) (A) (A) (A) (A)
                 (A) (A) (A) (A) (A) (A) (A) (A) (A) (A) (A) (A)
                 (A) (A) (A) (A) (A) (A) (A) (A) (A) (A) (A) (A)
                 (A) (A) (A) (A) (A) (A) (A) (A) (A) (A) (A) (A)
                 (A) (A) (A) (A) (A) (A) (A) (A) (A) (A) (A) (A)
                 (A) (A) (A) (A) (A) (A) (A) (A) (A) (A) (A) (A)
                 (A) (A) (A) (A) (A) (A) (A) (A) (A) (A) (A) (A)
                 (A) (A) (A) (A) (A) (A) (A) (A) (A) (A) (A) (A)
                 (A) (A) (A) (A) (A) (A) (A) (A) (A) (A) (A) (A)
                 (A) (A) (A) (A) (A) (A) (A) (A) (A) (A) (A) (A)
                 (A) (A) (A) (A) (A) (A) (A) (A) (A) (A) (A) (A)
                 (A) (A) (A) (A) (A) (A) (A) (A) (A) (A) (A) (A)
                 (A) (A) (A) (A) (A) (A) (A) (A) (A) (A) (A) (A)
                 (A) (A) (A) (A) (A) (A) (A) (A) (A) (A) (A) (A)
                 (A) (A) (A) (A) (A) (A) (A) (A) (A) (A) (A) (A)
                 (A) (A) (A) (A) (A) (A) (A) (A) (A) (A) (A) (A)
                 (A) (A) (A) (A) (A) (A) (A) (A)
     4 initial guesses have been made.
 Convergence on wavefunction:    0.001000000000000
 Iteration     1 Dimension     4 NMult     0 NNew      4
 CISAX will form     4 AO SS matrices at one time.
 Iteration     2 Dimension     6 NMult     4 NNew      2
 Iteration     3 Dimension     8 NMult     6 NNew      2
 Iteration     4 Dimension    10 NMult     8 NNew      2
 Iteration     5 Dimension    12 NMult    10 NNew      2
 Iteration     6 Dimension    14 NMult    12 NNew      2
 ***********************************************************************
 Excited states from <AA,BB:AA,BB> singles matrix:
 ***********************************************************************
 
 Ground to excited state transition densities written to RWF  633
 Ground to excited state transition electric dipole moments (Au):
       state          X           Y           Z        Dip. S.      Osc.
         1         7.6140     -0.1372      0.1039     58.0030      3.0558
 Ground to excited state transition velocity dipole moments (Au):
       state          X           Y           Z        Dip. S.      Osc.
         1        -0.5830      0.0083     -0.0097      0.3400      2.8686
 Ground to excited state transition magnetic dipole moments (Au):
       state          X           Y           Z
         1         0.0137      0.3823      2.3852
 Ground to excited state transition velocity quadrupole moments (Au):
       state          XX          YY          ZZ          XY          XZ          YZ
         1         0.1138      0.1984     -0.0083      0.3615     -0.0540     -0.0391
 <0|del|b> * <b|rxdel|0> + <0|del|b> * <b|delr+rdel|0>
 Rotatory Strengths (R) in cgs (10**-40 erg-esu-cm/Gauss)
       state          XX          YY          ZZ    R(velocity)    E-M Angle
         1      -102.4069    -21.1087   -125.7691    -83.0949       91.13
 1/2[<0|r|b>*<b|rxdel|0> + (<0|rxdel|b>*<b|r|0>)*]
 Rotatory Strengths (R) in cgs (10**-40 erg-esu-cm/Gauss)
       state          XX          YY          ZZ     R(length)
         1       -73.9818     37.0880   -175.2512    -70.7150
  1/2[<0|del|b>*<b|r|0> + (<0|r|b>*<b|del|0>)*] (Au)
       state          X           Y           Z        Dip. S.   Osc.(frdel)
         1        -4.4389     -0.0011     -0.0010      4.4410      2.9607

 Excitation energies and oscillator strengths:
 
 Excited State   1:      Singlet-A      2.1504 eV  576.57 nm  f=3.0558  <S**2>=0.000
     163 ->166         0.14676
     164 ->165         0.69092
 This state for optimization and/or second-order correction.
 Total Energy, E(TD-HF/TD-DFT) =  -1857.18257943    
 Copying the excited state density for this state as the 1-particle RhoCI density.
 SavETr:  write IOETrn=   770 NScale= 10 NData=  16 NLR=1 NState=    1 LETran=      28.

 **********************************************************************

            Population analysis using the SCF density.

 **********************************************************************

 Orbital symmetries:
       Occupied  (A) (A) (A) (A) (A) (A) (A) (A) (A) (A) (A) (A)
                 (A) (A) (A) (A) (A) (A) (A) (A) (A) (A) (A) (A)
                 (A) (A) (A) (A) (A) (A) (A) (A) (A) (A) (A) (A)
                 (A) (A) (A) (A) (A) (A) (A) (A) (A) (A) (A) (A)
                 (A) (A) (A) (A) (A) (A) (A) (A) (A) (A) (A) (A)
                 (A) (A) (A) (A) (A) (A) (A) (A) (A) (A) (A) (A)
                 (A) (A) (A) (A) (A) (A) (A) (A) (A) (A) (A) (A)
                 (A) (A) (A) (A) (A) (A) (A) (A) (A) (A) (A) (A)
                 (A) (A) (A) (A) (A) (A) (A) (A) (A) (A) (A) (A)
                 (A) (A) (A) (A) (A) (A) (A) (A) (A) (A) (A) (A)
                 (A) (A) (A) (A) (A) (A) (A) (A) (A) (A) (A) (A)
                 (A) (A) (A) (A) (A) (A) (A) (A) (A) (A) (A) (A)
                 (A) (A) (A) (A) (A) (A) (A) (A) (A) (A) (A) (A)
                 (A) (A) (A) (A) (A) (A) (A) (A)
       Virtual   (A) (A) (A) (A) (A) (A) (A) (A) (A) (A) (A) (A)
                 (A) (A) (A) (A) (A) (A) (A) (A) (A) (A) (A) (A)
                 (A) (A) (A) (A) (A) (A) (A) (A) (A) (A) (A) (A)
                 (A) (A) (A) (A) (A) (A) (A) (A) (A) (A) (A) (A)
                 (A) (A) (A) (A) (A) (A) (A) (A) (A) (A) (A) (A)
                 (A) (A) (A) (A) (A) (A) (A) (A) (A) (A) (A) (A)
                 (A) (A) (A) (A) (A) (A) (A) (A) (A) (A) (A) (A)
                 (A) (A) (A) (A) (A) (A) (A) (A) (A) (A) (A) (A)
                 (A) (A) (A) (A) (A) (A) (A) (A) (A) (A) (A) (A)
                 (A) (A) (A) (A) (A) (A) (A) (A) (A) (A) (A) (A)
                 (A) (A) (A) (A) (A) (A) (A) (A) (A) (A) (A) (A)
                 (A) (A) (A) (A) (A) (A) (A) (A) (A) (A) (A) (A)
                 (A) (A) (A) (A) (A) (A) (A) (A) (A) (A) (A) (A)
                 (A) (A) (A) (A) (A) (A) (A) (A) (A) (A) (A) (A)
                 (A) (A) (A) (A) (A) (A) (A) (A) (A) (A) (A) (A)
                 (A) (A) (A) (A) (A) (A) (A) (A) (A) (A) (A) (A)
                 (A) (A) (A) (A) (A) (A) (A) (A) (A) (A) (A) (A)
                 (A) (A) (A) (A) (A) (A) (A) (A) (A) (A) (A) (A)
                 (A) (A) (A) (A) (A) (A) (A) (A) (A) (A) (A) (A)
                 (A) (A) (A) (A) (A) (A) (A) (A) (A) (A) (A) (A)
                 (A) (A) (A) (A) (A) (A) (A) (A) (A) (A) (A) (A)
                 (A) (A) (A) (A) (A) (A) (A) (A) (A) (A) (A) (A)
                 (A) (A) (A) (A) (A) (A) (A) (A) (A) (A) (A) (A)
                 (A) (A) (A) (A) (A) (A) (A) (A) (A) (A) (A) (A)
                 (A) (A) (A) (A) (A) (A) (A) (A) (A) (A) (A) (A)
                 (A) (A) (A) (A) (A) (A) (A) (A) (A) (A) (A) (A)
                 (A) (A) (A) (A) (A) (A) (A) (A) (A) (A) (A) (A)
                 (A) (A) (A) (A) (A) (A) (A) (A) (A) (A) (A) (A)
                 (A) (A) (A) (A) (A) (A) (A) (A) (A) (A) (A) (A)
                 (A) (A) (A) (A) (A) (A) (A) (A) (A) (A) (A) (A)
                 (A) (A) (A) (A) (A) (A) (A) (A) (A) (A) (A) (A)
                 (A) (A) (A) (A) (A) (A) (A) (A) (A) (A) (A) (A)
                 (A) (A) (A) (A) (A) (A) (A) (A) (A) (A) (A) (A)
                 (A) (A) (A) (A) (A) (A) (A) (A) (A) (A) (A) (A)
                 (A) (A) (A) (A) (A) (A) (A) (A) (A) (A) (A) (A)
                 (A) (A) (A) (A) (A) (A) (A) (A) (A) (A) (A) (A)
                 (A) (A) (A) (A) (A) (A) (A) (A) (A) (A) (A) (A)
                 (A) (A) (A) (A) (A) (A) (A) (A) (A) (A) (A) (A)
                 (A) (A) (A) (A) (A) (A) (A) (A) (A) (A) (A) (A)
                 (A) (A) (A) (A) (A) (A) (A) (A) (A) (A) (A) (A)
                 (A) (A) (A) (A) (A) (A) (A) (A) (A) (A) (A) (A)
                 (A) (A) (A) (A) (A) (A) (A) (A) (A) (A) (A) (A)
                 (A) (A) (A) (A) (A) (A) (A) (A) (A) (A) (A) (A)
                 (A) (A) (A) (A) (A) (A) (A) (A) (A) (A) (A) (A)
                 (A) (A) (A) (A) (A) (A) (A) (A) (A) (A) (A) (A)
                 (A) (A) (A) (A) (A) (A) (A) (A) (A) (A) (A) (A)
                 (A) (A) (A) (A) (A) (A) (A) (A) (A) (A) (A) (A)
                 (A) (A) (A) (A) (A) (A) (A) (A) (A) (A) (A) (A)
                 (A) (A) (A) (A) (A) (A) (A) (A) (A) (A) (A) (A)
                 (A) (A) (A) (A) (A) (A) (A) (A) (A) (A) (A) (A)
                 (A) (A) (A) (A) (A) (A) (A) (A) (A) (A) (A) (A)
                 (A) (A) (A) (A) (A) (A) (A) (A) (A) (A) (A) (A)
                 (A) (A) (A) (A) (A) (A) (A) (A) (A) (A) (A) (A)
                 (A) (A) (A) (A) (A) (A) (A) (A) (A) (A) (A) (A)
                 (A) (A) (A) (A) (A) (A) (A) (A) (A) (A) (A) (A)
                 (A) (A) (A) (A) (A) (A) (A) (A) (A) (A) (A) (A)
                 (A) (A) (A) (A) (A) (A) (A) (A) (A) (A) (A) (A)
                 (A) (A) (A) (A) (A) (A) (A) (A) (A) (A) (A) (A)
                 (A) (A) (A) (A) (A) (A) (A) (A) (A) (A) (A) (A)
                 (A) (A) (A) (A) (A) (A) (A) (A) (A) (A) (A) (A)
                 (A) (A) (A) (A) (A) (A) (A) (A) (A) (A) (A) (A)
                 (A) (A) (A) (A) (A) (A) (A) (A) (A) (A) (A) (A)
                 (A) (A) (A) (A) (A) (A) (A) (A) (A) (A) (A) (A)
                 (A) (A) (A) (A) (A) (A) (A) (A) (A) (A) (A) (A)
                 (A) (A) (A) (A) (A) (A) (A) (A)
 The electronic state is 1-A.
 Alpha  occ. eigenvalues --  -19.22958 -19.21349 -19.20922 -19.20709 -10.32834
 Alpha  occ. eigenvalues --  -10.32224 -10.32107 -10.31933 -10.29800 -10.28603
 Alpha  occ. eigenvalues --  -10.27598 -10.27556 -10.27397 -10.27377 -10.27303
 Alpha  occ. eigenvalues --  -10.27196 -10.27183 -10.27099 -10.27065 -10.27001
 Alpha  occ. eigenvalues --  -10.26958 -10.26568 -10.26546 -10.26290 -10.26270
 Alpha  occ. eigenvalues --  -10.25992 -10.25971 -10.25886 -10.25783 -10.25626
 Alpha  occ. eigenvalues --  -10.25430 -10.25353 -10.25231 -10.25180 -10.25174
 Alpha  occ. eigenvalues --  -10.25093 -10.24667 -10.24637 -10.23974 -10.23833
 Alpha  occ. eigenvalues --  -10.23819 -10.23495 -10.23479 -10.22368  -1.12771
 Alpha  occ. eigenvalues --   -1.10640  -1.09769  -1.08760  -0.93577  -0.92911
 Alpha  occ. eigenvalues --   -0.91750  -0.91473  -0.90756  -0.90345  -0.87780
 Alpha  occ. eigenvalues --   -0.86912  -0.85718  -0.85493  -0.84785  -0.83064
 Alpha  occ. eigenvalues --   -0.82522  -0.81713  -0.80063  -0.79338  -0.77731
 Alpha  occ. eigenvalues --   -0.77266  -0.76846  -0.76400  -0.76243  -0.76134
 Alpha  occ. eigenvalues --   -0.74795  -0.73695  -0.73091  -0.70923  -0.70447
 Alpha  occ. eigenvalues --   -0.68925  -0.67470  -0.65952  -0.64595  -0.63773
 Alpha  occ. eigenvalues --   -0.63565  -0.63499  -0.61883  -0.61065  -0.60201
 Alpha  occ. eigenvalues --   -0.59221  -0.58818  -0.57872  -0.57359  -0.56200
 Alpha  occ. eigenvalues --   -0.55590  -0.55148  -0.55093  -0.54834  -0.54628
 Alpha  occ. eigenvalues --   -0.53818  -0.53714  -0.53320  -0.52939  -0.52472
 Alpha  occ. eigenvalues --   -0.51462  -0.51181  -0.50805  -0.50455  -0.50342
 Alpha  occ. eigenvalues --   -0.49909  -0.49568  -0.49289  -0.48675  -0.48517
 Alpha  occ. eigenvalues --   -0.48254  -0.47834  -0.47574  -0.46813  -0.46768
 Alpha  occ. eigenvalues --   -0.46470  -0.46132  -0.46065  -0.45779  -0.45204
 Alpha  occ. eigenvalues --   -0.44907  -0.44662  -0.44562  -0.44169  -0.44051
 Alpha  occ. eigenvalues --   -0.44028  -0.43694  -0.42924  -0.42540  -0.42230
 Alpha  occ. eigenvalues --   -0.42193  -0.41783  -0.41322  -0.41268  -0.41251
 Alpha  occ. eigenvalues --   -0.41010  -0.40784  -0.40624  -0.40480  -0.40261
 Alpha  occ. eigenvalues --   -0.40210  -0.39582  -0.38859  -0.38760  -0.38586
 Alpha  occ. eigenvalues --   -0.37943  -0.37553  -0.37279  -0.37019  -0.36672
 Alpha  occ. eigenvalues --   -0.36421  -0.35878  -0.34754  -0.34528  -0.33852
 Alpha  occ. eigenvalues --   -0.32979  -0.31835  -0.31494  -0.31142  -0.30576
 Alpha  occ. eigenvalues --   -0.30142  -0.27871  -0.23609  -0.19428
 Alpha virt. eigenvalues --   -0.05851  -0.00913   0.03710   0.06312   0.07060
 Alpha virt. eigenvalues --    0.07552   0.10017   0.10431   0.10949   0.11430
 Alpha virt. eigenvalues --    0.12034   0.12511   0.12871   0.13069   0.13640
 Alpha virt. eigenvalues --    0.14300   0.14581   0.15096   0.15132   0.15464
 Alpha virt. eigenvalues --    0.15652   0.16180   0.17071   0.17215   0.17444
 Alpha virt. eigenvalues --    0.17664   0.17762   0.17977   0.18394   0.18508
 Alpha virt. eigenvalues --    0.18793   0.18936   0.19012   0.19603   0.19725
 Alpha virt. eigenvalues --    0.20068   0.20145   0.20411   0.20612   0.21515
 Alpha virt. eigenvalues --    0.21561   0.22072   0.22157   0.22493   0.22533
 Alpha virt. eigenvalues --    0.22808   0.22937   0.23157   0.23402   0.23476
 Alpha virt. eigenvalues --    0.23865   0.24045   0.24320   0.24692   0.24864
 Alpha virt. eigenvalues --    0.24965   0.25273   0.25933   0.26194   0.26709
 Alpha virt. eigenvalues --    0.26841   0.27119   0.27234   0.27508   0.27687
 Alpha virt. eigenvalues --    0.28039   0.28502   0.28794   0.28967   0.29320
 Alpha virt. eigenvalues --    0.29455   0.29559   0.29737   0.30024   0.30462
 Alpha virt. eigenvalues --    0.30743   0.31106   0.31441   0.31766   0.31892
 Alpha virt. eigenvalues --    0.32216   0.32870   0.33703   0.33918   0.34073
 Alpha virt. eigenvalues --    0.34508   0.35063   0.35619   0.36783   0.38236
 Alpha virt. eigenvalues --    0.38300   0.38739   0.39404   0.39515   0.39971
 Alpha virt. eigenvalues --    0.40264   0.41299   0.41598   0.42417   0.43293
 Alpha virt. eigenvalues --    0.43675   0.44363   0.44852   0.46034   0.47151
 Alpha virt. eigenvalues --    0.48228   0.48952   0.49697   0.51660   0.52786
 Alpha virt. eigenvalues --    0.54655   0.55152   0.55690   0.55909   0.56323
 Alpha virt. eigenvalues --    0.56452   0.56649   0.57112   0.57723   0.57824
 Alpha virt. eigenvalues --    0.57895   0.58625   0.58937   0.59053   0.59832
 Alpha virt. eigenvalues --    0.60079   0.60554   0.60674   0.60699   0.60971
 Alpha virt. eigenvalues --    0.61736   0.61829   0.62115   0.62528   0.62764
 Alpha virt. eigenvalues --    0.62912   0.63263   0.63428   0.63987   0.64122
 Alpha virt. eigenvalues --    0.64466   0.64662   0.65047   0.65543   0.65756
 Alpha virt. eigenvalues --    0.66017   0.66091   0.66475   0.66836   0.67349
 Alpha virt. eigenvalues --    0.67545   0.67563   0.67924   0.68220   0.68596
 Alpha virt. eigenvalues --    0.68882   0.69160   0.69560   0.69654   0.69935
 Alpha virt. eigenvalues --    0.70438   0.71228   0.71844   0.71970   0.72288
 Alpha virt. eigenvalues --    0.72599   0.73030   0.73458   0.73550   0.73982
 Alpha virt. eigenvalues --    0.74947   0.75269   0.75372   0.75963   0.76105
 Alpha virt. eigenvalues --    0.76503   0.76933   0.77518   0.77762   0.78475
 Alpha virt. eigenvalues --    0.78575   0.79045   0.79651   0.79770   0.80191
 Alpha virt. eigenvalues --    0.80538   0.80947   0.81177   0.81751   0.82150
 Alpha virt. eigenvalues --    0.82211   0.82286   0.82651   0.83266   0.83606
 Alpha virt. eigenvalues --    0.83838   0.83943   0.84146   0.84418   0.84577
 Alpha virt. eigenvalues --    0.85374   0.85425   0.85736   0.85851   0.86318
 Alpha virt. eigenvalues --    0.87010   0.87717   0.87912   0.88362   0.88950
 Alpha virt. eigenvalues --    0.89054   0.89733   0.90004   0.90185   0.90947
 Alpha virt. eigenvalues --    0.91232   0.91374   0.91870   0.92096   0.92353
 Alpha virt. eigenvalues --    0.92552   0.92804   0.93190   0.93405   0.93617
 Alpha virt. eigenvalues --    0.93971   0.94344   0.94620   0.94683   0.94809
 Alpha virt. eigenvalues --    0.95074   0.95143   0.95583   0.95777   0.96139
 Alpha virt. eigenvalues --    0.96504   0.96952   0.97292   0.97462   0.97544
 Alpha virt. eigenvalues --    0.98067   0.98437   0.98812   0.98940   0.99191
 Alpha virt. eigenvalues --    0.99634   0.99833   1.00084   1.00221   1.00776
 Alpha virt. eigenvalues --    1.00971   1.01253   1.01458   1.01891   1.01981
 Alpha virt. eigenvalues --    1.02545   1.03197   1.03898   1.04014   1.04682
 Alpha virt. eigenvalues --    1.05067   1.05150   1.05412   1.05968   1.06397
 Alpha virt. eigenvalues --    1.06809   1.07172   1.08067   1.08209   1.08899
 Alpha virt. eigenvalues --    1.09242   1.09663   1.09791   1.09909   1.10428
 Alpha virt. eigenvalues --    1.10808   1.11187   1.11705   1.12155   1.12388
 Alpha virt. eigenvalues --    1.13150   1.13396   1.14126   1.14906   1.15623
 Alpha virt. eigenvalues --    1.16198   1.16755   1.17221   1.17494   1.18486
 Alpha virt. eigenvalues --    1.19009   1.19144   1.20104   1.20171   1.21010
 Alpha virt. eigenvalues --    1.21351   1.21641   1.21900   1.23039   1.24005
 Alpha virt. eigenvalues --    1.24846   1.25652   1.25794   1.26937   1.27373
 Alpha virt. eigenvalues --    1.28147   1.29133   1.29822   1.30393   1.30857
 Alpha virt. eigenvalues --    1.31432   1.32598   1.32882   1.35035   1.35574
 Alpha virt. eigenvalues --    1.36102   1.36639   1.37015   1.37472   1.37699
 Alpha virt. eigenvalues --    1.38212   1.38945   1.40226   1.40783   1.41154
 Alpha virt. eigenvalues --    1.41373   1.42163   1.42758   1.43098   1.44044
 Alpha virt. eigenvalues --    1.44898   1.45238   1.47151   1.47173   1.47452
 Alpha virt. eigenvalues --    1.49044   1.49899   1.50718   1.51439   1.51690
 Alpha virt. eigenvalues --    1.52228   1.53429   1.53547   1.54203   1.54681
 Alpha virt. eigenvalues --    1.56192   1.56849   1.56990   1.57643   1.57983
 Alpha virt. eigenvalues --    1.58894   1.59305   1.60057   1.60623   1.60653
 Alpha virt. eigenvalues --    1.61310   1.62299   1.62486   1.62817   1.63502
 Alpha virt. eigenvalues --    1.64366   1.65238   1.66414   1.67171   1.68377
 Alpha virt. eigenvalues --    1.68600   1.69914   1.70134   1.71142   1.71631
 Alpha virt. eigenvalues --    1.72807   1.73079   1.73837   1.73981   1.75304
 Alpha virt. eigenvalues --    1.77328   1.78736   1.79400   1.79563   1.79824
 Alpha virt. eigenvalues --    1.80153   1.80911   1.81306   1.81755   1.81862
 Alpha virt. eigenvalues --    1.82695   1.83887   1.84048   1.84185   1.84541
 Alpha virt. eigenvalues --    1.84758   1.85215   1.85538   1.86481   1.87508
 Alpha virt. eigenvalues --    1.87662   1.87968   1.88081   1.88523   1.88829
 Alpha virt. eigenvalues --    1.88982   1.89607   1.90090   1.90639   1.90919
 Alpha virt. eigenvalues --    1.91822   1.91856   1.92461   1.92572   1.93197
 Alpha virt. eigenvalues --    1.93611   1.94105   1.94300   1.94703   1.95211
 Alpha virt. eigenvalues --    1.95547   1.95971   1.96235   1.96639   1.96778
 Alpha virt. eigenvalues --    1.97224   1.97476   1.97562   1.98092   1.99202
 Alpha virt. eigenvalues --    1.99434   1.99782   2.00298   2.00557   2.01347
 Alpha virt. eigenvalues --    2.01451   2.01649   2.02226   2.02753   2.03115
 Alpha virt. eigenvalues --    2.03643   2.03895   2.04294   2.04943   2.05358
 Alpha virt. eigenvalues --    2.05894   2.06475   2.06870   2.06963   2.07403
 Alpha virt. eigenvalues --    2.07979   2.08357   2.09120   2.09253   2.10235
 Alpha virt. eigenvalues --    2.10324   2.10562   2.10822   2.11144   2.12091
 Alpha virt. eigenvalues --    2.12544   2.12629   2.13220   2.13662   2.13957
 Alpha virt. eigenvalues --    2.14426   2.14470   2.14941   2.15119   2.15633
 Alpha virt. eigenvalues --    2.16366   2.16998   2.17431   2.18018   2.18234
 Alpha virt. eigenvalues --    2.18969   2.19239   2.19897   2.20411   2.21204
 Alpha virt. eigenvalues --    2.21818   2.21907   2.22215   2.22565   2.22723
 Alpha virt. eigenvalues --    2.23206   2.23542   2.23796   2.24267   2.25095
 Alpha virt. eigenvalues --    2.25662   2.26283   2.26901   2.27005   2.27386
 Alpha virt. eigenvalues --    2.27713   2.27745   2.27986   2.28287   2.29170
 Alpha virt. eigenvalues --    2.29471   2.29976   2.30358   2.30671   2.31074
 Alpha virt. eigenvalues --    2.31266   2.31747   2.32247   2.32461   2.32861
 Alpha virt. eigenvalues --    2.33107   2.33619   2.33796   2.34043   2.34391
 Alpha virt. eigenvalues --    2.35808   2.36379   2.37295   2.38107   2.38250
 Alpha virt. eigenvalues --    2.38786   2.38990   2.39331   2.39928   2.40372
 Alpha virt. eigenvalues --    2.40977   2.41541   2.41897   2.42300   2.42441
 Alpha virt. eigenvalues --    2.43046   2.43106   2.43307   2.43917   2.44331
 Alpha virt. eigenvalues --    2.44404   2.44991   2.45800   2.45904   2.47006
 Alpha virt. eigenvalues --    2.47588   2.47702   2.47840   2.48321   2.49142
 Alpha virt. eigenvalues --    2.49465   2.49682   2.50367   2.50803   2.50912
 Alpha virt. eigenvalues --    2.51334   2.51880   2.52139   2.52510   2.53022
 Alpha virt. eigenvalues --    2.53399   2.54045   2.54893   2.54998   2.55710
 Alpha virt. eigenvalues --    2.56628   2.56863   2.57042   2.57535   2.57684
 Alpha virt. eigenvalues --    2.58054   2.58661   2.58972   2.59401   2.60156
 Alpha virt. eigenvalues --    2.60846   2.61381   2.62047   2.62528   2.62734
 Alpha virt. eigenvalues --    2.63794   2.64098   2.64283   2.65291   2.65403
 Alpha virt. eigenvalues --    2.66222   2.67034   2.68093   2.68300   2.68894
 Alpha virt. eigenvalues --    2.69177   2.69591   2.70591   2.70759   2.71183
 Alpha virt. eigenvalues --    2.71312   2.71419   2.71976   2.72909   2.73479
 Alpha virt. eigenvalues --    2.73635   2.74135   2.74494   2.75235   2.75647
 Alpha virt. eigenvalues --    2.75831   2.76196   2.76848   2.77216   2.77584
 Alpha virt. eigenvalues --    2.78126   2.78371   2.79216   2.80150   2.80313
 Alpha virt. eigenvalues --    2.81081   2.82171   2.82382   2.82575   2.82791
 Alpha virt. eigenvalues --    2.83148   2.83412   2.84567   2.84985   2.85361
 Alpha virt. eigenvalues --    2.85608   2.85987   2.86123   2.86966   2.87452
 Alpha virt. eigenvalues --    2.87760   2.88198   2.88907   2.89011   2.89861
 Alpha virt. eigenvalues --    2.90387   2.90815   2.91314   2.91970   2.92180
 Alpha virt. eigenvalues --    2.92647   2.93256   2.93632   2.93931   2.94433
 Alpha virt. eigenvalues --    2.95111   2.95648   2.95948   2.96028   2.96685
 Alpha virt. eigenvalues --    2.97024   2.98408   2.98906   2.99205   3.00126
 Alpha virt. eigenvalues --    3.00420   3.01044   3.01431   3.02316   3.02803
 Alpha virt. eigenvalues --    3.03510   3.04533   3.04871   3.05654   3.05886
 Alpha virt. eigenvalues --    3.06099   3.08041   3.09740   3.09977   3.10368
 Alpha virt. eigenvalues --    3.11117   3.11669   3.12682   3.12885   3.13559
 Alpha virt. eigenvalues --    3.14780   3.15444   3.16287   3.17104   3.17840
 Alpha virt. eigenvalues --    3.19596   3.19737   3.21163   3.21540   3.24832
 Alpha virt. eigenvalues --    3.26576   3.27647   3.28063   3.29094   3.29767
 Alpha virt. eigenvalues --    3.29833   3.32556   3.32633   3.33249   3.34994
 Alpha virt. eigenvalues --    3.37393   3.37731   3.37950   3.38937   3.40708
 Alpha virt. eigenvalues --    3.41218   3.41714   3.41934   3.43774   3.44085
 Alpha virt. eigenvalues --    3.44400   3.45217   3.46486   3.48714   3.50146
 Alpha virt. eigenvalues --    3.51282   3.51339   3.52123   3.52325   3.54735
 Alpha virt. eigenvalues --    3.55351   3.56079   3.57642   3.58409   3.59100
 Alpha virt. eigenvalues --    3.60139   3.60525   3.61113   3.61525   3.62204
 Alpha virt. eigenvalues --    3.62416   3.62948   3.64848   3.64964   3.67113
 Alpha virt. eigenvalues --    3.67298   3.69492   3.71283   3.71386   3.78902
 Alpha virt. eigenvalues --    3.79317   3.80252   3.84783   3.86297   3.87238
 Alpha virt. eigenvalues --    4.00137   4.02979   4.04566   4.10444   4.16309
 Alpha virt. eigenvalues --    4.19208   4.19819   4.20896   4.23217   4.23383
 Alpha virt. eigenvalues --    4.24586   4.25465   4.28251   4.30945   4.33890
 Alpha virt. eigenvalues --    4.35560   4.36471   4.40246   4.44231   4.46113
 Alpha virt. eigenvalues --    4.47619   4.49606   4.50538   4.53589   4.53725
 Alpha virt. eigenvalues --    4.56322   4.58175   4.59287   4.60011   4.61762
 Alpha virt. eigenvalues --    4.64160   4.66505   4.71664   4.71798   4.73164
 Alpha virt. eigenvalues --    4.73757   4.78868   4.80354   4.81539   4.84527
 Alpha virt. eigenvalues --    4.86393   4.86988   4.88950   4.92452   4.94392
 Alpha virt. eigenvalues --    4.95818
          Condensed to atoms (all electrons):
 Mulliken charges:
               1
     1  O   -0.526052
     2  O   -0.514146
     3  O   -0.554110
     4  O   -0.554634
     5  C    0.181578
     6  C    0.200110
     7  C    0.005946
     8  C   -0.233647
     9  C   -0.179276
    10  C    0.157046
    11  C   -0.315738
    12  C   -0.089209
    13  C   -0.276606
    14  C   -0.310210
    15  C   -0.048089
    16  C    0.066283
    17  C   -0.358811
    18  C   -0.099079
    19  C   -0.055028
    20  C    0.026439
    21  C    0.273404
    22  C   -0.201234
    23  C    0.158653
    24  C   -0.170280
    25  C   -0.101919
    26  C   -0.311702
    27  C   -0.298591
    28  C   -0.342477
    29  C   -0.105939
    30  C    0.170616
    31  C    0.073195
    32  C   -0.255006
    33  C   -0.357075
    34  C   -0.083288
    35  C    0.136470
    36  C   -0.384729
    37  C   -0.094073
    38  C   -0.087529
    39  C   -0.071984
    40  C   -0.074604
    41  C   -0.116640
    42  C   -0.148086
    43  C    0.118896
    44  C   -0.369636
    45  H    0.109229
    46  H    0.117401
    47  H    0.094359
    48  H    0.106898
    49  H    0.095174
    50  H    0.081456
    51  H    0.134499
    52  H    0.129960
    53  H    0.104164
    54  H    0.110859
    55  H    0.098534
    56  H    0.068917
    57  H    0.129837
    58  H    0.087489
    59  H    0.085080
    60  H    0.302723
    61  H    0.059173
    62  H    0.081567
    63  H    0.136019
    64  H    0.102978
    65  H    0.035471
    66  H    0.075640
    67  H    0.094075
    68  H    0.094183
    69  H    0.065482
    70  H    0.120232
    71  H    0.092424
    72  H    0.080368
    73  H    0.127511
    74  H    0.080373
    75  H    0.110229
    76  H    0.091557
    77  H    0.111998
    78  H    0.108201
    79  H    0.087588
    80  H    0.135748
    81  H    0.078359
    82  H    0.302351
    83  H    0.309685
    84  H    0.112010
    85  H    0.124412
    86  H    0.130329
    87  H    0.103779
    88  H    0.069529
    89  H    0.109016
    90  H    0.138218
    91  H    0.116959
    92  H    0.046770
    93  H    0.078367
    94  H    0.063205
    95  H    0.079739
    96  H    0.085067
    97  H    0.069039
    98  H    0.117782
    99  H    0.126982
   100  H    0.111789
 Sum of Mulliken charges =  -0.00000
 Mulliken charges with hydrogens summed into heavy atoms:
               1
     1  O   -0.526052
     2  O   -0.211423
     3  O   -0.251758
     4  O   -0.244949
     5  C    0.181578
     6  C    0.200110
     7  C    0.005946
     8  C   -0.007017
     9  C    0.021982
    10  C    0.252220
    11  C    0.030177
    12  C    0.014954
    13  C    0.001704
    14  C   -0.007803
    15  C    0.011084
    16  C    0.066283
    17  C   -0.038246
    18  C   -0.063609
    19  C    0.020612
    20  C    0.026439
    21  C    0.273404
    22  C   -0.012975
    23  C    0.224136
    24  C    0.042377
    25  C   -0.101919
    26  C   -0.023449
    27  C    0.015194
    28  C   -0.010940
    29  C   -0.027580
    30  C    0.170616
    31  C    0.073195
    32  C   -0.142996
    33  C    0.001445
    34  C   -0.013759
    35  C    0.136470
    36  C   -0.020536
    37  C   -0.047303
    38  C   -0.009162
    39  C   -0.008779
    40  C    0.005135
    41  C   -0.031573
    42  C   -0.079047
    43  C    0.118896
    44  C   -0.013082
 Electronic spatial extent (au):  <R**2>=         114375.2628
 Charge=             -0.0000 electrons
 Dipole moment (field-independent basis, Debye):
    X=              5.5610    Y=              0.0524    Z=              0.7685  Tot=              5.6141
 Quadrupole moment (field-independent basis, Debye-Ang):
   XX=           -255.4963   YY=           -262.2635   ZZ=           -271.4865
   XY=              7.1408   XZ=              6.0368   YZ=             -2.9571
 Traceless Quadrupole moment (field-independent basis, Debye-Ang):
   XX=              7.5858   YY=              0.8186   ZZ=             -8.4044
   XY=              7.1408   XZ=              6.0368   YZ=             -2.9571
 Octapole moment (field-independent basis, Debye-Ang**2):
  XXX=           1460.6426  YYY=             10.5361  ZZZ=            -17.7467  XYY=              2.3182
  XXY=             28.4245  XXZ=            153.5674  XZZ=             88.8365  YZZ=             -4.5699
  YYZ=            -22.2150  XYZ=           -120.2647
 Hexadecapole moment (field-independent basis, Debye-Ang**3):
 XXXX=        -139785.1900 YYYY=          -3638.9618 ZZZZ=          -2170.4152 XXXY=           -333.9629
 XXXZ=           3354.8400 YYYX=           -170.8317 YYYZ=            -14.7581 ZZZX=           -268.0393
 ZZZY=             19.8485 XXYY=         -25686.4715 XXZZ=         -25116.7745 YYZZ=           -998.7575
 XXYZ=            469.6762 YYXZ=            186.3338 ZZXY=             52.1993
 N-N= 4.462388469385D+03 E-N=-1.323652040764D+04  KE= 1.841256638144D+03
 1\1\GINC-RYZEN-SSD3\SP\RCAM-B3LYP TD-FC\6-31G(d,p)\C40H56O4\PADAWAN\30
 -Jul-2019\0\\# td=(NStates=1) CAM-B3LYP/6-31G(d,p)\\TD\\0,1\O,0,-11.58
 25149191,0.3130219506,-1.6535225159\O,0,-12.9445552913,-2.4226705751,1
 .246500335\O,0,10.4266181817,-1.2668165696,-1.9508988162\O,0,14.433766
 7434,-0.8829770192,-0.4286973571\C,0,-11.002338401,-0.0719111458,-0.36
 1635588\C,0,-11.5872050102,-1.1595171316,-1.280346875\C,0,-11.87238928
 19,0.3713038132,0.8555152065\C,0,-12.9504502487,-1.7644766056,-1.02718
 43524\C,0,-13.3470131593,-0.1159190395,0.8065453424\C,0,-13.5067171052
 ,-1.5678483226,0.3894777151\C,0,-10.7664522339,-1.9542808456,-2.289921
 3104\C,0,-9.4948389277,0.1601231461,-0.3489118493\C,0,-11.2460705845,-
 0.0071163076,2.1809831654\C,0,-11.8911794982,1.842949398,0.7783559273\
 C,0,-8.597643186,-0.6728353247,0.1484935884\C,0,-7.1401220018,-0.53067
 49136,0.3113388342\C,0,-6.372241239,-1.729171606,0.7167539117\C,0,-6.4
 288885506,0.6189127212,0.0734187867\C,0,-5.0987698186,0.9032823649,-0.
 1180061308\C,0,12.0074699939,0.0852785574,1.2394734754\C,0,11.48571586
 17,-0.6998961448,-1.2449283725\C,0,12.7815853866,-1.1626304927,1.44850
 95844\C,0,13.4352782145,-1.7444389773,0.1146854329\C,0,12.4222771624,-
 1.8815426633,-0.9806220247\C,0,11.0323001179,0.0142161695,0.0832655069
 \C,0,11.1014515501,0.3218488269,2.5182141616\C,0,12.9909722139,1.29821
 30421,1.2354565967\C,0,12.1919054967,0.3106999433,-2.1970536532\C,0,-4
 .6222787236,2.176610167,-0.2935142003\C,0,9.8325044379,0.513782181,0.0
 137601993\C,0,-3.2914243008,2.5082095747,-0.3487751382\C,0,8.562756061
 6,1.0034366775,-0.1330776478\C,0,-2.9157932644,3.9420256621,-0.5752072
 528\C,0,-2.323609276,1.5998618349,-0.1196444991\C,0,7.4756771102,0.190
 259614,0.2078115971\C,0,7.6622909656,-1.2553724893,0.5819881217\C,0,6.
 2139227403,0.7117281031,0.0145975238\C,0,-0.9670308346,1.8455336771,-0
 .2465128264\C,0,4.9212337262,0.0150706232,0.1141127801\C,0,-0.03655717
 67,0.8577690868,-0.1082699298\C,0,3.739853393,0.8195623066,0.050617592
 8\C,0,1.3885807989,1.1320449322,-0.083360717\C,0,2.4535332538,0.214610
 7608,-0.0343800801\C,0,2.2667765394,-1.2164358239,0.2209306867\H,0,-12
 .7735291537,-2.8221551933,-1.2100262266\H,0,-13.6520104247,-1.73004698
 89,-1.8570121559\H,0,-13.7532531275,0.2372107899,1.7649991826\H,0,-13.
 841973591,0.3998951166,0.0367113367\H,0,-14.5807253766,-1.6103197454,0
 .4744890532\H,0,-10.7785664735,-3.0119079736,-1.8186571611\H,0,-11.321
 9624051,-1.9878435758,-3.1366019464\H,0,-9.7391160951,-1.74681389,-2.2
 958211946\H,0,-9.2986385187,1.2015022812,-0.6048342935\H,0,-10.4549868
 263,0.3665079149,2.3246882116\H,0,-11.8291882797,0.2534720488,3.088057
 1558\H,0,-11.021032797,-1.0591927958,2.3071915089\H,0,-12.222304773,2.
 2036064826,-0.1862254065\H,0,-12.4202182612,2.3188374592,1.6773214439\
 H,0,-10.8506253446,2.2574363341,0.7434686404\H,0,-12.0058036529,-2.333
 7162452,1.2216766466\H,0,-8.9333641783,-1.5790762653,0.4029693958\H,0,
 -5.397759222,-1.9623295581,-0.1716352079\H,0,-5.8916615815,-1.62149738
 23,1.6641648127\H,0,-7.1170418148,-2.5127835514,0.9253286837\H,0,-7.01
 40727184,1.7366619953,-0.2878984663\H,0,-4.3330099457,0.1311517336,0.1
 725234766\H,0,13.2805437315,-1.2699686843,2.494914432\H,0,11.987213898
 4,-1.9538347635,1.6804740471\H,0,13.9605584127,-2.8268143464,0.1606829
 942\H,0,12.9443618747,-2.2558720657,-1.7785409488\H,0,11.582568265,-2.
 7464537693,-0.7600513472\H,0,11.6216217704,0.3193122979,3.5614311818\H
 ,0,10.5293499127,1.2108666498,2.5127187961\H,0,10.3525528765,-0.644042
 7188,2.6454107823\H,0,13.6316500669,1.3089295172,0.2666307279\H,0,12.4
 868012933,2.2337628141,0.8154562513\H,0,13.3089267298,1.3783623153,2.2
 383903206\H,0,12.4730481243,-0.0814447541,-3.184270879\H,0,11.51849891
 83,1.0246245534,-2.5476927042\H,0,13.0643872713,0.7038564385,-1.790824
 5679\H,0,-5.3601482387,2.771921579,-0.6213335442\H,0,10.1547567263,-0.
 357794437,-2.6765599918\H,0,15.2109939446,-0.6965494693,0.0966682661\H
 ,0,8.3073125821,2.0097032975,-0.6124585231\H,0,-2.5927043546,4.3920356
 533,0.3852743571\H,0,-2.3423429986,4.0406712919,-1.3338464937\H,0,-3.8
 060269878,4.4925774395,-0.7340632078\H,0,-2.6540550256,0.6630185139,0.
 0558126267\H,0,6.7660493548,-1.8786574278,0.7174942341\H,0,8.178023016
 8,-1.7995346783,-0.2746382379\H,0,8.5135312747,-1.2806403924,1.3289166
 526\H,0,5.9470598531,1.6133451399,-0.1841404337\H,0,-0.4270140584,2.91
 3605404,-0.5264225538\H,0,5.001186105,-0.9530217989,0.2580784889\H,0,-
 0.4030292261,-0.1854403569,0.0017327844\H,0,3.7800671746,1.8108967259,
 -0.1266548905\H,0,1.4957464498,2.2903548274,-0.2701497134\H,0,1.374516
 2864,-1.6439710013,0.3249414897\H,0,2.6117825031,-1.7475710586,-0.6446
 522352\H,0,2.9119278892,-1.5627805071,1.1361268993\\Version=ES64L-G16R
 evA.03\State=1-A\HF=-1857.2616046\RMSD=7.822e-09\PG=C01 [X(C40H56O4)]\
 \@


 TERENCE, THIS IS STUPID STUFF:
 YOU EAT YOUR VICTUALS FAST ENOUGH;
 THERE CAN'T BE MUCH AMISS, 'TIS CLEAR
 TO SEE THE RATE YOU DRINK YOUR BEER.
 BUT OH, GOOD LORD, THE VERSE YOU MAKE,
 IT GIVES A CHAP THE BELLY-ACHE.
 THE COW, THE OLD COW, SHE IS DEAD;
 IT SLEEPS WELL, THE HORNED HEAD:
 WE POOR LADS, 'TIS OUR TURN NOW
 TO HEAR SUCH TUNES AS KILLED THE COW.
 PRETTY FRIENDSHIP 'TIS TO RHYME
 YOUR FRIENDS TO DEATH BEFORE THEIR TIME.
 MOPING, MELANCHOLY MAD:
 COME PIPE A TUNE TO DANCE TO, LAD.

     -- A. E. HOUSMAN
 Job cpu time:       0 days  6 hours 31 minutes 26.0 seconds.
 Elapsed time:       0 days  2 hours 10 minutes 44.5 seconds.
 File lengths (MBytes):  RWF=   3379 Int=      0 D2E=      0 Chk=     90 Scr=      1
 Normal termination of Gaussian 16 at Tue Jul 30 12:23:54 2019.
