 Entering Gaussian System, Link 0=g16
 Input=Geometria-241-.com
 Output=Geometria-241-.log
 Initial command:
 /usr/local/g16/l1.exe "/home/padawan/israel-mol/neoxanthin/spectra/emi/Gau-88426.inp" -scrdir="/home/padawan/israel-mol/neoxanthin/spectra/emi/"
 Entering Link 1 = /usr/local/g16/l1.exe PID=     88428.
  
 Copyright (c) 1988,1990,1992,1993,1995,1998,2003,2009,2016,
            Gaussian, Inc.  All Rights Reserved.
  
 This is part of the Gaussian(R) 16 program.  It is based on
 the Gaussian(R) 09 system (copyright 2009, Gaussian, Inc.),
 the Gaussian(R) 03 system (copyright 2003, Gaussian, Inc.),
 the Gaussian(R) 98 system (copyright 1998, Gaussian, Inc.),
 the Gaussian(R) 94 system (copyright 1995, Gaussian, Inc.),
 the Gaussian 92(TM) system (copyright 1992, Gaussian, Inc.),
 the Gaussian 90(TM) system (copyright 1990, Gaussian, Inc.),
 the Gaussian 88(TM) system (copyright 1988, Gaussian, Inc.),
 the Gaussian 86(TM) system (copyright 1986, Carnegie Mellon
 University), and the Gaussian 82(TM) system (copyright 1983,
 Carnegie Mellon University). Gaussian is a federally registered
 trademark of Gaussian, Inc.
  
 This software contains proprietary and confidential information,
 including trade secrets, belonging to Gaussian, Inc.
  
 This software is provided under written license and may be
 used, copied, transmitted, or stored only in accord with that
 written license.
  
 The following legend is applicable only to US Government
 contracts under FAR:
  
                    RESTRICTED RIGHTS LEGEND
  
 Use, reproduction and disclosure by the US Government is
 subject to restrictions as set forth in subparagraphs (a)
 and (c) of the Commercial Computer Software - Restricted
 Rights clause in FAR 52.227-19.
  
 Gaussian, Inc.
 340 Quinnipiac St., Bldg. 40, Wallingford CT 06492
  
  
 ---------------------------------------------------------------
 Warning -- This program may not be used in any manner that
 competes with the business of Gaussian, Inc. or will provide
 assistance to any competitor of Gaussian, Inc.  The licensee
 of this program is prohibited from giving any competitor of
 Gaussian, Inc. access to this program.  By using this program,
 the user acknowledges that Gaussian, Inc. is engaged in the
 business of creating and licensing software in the field of
 computational chemistry and represents and warrants to the
 licensee that it is not a competitor of Gaussian, Inc. and that
 it will not use this program in any manner prohibited above.
 ---------------------------------------------------------------
  

 Cite this work as:
 Gaussian 16, Revision A.03,
 M. J. Frisch, G. W. Trucks, H. B. Schlegel, G. E. Scuseria, 
 M. A. Robb, J. R. Cheeseman, G. Scalmani, V. Barone, 
 G. A. Petersson, H. Nakatsuji, X. Li, M. Caricato, A. V. Marenich, 
 J. Bloino, B. G. Janesko, R. Gomperts, B. Mennucci, H. P. Hratchian, 
 J. V. Ortiz, A. F. Izmaylov, J. L. Sonnenberg, D. Williams-Young, 
 F. Ding, F. Lipparini, F. Egidi, J. Goings, B. Peng, A. Petrone, 
 T. Henderson, D. Ranasinghe, V. G. Zakrzewski, J. Gao, N. Rega, 
 G. Zheng, W. Liang, M. Hada, M. Ehara, K. Toyota, R. Fukuda, 
 J. Hasegawa, M. Ishida, T. Nakajima, Y. Honda, O. Kitao, H. Nakai, 
 T. Vreven, K. Throssell, J. A. Montgomery, Jr., J. E. Peralta, 
 F. Ogliaro, M. J. Bearpark, J. J. Heyd, E. N. Brothers, K. N. Kudin, 
 V. N. Staroverov, T. A. Keith, R. Kobayashi, J. Normand, 
 K. Raghavachari, A. P. Rendell, J. C. Burant, S. S. Iyengar, 
 J. Tomasi, M. Cossi, J. M. Millam, M. Klene, C. Adamo, R. Cammi, 
 J. W. Ochterski, R. L. Martin, K. Morokuma, O. Farkas, 
 J. B. Foresman, and D. J. Fox, Gaussian, Inc., Wallingford CT, 2016.
 
 ******************************************
 Gaussian 16:  ES64L-G16RevA.03 25-Dec-2016
                31-Jul-2019 
 ******************************************
 %nproc=3
 Will use up to    3 processors via shared memory.
 %Mem=2GB
 -------------------------------------
 # td=(NStates=1) CAM-B3LYP/6-31G(d,p)
 -------------------------------------
 1/38=1,172=1/1;
 2/12=2,17=6,18=5,40=1/2;
 3/5=1,6=6,7=101,11=9,25=1,30=1,74=-40/1,2,3,8;
 4//1;
 5/5=2,38=5/2;
 8/6=1,10=2,108=1/1;
 9/41=1,42=1,70=2/14;
 6/7=2,8=2,9=2,10=2/1;
 99/5=1,9=1/99;
 --
 TD
 --
 Symbolic Z-matrix:
 Charge =  0 Multiplicity = 1
 8                    -11.75445   0.27235  -1.49693 
 8                    -13.01306  -2.46209   1.53373 
 8                     10.66822  -1.14498  -2.11389 
 8                     14.41456  -1.05521   0.00015 
 6                    -11.03479  -0.13105  -0.36382 
 6                    -11.83806  -1.16701  -1.2638 
 6                    -11.80145   0.3773    0.91394 
 6                    -13.00688  -1.8387   -0.88265 
 6                    -13.26211  -0.10486   0.93334 
 6                    -13.48544  -1.482     0.58637 
 6                    -10.91812  -1.88377  -2.24847 
 6                    -9.66349   0.10511  -0.43569 
 6                    -11.12878  -0.15868   2.26869 
 6                    -11.67096   1.93288   0.89779 
 6                    -8.71823  -0.66424   0.04157 
 6                    -7.2179   -0.67326  -0.00469 
 6                    -6.41409  -1.95493   0.15584 
 6                    -6.60284   0.6053   -0.02915 
 6                    -5.27311   0.79434  -0.15546 
 6                     11.90147   0.12611   1.33862 
 6                     11.6906  -0.72017  -1.2045 
 6                     12.54035  -1.24165   1.63393 
 6                     13.35158  -1.80664   0.40019 
 6                     12.40011  -2.00528  -0.74871 
 6                     11.18705   0.04921   0.07857 
 6                     10.98518   0.36372   2.52359 
 6                     12.9225   1.30049   1.19842 
 6                     12.61103   0.19583  -2.06827 
 6                    -4.72891   2.11594  -0.19246 
 6                     9.91413   0.44753  -0.03772 
 6                    -3.44455   2.55536  -0.26437 
 6                     8.70701   1.05257  -0.24789 
 6                    -3.06205   4.02517  -0.42799 
 6                    -2.33309   1.60691  -0.17703 
 6                     7.44443   0.28326  -0.00434 
 6                     7.67157  -1.30648   0.04336 
 6                     6.28194   0.80698  -0.22063 
 6                    -0.93507   1.90324  -0.21222 
 6                     5.05214   0.20737   0.01668 
 6                     0.08643   0.98236  -0.09809 
 6                     3.81553   0.88435  -0.22359 
 6                     1.50239   1.25977  -0.24862 
 6                     2.53598   0.39485  -0.11022 
 6                     2.33703  -1.1212    0.14719 
 1                    -12.82972  -2.79778  -0.98893 
 1                    -13.73106  -1.45372  -1.51585 
 1                    -13.6011  -0.01392   1.83756 
 1                    -13.85879   0.50372   0.14767 
 1                    -14.5763  -1.6008    0.48935 
 1                    -10.39356  -2.63685  -1.74744 
 1                    -11.52089  -2.22999  -3.10147 
 1                    -10.29568  -0.97891  -2.52713 
 1                    -9.32578   0.9959   -0.82397 
 1                    -9.96384   0.17614   2.2617 
 1                    -11.59558   0.31122   3.2172 
 1                    -11.29098  -1.2545    2.4949 
 1                    -12.46125   2.24959   0.12291 
 1                    -12.16356   2.34853   1.6323 
 1                    -10.59195   2.21794   0.62476 
 1                    -12.08616  -2.86669   1.18736 
 1                    -8.92019  -1.75698   0.48163 
 1                    -5.94027  -2.22505  -0.73584 
 1                    -5.58062  -2.03139   0.76582 
 1                    -7.11684  -2.77603   0.49335 
 1                    -7.28387   1.54096   0.05734 
 1                    -4.59645   0.04854   0.09874 
 1                     13.33543  -1.04717   2.58536 
 1                     11.92533  -2.00791   2.13063 
 1                     13.63676  -2.8927    0.573 
 1                     12.99835  -2.3216   -1.67481 
 1                     11.39889  -2.65088  -0.47027 
 1                     11.43262   0.05018   3.47442 
 1                     10.71901   1.30474   2.46651 
 1                     9.76167  -0.0308    2.50195 
 1                     13.72799   0.90388   0.36956 
 1                     12.42901   2.37365   1.04848 
 1                     13.54526   1.49591   2.15239 
 1                     13.00574  -0.28468  -3.09498 
 1                     12.26456   1.00885  -2.40047 
 1                     13.40227   0.5575   -1.4951 
 1                    -5.50318   2.84861  -0.37864 
 1                     10.05871  -0.38994  -2.02804 
 1                     15.28927  -1.15871   0.60363 
 1                     8.62623   2.1127   -0.27858 
 1                    -2.43151   4.40984   0.33788 
 1                    -2.40371   4.10316  -1.42669 
 1                    -4.02817   4.56777  -0.49148 
 1                    -2.52031   0.37057  -0.36689 
 1                     6.75563  -1.73299  -0.26842 
 1                     8.63589  -1.37743  -0.53209 
 1                     7.80512  -1.63248   1.11324 
 1                     6.51454   1.78676  -0.42382 
 1                    -0.70368   3.02428  -0.34236 
 1                     5.2179   -0.81193   0.48054 
 1                    -0.09444  -0.1502    0.115 
 1                     3.99888   1.99486  -0.49688 
 1                     1.7689    2.32741  -0.48809 
 1                     1.24167  -1.14512   0.20727 
 1                     2.70635  -1.88768  -0.52828 
 1                     2.79521  -1.45381   1.07027 
 
 Stoichiometry    C40H56O4
 Framework group  C1[X(C40H56O4)]
 Deg. of freedom   294
 Full point group                 C1      NOp   1
 Largest Abelian subgroup         C1      NOp   1
 Largest concise Abelian subgroup C1      NOp   1
                         Standard orientation:                         
 ---------------------------------------------------------------------
 Center     Atomic      Atomic             Coordinates (Angstroms)
 Number     Number       Type             X           Y           Z
 ---------------------------------------------------------------------
      1          8           0      -11.755673    0.192461   -1.511119
      2          8           0      -13.016500   -2.355605    1.676956
      3          8           0       10.665997   -1.275465   -2.040000
      4          8           0       14.412259   -1.062610    0.065346
      5          6           0      -11.036387   -0.143219   -0.355902
      6          6           0      -11.840354   -1.230383   -1.192639
      7          6           0      -11.802762    0.440930    0.889205
      8          6           0      -13.009689   -1.877320   -0.772276
      9          6           0      -13.263780   -0.038154    0.937136
     10          6           0      -13.488097   -1.433362    0.672821
     11          6           0      -10.920871   -2.005222   -2.132745
     12          6           0       -9.664903    0.087233   -0.441567
     13          6           0      -11.130576   -0.013863    2.273564
     14          6           0      -11.671124    1.992682    0.780398
     15          6           0       -8.720241   -0.653000    0.080800
     16          6           0       -7.219919   -0.665850    0.035323
     17          6           0       -6.417058   -1.936267    0.272034
     18          6           0       -6.603915    0.608532   -0.065213
     19          6           0       -5.274039    0.788740   -0.202413
     20          6           0       11.899939    0.198210    1.330767
     21          6           0       11.688620   -0.797959   -1.157435
     22          6           0       12.537796   -1.149988    1.707124
     23          6           0       13.348694   -1.788081    0.509341
     24          6           0       12.397163   -2.054138   -0.625790
     25          6           0       11.185546    0.046877    0.077450
     26          6           0       10.983743    0.506679    2.499370
     27          6           0       12.921837    1.361404    1.120948
     28          6           0       12.609783    0.064266   -2.074148
     29          6           0       -4.728868    2.105392   -0.318045
     30          6           0        9.912934    0.438483   -0.062512
     31          6           0       -3.444181    2.538810   -0.415860
     32          6           0        8.706271    1.030810   -0.308494
     33          6           0       -3.060588    3.995978   -0.666739
     34          6           0       -2.333424    1.596438   -0.272036
     35          6           0        7.443113    0.278299   -0.019675
     36          6           0        7.669080   -1.305935    0.122702
     37          6           0        6.281018    0.789046   -0.266917
     38          6           0       -0.935182    1.889122   -0.324663
     39          6           0        5.050759    0.205542    0.005563
     40          6           0        0.085626    0.975937   -0.155745
     41          6           0        3.814668    0.867901   -0.274763
     42          6           0        1.501807    1.242848   -0.322378
     43          6           0        2.534751    0.386960   -0.132567
     44          6           0        2.334672   -1.110906    0.214706
     45          1           0      -12.833236   -2.841157   -0.821199
     46          1           0      -13.733545   -1.530224   -1.427371
     47          1           0      -13.602758    0.106748    1.834290
     48          1           0      -13.859949    0.522955    0.116534
     49          1           0      -14.579038   -1.556935    0.582933
     50          1           0      -10.396899   -2.727487   -1.587673
     51          1           0      -11.523841   -2.401212   -2.963667
     52          1           0      -10.297751   -1.119024   -2.464769
     53          1           0       -9.326518    0.953061   -0.882198
     54          1           0       -9.965389    0.319096    2.246765
     55          1           0      -11.597102    0.512064    3.192332
     56          1           0      -11.293597   -1.094138    2.564652
     57          1           0      -12.461129    2.263232   -0.012069
     58          1           0      -12.163474    2.451724    1.488778
     59          1           0      -10.591888    2.260182    0.490986
     60          1           0      -12.089873   -2.780797    1.355420
     61          1           0       -8.923041   -1.717427    0.585167
     62          1           0       -5.943383   -2.259379   -0.601912
     63          1           0       -5.583691   -1.976843    0.885587
     64          1           0       -7.120440   -2.735278    0.657792
     65          1           0       -7.284267    1.548181   -0.034712
     66          1           0       -4.597943    0.058922    0.095850
     67          1           0       13.332951   -0.899735    2.645368
     68          1           0       11.922176   -1.884841    2.248535
     69          1           0       13.633061   -2.862127    0.746595
     70          1           0       12.995226   -2.425522   -1.531329
     71          1           0       11.395445   -2.681278   -0.309489
     72          1           0       11.430890    0.250023    3.467243
     73          1           0       10.718267    1.442812    2.386285
     74          1           0        9.759949    0.112458    2.501132
     75          1           0       13.727097    0.915515    0.317284
     76          1           0       12.429146    2.424075    0.907266
     77          1           0       13.544680    1.612871    2.061647
     78          1           0       13.004214   -0.476853   -3.070357
     79          1           0       12.263939    0.856302   -2.454242
     80          1           0       13.401252    0.458875   -1.523464
     81          1           0       -5.502590    2.826225   -0.547636
     82          1           0       10.057030   -0.516200   -1.999365
     83          1           0       15.286848   -1.130593    0.674022
     84          1           0        8.626276    2.087289   -0.402308
     85          1           0       -2.429819    4.425137    0.074921
     86          1           0       -2.402124    4.013830   -1.668231
     87          1           0       -4.026306    4.534536   -0.762555
     88          1           0       -2.521541    0.351115   -0.387904
     89          1           0        6.752845   -1.749604   -0.163219
     90          1           0        8.633384   -1.411759   -0.447397
     91          1           0        7.802315   -1.567697    1.210113
     92          1           0        6.514349    1.754811   -0.528114
     93          1           0       -0.702964    3.000243   -0.521354
     94          1           0        5.215740   -0.784424    0.529356
     95          1           0       -0.096084   -0.141778    0.124438
     96          1           0        3.998850    1.960014   -0.613725
     97          1           0        1.769119    2.294126   -0.625018
     98          1           0        1.239290   -1.130410    0.275978
     99          1           0        2.703474   -1.916544   -0.413851
    100          1           0        2.792537   -1.388256    1.156015
 ---------------------------------------------------------------------
 Rotational constants (GHZ):           0.2612100           0.0088267           0.0087432
 Standard basis: 6-31G(d,p) (6D, 7F)
 There are   940 symmetry adapted cartesian basis functions of A   symmetry.
 There are   940 symmetry adapted basis functions of A   symmetry.
   940 basis functions,  1624 primitive gaussians,   940 cartesian basis functions
   164 alpha electrons      164 beta electrons
       nuclear repulsion energy      4453.6799246159 Hartrees.
 NAtoms=  100 NActive=  100 NUniq=  100 SFac= 1.00D+00 NAtFMM=   60 NAOKFM=T Big=T
 Integral buffers will be    131072 words long.
 Raffenetti 1 integral format.
 Two-electron integral symmetry is turned on.
 One-electron integrals computed using PRISM.
 NBasis=   940 RedAO= T EigKep=  4.95D-04  NBF=   940
 NBsUse=   940 1.00D-06 EigRej= -1.00D+00 NBFU=   940
 ExpMin= 1.61D-01 ExpMax= 5.48D+03 ExpMxC= 8.25D+02 IAcc=3 IRadAn=         5 AccDes= 0.00D+00
 Harris functional with IExCor=20419 and IRadAn=       5 diagonalized for initial guess.
 HarFok:  IExCor=20419 AccDes= 0.00D+00 IRadAn=         5 IDoV= 1 UseB2=F ITyADJ=14
 ICtDFT=  3500011 ScaDFX=  1.000000  1.000000  1.000000  1.000000
 FoFCou: FMM=F IPFlag=           0 FMFlag=      100000 FMFlg1=        2001
         NFxFlg=           0 DoJE=T BraDBF=F KetDBF=T FulRan=T
         wScrn=  0.000000 ICntrl=       500 IOpCl=  0 I1Cent=   200000004 NGrid=           0
         NMat0=    1 NMatS0=      1 NMatT0=    0 NMatD0=    1 NMtDS0=    0 NMtDT0=    0
 Petite list used in FoFCou.
 Requested convergence on RMS density matrix=1.00D-08 within 128 cycles.
 Requested convergence on MAX density matrix=1.00D-06.
 Requested convergence on             energy=1.00D-06.
 No special actions if energy rises.
 Integral accuracy reduced to 1.0D-05 until final iterations.
 Initial convergence to 1.0D-05 achieved.  Increase integral accuracy.
 SCF Done:  E(RCAM-B3LYP) =  -1857.25899602     A.U. after   15 cycles
            NFock= 15  Conv=0.66D-08     -V/T= 2.0095
 DoSCS=F DFT=T ScalE2(SS,OS)=  1.000000  1.000000
 ExpMin= 1.61D-01 ExpMax= 5.48D+03 ExpMxC= 8.25D+02 IAcc=3 IRadAn=         5 AccDes= 0.00D+00
 HarFok:  IExCor=  205 AccDes= 0.00D+00 IRadAn=         5 IDoV=-2 UseB2=F ITyADJ=14
 ICtDFT= 12500011 ScaDFX=  1.000000  1.000000  1.000000  1.000000
 GSVD:  LWork=       -2288 too small for GESVD, short by       10340 words or       10340 for optimal perf.
 Range of M.O.s used for correlation:    45   940
 NBasis=   940 NAE=   164 NBE=   164 NFC=    44 NFV=     0
 NROrb=    896 NOA=   120 NOB=   120 NVA=   776 NVB=   776
 Orbital symmetries:
       Occupied  (A) (A) (A) (A) (A) (A) (A) (A) (A) (A) (A) (A)
                 (A) (A) (A) (A) (A) (A) (A) (A) (A) (A) (A) (A)
                 (A) (A) (A) (A) (A) (A) (A) (A) (A) (A) (A) (A)
                 (A) (A) (A) (A) (A) (A) (A) (A) (A) (A) (A) (A)
                 (A) (A) (A) (A) (A) (A) (A) (A) (A) (A) (A) (A)
                 (A) (A) (A) (A) (A) (A) (A) (A) (A) (A) (A) (A)
                 (A) (A) (A) (A) (A) (A) (A) (A) (A) (A) (A) (A)
                 (A) (A) (A) (A) (A) (A) (A) (A) (A) (A) (A) (A)
                 (A) (A) (A) (A) (A) (A) (A) (A) (A) (A) (A) (A)
                 (A) (A) (A) (A) (A) (A) (A) (A) (A) (A) (A) (A)
                 (A) (A) (A) (A) (A) (A) (A) (A) (A) (A) (A) (A)
                 (A) (A) (A) (A) (A) (A) (A) (A) (A) (A) (A) (A)
                 (A) (A) (A) (A) (A) (A) (A) (A) (A) (A) (A) (A)
                 (A) (A) (A) (A) (A) (A) (A) (A)
       Virtual   (A) (A) (A) (A) (A) (A) (A) (A) (A) (A) (A) (A)
                 (A) (A) (A) (A) (A) (A) (A) (A) (A) (A) (A) (A)
                 (A) (A) (A) (A) (A) (A) (A) (A) (A) (A) (A) (A)
                 (A) (A) (A) (A) (A) (A) (A) (A) (A) (A) (A) (A)
                 (A) (A) (A) (A) (A) (A) (A) (A) (A) (A) (A) (A)
                 (A) (A) (A) (A) (A) (A) (A) (A) (A) (A) (A) (A)
                 (A) (A) (A) (A) (A) (A) (A) (A) (A) (A) (A) (A)
                 (A) (A) (A) (A) (A) (A) (A) (A) (A) (A) (A) (A)
                 (A) (A) (A) (A) (A) (A) (A) (A) (A) (A) (A) (A)
                 (A) (A) (A) (A) (A) (A) (A) (A) (A) (A) (A) (A)
                 (A) (A) (A) (A) (A) (A) (A) (A) (A) (A) (A) (A)
                 (A) (A) (A) (A) (A) (A) (A) (A) (A) (A) (A) (A)
                 (A) (A) (A) (A) (A) (A) (A) (A) (A) (A) (A) (A)
                 (A) (A) (A) (A) (A) (A) (A) (A) (A) (A) (A) (A)
                 (A) (A) (A) (A) (A) (A) (A) (A) (A) (A) (A) (A)
                 (A) (A) (A) (A) (A) (A) (A) (A) (A) (A) (A) (A)
                 (A) (A) (A) (A) (A) (A) (A) (A) (A) (A) (A) (A)
                 (A) (A) (A) (A) (A) (A) (A) (A) (A) (A) (A) (A)
                 (A) (A) (A) (A) (A) (A) (A) (A) (A) (A) (A) (A)
                 (A) (A) (A) (A) (A) (A) (A) (A) (A) (A) (A) (A)
                 (A) (A) (A) (A) (A) (A) (A) (A) (A) (A) (A) (A)
                 (A) (A) (A) (A) (A) (A) (A) (A) (A) (A) (A) (A)
                 (A) (A) (A) (A) (A) (A) (A) (A) (A) (A) (A) (A)
                 (A) (A) (A) (A) (A) (A) (A) (A) (A) (A) (A) (A)
                 (A) (A) (A) (A) (A) (A) (A) (A) (A) (A) (A) (A)
                 (A) (A) (A) (A) (A) (A) (A) (A) (A) (A) (A) (A)
                 (A) (A) (A) (A) (A) (A) (A) (A) (A) (A) (A) (A)
                 (A) (A) (A) (A) (A) (A) (A) (A) (A) (A) (A) (A)
                 (A) (A) (A) (A) (A) (A) (A) (A) (A) (A) (A) (A)
                 (A) (A) (A) (A) (A) (A) (A) (A) (A) (A) (A) (A)
                 (A) (A) (A) (A) (A) (A) (A) (A) (A) (A) (A) (A)
                 (A) (A) (A) (A) (A) (A) (A) (A) (A) (A) (A) (A)
                 (A) (A) (A) (A) (A) (A) (A) (A) (A) (A) (A) (A)
                 (A) (A) (A) (A) (A) (A) (A) (A) (A) (A) (A) (A)
                 (A) (A) (A) (A) (A) (A) (A) (A) (A) (A) (A) (A)
                 (A) (A) (A) (A) (A) (A) (A) (A) (A) (A) (A) (A)
                 (A) (A) (A) (A) (A) (A) (A) (A) (A) (A) (A) (A)
                 (A) (A) (A) (A) (A) (A) (A) (A) (A) (A) (A) (A)
                 (A) (A) (A) (A) (A) (A) (A) (A) (A) (A) (A) (A)
                 (A) (A) (A) (A) (A) (A) (A) (A) (A) (A) (A) (A)
                 (A) (A) (A) (A) (A) (A) (A) (A) (A) (A) (A) (A)
                 (A) (A) (A) (A) (A) (A) (A) (A) (A) (A) (A) (A)
                 (A) (A) (A) (A) (A) (A) (A) (A) (A) (A) (A) (A)
                 (A) (A) (A) (A) (A) (A) (A) (A) (A) (A) (A) (A)
                 (A) (A) (A) (A) (A) (A) (A) (A) (A) (A) (A) (A)
                 (A) (A) (A) (A) (A) (A) (A) (A) (A) (A) (A) (A)
                 (A) (A) (A) (A) (A) (A) (A) (A) (A) (A) (A) (A)
                 (A) (A) (A) (A) (A) (A) (A) (A) (A) (A) (A) (A)
                 (A) (A) (A) (A) (A) (A) (A) (A) (A) (A) (A) (A)
                 (A) (A) (A) (A) (A) (A) (A) (A) (A) (A) (A) (A)
                 (A) (A) (A) (A) (A) (A) (A) (A) (A) (A) (A) (A)
                 (A) (A) (A) (A) (A) (A) (A) (A) (A) (A) (A) (A)
                 (A) (A) (A) (A) (A) (A) (A) (A) (A) (A) (A) (A)
                 (A) (A) (A) (A) (A) (A) (A) (A) (A) (A) (A) (A)
                 (A) (A) (A) (A) (A) (A) (A) (A) (A) (A) (A) (A)
                 (A) (A) (A) (A) (A) (A) (A) (A) (A) (A) (A) (A)
                 (A) (A) (A) (A) (A) (A) (A) (A) (A) (A) (A) (A)
                 (A) (A) (A) (A) (A) (A) (A) (A) (A) (A) (A) (A)
                 (A) (A) (A) (A) (A) (A) (A) (A) (A) (A) (A) (A)
                 (A) (A) (A) (A) (A) (A) (A) (A) (A) (A) (A) (A)
                 (A) (A) (A) (A) (A) (A) (A) (A) (A) (A) (A) (A)
                 (A) (A) (A) (A) (A) (A) (A) (A) (A) (A) (A) (A)
                 (A) (A) (A) (A) (A) (A) (A) (A) (A) (A) (A) (A)
                 (A) (A) (A) (A) (A) (A) (A) (A) (A) (A) (A) (A)
                 (A) (A) (A) (A) (A) (A) (A) (A)
     4 initial guesses have been made.
 Convergence on wavefunction:    0.001000000000000
 Iteration     1 Dimension     4 NMult     0 NNew      4
 CISAX will form     4 AO SS matrices at one time.
 Iteration     2 Dimension     6 NMult     4 NNew      2
 Iteration     3 Dimension     8 NMult     6 NNew      2
 Iteration     4 Dimension    10 NMult     8 NNew      2
 Iteration     5 Dimension    12 NMult    10 NNew      2
 Iteration     6 Dimension    14 NMult    12 NNew      2
 ***********************************************************************
 Excited states from <AA,BB:AA,BB> singles matrix:
 ***********************************************************************
 
 Ground to excited state transition densities written to RWF  633
 Ground to excited state transition electric dipole moments (Au):
       state          X           Y           Z        Dip. S.      Osc.
         1         7.7659      0.1036      0.1478     60.3417      2.8979
 Ground to excited state transition velocity dipole moments (Au):
       state          X           Y           Z        Dip. S.      Osc.
         1        -0.5428     -0.0069     -0.0113      0.2948      2.7279
 Ground to excited state transition magnetic dipole moments (Au):
       state          X           Y           Z
         1        -0.0076      0.4000      2.4021
 Ground to excited state transition velocity quadrupole moments (Au):
       state          XX          YY          ZZ          XY          XZ          YZ
         1         1.4369      0.1914      0.0181      0.3929      0.0074     -0.0201
 <0|del|b> * <b|rxdel|0> + <0|del|b> * <b|delr+rdel|0>
 Rotatory Strengths (R) in cgs (10**-40 erg-esu-cm/Gauss)
       state          XX          YY          ZZ    R(velocity)    E-M Angle
         1      -168.2823    -37.6196    -46.8615    -84.2545       91.12
 1/2[<0|r|b>*<b|rxdel|0> + (<0|rxdel|b>*<b|r|0>)*]
 Rotatory Strengths (R) in cgs (10**-40 erg-esu-cm/Gauss)
       state          XX          YY          ZZ     R(length)
         1        41.9654    -29.3039   -251.0937    -79.4774
  1/2[<0|del|b>*<b|r|0> + (<0|r|b>*<b|del|0>)*] (Au)
       state          X           Y           Z        Dip. S.   Osc.(frdel)
         1        -4.2151     -0.0007     -0.0017      4.2174      2.8116

 Excitation energies and oscillator strengths:
 
 Excited State   1:      Singlet-A      1.9602 eV  632.50 nm  f=2.8979  <S**2>=0.000
     163 ->166         0.12162
     164 ->165         0.70328
     164 <-165        -0.11880
 This state for optimization and/or second-order correction.
 Total Energy, E(TD-HF/TD-DFT) =  -1857.18695898    
 Copying the excited state density for this state as the 1-particle RhoCI density.
 SavETr:  write IOETrn=   770 NScale= 10 NData=  16 NLR=1 NState=    1 LETran=      28.

 **********************************************************************

            Population analysis using the SCF density.

 **********************************************************************

 Orbital symmetries:
       Occupied  (A) (A) (A) (A) (A) (A) (A) (A) (A) (A) (A) (A)
                 (A) (A) (A) (A) (A) (A) (A) (A) (A) (A) (A) (A)
                 (A) (A) (A) (A) (A) (A) (A) (A) (A) (A) (A) (A)
                 (A) (A) (A) (A) (A) (A) (A) (A) (A) (A) (A) (A)
                 (A) (A) (A) (A) (A) (A) (A) (A) (A) (A) (A) (A)
                 (A) (A) (A) (A) (A) (A) (A) (A) (A) (A) (A) (A)
                 (A) (A) (A) (A) (A) (A) (A) (A) (A) (A) (A) (A)
                 (A) (A) (A) (A) (A) (A) (A) (A) (A) (A) (A) (A)
                 (A) (A) (A) (A) (A) (A) (A) (A) (A) (A) (A) (A)
                 (A) (A) (A) (A) (A) (A) (A) (A) (A) (A) (A) (A)
                 (A) (A) (A) (A) (A) (A) (A) (A) (A) (A) (A) (A)
                 (A) (A) (A) (A) (A) (A) (A) (A) (A) (A) (A) (A)
                 (A) (A) (A) (A) (A) (A) (A) (A) (A) (A) (A) (A)
                 (A) (A) (A) (A) (A) (A) (A) (A)
       Virtual   (A) (A) (A) (A) (A) (A) (A) (A) (A) (A) (A) (A)
                 (A) (A) (A) (A) (A) (A) (A) (A) (A) (A) (A) (A)
                 (A) (A) (A) (A) (A) (A) (A) (A) (A) (A) (A) (A)
                 (A) (A) (A) (A) (A) (A) (A) (A) (A) (A) (A) (A)
                 (A) (A) (A) (A) (A) (A) (A) (A) (A) (A) (A) (A)
                 (A) (A) (A) (A) (A) (A) (A) (A) (A) (A) (A) (A)
                 (A) (A) (A) (A) (A) (A) (A) (A) (A) (A) (A) (A)
                 (A) (A) (A) (A) (A) (A) (A) (A) (A) (A) (A) (A)
                 (A) (A) (A) (A) (A) (A) (A) (A) (A) (A) (A) (A)
                 (A) (A) (A) (A) (A) (A) (A) (A) (A) (A) (A) (A)
                 (A) (A) (A) (A) (A) (A) (A) (A) (A) (A) (A) (A)
                 (A) (A) (A) (A) (A) (A) (A) (A) (A) (A) (A) (A)
                 (A) (A) (A) (A) (A) (A) (A) (A) (A) (A) (A) (A)
                 (A) (A) (A) (A) (A) (A) (A) (A) (A) (A) (A) (A)
                 (A) (A) (A) (A) (A) (A) (A) (A) (A) (A) (A) (A)
                 (A) (A) (A) (A) (A) (A) (A) (A) (A) (A) (A) (A)
                 (A) (A) (A) (A) (A) (A) (A) (A) (A) (A) (A) (A)
                 (A) (A) (A) (A) (A) (A) (A) (A) (A) (A) (A) (A)
                 (A) (A) (A) (A) (A) (A) (A) (A) (A) (A) (A) (A)
                 (A) (A) (A) (A) (A) (A) (A) (A) (A) (A) (A) (A)
                 (A) (A) (A) (A) (A) (A) (A) (A) (A) (A) (A) (A)
                 (A) (A) (A) (A) (A) (A) (A) (A) (A) (A) (A) (A)
                 (A) (A) (A) (A) (A) (A) (A) (A) (A) (A) (A) (A)
                 (A) (A) (A) (A) (A) (A) (A) (A) (A) (A) (A) (A)
                 (A) (A) (A) (A) (A) (A) (A) (A) (A) (A) (A) (A)
                 (A) (A) (A) (A) (A) (A) (A) (A) (A) (A) (A) (A)
                 (A) (A) (A) (A) (A) (A) (A) (A) (A) (A) (A) (A)
                 (A) (A) (A) (A) (A) (A) (A) (A) (A) (A) (A) (A)
                 (A) (A) (A) (A) (A) (A) (A) (A) (A) (A) (A) (A)
                 (A) (A) (A) (A) (A) (A) (A) (A) (A) (A) (A) (A)
                 (A) (A) (A) (A) (A) (A) (A) (A) (A) (A) (A) (A)
                 (A) (A) (A) (A) (A) (A) (A) (A) (A) (A) (A) (A)
                 (A) (A) (A) (A) (A) (A) (A) (A) (A) (A) (A) (A)
                 (A) (A) (A) (A) (A) (A) (A) (A) (A) (A) (A) (A)
                 (A) (A) (A) (A) (A) (A) (A) (A) (A) (A) (A) (A)
                 (A) (A) (A) (A) (A) (A) (A) (A) (A) (A) (A) (A)
                 (A) (A) (A) (A) (A) (A) (A) (A) (A) (A) (A) (A)
                 (A) (A) (A) (A) (A) (A) (A) (A) (A) (A) (A) (A)
                 (A) (A) (A) (A) (A) (A) (A) (A) (A) (A) (A) (A)
                 (A) (A) (A) (A) (A) (A) (A) (A) (A) (A) (A) (A)
                 (A) (A) (A) (A) (A) (A) (A) (A) (A) (A) (A) (A)
                 (A) (A) (A) (A) (A) (A) (A) (A) (A) (A) (A) (A)
                 (A) (A) (A) (A) (A) (A) (A) (A) (A) (A) (A) (A)
                 (A) (A) (A) (A) (A) (A) (A) (A) (A) (A) (A) (A)
                 (A) (A) (A) (A) (A) (A) (A) (A) (A) (A) (A) (A)
                 (A) (A) (A) (A) (A) (A) (A) (A) (A) (A) (A) (A)
                 (A) (A) (A) (A) (A) (A) (A) (A) (A) (A) (A) (A)
                 (A) (A) (A) (A) (A) (A) (A) (A) (A) (A) (A) (A)
                 (A) (A) (A) (A) (A) (A) (A) (A) (A) (A) (A) (A)
                 (A) (A) (A) (A) (A) (A) (A) (A) (A) (A) (A) (A)
                 (A) (A) (A) (A) (A) (A) (A) (A) (A) (A) (A) (A)
                 (A) (A) (A) (A) (A) (A) (A) (A) (A) (A) (A) (A)
                 (A) (A) (A) (A) (A) (A) (A) (A) (A) (A) (A) (A)
                 (A) (A) (A) (A) (A) (A) (A) (A) (A) (A) (A) (A)
                 (A) (A) (A) (A) (A) (A) (A) (A) (A) (A) (A) (A)
                 (A) (A) (A) (A) (A) (A) (A) (A) (A) (A) (A) (A)
                 (A) (A) (A) (A) (A) (A) (A) (A) (A) (A) (A) (A)
                 (A) (A) (A) (A) (A) (A) (A) (A) (A) (A) (A) (A)
                 (A) (A) (A) (A) (A) (A) (A) (A) (A) (A) (A) (A)
                 (A) (A) (A) (A) (A) (A) (A) (A) (A) (A) (A) (A)
                 (A) (A) (A) (A) (A) (A) (A) (A) (A) (A) (A) (A)
                 (A) (A) (A) (A) (A) (A) (A) (A) (A) (A) (A) (A)
                 (A) (A) (A) (A) (A) (A) (A) (A) (A) (A) (A) (A)
                 (A) (A) (A) (A) (A) (A) (A) (A) (A) (A) (A) (A)
                 (A) (A) (A) (A) (A) (A) (A) (A)
 The electronic state is 1-A.
 Alpha  occ. eigenvalues --  -19.24024 -19.22294 -19.21612 -19.20916 -10.31988
 Alpha  occ. eigenvalues --  -10.31746 -10.31240 -10.30594 -10.30406 -10.28488
 Alpha  occ. eigenvalues --  -10.28408 -10.28399 -10.28164 -10.28066 -10.28022
 Alpha  occ. eigenvalues --  -10.27930 -10.27844 -10.27787 -10.27517 -10.27454
 Alpha  occ. eigenvalues --  -10.27393 -10.27328 -10.27242 -10.27129 -10.27125
 Alpha  occ. eigenvalues --  -10.27030 -10.26947 -10.26662 -10.26607 -10.26363
 Alpha  occ. eigenvalues --  -10.26316 -10.25763 -10.25761 -10.25738 -10.25361
 Alpha  occ. eigenvalues --  -10.25021 -10.24956 -10.24707 -10.24515 -10.24207
 Alpha  occ. eigenvalues --  -10.23851 -10.23793 -10.23675 -10.22172  -1.14624
 Alpha  occ. eigenvalues --   -1.11661  -1.09584  -1.07655  -0.93930  -0.92448
 Alpha  occ. eigenvalues --   -0.91990  -0.91077  -0.90501  -0.90050  -0.88636
 Alpha  occ. eigenvalues --   -0.86999  -0.86033  -0.85761  -0.84985  -0.82874
 Alpha  occ. eigenvalues --   -0.82018  -0.81134  -0.79788  -0.78019  -0.77991
 Alpha  occ. eigenvalues --   -0.77030  -0.76945  -0.76386  -0.75855  -0.74920
 Alpha  occ. eigenvalues --   -0.74729  -0.74156  -0.73282  -0.70107  -0.69599
 Alpha  occ. eigenvalues --   -0.68532  -0.67431  -0.65194  -0.64907  -0.63651
 Alpha  occ. eigenvalues --   -0.63055  -0.62157  -0.60531  -0.60138  -0.59338
 Alpha  occ. eigenvalues --   -0.59041  -0.58191  -0.58136  -0.57482  -0.57199
 Alpha  occ. eigenvalues --   -0.56100  -0.55745  -0.55441  -0.54893  -0.54606
 Alpha  occ. eigenvalues --   -0.54230  -0.53029  -0.52610  -0.52170  -0.51889
 Alpha  occ. eigenvalues --   -0.51670  -0.51202  -0.50517  -0.49698  -0.49363
 Alpha  occ. eigenvalues --   -0.49197  -0.48822  -0.48519  -0.48429  -0.48208
 Alpha  occ. eigenvalues --   -0.47720  -0.47547  -0.47487  -0.47213  -0.46954
 Alpha  occ. eigenvalues --   -0.46792  -0.46515  -0.46442  -0.46090  -0.45618
 Alpha  occ. eigenvalues --   -0.45468  -0.45264  -0.44611  -0.44574  -0.44074
 Alpha  occ. eigenvalues --   -0.43962  -0.43641  -0.43182  -0.42989  -0.42565
 Alpha  occ. eigenvalues --   -0.42452  -0.42273  -0.41969  -0.41133  -0.40834
 Alpha  occ. eigenvalues --   -0.40248  -0.39921  -0.39833  -0.39770  -0.39623
 Alpha  occ. eigenvalues --   -0.39507  -0.39128  -0.38927  -0.38709  -0.38557
 Alpha  occ. eigenvalues --   -0.38224  -0.37791  -0.37677  -0.37100  -0.36647
 Alpha  occ. eigenvalues --   -0.36122  -0.35412  -0.35113  -0.34395  -0.33186
 Alpha  occ. eigenvalues --   -0.32470  -0.32404  -0.31912  -0.31712  -0.30245
 Alpha  occ. eigenvalues --   -0.29471  -0.28450  -0.24115  -0.19239
 Alpha virt. eigenvalues --   -0.06903  -0.01078   0.03614   0.05283   0.06702
 Alpha virt. eigenvalues --    0.08042   0.08804   0.09929   0.11602   0.11948
 Alpha virt. eigenvalues --    0.12122   0.12495   0.13259   0.13806   0.14002
 Alpha virt. eigenvalues --    0.14153   0.14432   0.14864   0.15200   0.15498
 Alpha virt. eigenvalues --    0.15648   0.15985   0.16129   0.16746   0.16839
 Alpha virt. eigenvalues --    0.17010   0.17350   0.17710   0.17967   0.18110
 Alpha virt. eigenvalues --    0.18186   0.18696   0.18843   0.18962   0.19549
 Alpha virt. eigenvalues --    0.20059   0.20328   0.20599   0.20694   0.20755
 Alpha virt. eigenvalues --    0.21037   0.21246   0.21410   0.21712   0.22170
 Alpha virt. eigenvalues --    0.22625   0.22912   0.22924   0.22975   0.23179
 Alpha virt. eigenvalues --    0.23448   0.23502   0.23622   0.23869   0.24078
 Alpha virt. eigenvalues --    0.24335   0.24917   0.24980   0.25263   0.25889
 Alpha virt. eigenvalues --    0.26133   0.26399   0.26555   0.26967   0.27048
 Alpha virt. eigenvalues --    0.27354   0.27686   0.27977   0.28034   0.28903
 Alpha virt. eigenvalues --    0.29014   0.29196   0.29262   0.29735   0.29955
 Alpha virt. eigenvalues --    0.30320   0.30609   0.30789   0.30996   0.31259
 Alpha virt. eigenvalues --    0.31605   0.31845   0.32391   0.33198   0.33643
 Alpha virt. eigenvalues --    0.34281   0.34520   0.35369   0.35638   0.36320
 Alpha virt. eigenvalues --    0.37071   0.37699   0.38482   0.38641   0.39432
 Alpha virt. eigenvalues --    0.40317   0.41469   0.41520   0.42493   0.43412
 Alpha virt. eigenvalues --    0.44460   0.44708   0.44901   0.45056   0.45628
 Alpha virt. eigenvalues --    0.46977   0.49054   0.49461   0.50374   0.51633
 Alpha virt. eigenvalues --    0.53441   0.54440   0.54573   0.55215   0.56001
 Alpha virt. eigenvalues --    0.56497   0.56795   0.57480   0.57727   0.58031
 Alpha virt. eigenvalues --    0.58061   0.58329   0.58627   0.58980   0.59536
 Alpha virt. eigenvalues --    0.60033   0.60427   0.60516   0.60945   0.61639
 Alpha virt. eigenvalues --    0.61732   0.61866   0.61905   0.62356   0.62516
 Alpha virt. eigenvalues --    0.63067   0.63237   0.63384   0.63786   0.64218
 Alpha virt. eigenvalues --    0.64291   0.64741   0.65182   0.65295   0.65546
 Alpha virt. eigenvalues --    0.65834   0.65892   0.66279   0.66311   0.66552
 Alpha virt. eigenvalues --    0.67157   0.67404   0.67903   0.68623   0.68892
 Alpha virt. eigenvalues --    0.69007   0.69443   0.69714   0.69851   0.69910
 Alpha virt. eigenvalues --    0.70149   0.70720   0.71308   0.71480   0.72099
 Alpha virt. eigenvalues --    0.72311   0.72403   0.72938   0.73119   0.73787
 Alpha virt. eigenvalues --    0.74009   0.74127   0.74357   0.75087   0.75758
 Alpha virt. eigenvalues --    0.75877   0.76589   0.76761   0.77195   0.77432
 Alpha virt. eigenvalues --    0.77712   0.78333   0.78835   0.79058   0.79604
 Alpha virt. eigenvalues --    0.79731   0.80065   0.80404   0.80756   0.81013
 Alpha virt. eigenvalues --    0.81076   0.81663   0.82418   0.82588   0.82653
 Alpha virt. eigenvalues --    0.83448   0.83693   0.83889   0.84257   0.84580
 Alpha virt. eigenvalues --    0.84928   0.84990   0.85941   0.86009   0.86065
 Alpha virt. eigenvalues --    0.86577   0.86876   0.87838   0.87962   0.88082
 Alpha virt. eigenvalues --    0.88796   0.89122   0.89539   0.89761   0.89986
 Alpha virt. eigenvalues --    0.90228   0.90720   0.90992   0.91145   0.91437
 Alpha virt. eigenvalues --    0.91739   0.91882   0.92100   0.92393   0.92814
 Alpha virt. eigenvalues --    0.93202   0.93229   0.93534   0.93877   0.94097
 Alpha virt. eigenvalues --    0.94459   0.94500   0.94917   0.95047   0.95088
 Alpha virt. eigenvalues --    0.95655   0.95728   0.96016   0.96615   0.96658
 Alpha virt. eigenvalues --    0.96961   0.97431   0.97461   0.98120   0.98514
 Alpha virt. eigenvalues --    0.98947   0.99596   0.99744   1.00237   1.00385
 Alpha virt. eigenvalues --    1.00633   1.00805   1.01162   1.01758   1.01936
 Alpha virt. eigenvalues --    1.02141   1.02425   1.03317   1.03478   1.03747
 Alpha virt. eigenvalues --    1.03971   1.04282   1.04659   1.04904   1.05157
 Alpha virt. eigenvalues --    1.05636   1.06208   1.06774   1.07217   1.07528
 Alpha virt. eigenvalues --    1.07833   1.07947   1.08379   1.09206   1.09521
 Alpha virt. eigenvalues --    1.09596   1.09938   1.10960   1.11477   1.11697
 Alpha virt. eigenvalues --    1.12039   1.12462   1.12884   1.13467   1.13763
 Alpha virt. eigenvalues --    1.15318   1.15902   1.16153   1.16912   1.18131
 Alpha virt. eigenvalues --    1.19361   1.19827   1.20164   1.20672   1.21555
 Alpha virt. eigenvalues --    1.21907   1.22382   1.22588   1.22908   1.24321
 Alpha virt. eigenvalues --    1.25029   1.25553   1.26446   1.27631   1.28037
 Alpha virt. eigenvalues --    1.28259   1.28666   1.29748   1.30420   1.30962
 Alpha virt. eigenvalues --    1.32310   1.32622   1.32971   1.33955   1.34287
 Alpha virt. eigenvalues --    1.35169   1.35953   1.36259   1.36876   1.37399
 Alpha virt. eigenvalues --    1.38349   1.38376   1.39046   1.39678   1.40297
 Alpha virt. eigenvalues --    1.41266   1.41959   1.42303   1.42750   1.42995
 Alpha virt. eigenvalues --    1.44291   1.45187   1.45907   1.47358   1.47539
 Alpha virt. eigenvalues --    1.48688   1.49856   1.50205   1.51457   1.52151
 Alpha virt. eigenvalues --    1.52430   1.52774   1.53311   1.53697   1.54227
 Alpha virt. eigenvalues --    1.55807   1.57203   1.58057   1.58150   1.58924
 Alpha virt. eigenvalues --    1.59541   1.59935   1.60399   1.61304   1.61588
 Alpha virt. eigenvalues --    1.61618   1.62613   1.62925   1.63063   1.64182
 Alpha virt. eigenvalues --    1.64845   1.65060   1.65359   1.66634   1.67675
 Alpha virt. eigenvalues --    1.67879   1.68863   1.69323   1.71857   1.72042
 Alpha virt. eigenvalues --    1.73914   1.74223   1.74344   1.75304   1.75745
 Alpha virt. eigenvalues --    1.76161   1.76775   1.77874   1.78011   1.78093
 Alpha virt. eigenvalues --    1.78862   1.79163   1.79710   1.80305   1.81335
 Alpha virt. eigenvalues --    1.81623   1.82477   1.82548   1.83251   1.83668
 Alpha virt. eigenvalues --    1.83744   1.84014   1.85368   1.85652   1.86975
 Alpha virt. eigenvalues --    1.87191   1.87306   1.88136   1.88750   1.89001
 Alpha virt. eigenvalues --    1.89171   1.89669   1.90393   1.90758   1.90800
 Alpha virt. eigenvalues --    1.91042   1.91329   1.91529   1.91657   1.92296
 Alpha virt. eigenvalues --    1.92836   1.93269   1.93401   1.93701   1.94330
 Alpha virt. eigenvalues --    1.94716   1.94968   1.95601   1.95735   1.96026
 Alpha virt. eigenvalues --    1.96988   1.97409   1.98020   1.98604   1.98706
 Alpha virt. eigenvalues --    1.99092   1.99807   2.00607   2.01085   2.01728
 Alpha virt. eigenvalues --    2.01993   2.02473   2.02693   2.03238   2.03373
 Alpha virt. eigenvalues --    2.03847   2.04118   2.04872   2.05741   2.05890
 Alpha virt. eigenvalues --    2.06176   2.06208   2.06431   2.07251   2.07708
 Alpha virt. eigenvalues --    2.07917   2.08808   2.08969   2.09401   2.09945
 Alpha virt. eigenvalues --    2.10120   2.10199   2.10401   2.10904   2.10967
 Alpha virt. eigenvalues --    2.11461   2.12026   2.12385   2.12720   2.13085
 Alpha virt. eigenvalues --    2.13276   2.13351   2.13449   2.14177   2.14276
 Alpha virt. eigenvalues --    2.14971   2.15342   2.15568   2.15869   2.16601
 Alpha virt. eigenvalues --    2.16991   2.17235   2.17606   2.18122   2.18222
 Alpha virt. eigenvalues --    2.18606   2.19303   2.19451   2.19498   2.20450
 Alpha virt. eigenvalues --    2.20589   2.21097   2.21750   2.21886   2.22339
 Alpha virt. eigenvalues --    2.22694   2.23444   2.23637   2.24099   2.24453
 Alpha virt. eigenvalues --    2.24571   2.24681   2.25042   2.25408   2.26392
 Alpha virt. eigenvalues --    2.27338   2.27583   2.28289   2.29815   2.30127
 Alpha virt. eigenvalues --    2.30917   2.31275   2.31332   2.31962   2.32761
 Alpha virt. eigenvalues --    2.32859   2.33344   2.34186   2.34774   2.35550
 Alpha virt. eigenvalues --    2.35780   2.36191   2.36331   2.36851   2.37385
 Alpha virt. eigenvalues --    2.37638   2.38088   2.38317   2.39057   2.39092
 Alpha virt. eigenvalues --    2.39831   2.39953   2.40077   2.40645   2.41045
 Alpha virt. eigenvalues --    2.41466   2.42192   2.42721   2.43306   2.43679
 Alpha virt. eigenvalues --    2.44239   2.44927   2.44980   2.45988   2.46320
 Alpha virt. eigenvalues --    2.46630   2.46755   2.47664   2.47914   2.48447
 Alpha virt. eigenvalues --    2.48479   2.48989   2.49681   2.50052   2.50831
 Alpha virt. eigenvalues --    2.51326   2.51830   2.51981   2.52664   2.52995
 Alpha virt. eigenvalues --    2.53204   2.53820   2.54276   2.54642   2.54891
 Alpha virt. eigenvalues --    2.55877   2.56407   2.56839   2.57451   2.58210
 Alpha virt. eigenvalues --    2.58371   2.59333   2.60422   2.60483   2.60793
 Alpha virt. eigenvalues --    2.60920   2.61303   2.61826   2.62132   2.62297
 Alpha virt. eigenvalues --    2.62696   2.62862   2.63512   2.63731   2.64238
 Alpha virt. eigenvalues --    2.64536   2.65546   2.65679   2.65696   2.65886
 Alpha virt. eigenvalues --    2.66503   2.66643   2.67682   2.68026   2.68504
 Alpha virt. eigenvalues --    2.68862   2.69041   2.69441   2.70427   2.70727
 Alpha virt. eigenvalues --    2.71095   2.71259   2.71742   2.72380   2.73026
 Alpha virt. eigenvalues --    2.73524   2.73760   2.74290   2.74433   2.74698
 Alpha virt. eigenvalues --    2.74988   2.75282   2.75640   2.76996   2.77408
 Alpha virt. eigenvalues --    2.77821   2.78377   2.78627   2.78892   2.79580
 Alpha virt. eigenvalues --    2.79883   2.80588   2.80757   2.81472   2.82322
 Alpha virt. eigenvalues --    2.82620   2.83087   2.83487   2.84089   2.84142
 Alpha virt. eigenvalues --    2.85242   2.86120   2.86715   2.87322   2.88428
 Alpha virt. eigenvalues --    2.88708   2.88827   2.89151   2.89668   2.90088
 Alpha virt. eigenvalues --    2.90271   2.91151   2.91523   2.91652   2.92239
 Alpha virt. eigenvalues --    2.92789   2.93365   2.93886   2.94475   2.95360
 Alpha virt. eigenvalues --    2.96824   2.97250   2.97493   2.97819   2.99419
 Alpha virt. eigenvalues --    2.99628   3.00048   3.00758   3.01453   3.01849
 Alpha virt. eigenvalues --    3.02910   3.03207   3.04355   3.04998   3.05358
 Alpha virt. eigenvalues --    3.05706   3.06447   3.07114   3.07195   3.08601
 Alpha virt. eigenvalues --    3.09911   3.10507   3.10782   3.13023   3.14114
 Alpha virt. eigenvalues --    3.14317   3.14692   3.14775   3.15004   3.15598
 Alpha virt. eigenvalues --    3.16066   3.17047   3.18503   3.19737   3.21854
 Alpha virt. eigenvalues --    3.22706   3.23813   3.24306   3.26128   3.27938
 Alpha virt. eigenvalues --    3.28144   3.28808   3.30632   3.30805   3.32525
 Alpha virt. eigenvalues --    3.32842   3.33873   3.34639   3.35554   3.37047
 Alpha virt. eigenvalues --    3.37455   3.39420   3.40189   3.40916   3.41943
 Alpha virt. eigenvalues --    3.42254   3.43209   3.43382   3.44083   3.44506
 Alpha virt. eigenvalues --    3.45583   3.45931   3.47799   3.49728   3.49858
 Alpha virt. eigenvalues --    3.50619   3.51554   3.52396   3.53092   3.53656
 Alpha virt. eigenvalues --    3.54337   3.55229   3.56022   3.56949   3.58106
 Alpha virt. eigenvalues --    3.58924   3.61187   3.61557   3.62331   3.62378
 Alpha virt. eigenvalues --    3.64568   3.65078   3.65994   3.66606   3.69992
 Alpha virt. eigenvalues --    3.76371   3.78200   3.78280   3.79996   3.81448
 Alpha virt. eigenvalues --    3.85816   3.94835   4.03284   4.09211   4.15932
 Alpha virt. eigenvalues --    4.17523   4.19729   4.19995   4.20142   4.22020
 Alpha virt. eigenvalues --    4.24380   4.26430   4.28540   4.31586   4.32877
 Alpha virt. eigenvalues --    4.36567   4.37830   4.40843   4.43951   4.44758
 Alpha virt. eigenvalues --    4.47031   4.48026   4.48801   4.54447   4.55335
 Alpha virt. eigenvalues --    4.56347   4.56722   4.57554   4.59370   4.61555
 Alpha virt. eigenvalues --    4.64905   4.66295   4.69228   4.70001   4.71305
 Alpha virt. eigenvalues --    4.73226   4.77668   4.79312   4.80858   4.84205
 Alpha virt. eigenvalues --    4.85712   4.86250   4.91235   4.91736   4.95908
 Alpha virt. eigenvalues --    4.95952
          Condensed to atoms (all electrons):
 Mulliken charges:
               1
     1  O   -0.514770
     2  O   -0.561901
     3  O   -0.555507
     4  O   -0.539301
     5  C    0.215181
     6  C    0.217513
     7  C    0.028651
     8  C   -0.219795
     9  C   -0.156691
    10  C    0.154829
    11  C   -0.322793
    12  C   -0.118656
    13  C   -0.315464
    14  C   -0.294245
    15  C   -0.055333
    16  C    0.046132
    17  C   -0.379108
    18  C   -0.098890
    19  C   -0.048978
    20  C    0.020058
    21  C    0.234576
    22  C   -0.192765
    23  C    0.164645
    24  C   -0.179438
    25  C   -0.007609
    26  C   -0.290702
    27  C   -0.308682
    28  C   -0.283885
    29  C   -0.134455
    30  C    0.044239
    31  C    0.091093
    32  C   -0.248912
    33  C   -0.366738
    34  C   -0.118749
    35  C    0.046373
    36  C   -0.363077
    37  C   -0.034155
    38  C   -0.089336
    39  C   -0.111959
    40  C   -0.096561
    41  C   -0.137494
    42  C   -0.122588
    43  C    0.129824
    44  C   -0.358101
    45  H    0.108971
    46  H    0.126735
    47  H    0.110263
    48  H    0.092710
    49  H    0.093363
    50  H    0.109489
    51  H    0.100666
    52  H    0.129711
    53  H    0.100482
    54  H    0.083775
    55  H    0.087096
    56  H    0.102425
    57  H    0.097259
    58  H    0.109805
    59  H    0.096985
    60  H    0.309651
    61  H    0.041760
    62  H    0.137097
    63  H    0.133788
    64  H    0.103397
    65  H    0.085164
    66  H    0.086785
    67  H    0.046258
    68  H    0.116727
    69  H    0.075229
    70  H    0.110890
    71  H    0.106856
    72  H    0.103005
    73  H    0.115559
    74  H    0.072929
    75  H    0.131837
    76  H    0.095551
    77  H    0.086605
    78  H    0.082224
    79  H    0.103182
    80  H    0.110686
    81  H    0.072022
    82  H    0.302997
    83  H    0.327706
    84  H    0.115186
    85  H    0.139040
    86  H    0.113288
    87  H    0.110416
    88  H    0.067453
    89  H    0.111623
    90  H    0.126906
    91  H    0.106198
    92  H    0.061827
    93  H    0.083635
    94  H    0.089178
    95  H    0.086411
    96  H    0.082822
    97  H    0.083037
    98  H    0.095758
    99  H    0.129440
   100  H    0.123668
 Sum of Mulliken charges =  -0.00000
 Mulliken charges with hydrogens summed into heavy atoms:
               1
     1  O   -0.514770
     2  O   -0.252250
     3  O   -0.252510
     4  O   -0.211595
     5  C    0.215181
     6  C    0.217513
     7  C    0.028651
     8  C    0.015911
     9  C    0.046281
    10  C    0.248192
    11  C    0.017073
    12  C   -0.018174
    13  C   -0.042169
    14  C    0.009804
    15  C   -0.013573
    16  C    0.046132
    17  C   -0.004826
    18  C   -0.013726
    19  C    0.037807
    20  C    0.020058
    21  C    0.234576
    22  C   -0.029780
    23  C    0.239874
    24  C    0.038308
    25  C   -0.007609
    26  C    0.000791
    27  C    0.005311
    28  C    0.012206
    29  C   -0.062433
    30  C    0.044239
    31  C    0.091093
    32  C   -0.133726
    33  C   -0.003994
    34  C   -0.051296
    35  C    0.046373
    36  C   -0.018349
    37  C    0.027672
    38  C   -0.005701
    39  C   -0.022781
    40  C   -0.010150
    41  C   -0.054672
    42  C   -0.039551
    43  C    0.129824
    44  C   -0.009235
 Electronic spatial extent (au):  <R**2>=         115400.6295
 Charge=             -0.0000 electrons
 Dipole moment (field-independent basis, Debye):
    X=              3.8768    Y=             -0.2790    Z=              2.0443  Tot=              4.3917
 Quadrupole moment (field-independent basis, Debye-Ang):
   XX=           -241.5016   YY=           -256.6692   ZZ=           -283.7613
   XY=             10.3305   XZ=             39.4808   YZ=             -3.9914
 Traceless Quadrupole moment (field-independent basis, Debye-Ang):
   XX=             19.1425   YY=              3.9748   ZZ=            -23.1173
   XY=             10.3305   XZ=             39.4808   YZ=             -3.9914
 Octapole moment (field-independent basis, Debye-Ang**2):
  XXX=           1327.4167  YYY=             -2.0060  ZZZ=             -1.8506  XYY=            -26.0814
  XXY=            -83.3076  XXZ=            284.4709  XZZ=             60.7485  YZZ=             -2.4467
  YYZ=             -8.0465  XYZ=           -135.0523
 Hexadecapole moment (field-independent basis, Debye-Ang**3):
 XXXX=        -134698.1609 YYYY=          -3694.2810 ZZZZ=          -2282.1648 XXXY=          -1193.5378
 XXXZ=           7505.5126 YYYX=             95.5274 YYYZ=            -26.5756 ZZZX=             50.7532
 ZZZY=             -3.6627 XXYY=         -25272.9349 XXZZ=         -26518.8315 YYZZ=          -1051.4936
 XXYZ=            175.5348 YYXZ=            181.0710 ZZXY=             -2.5339
 N-N= 4.453679924616D+03 E-N=-1.321768666379D+04  KE= 1.839751634800D+03
 1\1\GINC-RYZEN-SSD3\SP\RCAM-B3LYP TD-FC\6-31G(d,p)\C40H56O4\PADAWAN\31
 -Jul-2019\0\\# td=(NStates=1) CAM-B3LYP/6-31G(d,p)\\TD\\0,1\O,0,-11.75
 44521128,0.2723478832,-1.4969268563\O,0,-13.013062142,-2.4620945175,1.
 5337290579\O,0,10.6682223421,-1.1449843863,-2.1138851148\O,0,14.414564
 8232,-1.0552142429,0.0001455272\C,0,-11.0347916464,-0.1310470594,-0.36
 3815806\C,0,-11.8380600957,-1.1670078807,-1.2637952198\C,0,-11.8014521
 882,0.3773044132,0.9139410491\C,0,-13.0068758913,-1.8387040283,-0.8826
 49899\C,0,-13.2621146695,-0.1048579334,0.9333380217\C,0,-13.485444978,
 -1.4819997378,0.586367404\C,0,-10.9181174004,-1.8837737949,-2.24846716
 5\C,0,-9.6634857924,0.1051076446,-0.4356905272\C,0,-11.1287788553,-0.1
 586814641,2.2686919363\C,0,-11.670957476,1.9328783909,0.8977878705\C,0
 ,-8.7182252442,-0.6642444656,0.0415728963\C,0,-7.2178997796,-0.6732591
 72,-0.004692769\C,0,-6.4140854234,-1.9549341822,0.1558378201\C,0,-6.60
 28359453,0.60530136,-0.0291514703\C,0,-5.2731072523,0.7943414708,-0.15
 54598762\C,0,11.9014693938,0.1261126408,1.3386233904\C,0,11.6905963497
 ,-0.720168172,-1.2045043301\C,0,12.5403512632,-1.2416483945,1.63392812
 62\C,0,13.3515798447,-1.8066351969,0.4001939838\C,0,12.4001149462,-2.0
 052750365,-0.7487088334\C,0,11.1870455925,0.0492096689,0.0785650368\C,
 0,10.9851799229,0.3637230143,2.5235946997\C,0,12.9224953662,1.30049327
 01,1.1984228933\C,0,12.6110274089,0.1958284561,-2.0682707749\C,0,-4.72
 89093866,2.1159441004,-0.1924640953\C,0,9.9141326008,0.4475255554,-0.0
 377249492\C,0,-3.4445496134,2.5553642901,-0.2643666974\C,0,8.707010487
 ,1.052571591,-0.2478891289\C,0,-3.0620478899,4.0251739769,-0.427992531
 4\C,0,-2.3330902241,1.60691254,-0.1770302377\C,0,7.4444339859,0.283258
 9139,-0.0043396181\C,0,7.6715718937,-1.3064775999,0.0433642593\C,0,6.2
 81939542,0.8069776281,-0.2206259986\C,0,-0.9350676383,1.9032394476,-0.
 212219397\C,0,5.0521368165,0.2073698531,0.0166830371\C,0,0.0864251215,
 0.9823615461,-0.0980889117\C,0,3.8155309608,0.8843487853,-0.223589828\
 C,0,1.50239218,1.2597677045,-0.2486172426\C,0,2.5359814986,0.394848784
 6,-0.1102176639\C,0,2.3370335651,-1.1211962999,0.1471933129\H,0,-12.82
 97247733,-2.7977827561,-0.9889341174\H,0,-13.7310583295,-1.4537193561,
 -1.5158480395\H,0,-13.601097912,-0.0139243236,1.8375564383\H,0,-13.858
 7852721,0.5037154986,0.1476724328\H,0,-14.5763049346,-1.6007987933,0.4
 893505394\H,0,-10.3935579727,-2.6368504678,-1.7474400394\H,0,-11.52089
 22981,-2.2299877902,-3.101468433\H,0,-10.2956817517,-0.9789070993,-2.5
 271343259\H,0,-9.3257812329,0.9959017212,-0.8239662067\H,0,-9.96383771
 14,0.176138878,2.261701913\H,0,-11.5955849194,0.3112178234,3.217200070
 1\H,0,-11.2909797917,-1.2545023267,2.4949002797\H,0,-12.4612486674,2.2
 495910811,0.1229055066\H,0,-12.1635625957,2.3485304285,1.6322969415\H,
 0,-10.591949477,2.2179423847,0.6247567692\H,0,-12.0861616887,-2.866689
 5426,1.1873632152\H,0,-8.9201928612,-1.7569840561,0.4816272616\H,0,-5.
 9402734734,-2.2250458297,-0.7358416286\H,0,-5.5806204773,-2.0313883714
 ,0.7658249787\H,0,-7.1168417948,-2.776029876,0.4933454853\H,0,-7.28386
 96981,1.5409624253,0.0573360571\H,0,-4.5964462893,0.0485434727,0.09873
 60979\H,0,13.33542922,-1.047166404,2.5853634769\H,0,11.9253277098,-2.0
 07910171,2.1306290626\H,0,13.6367560325,-2.8927009351,0.5730042263\H,0
 ,12.9983472732,-2.3215986384,-1.6748105758\H,0,11.3988898972,-2.650884
 2123,-0.4702723693\H,0,11.4326228705,0.0501753842,3.4744224809\H,0,10.
 7190088786,1.3047360367,2.4665141756\H,0,9.7616737886,-0.0308013946,2.
 5019464358\H,0,13.7279897009,0.9038790121,0.3695610209\H,0,12.42900551
 38,2.3736468025,1.0484795537\H,0,13.5452603631,1.4959140705,2.15239172
 08\H,0,13.0057413936,-0.2846750771,-3.0949819501\H,0,12.2645635248,1.0
 088529762,-2.4004679817\H,0,13.4022710597,0.5575018031,-1.4951049959\H
 ,0,-5.5031825422,2.8486092477,-0.3786392747\H,0,10.0587071213,-0.38993
 76514,-2.0280351393\H,0,15.2892717724,-1.158705685,0.6036289622\H,0,8.
 6262344742,2.1127035976,-0.2785751347\H,0,-2.431508235,4.4098374334,0.
 3378796177\H,0,-2.4037091352,4.1031575406,-1.4266857777\H,0,-4.0281692
 02,4.5677749593,-0.4914789494\H,0,-2.5203116513,0.3705692689,-0.366889
 6436\H,0,6.7556283127,-1.7329928614,-0.2684243577\H,0,8.6358888034,-1.
 377432468,-0.5320939835\H,0,7.8051204336,-1.632475576,1.1132350844\H,0
 ,6.5145366008,1.7867624816,-0.4238244021\H,0,-0.7036817252,3.024276471
 1,-0.3423641479\H,0,5.2178977762,-0.8119276895,0.4805407352\H,0,-0.094
 438367,-0.1501968326,0.1150041115\H,0,3.9988790558,1.9948551217,-0.496
 8819132\H,0,1.7689037656,2.3274085328,-0.4880915076\H,0,1.2416730021,-
 1.1451211163,0.2072697226\H,0,2.70635196,-1.887675069,-0.5282805981\H,
 0,2.795206217,-1.45380961,1.0702703136\\Version=ES64L-G16RevA.03\State
 =1-A\HF=-1857.258996\RMSD=6.575e-09\PG=C01 [X(C40H56O4)]\\@


 PERICLES, SOPHOCLES,
 PELOPONESIAN WAR,
 FRENCH VERBS, LATIN VERBS
 H2SO4.
 Job cpu time:       0 days  6 hours 53 minutes 43.1 seconds.
 Elapsed time:       0 days  2 hours 18 minutes  8.1 seconds.
 File lengths (MBytes):  RWF=   3379 Int=      0 D2E=      0 Chk=     90 Scr=      1
 Normal termination of Gaussian 16 at Wed Jul 31 03:57:37 2019.
