 Entering Gaussian System, Link 0=g16
 Input=Geometria-59-.com
 Output=Geometria-59-.log
 Initial command:
 /usr/local/g16/l1.exe "/home/padawan/israel-mol/neoxanthin/spectra/emi/Gau-52464.inp" -scrdir="/home/padawan/israel-mol/neoxanthin/spectra/emi/"
 Entering Link 1 = /usr/local/g16/l1.exe PID=     52466.
  
 Copyright (c) 1988,1990,1992,1993,1995,1998,2003,2009,2016,
            Gaussian, Inc.  All Rights Reserved.
  
 This is part of the Gaussian(R) 16 program.  It is based on
 the Gaussian(R) 09 system (copyright 2009, Gaussian, Inc.),
 the Gaussian(R) 03 system (copyright 2003, Gaussian, Inc.),
 the Gaussian(R) 98 system (copyright 1998, Gaussian, Inc.),
 the Gaussian(R) 94 system (copyright 1995, Gaussian, Inc.),
 the Gaussian 92(TM) system (copyright 1992, Gaussian, Inc.),
 the Gaussian 90(TM) system (copyright 1990, Gaussian, Inc.),
 the Gaussian 88(TM) system (copyright 1988, Gaussian, Inc.),
 the Gaussian 86(TM) system (copyright 1986, Carnegie Mellon
 University), and the Gaussian 82(TM) system (copyright 1983,
 Carnegie Mellon University). Gaussian is a federally registered
 trademark of Gaussian, Inc.
  
 This software contains proprietary and confidential information,
 including trade secrets, belonging to Gaussian, Inc.
  
 This software is provided under written license and may be
 used, copied, transmitted, or stored only in accord with that
 written license.
  
 The following legend is applicable only to US Government
 contracts under FAR:
  
                    RESTRICTED RIGHTS LEGEND
  
 Use, reproduction and disclosure by the US Government is
 subject to restrictions as set forth in subparagraphs (a)
 and (c) of the Commercial Computer Software - Restricted
 Rights clause in FAR 52.227-19.
  
 Gaussian, Inc.
 340 Quinnipiac St., Bldg. 40, Wallingford CT 06492
  
  
 ---------------------------------------------------------------
 Warning -- This program may not be used in any manner that
 competes with the business of Gaussian, Inc. or will provide
 assistance to any competitor of Gaussian, Inc.  The licensee
 of this program is prohibited from giving any competitor of
 Gaussian, Inc. access to this program.  By using this program,
 the user acknowledges that Gaussian, Inc. is engaged in the
 business of creating and licensing software in the field of
 computational chemistry and represents and warrants to the
 licensee that it is not a competitor of Gaussian, Inc. and that
 it will not use this program in any manner prohibited above.
 ---------------------------------------------------------------
  

 Cite this work as:
 Gaussian 16, Revision A.03,
 M. J. Frisch, G. W. Trucks, H. B. Schlegel, G. E. Scuseria, 
 M. A. Robb, J. R. Cheeseman, G. Scalmani, V. Barone, 
 G. A. Petersson, H. Nakatsuji, X. Li, M. Caricato, A. V. Marenich, 
 J. Bloino, B. G. Janesko, R. Gomperts, B. Mennucci, H. P. Hratchian, 
 J. V. Ortiz, A. F. Izmaylov, J. L. Sonnenberg, D. Williams-Young, 
 F. Ding, F. Lipparini, F. Egidi, J. Goings, B. Peng, A. Petrone, 
 T. Henderson, D. Ranasinghe, V. G. Zakrzewski, J. Gao, N. Rega, 
 G. Zheng, W. Liang, M. Hada, M. Ehara, K. Toyota, R. Fukuda, 
 J. Hasegawa, M. Ishida, T. Nakajima, Y. Honda, O. Kitao, H. Nakai, 
 T. Vreven, K. Throssell, J. A. Montgomery, Jr., J. E. Peralta, 
 F. Ogliaro, M. J. Bearpark, J. J. Heyd, E. N. Brothers, K. N. Kudin, 
 V. N. Staroverov, T. A. Keith, R. Kobayashi, J. Normand, 
 K. Raghavachari, A. P. Rendell, J. C. Burant, S. S. Iyengar, 
 J. Tomasi, M. Cossi, J. M. Millam, M. Klene, C. Adamo, R. Cammi, 
 J. W. Ochterski, R. L. Martin, K. Morokuma, O. Farkas, 
 J. B. Foresman, and D. J. Fox, Gaussian, Inc., Wallingford CT, 2016.
 
 ******************************************
 Gaussian 16:  ES64L-G16RevA.03 25-Dec-2016
                29-Jul-2019 
 ******************************************
 %nproc=3
 Will use up to    3 processors via shared memory.
 %Mem=2GB
 -------------------------------------
 # td=(NStates=1) CAM-B3LYP/6-31G(d,p)
 -------------------------------------
 1/38=1,172=1/1;
 2/12=2,17=6,18=5,40=1/2;
 3/5=1,6=6,7=101,11=9,25=1,30=1,74=-40/1,2,3,8;
 4//1;
 5/5=2,38=5/2;
 8/6=1,10=2,108=1/1;
 9/41=1,42=1,70=2/14;
 6/7=2,8=2,9=2,10=2/1;
 99/5=1,9=1/99;
 --
 TD
 --
 Symbolic Z-matrix:
 Charge =  0 Multiplicity = 1
 8                    -11.72596   0.18256  -1.57478 
 8                    -13.05768  -2.40231   1.45909 
 8                     10.56902  -0.85051  -2.20549 
 8                     14.44085  -0.99717  -0.44778 
 6                    -11.02287  -0.16509  -0.40985 
 6                    -11.67854  -1.13693  -1.22074 
 6                    -11.79946   0.43975   0.8135 
 6                    -12.95215  -2.00257  -0.94184 
 6                    -13.24676  -0.01286   0.72233 
 6                    -13.52561  -1.47013   0.53576 
 6                    -10.82965  -2.12278  -2.21525 
 6                    -9.4948    0.0986   -0.4797 
 6                    -11.12913   0.19422   2.2492 
 6                    -11.67531   2.00242   0.57559 
 6                    -8.65789  -0.73767   0.20988 
 6                    -7.22919  -0.43534   0.19288 
 6                    -6.41203  -1.79326   0.53312 
 6                    -6.59944   0.67538  -0.23694 
 6                    -5.27286   0.90099  -0.13112 
 6                     11.88542  -0.02523   1.27017 
 6                     11.61952  -0.56762  -1.25508 
 6                     12.72851  -1.33667   1.26358 
 6                     13.43567  -1.76657   0.08605 
 6                     12.25643  -1.82582  -1.04038 
 6                     10.99122   0.07382   0.00241 
 6                     11.11983   0.00754   2.54661 
 6                     12.89139   1.15042   1.30297 
 6                     12.4314   0.48636  -1.99397 
 6                    -4.62646   2.15786  -0.39976 
 6                     9.88378   0.63699  -0.04312 
 6                    -3.29762   2.40957  -0.44316 
 6                     8.61337   1.03804   0.06819 
 6                    -2.95028   3.87918  -0.74597 
 6                    -2.28782   1.48301  -0.19895 
 6                     7.40791   0.18007   0.12403 
 6                     7.65049  -1.32785   0.25304 
 6                     6.23235   0.75538   0.06325 
 6                    -0.88683   1.85993  -0.22913 
 6                     4.98387   0.14561   0.19319 
 6                     0.00405   0.82225   0.02567 
 6                     3.76577   0.83122   0.13836 
 6                     1.37004   1.11113   0.08781 
 6                     2.48651   0.27677   0.23056 
 6                     2.40229  -1.13161   0.52643 
 1                    -12.9374  -2.92373  -0.7857 
 1                    -13.52205  -1.68137  -1.96369 
 1                    -13.75016   0.06408   1.73324 
 1                    -13.74877   0.72029   0.13628 
 1                    -14.65142  -1.85009   0.543 
 1                    -10.54505  -2.97573  -1.43653 
 1                    -11.42383  -2.63114  -3.11793 
 1                    -9.90672  -1.50303  -2.60681 
 1                    -9.25579   0.87329  -1.03508 
 1                    -10.18232   0.77493   1.94158 
 1                    -11.70998   0.8624    3.07344 
 1                    -10.88971  -0.88652   2.70645 
 1                    -12.38241   2.24782  -0.35855 
 1                    -12.09346   2.65516   1.37456 
 1                    -10.58369   2.34499   0.51272 
 1                    -11.89028  -2.07828   1.71711 
 1                    -9.03043  -1.66812   0.77779 
 1                    -5.7062   -1.71966  -0.50671 
 1                    -5.69446  -1.65934   1.36145 
 1                    -7.01072  -2.58802   0.66683 
 1                    -7.32623   1.61481  -0.4177 
 1                    -4.82007  -0.02462   0.2807 
 1                     13.33983  -1.26845   2.24309 
 1                     11.87456  -2.00965   1.81628 
 1                     13.86062  -2.79903   0.21681 
 1                     12.53927  -2.24456  -2.09684 
 1                     11.65987  -2.60837  -0.73478 
 1                     11.66222  -0.15959   3.42759 
 1                     10.74079   0.90351   2.90375 
 1                     10.21649  -0.47826   2.37066 
 1                     13.72137   1.05173   0.66435 
 1                     12.46207   2.08377   1.08903 
 1                     13.4164   1.20223   2.3065 
 1                     12.78697  -0.00561  -2.88926 
 1                     11.9185   1.53115  -2.15172 
 1                     13.43857   0.68992  -1.43156 
 1                    -5.28403   3.0683   -0.68347 
 1                     9.82669  -0.14554  -2.07683 
 1                     15.4771  -0.88805  -0.06688 
 1                     8.3945    2.177     0.27213 
 1                    -2.42959   4.34315   0.21564 
 1                    -2.39416   3.97353  -1.66818 
 1                    -3.88638   4.45991  -1.1213 
 1                    -2.80209   0.44869  -0.2594 
 1                     6.81545  -1.9322   -0.17511 
 1                     8.73639  -1.70568  -0.07587 
 1                     7.80531  -1.73328   1.30455 
 1                     6.30861   1.81881   0.05336 
 1                    -0.55109   2.90143  -0.55699 
 1                     4.89397  -0.94813   0.38408 
 1                    -0.46884  -0.04585   0.31085 
 1                     3.72432   1.86179  -0.05353 
 1                     1.42363   2.09951  -0.38626 
 1                     1.39557  -1.6108    0.43247 
 1                     2.96901  -1.79306  -0.12701 
 1                     2.62592  -1.38034   1.45107 
 
 Stoichiometry    C40H56O4
 Framework group  C1[X(C40H56O4)]
 Deg. of freedom   294
 Full point group                 C1      NOp   1
 Largest Abelian subgroup         C1      NOp   1
 Largest concise Abelian subgroup C1      NOp   1
                         Standard orientation:                         
 ---------------------------------------------------------------------
 Center     Atomic      Atomic             Coordinates (Angstroms)
 Number     Number       Type             X           Y           Z
 ---------------------------------------------------------------------
      1          8           0      -11.728146    0.146513   -1.571366
      2          8           0      -13.058440   -2.373124    1.517511
      3          8           0       10.566543   -0.899894   -2.190306
      4          8           0       14.439187   -1.009089   -0.431669
      5          6           0      -11.024514   -0.176243   -0.399618
      6          6           0      -11.680561   -1.165139   -1.189314
      7          6           0      -11.800538    0.454528    0.810932
      8          6           0      -12.954034   -2.024629   -0.891437
      9          6           0      -13.247880    0.000088    0.730095
     10          6           0      -13.526806   -1.460824    0.574749
     11          6           0      -10.832125   -2.171951   -2.162993
     12          6           0       -9.496476    0.085887   -0.475786
     13          6           0      -11.129535    0.239641    2.251223
     14          6           0      -11.676501    2.011769    0.539720
     15          6           0       -8.659242   -0.735505    0.231069
     16          6           0       -7.230553   -0.433608    0.206964
     17          6           0       -6.413223   -1.783978    0.575675
     18          6           0       -6.601002    0.667693   -0.246715
     19          6           0       -5.274376    0.895502   -0.146338
     20          6           0       11.884554   -0.000758    1.266370
     21          6           0       11.617481   -0.596824   -1.246623
     22          6           0       12.727648   -1.312041    1.287334
     23          6           0       13.434260   -1.766938    0.118902
     24          6           0       12.254498   -1.850162   -1.005461
     25          6           0       10.989761    0.071270   -0.002795
     26          6           0       11.119564    0.059203    2.542179
     27          6           0       12.890539    1.175318    1.273654
     28          6           0       12.429013    0.441170   -2.008182
     29          6           0       -4.628108    2.146356   -0.442003
     30          6           0        9.882301    0.633351   -0.059790
     31          6           0       -3.299295    2.397078   -0.491374
     32          6           0        8.611943    1.036684    0.043540
     33          6           0       -2.952094    3.859900   -0.825587
     34          6           0       -2.289368    1.475925   -0.227948
     35          6           0        7.406512    0.180104    0.118208
     36          6           0        7.649158   -1.324725    0.279194
     37          6           0        6.230926    0.753999    0.045732
     38          6           0       -0.888401    1.852104   -0.266802
     39          6           0        4.982504    0.147145    0.189213
     40          6           0        0.002601    0.820083    0.009637
     41          6           0        3.764372    0.831438    0.120352
     42          6           0        1.368621    1.110220    0.064965
     43          6           0        2.485158    0.279079    0.224939
     44          6           0        2.401085   -1.122672    0.550791
     45          1           0      -12.939202   -2.942248   -0.715722
     46          1           0      -13.524408   -1.725270   -1.919639
     47          1           0      -13.750809    0.098553    1.739370
     48          1           0      -13.750167    0.720585    0.128797
     49          1           0      -14.652615   -1.840543    0.590601
     50          1           0      -10.547163   -3.008125   -1.366405
     51          1           0      -11.426727   -2.699424   -3.054357
     52          1           0       -9.909384   -1.560691   -2.568096
     53          1           0       -9.257733    0.848570   -1.047648
     54          1           0      -10.182872    0.813655    1.930860
     55          1           0      -11.710002    0.925232    3.061307
     56          1           0      -10.889899   -0.831113    2.731284
     57          1           0      -12.384040    2.237221   -0.399105
     58          1           0      -12.094279    2.681391    1.324802
     59          1           0      -10.584913    2.352915    0.469058
     60          1           0      -11.890927   -2.043680    1.768020
     61          1           0       -9.031518   -1.653636    0.818844
     62          1           0       -5.707883   -1.732550   -0.465810
     63          1           0       -5.695275   -1.632449    1.400638
     64          1           0       -7.011854   -2.575709    0.726573
     65          1           0       -7.327889    1.603064   -0.447109
     66          1           0       -4.821392   -0.021133    0.284899
     67          1           0       13.339424   -1.222973    2.264881
     68          1           0       11.873961   -1.973091    1.854640
     69          1           0       13.859275   -2.796381    0.271427
     70          1           0       12.536848   -2.291320   -2.052897
     71          1           0       11.658079   -2.626023   -0.682982
     72          1           0       11.662357   -0.089116    3.426268
     73          1           0       10.740684    0.962579    2.880327
     74          1           0       10.216140   -0.430224    2.377046
     75          1           0       13.720218    1.063046    0.636892
     76          1           0       12.461112    2.103901    1.040078
     77          1           0       13.416011    1.248500    2.275602
     78          1           0       12.784168   -0.069759   -2.892951
     79          1           0       11.916035    1.482363   -2.187916
     80          1           0       13.436449    0.656658   -1.450701
     81          1           0       -5.285815    3.050552   -0.744734
     82          1           0        9.824272   -0.192337   -2.076344
     83          1           0       15.475617   -0.891885   -0.053661
     84          1           0        8.393164    2.179732    0.223268
     85          1           0       -2.430959    4.344250    0.125679
     86          1           0       -2.396405    3.934584   -1.749852
     87          1           0       -3.888369    4.432513   -1.212766
     88          1           0       -2.803667    0.440552   -0.266105
     89          1           0        6.813926   -1.938057   -0.135585
     90          1           0        8.734905   -1.709478   -0.042091
     91          1           0        7.804470   -1.707657    1.339040
     92          1           0        6.307168    1.816970    0.013153
     93          1           0       -0.552812    2.886390   -0.616928
     94          1           0        4.892693   -0.942285    0.403404
     95          1           0       -0.470145   -0.041733    0.313468
     96          1           0        3.722834    1.857684   -0.093425
     97          1           0        1.421986    2.088269   -0.430077
     98          1           0        1.394322   -1.603749    0.467531
     99          1           0        2.967502   -1.797895   -0.088674
    100          1           0        2.625146   -1.351652    1.480413
 ---------------------------------------------------------------------
 Rotational constants (GHZ):           0.2674084           0.0088770           0.0088015
 Standard basis: 6-31G(d,p) (6D, 7F)
 There are   940 symmetry adapted cartesian basis functions of A   symmetry.
 There are   940 symmetry adapted basis functions of A   symmetry.
   940 basis functions,  1624 primitive gaussians,   940 cartesian basis functions
   164 alpha electrons      164 beta electrons
       nuclear repulsion energy      4456.6464949241 Hartrees.
 NAtoms=  100 NActive=  100 NUniq=  100 SFac= 1.00D+00 NAtFMM=   60 NAOKFM=T Big=T
 Integral buffers will be    131072 words long.
 Raffenetti 1 integral format.
 Two-electron integral symmetry is turned on.
 One-electron integrals computed using PRISM.
 NBasis=   940 RedAO= T EigKep=  3.43D-04  NBF=   940
 NBsUse=   940 1.00D-06 EigRej= -1.00D+00 NBFU=   940
 ExpMin= 1.61D-01 ExpMax= 5.48D+03 ExpMxC= 8.25D+02 IAcc=3 IRadAn=         5 AccDes= 0.00D+00
 Harris functional with IExCor=20419 and IRadAn=       5 diagonalized for initial guess.
 HarFok:  IExCor=20419 AccDes= 0.00D+00 IRadAn=         5 IDoV= 1 UseB2=F ITyADJ=14
 ICtDFT=  3500011 ScaDFX=  1.000000  1.000000  1.000000  1.000000
 FoFCou: FMM=F IPFlag=           0 FMFlag=      100000 FMFlg1=        2001
         NFxFlg=           0 DoJE=T BraDBF=F KetDBF=T FulRan=T
         wScrn=  0.000000 ICntrl=       500 IOpCl=  0 I1Cent=   200000004 NGrid=           0
         NMat0=    1 NMatS0=      1 NMatT0=    0 NMatD0=    1 NMtDS0=    0 NMtDT0=    0
 Petite list used in FoFCou.
 Requested convergence on RMS density matrix=1.00D-08 within 128 cycles.
 Requested convergence on MAX density matrix=1.00D-06.
 Requested convergence on             energy=1.00D-06.
 No special actions if energy rises.
 Integral accuracy reduced to 1.0D-05 until final iterations.
 Initial convergence to 1.0D-05 achieved.  Increase integral accuracy.
 SCF Done:  E(RCAM-B3LYP) =  -1857.19904380     A.U. after   15 cycles
            NFock= 15  Conv=0.71D-08     -V/T= 2.0098
 DoSCS=F DFT=T ScalE2(SS,OS)=  1.000000  1.000000
 ExpMin= 1.61D-01 ExpMax= 5.48D+03 ExpMxC= 8.25D+02 IAcc=3 IRadAn=         5 AccDes= 0.00D+00
 HarFok:  IExCor=  205 AccDes= 0.00D+00 IRadAn=         5 IDoV=-2 UseB2=F ITyADJ=14
 ICtDFT= 12500011 ScaDFX=  1.000000  1.000000  1.000000  1.000000
 GSVD:  LWork=       -2288 too small for GESVD, short by       10340 words or       10340 for optimal perf.
 Range of M.O.s used for correlation:    45   940
 NBasis=   940 NAE=   164 NBE=   164 NFC=    44 NFV=     0
 NROrb=    896 NOA=   120 NOB=   120 NVA=   776 NVB=   776
 Orbital symmetries:
       Occupied  (A) (A) (A) (A) (A) (A) (A) (A) (A) (A) (A) (A)
                 (A) (A) (A) (A) (A) (A) (A) (A) (A) (A) (A) (A)
                 (A) (A) (A) (A) (A) (A) (A) (A) (A) (A) (A) (A)
                 (A) (A) (A) (A) (A) (A) (A) (A) (A) (A) (A) (A)
                 (A) (A) (A) (A) (A) (A) (A) (A) (A) (A) (A) (A)
                 (A) (A) (A) (A) (A) (A) (A) (A) (A) (A) (A) (A)
                 (A) (A) (A) (A) (A) (A) (A) (A) (A) (A) (A) (A)
                 (A) (A) (A) (A) (A) (A) (A) (A) (A) (A) (A) (A)
                 (A) (A) (A) (A) (A) (A) (A) (A) (A) (A) (A) (A)
                 (A) (A) (A) (A) (A) (A) (A) (A) (A) (A) (A) (A)
                 (A) (A) (A) (A) (A) (A) (A) (A) (A) (A) (A) (A)
                 (A) (A) (A) (A) (A) (A) (A) (A) (A) (A) (A) (A)
                 (A) (A) (A) (A) (A) (A) (A) (A) (A) (A) (A) (A)
                 (A) (A) (A) (A) (A) (A) (A) (A)
       Virtual   (A) (A) (A) (A) (A) (A) (A) (A) (A) (A) (A) (A)
                 (A) (A) (A) (A) (A) (A) (A) (A) (A) (A) (A) (A)
                 (A) (A) (A) (A) (A) (A) (A) (A) (A) (A) (A) (A)
                 (A) (A) (A) (A) (A) (A) (A) (A) (A) (A) (A) (A)
                 (A) (A) (A) (A) (A) (A) (A) (A) (A) (A) (A) (A)
                 (A) (A) (A) (A) (A) (A) (A) (A) (A) (A) (A) (A)
                 (A) (A) (A) (A) (A) (A) (A) (A) (A) (A) (A) (A)
                 (A) (A) (A) (A) (A) (A) (A) (A) (A) (A) (A) (A)
                 (A) (A) (A) (A) (A) (A) (A) (A) (A) (A) (A) (A)
                 (A) (A) (A) (A) (A) (A) (A) (A) (A) (A) (A) (A)
                 (A) (A) (A) (A) (A) (A) (A) (A) (A) (A) (A) (A)
                 (A) (A) (A) (A) (A) (A) (A) (A) (A) (A) (A) (A)
                 (A) (A) (A) (A) (A) (A) (A) (A) (A) (A) (A) (A)
                 (A) (A) (A) (A) (A) (A) (A) (A) (A) (A) (A) (A)
                 (A) (A) (A) (A) (A) (A) (A) (A) (A) (A) (A) (A)
                 (A) (A) (A) (A) (A) (A) (A) (A) (A) (A) (A) (A)
                 (A) (A) (A) (A) (A) (A) (A) (A) (A) (A) (A) (A)
                 (A) (A) (A) (A) (A) (A) (A) (A) (A) (A) (A) (A)
                 (A) (A) (A) (A) (A) (A) (A) (A) (A) (A) (A) (A)
                 (A) (A) (A) (A) (A) (A) (A) (A) (A) (A) (A) (A)
                 (A) (A) (A) (A) (A) (A) (A) (A) (A) (A) (A) (A)
                 (A) (A) (A) (A) (A) (A) (A) (A) (A) (A) (A) (A)
                 (A) (A) (A) (A) (A) (A) (A) (A) (A) (A) (A) (A)
                 (A) (A) (A) (A) (A) (A) (A) (A) (A) (A) (A) (A)
                 (A) (A) (A) (A) (A) (A) (A) (A) (A) (A) (A) (A)
                 (A) (A) (A) (A) (A) (A) (A) (A) (A) (A) (A) (A)
                 (A) (A) (A) (A) (A) (A) (A) (A) (A) (A) (A) (A)
                 (A) (A) (A) (A) (A) (A) (A) (A) (A) (A) (A) (A)
                 (A) (A) (A) (A) (A) (A) (A) (A) (A) (A) (A) (A)
                 (A) (A) (A) (A) (A) (A) (A) (A) (A) (A) (A) (A)
                 (A) (A) (A) (A) (A) (A) (A) (A) (A) (A) (A) (A)
                 (A) (A) (A) (A) (A) (A) (A) (A) (A) (A) (A) (A)
                 (A) (A) (A) (A) (A) (A) (A) (A) (A) (A) (A) (A)
                 (A) (A) (A) (A) (A) (A) (A) (A) (A) (A) (A) (A)
                 (A) (A) (A) (A) (A) (A) (A) (A) (A) (A) (A) (A)
                 (A) (A) (A) (A) (A) (A) (A) (A) (A) (A) (A) (A)
                 (A) (A) (A) (A) (A) (A) (A) (A) (A) (A) (A) (A)
                 (A) (A) (A) (A) (A) (A) (A) (A) (A) (A) (A) (A)
                 (A) (A) (A) (A) (A) (A) (A) (A) (A) (A) (A) (A)
                 (A) (A) (A) (A) (A) (A) (A) (A) (A) (A) (A) (A)
                 (A) (A) (A) (A) (A) (A) (A) (A) (A) (A) (A) (A)
                 (A) (A) (A) (A) (A) (A) (A) (A) (A) (A) (A) (A)
                 (A) (A) (A) (A) (A) (A) (A) (A) (A) (A) (A) (A)
                 (A) (A) (A) (A) (A) (A) (A) (A) (A) (A) (A) (A)
                 (A) (A) (A) (A) (A) (A) (A) (A) (A) (A) (A) (A)
                 (A) (A) (A) (A) (A) (A) (A) (A) (A) (A) (A) (A)
                 (A) (A) (A) (A) (A) (A) (A) (A) (A) (A) (A) (A)
                 (A) (A) (A) (A) (A) (A) (A) (A) (A) (A) (A) (A)
                 (A) (A) (A) (A) (A) (A) (A) (A) (A) (A) (A) (A)
                 (A) (A) (A) (A) (A) (A) (A) (A) (A) (A) (A) (A)
                 (A) (A) (A) (A) (A) (A) (A) (A) (A) (A) (A) (A)
                 (A) (A) (A) (A) (A) (A) (A) (A) (A) (A) (A) (A)
                 (A) (A) (A) (A) (A) (A) (A) (A) (A) (A) (A) (A)
                 (A) (A) (A) (A) (A) (A) (A) (A) (A) (A) (A) (A)
                 (A) (A) (A) (A) (A) (A) (A) (A) (A) (A) (A) (A)
                 (A) (A) (A) (A) (A) (A) (A) (A) (A) (A) (A) (A)
                 (A) (A) (A) (A) (A) (A) (A) (A) (A) (A) (A) (A)
                 (A) (A) (A) (A) (A) (A) (A) (A) (A) (A) (A) (A)
                 (A) (A) (A) (A) (A) (A) (A) (A) (A) (A) (A) (A)
                 (A) (A) (A) (A) (A) (A) (A) (A) (A) (A) (A) (A)
                 (A) (A) (A) (A) (A) (A) (A) (A) (A) (A) (A) (A)
                 (A) (A) (A) (A) (A) (A) (A) (A) (A) (A) (A) (A)
                 (A) (A) (A) (A) (A) (A) (A) (A) (A) (A) (A) (A)
                 (A) (A) (A) (A) (A) (A) (A) (A) (A) (A) (A) (A)
                 (A) (A) (A) (A) (A) (A) (A) (A)
     4 initial guesses have been made.
 Convergence on wavefunction:    0.001000000000000
 Iteration     1 Dimension     4 NMult     0 NNew      4
 CISAX will form     4 AO SS matrices at one time.
 Iteration     2 Dimension     6 NMult     4 NNew      2
 Iteration     3 Dimension     8 NMult     6 NNew      2
 Iteration     4 Dimension    10 NMult     8 NNew      2
 Iteration     5 Dimension    12 NMult    10 NNew      2
 Iteration     6 Dimension    14 NMult    12 NNew      2
 ***********************************************************************
 Excited states from <AA,BB:AA,BB> singles matrix:
 ***********************************************************************
 
 Ground to excited state transition densities written to RWF  633
 Ground to excited state transition electric dipole moments (Au):
       state          X           Y           Z        Dip. S.      Osc.
         1        -7.8217      0.0824     -0.1221     61.2010      3.0331
 Ground to excited state transition velocity dipole moments (Au):
       state          X           Y           Z        Dip. S.      Osc.
         1         0.5645     -0.0067      0.0085      0.3188      2.8590
 Ground to excited state transition magnetic dipole moments (Au):
       state          X           Y           Z
         1        -0.0146     -0.2687     -2.3409
 Ground to excited state transition velocity quadrupole moments (Au):
       state          XX          YY          ZZ          XY          XZ          YZ
         1        -1.1767     -0.1732     -0.0152     -0.3736      0.0717     -0.0039
 <0|del|b> * <b|rxdel|0> + <0|del|b> * <b|delr+rdel|0>
 Rotatory Strengths (R) in cgs (10**-40 erg-esu-cm/Gauss)
       state          XX          YY          ZZ    R(velocity)    E-M Angle
         1       -98.9158   -129.1683    -22.4865    -83.5235       91.13
 1/2[<0|r|b>*<b|rxdel|0> + (<0|rxdel|b>*<b|r|0>)*]
 Rotatory Strengths (R) in cgs (10**-40 erg-esu-cm/Gauss)
       state          XX          YY          ZZ     R(length)
         1       -80.7468     15.6609   -202.1273    -89.0711
  1/2[<0|del|b>*<b|r|0> + (<0|r|b>*<b|del|0>)*] (Au)
       state          X           Y           Z        Dip. S.   Osc.(frdel)
         1        -4.4156     -0.0005     -0.0010      4.4171      2.9448

 Excitation energies and oscillator strengths:
 
 Excited State   1:      Singlet-A      2.0229 eV  612.91 nm  f=3.0331  <S**2>=0.000
     163 ->166         0.13048
     164 ->165         0.69880
     164 <-165        -0.10571
 This state for optimization and/or second-order correction.
 Total Energy, E(TD-HF/TD-DFT) =  -1857.12470418    
 Copying the excited state density for this state as the 1-particle RhoCI density.
 SavETr:  write IOETrn=   770 NScale= 10 NData=  16 NLR=1 NState=    1 LETran=      28.

 **********************************************************************

            Population analysis using the SCF density.

 **********************************************************************

 Orbital symmetries:
       Occupied  (A) (A) (A) (A) (A) (A) (A) (A) (A) (A) (A) (A)
                 (A) (A) (A) (A) (A) (A) (A) (A) (A) (A) (A) (A)
                 (A) (A) (A) (A) (A) (A) (A) (A) (A) (A) (A) (A)
                 (A) (A) (A) (A) (A) (A) (A) (A) (A) (A) (A) (A)
                 (A) (A) (A) (A) (A) (A) (A) (A) (A) (A) (A) (A)
                 (A) (A) (A) (A) (A) (A) (A) (A) (A) (A) (A) (A)
                 (A) (A) (A) (A) (A) (A) (A) (A) (A) (A) (A) (A)
                 (A) (A) (A) (A) (A) (A) (A) (A) (A) (A) (A) (A)
                 (A) (A) (A) (A) (A) (A) (A) (A) (A) (A) (A) (A)
                 (A) (A) (A) (A) (A) (A) (A) (A) (A) (A) (A) (A)
                 (A) (A) (A) (A) (A) (A) (A) (A) (A) (A) (A) (A)
                 (A) (A) (A) (A) (A) (A) (A) (A) (A) (A) (A) (A)
                 (A) (A) (A) (A) (A) (A) (A) (A) (A) (A) (A) (A)
                 (A) (A) (A) (A) (A) (A) (A) (A)
       Virtual   (A) (A) (A) (A) (A) (A) (A) (A) (A) (A) (A) (A)
                 (A) (A) (A) (A) (A) (A) (A) (A) (A) (A) (A) (A)
                 (A) (A) (A) (A) (A) (A) (A) (A) (A) (A) (A) (A)
                 (A) (A) (A) (A) (A) (A) (A) (A) (A) (A) (A) (A)
                 (A) (A) (A) (A) (A) (A) (A) (A) (A) (A) (A) (A)
                 (A) (A) (A) (A) (A) (A) (A) (A) (A) (A) (A) (A)
                 (A) (A) (A) (A) (A) (A) (A) (A) (A) (A) (A) (A)
                 (A) (A) (A) (A) (A) (A) (A) (A) (A) (A) (A) (A)
                 (A) (A) (A) (A) (A) (A) (A) (A) (A) (A) (A) (A)
                 (A) (A) (A) (A) (A) (A) (A) (A) (A) (A) (A) (A)
                 (A) (A) (A) (A) (A) (A) (A) (A) (A) (A) (A) (A)
                 (A) (A) (A) (A) (A) (A) (A) (A) (A) (A) (A) (A)
                 (A) (A) (A) (A) (A) (A) (A) (A) (A) (A) (A) (A)
                 (A) (A) (A) (A) (A) (A) (A) (A) (A) (A) (A) (A)
                 (A) (A) (A) (A) (A) (A) (A) (A) (A) (A) (A) (A)
                 (A) (A) (A) (A) (A) (A) (A) (A) (A) (A) (A) (A)
                 (A) (A) (A) (A) (A) (A) (A) (A) (A) (A) (A) (A)
                 (A) (A) (A) (A) (A) (A) (A) (A) (A) (A) (A) (A)
                 (A) (A) (A) (A) (A) (A) (A) (A) (A) (A) (A) (A)
                 (A) (A) (A) (A) (A) (A) (A) (A) (A) (A) (A) (A)
                 (A) (A) (A) (A) (A) (A) (A) (A) (A) (A) (A) (A)
                 (A) (A) (A) (A) (A) (A) (A) (A) (A) (A) (A) (A)
                 (A) (A) (A) (A) (A) (A) (A) (A) (A) (A) (A) (A)
                 (A) (A) (A) (A) (A) (A) (A) (A) (A) (A) (A) (A)
                 (A) (A) (A) (A) (A) (A) (A) (A) (A) (A) (A) (A)
                 (A) (A) (A) (A) (A) (A) (A) (A) (A) (A) (A) (A)
                 (A) (A) (A) (A) (A) (A) (A) (A) (A) (A) (A) (A)
                 (A) (A) (A) (A) (A) (A) (A) (A) (A) (A) (A) (A)
                 (A) (A) (A) (A) (A) (A) (A) (A) (A) (A) (A) (A)
                 (A) (A) (A) (A) (A) (A) (A) (A) (A) (A) (A) (A)
                 (A) (A) (A) (A) (A) (A) (A) (A) (A) (A) (A) (A)
                 (A) (A) (A) (A) (A) (A) (A) (A) (A) (A) (A) (A)
                 (A) (A) (A) (A) (A) (A) (A) (A) (A) (A) (A) (A)
                 (A) (A) (A) (A) (A) (A) (A) (A) (A) (A) (A) (A)
                 (A) (A) (A) (A) (A) (A) (A) (A) (A) (A) (A) (A)
                 (A) (A) (A) (A) (A) (A) (A) (A) (A) (A) (A) (A)
                 (A) (A) (A) (A) (A) (A) (A) (A) (A) (A) (A) (A)
                 (A) (A) (A) (A) (A) (A) (A) (A) (A) (A) (A) (A)
                 (A) (A) (A) (A) (A) (A) (A) (A) (A) (A) (A) (A)
                 (A) (A) (A) (A) (A) (A) (A) (A) (A) (A) (A) (A)
                 (A) (A) (A) (A) (A) (A) (A) (A) (A) (A) (A) (A)
                 (A) (A) (A) (A) (A) (A) (A) (A) (A) (A) (A) (A)
                 (A) (A) (A) (A) (A) (A) (A) (A) (A) (A) (A) (A)
                 (A) (A) (A) (A) (A) (A) (A) (A) (A) (A) (A) (A)
                 (A) (A) (A) (A) (A) (A) (A) (A) (A) (A) (A) (A)
                 (A) (A) (A) (A) (A) (A) (A) (A) (A) (A) (A) (A)
                 (A) (A) (A) (A) (A) (A) (A) (A) (A) (A) (A) (A)
                 (A) (A) (A) (A) (A) (A) (A) (A) (A) (A) (A) (A)
                 (A) (A) (A) (A) (A) (A) (A) (A) (A) (A) (A) (A)
                 (A) (A) (A) (A) (A) (A) (A) (A) (A) (A) (A) (A)
                 (A) (A) (A) (A) (A) (A) (A) (A) (A) (A) (A) (A)
                 (A) (A) (A) (A) (A) (A) (A) (A) (A) (A) (A) (A)
                 (A) (A) (A) (A) (A) (A) (A) (A) (A) (A) (A) (A)
                 (A) (A) (A) (A) (A) (A) (A) (A) (A) (A) (A) (A)
                 (A) (A) (A) (A) (A) (A) (A) (A) (A) (A) (A) (A)
                 (A) (A) (A) (A) (A) (A) (A) (A) (A) (A) (A) (A)
                 (A) (A) (A) (A) (A) (A) (A) (A) (A) (A) (A) (A)
                 (A) (A) (A) (A) (A) (A) (A) (A) (A) (A) (A) (A)
                 (A) (A) (A) (A) (A) (A) (A) (A) (A) (A) (A) (A)
                 (A) (A) (A) (A) (A) (A) (A) (A) (A) (A) (A) (A)
                 (A) (A) (A) (A) (A) (A) (A) (A) (A) (A) (A) (A)
                 (A) (A) (A) (A) (A) (A) (A) (A) (A) (A) (A) (A)
                 (A) (A) (A) (A) (A) (A) (A) (A) (A) (A) (A) (A)
                 (A) (A) (A) (A) (A) (A) (A) (A) (A) (A) (A) (A)
                 (A) (A) (A) (A) (A) (A) (A) (A)
 The electronic state is 1-A.
 Alpha  occ. eigenvalues --  -19.23553 -19.23022 -19.22770 -19.19278 -10.32303
 Alpha  occ. eigenvalues --  -10.32147 -10.32044 -10.31639 -10.30448 -10.29314
 Alpha  occ. eigenvalues --  -10.28697 -10.28546 -10.28276 -10.28198 -10.27970
 Alpha  occ. eigenvalues --  -10.27812 -10.27362 -10.27357 -10.27274 -10.27220
 Alpha  occ. eigenvalues --  -10.27031 -10.27027 -10.26964 -10.26954 -10.26865
 Alpha  occ. eigenvalues --  -10.26672 -10.26644 -10.26524 -10.26501 -10.26498
 Alpha  occ. eigenvalues --  -10.26394 -10.26263 -10.26210 -10.25934 -10.25865
 Alpha  occ. eigenvalues --  -10.25542 -10.25215 -10.24937 -10.24813 -10.24768
 Alpha  occ. eigenvalues --  -10.24088 -10.23566 -10.23308 -10.22697  -1.19171
 Alpha  occ. eigenvalues --   -1.09477  -1.07885  -1.07052  -0.93296  -0.92775
 Alpha  occ. eigenvalues --   -0.92432  -0.91308  -0.90674  -0.90068  -0.87736
 Alpha  occ. eigenvalues --   -0.86363  -0.86015  -0.85600  -0.83949  -0.82595
 Alpha  occ. eigenvalues --   -0.81309  -0.80256  -0.79238  -0.78816  -0.77622
 Alpha  occ. eigenvalues --   -0.76720  -0.76262  -0.76224  -0.74825  -0.74790
 Alpha  occ. eigenvalues --   -0.74498  -0.73928  -0.73301  -0.70585  -0.70008
 Alpha  occ. eigenvalues --   -0.68750  -0.67042  -0.65810  -0.64458  -0.64273
 Alpha  occ. eigenvalues --   -0.63651  -0.63051  -0.61650  -0.60492  -0.59213
 Alpha  occ. eigenvalues --   -0.58927  -0.58585  -0.58284  -0.57512  -0.56840
 Alpha  occ. eigenvalues --   -0.56259  -0.55407  -0.55031  -0.54878  -0.54386
 Alpha  occ. eigenvalues --   -0.53666  -0.53080  -0.52907  -0.52044  -0.50957
 Alpha  occ. eigenvalues --   -0.50681  -0.50310  -0.50242  -0.50092  -0.49735
 Alpha  occ. eigenvalues --   -0.48910  -0.48862  -0.48672  -0.48162  -0.48046
 Alpha  occ. eigenvalues --   -0.47961  -0.47769  -0.47569  -0.47312  -0.47016
 Alpha  occ. eigenvalues --   -0.46454  -0.46252  -0.45748  -0.45417  -0.45298
 Alpha  occ. eigenvalues --   -0.44317  -0.44172  -0.43941  -0.43882  -0.43558
 Alpha  occ. eigenvalues --   -0.43223  -0.43122  -0.42838  -0.42533  -0.42467
 Alpha  occ. eigenvalues --   -0.41969  -0.41900  -0.41774  -0.41499  -0.41396
 Alpha  occ. eigenvalues --   -0.40611  -0.40470  -0.40371  -0.40190  -0.39931
 Alpha  occ. eigenvalues --   -0.39607  -0.39521  -0.39078  -0.38858  -0.38350
 Alpha  occ. eigenvalues --   -0.38113  -0.37612  -0.36978  -0.36730  -0.36595
 Alpha  occ. eigenvalues --   -0.36061  -0.35823  -0.34600  -0.34286  -0.33906
 Alpha  occ. eigenvalues --   -0.33117  -0.32373  -0.31783  -0.30912  -0.30117
 Alpha  occ. eigenvalues --   -0.28880  -0.28199  -0.24194  -0.19258
 Alpha virt. eigenvalues --   -0.06548  -0.01293   0.03186   0.04766   0.05569
 Alpha virt. eigenvalues --    0.07270   0.07515   0.10068   0.11496   0.12148
 Alpha virt. eigenvalues --    0.12497   0.12800   0.13109   0.13455   0.14055
 Alpha virt. eigenvalues --    0.14135   0.14407   0.14571   0.14932   0.15155
 Alpha virt. eigenvalues --    0.15526   0.15775   0.16082   0.16276   0.16638
 Alpha virt. eigenvalues --    0.16872   0.16920   0.17173   0.17489   0.17800
 Alpha virt. eigenvalues --    0.17862   0.18074   0.18166   0.18617   0.18691
 Alpha virt. eigenvalues --    0.19307   0.19462   0.19731   0.20185   0.20234
 Alpha virt. eigenvalues --    0.20365   0.20787   0.20936   0.21268   0.21587
 Alpha virt. eigenvalues --    0.21983   0.22398   0.22506   0.22785   0.23125
 Alpha virt. eigenvalues --    0.23172   0.23314   0.23585   0.24059   0.24274
 Alpha virt. eigenvalues --    0.24329   0.24766   0.25183   0.25342   0.25485
 Alpha virt. eigenvalues --    0.25565   0.25795   0.26323   0.26366   0.26555
 Alpha virt. eigenvalues --    0.26595   0.26952   0.27604   0.27646   0.27737
 Alpha virt. eigenvalues --    0.27872   0.28206   0.28779   0.29172   0.29640
 Alpha virt. eigenvalues --    0.29779   0.29841   0.30394   0.31055   0.31242
 Alpha virt. eigenvalues --    0.31718   0.32162   0.32618   0.33139   0.33388
 Alpha virt. eigenvalues --    0.34335   0.34624   0.36077   0.36588   0.37452
 Alpha virt. eigenvalues --    0.37849   0.38468   0.38703   0.38971   0.39971
 Alpha virt. eigenvalues --    0.40201   0.40786   0.42176   0.42565   0.43599
 Alpha virt. eigenvalues --    0.43691   0.44502   0.45469   0.46217   0.46455
 Alpha virt. eigenvalues --    0.47341   0.48579   0.50086   0.50820   0.51409
 Alpha virt. eigenvalues --    0.53706   0.54323   0.55306   0.56016   0.56510
 Alpha virt. eigenvalues --    0.56932   0.57042   0.57242   0.57388   0.57918
 Alpha virt. eigenvalues --    0.58120   0.58483   0.58679   0.59061   0.59131
 Alpha virt. eigenvalues --    0.59559   0.59798   0.60829   0.61071   0.61202
 Alpha virt. eigenvalues --    0.61638   0.62000   0.62159   0.62442   0.62736
 Alpha virt. eigenvalues --    0.62927   0.63049   0.63431   0.63900   0.63956
 Alpha virt. eigenvalues --    0.64322   0.64803   0.65302   0.65430   0.65528
 Alpha virt. eigenvalues --    0.65987   0.66405   0.66541   0.66956   0.67097
 Alpha virt. eigenvalues --    0.67359   0.67469   0.67571   0.68034   0.68184
 Alpha virt. eigenvalues --    0.68348   0.68735   0.69103   0.69639   0.69937
 Alpha virt. eigenvalues --    0.69961   0.70261   0.70496   0.71493   0.71876
 Alpha virt. eigenvalues --    0.72096   0.72609   0.73034   0.73826   0.74134
 Alpha virt. eigenvalues --    0.74393   0.74646   0.75240   0.76006   0.76079
 Alpha virt. eigenvalues --    0.76629   0.77014   0.77415   0.77909   0.78080
 Alpha virt. eigenvalues --    0.78566   0.78684   0.79659   0.79848   0.80271
 Alpha virt. eigenvalues --    0.80321   0.80572   0.80881   0.81250   0.81718
 Alpha virt. eigenvalues --    0.81796   0.82038   0.82499   0.82715   0.82829
 Alpha virt. eigenvalues --    0.83297   0.83878   0.84075   0.84424   0.84897
 Alpha virt. eigenvalues --    0.85222   0.85737   0.85784   0.85972   0.86325
 Alpha virt. eigenvalues --    0.86870   0.87268   0.87474   0.87625   0.88066
 Alpha virt. eigenvalues --    0.88172   0.88246   0.88633   0.89027   0.89378
 Alpha virt. eigenvalues --    0.89615   0.89732   0.90599   0.91029   0.91111
 Alpha virt. eigenvalues --    0.91340   0.91422   0.91908   0.92163   0.92303
 Alpha virt. eigenvalues --    0.92353   0.92532   0.92702   0.93193   0.93890
 Alpha virt. eigenvalues --    0.94037   0.94269   0.94286   0.94705   0.94824
 Alpha virt. eigenvalues --    0.95027   0.95488   0.95546   0.95833   0.96219
 Alpha virt. eigenvalues --    0.96408   0.97192   0.97475   0.97737   0.97815
 Alpha virt. eigenvalues --    0.98088   0.98510   0.99247   0.99753   0.99923
 Alpha virt. eigenvalues --    1.00629   1.00799   1.00938   1.01181   1.01985
 Alpha virt. eigenvalues --    1.02114   1.02453   1.02617   1.03138   1.03550
 Alpha virt. eigenvalues --    1.03650   1.04412   1.04531   1.04625   1.05302
 Alpha virt. eigenvalues --    1.05813   1.05923   1.06279   1.06570   1.07522
 Alpha virt. eigenvalues --    1.07987   1.08327   1.08623   1.08889   1.09749
 Alpha virt. eigenvalues --    1.10529   1.10820   1.11212   1.11509   1.12111
 Alpha virt. eigenvalues --    1.12242   1.12812   1.13615   1.13987   1.14312
 Alpha virt. eigenvalues --    1.14695   1.15347   1.16210   1.16545   1.17586
 Alpha virt. eigenvalues --    1.17689   1.17855   1.19002   1.19476   1.20618
 Alpha virt. eigenvalues --    1.21596   1.22485   1.23138   1.23845   1.24086
 Alpha virt. eigenvalues --    1.24486   1.24895   1.25541   1.26709   1.27317
 Alpha virt. eigenvalues --    1.28408   1.28937   1.30027   1.30315   1.30971
 Alpha virt. eigenvalues --    1.31304   1.31890   1.33261   1.33410   1.34397
 Alpha virt. eigenvalues --    1.35185   1.35644   1.36035   1.36869   1.37341
 Alpha virt. eigenvalues --    1.37701   1.38466   1.38792   1.39494   1.40073
 Alpha virt. eigenvalues --    1.40460   1.41580   1.41726   1.43142   1.43714
 Alpha virt. eigenvalues --    1.44114   1.44620   1.45894   1.46595   1.46776
 Alpha virt. eigenvalues --    1.47081   1.47235   1.48492   1.49108   1.50501
 Alpha virt. eigenvalues --    1.51874   1.52124   1.52600   1.53897   1.53982
 Alpha virt. eigenvalues --    1.54308   1.55174   1.55276   1.56094   1.57349
 Alpha virt. eigenvalues --    1.58166   1.58766   1.59185   1.60501   1.60617
 Alpha virt. eigenvalues --    1.61229   1.62341   1.62504   1.64024   1.64187
 Alpha virt. eigenvalues --    1.66041   1.66360   1.66793   1.66968   1.67876
 Alpha virt. eigenvalues --    1.68179   1.68860   1.70058   1.70565   1.70692
 Alpha virt. eigenvalues --    1.72559   1.72845   1.73676   1.73988   1.74816
 Alpha virt. eigenvalues --    1.76268   1.76852   1.77255   1.79251   1.79770
 Alpha virt. eigenvalues --    1.80164   1.80507   1.80846   1.80885   1.81257
 Alpha virt. eigenvalues --    1.81754   1.82055   1.83188   1.83403   1.83599
 Alpha virt. eigenvalues --    1.84357   1.84554   1.85175   1.85493   1.85634
 Alpha virt. eigenvalues --    1.86183   1.86821   1.87130   1.87601   1.87686
 Alpha virt. eigenvalues --    1.88009   1.88739   1.89102   1.89485   1.89715
 Alpha virt. eigenvalues --    1.89992   1.90756   1.91523   1.91824   1.92403
 Alpha virt. eigenvalues --    1.93232   1.93560   1.93889   1.94123   1.94429
 Alpha virt. eigenvalues --    1.94819   1.95128   1.95534   1.96195   1.96573
 Alpha virt. eigenvalues --    1.96851   1.97167   1.97290   1.97927   1.98475
 Alpha virt. eigenvalues --    1.99036   1.99084   1.99320   2.00312   2.00484
 Alpha virt. eigenvalues --    2.00706   2.01621   2.01766   2.02030   2.02357
 Alpha virt. eigenvalues --    2.02795   2.03373   2.03850   2.03924   2.04153
 Alpha virt. eigenvalues --    2.04642   2.05163   2.05373   2.05476   2.05661
 Alpha virt. eigenvalues --    2.06258   2.06721   2.06930   2.07345   2.08428
 Alpha virt. eigenvalues --    2.08968   2.09381   2.10064   2.10797   2.10895
 Alpha virt. eigenvalues --    2.11448   2.11725   2.12383   2.12664   2.13049
 Alpha virt. eigenvalues --    2.13492   2.13528   2.14193   2.15115   2.15431
 Alpha virt. eigenvalues --    2.15621   2.15719   2.16107   2.16490   2.17073
 Alpha virt. eigenvalues --    2.17422   2.17822   2.18237   2.18405   2.19263
 Alpha virt. eigenvalues --    2.19566   2.20137   2.20248   2.20513   2.21282
 Alpha virt. eigenvalues --    2.21858   2.21945   2.22568   2.22793   2.23306
 Alpha virt. eigenvalues --    2.23785   2.23955   2.24314   2.24904   2.25461
 Alpha virt. eigenvalues --    2.25772   2.25898   2.26514   2.26728   2.27540
 Alpha virt. eigenvalues --    2.27650   2.27916   2.28137   2.28502   2.28789
 Alpha virt. eigenvalues --    2.29335   2.30127   2.30521   2.31250   2.31734
 Alpha virt. eigenvalues --    2.33527   2.34175   2.34374   2.34815   2.34869
 Alpha virt. eigenvalues --    2.35006   2.35476   2.35662   2.36275   2.36481
 Alpha virt. eigenvalues --    2.37103   2.37733   2.38082   2.38299   2.38920
 Alpha virt. eigenvalues --    2.39378   2.39884   2.40289   2.40680   2.40908
 Alpha virt. eigenvalues --    2.41025   2.41598   2.41898   2.42017   2.42476
 Alpha virt. eigenvalues --    2.42745   2.43375   2.44384   2.44629   2.44861
 Alpha virt. eigenvalues --    2.45554   2.45931   2.46094   2.46714   2.47261
 Alpha virt. eigenvalues --    2.47298   2.47888   2.48327   2.48719   2.48927
 Alpha virt. eigenvalues --    2.50187   2.50387   2.50548   2.50772   2.51349
 Alpha virt. eigenvalues --    2.52111   2.52419   2.53092   2.53849   2.53948
 Alpha virt. eigenvalues --    2.54788   2.55126   2.55223   2.55606   2.56225
 Alpha virt. eigenvalues --    2.56952   2.57052   2.57889   2.58420   2.59127
 Alpha virt. eigenvalues --    2.59311   2.59362   2.60015   2.60543   2.60836
 Alpha virt. eigenvalues --    2.61464   2.62246   2.62781   2.62930   2.63480
 Alpha virt. eigenvalues --    2.63918   2.64046   2.64791   2.65289   2.65744
 Alpha virt. eigenvalues --    2.65945   2.66304   2.66936   2.67284   2.67776
 Alpha virt. eigenvalues --    2.68266   2.68737   2.69292   2.69844   2.70177
 Alpha virt. eigenvalues --    2.70531   2.70944   2.71572   2.71670   2.72328
 Alpha virt. eigenvalues --    2.72646   2.72760   2.72965   2.73526   2.73721
 Alpha virt. eigenvalues --    2.74201   2.74778   2.74936   2.75980   2.76328
 Alpha virt. eigenvalues --    2.76643   2.77121   2.77224   2.77456   2.77750
 Alpha virt. eigenvalues --    2.78209   2.78559   2.79514   2.80357   2.80776
 Alpha virt. eigenvalues --    2.81233   2.81550   2.82396   2.82478   2.82854
 Alpha virt. eigenvalues --    2.82929   2.83130   2.84779   2.84866   2.86766
 Alpha virt. eigenvalues --    2.87567   2.88164   2.88846   2.89204   2.89746
 Alpha virt. eigenvalues --    2.90862   2.91333   2.91494   2.92256   2.92760
 Alpha virt. eigenvalues --    2.92956   2.93251   2.94043   2.94364   2.95198
 Alpha virt. eigenvalues --    2.95890   2.96408   2.97007   2.97463   2.97850
 Alpha virt. eigenvalues --    2.98185   2.98311   2.98457   2.98790   2.99516
 Alpha virt. eigenvalues --    3.00637   3.01790   3.02255   3.02441   3.03173
 Alpha virt. eigenvalues --    3.04493   3.05137   3.05826   3.06370   3.06458
 Alpha virt. eigenvalues --    3.07136   3.07595   3.07656   3.09626   3.11012
 Alpha virt. eigenvalues --    3.11774   3.13239   3.13959   3.14482   3.14722
 Alpha virt. eigenvalues --    3.16200   3.16596   3.17716   3.18036   3.19716
 Alpha virt. eigenvalues --    3.21284   3.22332   3.22654   3.23589   3.23999
 Alpha virt. eigenvalues --    3.24194   3.27155   3.29162   3.30727   3.31357
 Alpha virt. eigenvalues --    3.32289   3.33751   3.34294   3.35232   3.35915
 Alpha virt. eigenvalues --    3.36912   3.37449   3.37869   3.37870   3.39250
 Alpha virt. eigenvalues --    3.39592   3.40118   3.40887   3.42542   3.43423
 Alpha virt. eigenvalues --    3.44206   3.45270   3.46335   3.46696   3.47754
 Alpha virt. eigenvalues --    3.48352   3.49440   3.49812   3.50151   3.50638
 Alpha virt. eigenvalues --    3.51431   3.51745   3.52524   3.55392   3.56732
 Alpha virt. eigenvalues --    3.57403   3.59101   3.59931   3.63307   3.64504
 Alpha virt. eigenvalues --    3.65167   3.67335   3.68647   3.69942   3.70911
 Alpha virt. eigenvalues --    3.72310   3.74455   3.74493   3.75849   3.80822
 Alpha virt. eigenvalues --    3.83008   3.96090   3.97659   4.09376   4.13482
 Alpha virt. eigenvalues --    4.16645   4.19954   4.20892   4.21824   4.22347
 Alpha virt. eigenvalues --    4.23343   4.25177   4.28179   4.31966   4.34852
 Alpha virt. eigenvalues --    4.35979   4.37991   4.40027   4.41495   4.44710
 Alpha virt. eigenvalues --    4.45776   4.50587   4.51497   4.53307   4.54360
 Alpha virt. eigenvalues --    4.55344   4.57671   4.58887   4.60421   4.61665
 Alpha virt. eigenvalues --    4.64128   4.64826   4.65190   4.69481   4.71475
 Alpha virt. eigenvalues --    4.74883   4.76046   4.76861   4.82004   4.85289
 Alpha virt. eigenvalues --    4.87596   4.88438   4.89350   4.93550   4.93930
 Alpha virt. eigenvalues --    4.97696
          Condensed to atoms (all electrons):
 Mulliken charges:
               1
     1  O   -0.475782
     2  O   -0.529743
     3  O   -0.588426
     4  O   -0.562011
     5  C    0.175192
     6  C    0.238056
     7  C   -0.001637
     8  C   -0.163934
     9  C   -0.178559
    10  C    0.138555
    11  C   -0.312199
    12  C   -0.089668
    13  C   -0.301985
    14  C   -0.324047
    15  C   -0.082187
    16  C    0.057079
    17  C   -0.364343
    18  C   -0.081822
    19  C   -0.093244
    20  C    0.026157
    21  C    0.254740
    22  C   -0.188197
    23  C    0.183631
    24  C   -0.190750
    25  C   -0.054431
    26  C   -0.325773
    27  C   -0.295853
    28  C   -0.274841
    29  C   -0.139799
    30  C    0.104079
    31  C    0.114220
    32  C   -0.289691
    33  C   -0.377176
    34  C   -0.132913
    35  C    0.167511
    36  C   -0.391252
    37  C   -0.098721
    38  C   -0.106125
    39  C   -0.110772
    40  C   -0.051813
    41  C   -0.098304
    42  C   -0.150101
    43  C    0.135508
    44  C   -0.399648
    45  H    0.109483
    46  H    0.085008
    47  H    0.099671
    48  H    0.118668
    49  H    0.088089
    50  H    0.086648
    51  H    0.100975
    52  H    0.097458
    53  H    0.108750
    54  H    0.114392
    55  H    0.103905
    56  H    0.078405
    57  H    0.118279
    58  H    0.106768
    59  H    0.102943
    60  H    0.272166
    61  H    0.091888
    62  H    0.105029
    63  H    0.126043
    64  H    0.115649
    65  H    0.068511
    66  H    0.088089
    67  H    0.078421
    68  H    0.090414
    69  H    0.076160
    70  H    0.104058
    71  H    0.119344
    72  H    0.104539
    73  H    0.109909
    74  H    0.111431
    75  H    0.113596
    76  H    0.105715
    77  H    0.075900
    78  H    0.108940
    79  H    0.082541
    80  H    0.104634
    81  H    0.083153
    82  H    0.305737
    83  H    0.322491
    84  H    0.098327
    85  H    0.118005
    86  H    0.127103
    87  H    0.093318
    88  H    0.093290
    89  H    0.113592
    90  H    0.116712
    91  H    0.113850
    92  H    0.079755
    93  H    0.107362
    94  H    0.086141
    95  H    0.084486
    96  H    0.074101
    97  H    0.078122
    98  H    0.098980
    99  H    0.122882
   100  H    0.141192
 Sum of Mulliken charges =  -0.00000
 Mulliken charges with hydrogens summed into heavy atoms:
               1
     1  O   -0.475782
     2  O   -0.257577
     3  O   -0.282690
     4  O   -0.239520
     5  C    0.175192
     6  C    0.238056
     7  C   -0.001637
     8  C    0.030556
     9  C    0.039780
    10  C    0.226644
    11  C   -0.027118
    12  C    0.019082
    13  C   -0.005284
    14  C    0.003944
    15  C    0.009701
    16  C    0.057079
    17  C   -0.017621
    18  C   -0.013310
    19  C   -0.005155
    20  C    0.026157
    21  C    0.254740
    22  C   -0.019361
    23  C    0.259791
    24  C    0.032652
    25  C   -0.054431
    26  C    0.000106
    27  C   -0.000641
    28  C    0.021273
    29  C   -0.056647
    30  C    0.104079
    31  C    0.114220
    32  C   -0.191363
    33  C   -0.038750
    34  C   -0.039622
    35  C    0.167511
    36  C   -0.047098
    37  C   -0.018966
    38  C    0.001237
    39  C   -0.024631
    40  C    0.032673
    41  C   -0.024203
    42  C   -0.071979
    43  C    0.135508
    44  C   -0.036594
 Electronic spatial extent (au):  <R**2>=         114694.5893
 Charge=             -0.0000 electrons
 Dipole moment (field-independent basis, Debye):
    X=              3.0528    Y=              0.5414    Z=              3.3913  Tot=              4.5950
 Quadrupole moment (field-independent basis, Debye-Ang):
   XX=           -254.6515   YY=           -261.5624   ZZ=           -281.1476
   XY=            -13.8215   XZ=             28.2840   YZ=             -4.6812
 Traceless Quadrupole moment (field-independent basis, Debye-Ang):
   XX=             11.1357   YY=              4.2248   ZZ=            -15.3605
   XY=            -13.8215   XZ=             28.2840   YZ=             -4.6812
 Octapole moment (field-independent basis, Debye-Ang**2):
  XXX=           1667.1095  YYY=             10.0063  ZZZ=             10.4196  XYY=             48.1171
  XXY=             80.2937  XXZ=            435.3400  XZZ=              1.3803  YZZ=             -0.2309
  YYZ=            -16.9845  XYZ=            -76.7933
 Hexadecapole moment (field-independent basis, Debye-Ang**3):
 XXXX=        -136843.2384 YYYY=          -3678.2209 ZZZZ=          -2285.9182 XXXY=          -4200.9489
 XXXZ=           5192.3101 YYYX=           -240.2315 YYYZ=            -18.1776 ZZZX=            107.4396
 ZZZY=             -3.9268 XXYY=         -25611.7023 XXZZ=         -26424.8480 YYZZ=          -1007.2519
 XXYZ=            284.5941 YYXZ=            123.3975 ZZXY=             52.8793
 N-N= 4.456646494924D+03 E-N=-1.322324439665D+04  KE= 1.839205421383D+03
 1\1\GINC-RYZEN-SSD3\SP\RCAM-B3LYP TD-FC\6-31G(d,p)\C40H56O4\PADAWAN\29
 -Jul-2019\0\\# td=(NStates=1) CAM-B3LYP/6-31G(d,p)\\TD\\0,1\O,0,-11.72
 59592635,0.1825589043,-1.5747846421\O,0,-13.0576766035,-2.4023085389,1
 .4590915942\O,0,10.5690224221,-0.8505149394,-2.2054942757\O,0,14.44084
 74514,-0.9971684383,-0.4477792653\C,0,-11.0228704542,-0.1650904637,-0.
 4098504094\C,0,-11.6785441441,-1.1369348734,-1.2207409144\C,0,-11.7994
 619892,0.4397506579,0.8135010051\C,0,-12.9521504187,-2.0025704149,-0.9
 418358176\C,0,-13.2467631343,-0.0128587335,0.7223269206\C,0,-13.525608
 9944,-1.4701285507,0.5357623435\C,0,-10.8296485536,-2.1227776953,-2.21
 52538437\C,0,-9.4947989237,0.0985969935,-0.4797049286\C,0,-11.12912889
 03,0.1942238264,2.2491999871\C,0,-11.6753079111,2.0024153446,0.5755856
 503\C,0,-8.6578892106,-0.7376718084,0.209879727\C,0,-7.2291909087,-0.4
 353353796,0.192876988\C,0,-6.4120252174,-1.7932580146,0.5331155479\C,0
 ,-6.5994356053,0.6753783677,-0.2369422494\C,0,-5.2728572273,0.90099213
 59,-0.1311174419\C,0,11.8854177887,-0.0252324937,1.2701665448\C,0,11.6
 19519242,-0.5676229175,-1.2550793876\C,0,12.7285100791,-1.3366678965,1
 .2635810915\C,0,13.4356682535,-1.7665711905,0.0860525697\C,0,12.256430
 5778,-1.8258170907,-1.0403780003\C,0,10.9912160095,0.0738221301,0.0024
 07421\C,0,11.1198333882,0.0075373957,2.5466070009\C,0,12.8913922559,1.
 1504182626,1.3029733483\C,0,12.4313994461,0.4863575091,-1.9939733451\C
 ,0,-4.6264591416,2.1578582918,-0.3997648254\C,0,9.8837795655,0.6369945
 023,-0.0431154882\C,0,-3.2976249209,2.4095697107,-0.4431645772\C,0,8.6
 133711231,1.0380401378,0.0681924792\C,0,-2.9502767128,3.8791793774,-0.
 7459743295\C,0,-2.2878156967,1.4830101497,-0.1989524299\C,0,7.40791033
 35,0.1800685949,0.1240332192\C,0,7.6504897855,-1.3278497371,0.25303522
 64\C,0,6.2323545835,0.7553824685,0.0632523892\C,0,-0.8868328148,1.8599
 251162,-0.2291310882\C,0,4.9838699898,0.1456136775,0.1931906879\C,0,0.
 0040468837,0.8222455345,0.0256734645\C,0,3.7657659843,0.8312234727,0.1
 383563666\C,0,1.3700389447,1.111132841,0.0878063997\C,0,2.4865065512,0
 .2767669764,0.2305564135\C,0,2.4022900907,-1.131607341,0.5264312367\H,
 0,-12.9373955404,-2.9237253503,-0.7857037944\H,0,-13.5220474284,-1.681
 3721214,-1.963692824\H,0,-13.7501628185,0.0640834771,1.7332360063\H,0,
 -13.748774271,0.7202871558,0.1362812937\H,0,-14.6514224463,-1.85009372
 28,0.5429959039\H,0,-10.5450531222,-2.9757343562,-1.4365289483\H,0,-11
 .4238325922,-2.6311379052,-3.1179300792\H,0,-9.9067228558,-1.503029511
 6,-2.6068122937\H,0,-9.2557942342,0.8732894599,-1.0350773178\H,0,-10.1
 823195596,0.774928757,1.9415799008\H,0,-11.7099763585,0.8624029419,3.0
 734356937\H,0,-10.8897096647,-0.8865155281,2.7064514348\H,0,-12.382410
 7836,2.2478209041,-0.3585526393\H,0,-12.093455585,2.6551610916,1.37456
 11679\H,0,-10.583688651,2.344985089,0.5127155651\H,0,-11.8902821007,-2
 .0782807017,1.7171061895\H,0,-9.0304338853,-1.6681151692,0.7777868776\
 H,0,-5.7062000661,-1.7196552906,-0.5067087153\H,0,-5.6944618615,-1.659
 3411667,1.3614545417\H,0,-7.0107211827,-2.5880210751,0.6668328341\H,0,
 -7.3262339345,1.6148098101,-0.4177014466\H,0,-4.8200686516,-0.02462384
 4,0.2807042947\H,0,13.3398296601,-1.2684485323,2.2430892495\H,0,11.874
 5626333,-2.009650345,1.8162776275\H,0,13.8606184187,-2.7990315682,0.21
 68086068\H,0,12.5392713656,-2.2445609346,-2.096842779\H,0,11.659865994
 8,-2.6083699609,-0.73477882\H,0,11.6622158298,-0.1595855919,3.42758779
 75\H,0,10.7407910568,0.9035059137,2.903747899\H,0,10.2164892701,-0.478
 2561401,2.3706633075\H,0,13.7213690388,1.0517337976,0.6643504998\H,0,1
 2.4620688201,2.0837678146,1.0890336091\H,0,13.4163974768,1.2022347026,
 2.3064971313\H,0,12.7869695165,-0.0056071703,-2.889261378\H,0,11.91849
 89183,1.5311452054,-2.1517231072\H,0,13.4385746901,0.6899150444,-1.431
 5586413\H,0,-5.284030627,3.0683012169,-0.6834697578\H,0,9.82669392,-0.
 1455432119,-2.0768300188\H,0,15.4771005553,-0.8880486193,-0.0668780885
 \H,0,8.3945013009,2.1770000272,0.2721299358\H,0,-2.429588043,4.3431507
 648,0.2156373934\H,0,-2.3941581801,3.9735345783,-1.6681799271\H,0,-3.8
 863750226,4.4599141732,-1.1213019317\H,0,-2.8020898291,0.4486870807,-0
 .2593988945\H,0,6.8154542953,-1.9322027824,-0.1751050258\H,0,8.7363888
 534,-1.7056752923,-0.0758683609\H,0,7.8053104526,-1.733275656,1.304554
 2163\H,0,6.3086060077,1.818805686,0.0533633166\H,0,-0.5510864656,2.901
 4341869,-0.5569856101\H,0,4.8939653829,-0.9481313098,0.3840810892\H,0,
 -0.4688358068,-0.0458463975,0.3108536965\H,0,3.7243216001,1.8617918154
 ,-0.0535275778\H,0,1.4236292381,2.0995057425,-0.3862613245\H,0,1.39556
 83916,-1.610797684,0.4324722428\H,0,2.9690082256,-1.7930556071,-0.1270
 10471\H,0,2.6259192883,-1.3803422632,1.4510683934\\Version=ES64L-G16Re
 vA.03\State=1-A\HF=-1857.1990438\RMSD=7.090e-09\PG=C01 [X(C40H56O4)]\\
 @


 I LOVE MANKIND - IT'S PEOPLE I CAN'T STAND.
     -- LINUS OF PEANUTS
 Job cpu time:       0 days  6 hours 46 minutes  0.2 seconds.
 Elapsed time:       0 days  2 hours 15 minutes 32.0 seconds.
 File lengths (MBytes):  RWF=   3379 Int=      0 D2E=      0 Chk=     90 Scr=      1
 Normal termination of Gaussian 16 at Mon Jul 29 10:48:34 2019.
