 Entering Gaussian System, Link 0=g16
 Input=Geometria-479-.com
 Output=Geometria-479-.log
 Initial command:
 /usr/local/g16/l1.exe "/home/padawan/israel-mol/neoxanthin/spectra/emi/Gau-11160.inp" -scrdir="/home/padawan/israel-mol/neoxanthin/spectra/emi/"
 Entering Link 1 = /usr/local/g16/l1.exe PID=     11162.
  
 Copyright (c) 1988,1990,1992,1993,1995,1998,2003,2009,2016,
            Gaussian, Inc.  All Rights Reserved.
  
 This is part of the Gaussian(R) 16 program.  It is based on
 the Gaussian(R) 09 system (copyright 2009, Gaussian, Inc.),
 the Gaussian(R) 03 system (copyright 2003, Gaussian, Inc.),
 the Gaussian(R) 98 system (copyright 1998, Gaussian, Inc.),
 the Gaussian(R) 94 system (copyright 1995, Gaussian, Inc.),
 the Gaussian 92(TM) system (copyright 1992, Gaussian, Inc.),
 the Gaussian 90(TM) system (copyright 1990, Gaussian, Inc.),
 the Gaussian 88(TM) system (copyright 1988, Gaussian, Inc.),
 the Gaussian 86(TM) system (copyright 1986, Carnegie Mellon
 University), and the Gaussian 82(TM) system (copyright 1983,
 Carnegie Mellon University). Gaussian is a federally registered
 trademark of Gaussian, Inc.
  
 This software contains proprietary and confidential information,
 including trade secrets, belonging to Gaussian, Inc.
  
 This software is provided under written license and may be
 used, copied, transmitted, or stored only in accord with that
 written license.
  
 The following legend is applicable only to US Government
 contracts under FAR:
  
                    RESTRICTED RIGHTS LEGEND
  
 Use, reproduction and disclosure by the US Government is
 subject to restrictions as set forth in subparagraphs (a)
 and (c) of the Commercial Computer Software - Restricted
 Rights clause in FAR 52.227-19.
  
 Gaussian, Inc.
 340 Quinnipiac St., Bldg. 40, Wallingford CT 06492
  
  
 ---------------------------------------------------------------
 Warning -- This program may not be used in any manner that
 competes with the business of Gaussian, Inc. or will provide
 assistance to any competitor of Gaussian, Inc.  The licensee
 of this program is prohibited from giving any competitor of
 Gaussian, Inc. access to this program.  By using this program,
 the user acknowledges that Gaussian, Inc. is engaged in the
 business of creating and licensing software in the field of
 computational chemistry and represents and warrants to the
 licensee that it is not a competitor of Gaussian, Inc. and that
 it will not use this program in any manner prohibited above.
 ---------------------------------------------------------------
  

 Cite this work as:
 Gaussian 16, Revision A.03,
 M. J. Frisch, G. W. Trucks, H. B. Schlegel, G. E. Scuseria, 
 M. A. Robb, J. R. Cheeseman, G. Scalmani, V. Barone, 
 G. A. Petersson, H. Nakatsuji, X. Li, M. Caricato, A. V. Marenich, 
 J. Bloino, B. G. Janesko, R. Gomperts, B. Mennucci, H. P. Hratchian, 
 J. V. Ortiz, A. F. Izmaylov, J. L. Sonnenberg, D. Williams-Young, 
 F. Ding, F. Lipparini, F. Egidi, J. Goings, B. Peng, A. Petrone, 
 T. Henderson, D. Ranasinghe, V. G. Zakrzewski, J. Gao, N. Rega, 
 G. Zheng, W. Liang, M. Hada, M. Ehara, K. Toyota, R. Fukuda, 
 J. Hasegawa, M. Ishida, T. Nakajima, Y. Honda, O. Kitao, H. Nakai, 
 T. Vreven, K. Throssell, J. A. Montgomery, Jr., J. E. Peralta, 
 F. Ogliaro, M. J. Bearpark, J. J. Heyd, E. N. Brothers, K. N. Kudin, 
 V. N. Staroverov, T. A. Keith, R. Kobayashi, J. Normand, 
 K. Raghavachari, A. P. Rendell, J. C. Burant, S. S. Iyengar, 
 J. Tomasi, M. Cossi, J. M. Millam, M. Klene, C. Adamo, R. Cammi, 
 J. W. Ochterski, R. L. Martin, K. Morokuma, O. Farkas, 
 J. B. Foresman, and D. J. Fox, Gaussian, Inc., Wallingford CT, 2016.
 
 ******************************************
 Gaussian 16:  ES64L-G16RevA.03 25-Dec-2016
                 2-Aug-2019 
 ******************************************
 %nproc=3
 Will use up to    3 processors via shared memory.
 %Mem=2GB
 -------------------------------------
 # td=(NStates=1) CAM-B3LYP/6-31G(d,p)
 -------------------------------------
 1/38=1,172=1/1;
 2/12=2,17=6,18=5,40=1/2;
 3/5=1,6=6,7=101,11=9,25=1,30=1,74=-40/1,2,3,8;
 4//1;
 5/5=2,38=5/2;
 8/6=1,10=2,108=1/1;
 9/41=1,42=1,70=2/14;
 6/7=2,8=2,9=2,10=2/1;
 99/5=1,9=1/99;
 --
 TD
 --
 Symbolic Z-matrix:
 Charge =  0 Multiplicity = 1
 8                    -11.71084   0.15344  -1.59583 
 8                    -13.03284  -2.53938   1.37163 
 8                     10.50964  -1.2276   -1.98666 
 8                     14.50011  -0.93827  -0.28972 
 6                    -11.11876  -0.10056  -0.41977 
 6                    -11.68089  -1.2113   -1.22383 
 6                    -11.87906   0.36369   0.83786 
 6                    -13.0258  -1.81114  -0.99712 
 6                    -13.28284  -0.07454   0.9004 
 6                    -13.50889  -1.48436   0.37621 
 6                    -10.78821  -2.06222  -2.21141 
 6                    -9.61828   0.20614  -0.33314 
 6                    -11.14778  -0.03104   2.05287 
 6                    -11.82383   1.90717   0.83003 
 6                    -8.71513  -0.64617   0.11309 
 6                    -7.24123  -0.55489   0.19839 
 6                    -6.44244  -1.72405   0.51184 
 6                    -6.59262   0.61307  -0.12487 
 6                    -5.27488   0.86303  -0.10263 
 6                     11.91714   0.05018   1.24894 
 6                     11.62845  -0.72977  -1.24113 
 6                     12.78401  -1.22882   1.44564 
 6                     13.39012  -1.8118    0.18501 
 6                     12.42497  -1.96227  -0.92242 
 6                     11.11813  -0.05605  -0.00498 
 6                     11.10812   0.28658   2.49891 
 6                     12.94662   1.29836   1.20329 
 6                     12.27984   0.31303  -2.17373 
 6                    -4.72776   2.13796  -0.26932 
 6                     9.93659   0.51775  -0.04683 
 6                    -3.34901   2.60236  -0.29167 
 6                     8.5987    1.06091  -0.1143 
 6                    -2.91409   3.95294  -0.57309 
 6                    -2.25285   1.7      -0.12286 
 6                     7.4975    0.17872   0.07142 
 6                     7.76311  -1.29988   0.31611 
 6                     6.25038   0.71142  -0.06081 
 6                    -0.88149   2.00118  -0.21814 
 6                     4.93244   0.06742   0.16079 
 6                     0.05407   0.91967  -0.10047 
 6                     3.86091   0.91698  -0.0167 
 6                     1.40304   1.15129  -0.06631 
 6                     2.53597   0.39873   0.11016 
 6                     2.39315  -1.13606   0.30475 
 1                    -12.91446  -2.91247  -1.18672 
 1                    -13.79363  -1.48386  -1.59835 
 1                    -13.72533   0.00813   1.85156 
 1                    -13.83418   0.55873   0.17205 
 1                    -14.63441  -1.7263    0.40093 
 1                    -10.38771  -2.92378  -1.77591 
 1                    -11.35198  -2.47636  -3.02667 
 1                    -10.00647  -1.32914  -2.57188 
 1                    -9.22834   1.17338  -0.74114 
 1                    -10.10535   0.19081   1.93736 
 1                    -11.37691   0.70905   3.05689 
 1                    -11.29316  -1.05409   2.32216 
 1                    -12.57576   2.33586  -0.02343 
 1                    -12.41901   2.31383   1.71452 
 1                    -10.71712   2.11471   0.79593 
 1                    -12.1048  -2.70883   0.89888 
 1                    -9.01178  -1.63881   0.49048 
 1                    -5.75751  -1.95852  -0.25615 
 1                    -5.60917  -1.24772   1.27919 
 1                    -7.18473  -2.51624   0.80651 
 1                    -7.31623   1.61115  -0.0562 
 1                    -4.51018   0.069    -0.08955 
 1                     13.47015  -0.95988   2.22687 
 1                     12.1494  -2.14246   1.71291 
 1                     13.88463  -2.76678   0.47757 
 1                     12.87632  -2.26749  -1.9003 
 1                     11.80762  -2.71567  -0.73001 
 1                     11.70881   0.40514   3.35073 
 1                     10.53157   1.06255   2.29466 
 1                     10.35041  -0.61581   2.6291 
 1                     13.81773   1.38658   0.53013 
 1                     12.43643   2.26337   1.15792 
 1                     13.36673   1.02026   2.21139 
 1                     12.54872  -0.20734  -3.18778 
 1                     11.56187   1.01322  -2.05726 
 1                     13.202    0.62894  -1.58178 
 1                    -5.47535   2.9601   -0.29052 
 1                     9.85506  -0.44886  -2.14351 
 1                     15.20248  -0.74707   0.40263 
 1                     8.24413   2.12651  -0.36223 
 1                    -2.01131   4.37571   0.12771 
 1                    -2.40631   4.1157   -1.4956 
 1                    -3.70323   4.77689  -0.70771 
 1                    -2.49599   0.73111   0.17767 
 1                     6.84023  -1.96399   0.24865 
 1                     8.4779   -1.45833  -0.32922 
 1                     7.9429   -1.4905    1.44184 
 1                     6.26719   1.67914  -0.28141 
 1                    -0.54356   3.04069  -0.30156 
 1                     4.97298  -1.0182    0.1265 
 1                    -0.49621  -0.08391  -0.0591 
 1                     4.0547    1.98124  -0.10592 
 1                     1.64223   2.31496  -0.20149 
 1                     1.3765   -1.45641   0.17437 
 1                     2.97215  -1.67252  -0.43733 
 1                     2.62922  -1.48043   1.27146 
 
 Stoichiometry    C40H56O4
 Framework group  C1[X(C40H56O4)]
 Deg. of freedom   294
 Full point group                 C1      NOp   1
 Largest Abelian subgroup         C1      NOp   1
 Largest concise Abelian subgroup C1      NOp   1
                         Standard orientation:                         
 ---------------------------------------------------------------------
 Center     Atomic      Atomic             Coordinates (Angstroms)
 Number     Number       Type             X           Y           Z
 ---------------------------------------------------------------------
      1          8           0      -11.713550    0.013781   -1.595512
      2          8           0      -13.034272   -2.414496    1.592583
      3          8           0       10.506791   -1.396010   -1.875606
      4          8           0       14.497962   -0.962214   -0.211397
      5          6           0      -11.120981   -0.138391   -0.402245
      6          6           0      -11.683423   -1.314010   -1.107812
      7          6           0      -11.880771    0.432064    0.811235
      8          6           0      -13.028220   -1.892168   -0.829919
      9          6           0      -13.284512    0.000828    0.911725
     10          6           0      -13.510749   -1.448760    0.510508
     11          6           0      -10.791133   -2.246534   -2.019117
     12          6           0       -9.620473    0.174592   -0.342868
     13          6           0      -11.148981    0.143019    2.055326
     14          6           0      -11.825580    1.969173    0.670987
     15          6           0       -8.717124   -0.636305    0.174468
     16          6           0       -7.243188   -0.538059    0.251010
     17          6           0       -6.444240   -1.676030    0.663288
     18          6           0       -6.594739    0.597851   -0.171530
     19          6           0       -5.276988    0.848775   -0.171366
     20          6           0       11.915604    0.154635    1.237861
     21          6           0       11.625902   -0.836065   -1.175995
     22          6           0       12.782578   -1.102778    1.543204
     23          6           0       13.388187   -1.791771    0.336991
     24          6           0       12.422577   -2.036690   -0.753045
     25          6           0       11.116077   -0.058769   -0.001999
     26          6           0       11.107097    0.497416    2.463272
     27          6           0       12.945036    1.394290    1.084864
     28          6           0       12.276888    0.122867   -2.194896
     29          6           0       -4.729966    2.104693   -0.447047
     30          6           0        9.934513    0.509346   -0.092428
     31          6           0       -3.351236    2.565447   -0.509726
     32          6           0        8.596579    1.044733   -0.205697
     33          6           0       -2.916465    3.886895   -0.906158
     34          6           0       -2.254989    1.680884   -0.264579
     35          6           0        7.495474    0.181741    0.055475
     36          6           0        7.761218   -1.270413    0.426013
     37          6           0        6.248285    0.701150   -0.121453
     38          6           0       -0.883676    1.972758   -0.385909
     39          6           0        4.930459    0.078552    0.155125
     40          6           0        0.051960    0.905314   -0.176270
     41          6           0        3.858828    0.909774   -0.094153
     42          6           0        1.400940    1.138993   -0.162666
     43          6           0        2.533958    0.404335    0.077254
     44          6           0        2.391249   -1.108097    0.402858
     45          1           0      -12.916940   -3.005708   -0.924380
     46          1           0      -13.796312   -1.617667   -1.456689
     47          1           0      -13.726615    0.164806    1.852461
     48          1           0      -13.836173    0.569287    0.131957
     49          1           0      -14.636257   -1.687672    0.556365
     50          1           0      -10.390428   -3.067557   -1.511471
     51          1           0      -11.355222   -2.729085   -2.795604
     52          1           0      -10.009556   -1.547095   -2.441471
     53          1           0       -9.230722    1.103257   -0.832507
     54          1           0      -10.106605    0.354125    1.920777
     55          1           0      -11.377715    0.966520    2.992247
     56          1           0      -11.294227   -0.853156    2.411459
     57          1           0      -12.577869    2.323074   -0.215795
     58          1           0      -12.420399    2.450228    1.517566
     59          1           0      -10.718888    2.173013    0.618751
     60          1           0      -12.106424   -2.623895    1.135732
     61          1           0       -9.013594   -1.592902    0.635751
     62          1           0       -5.759619   -1.975533   -0.082044
     63          1           0       -5.610668   -1.135632    1.386590
     64          1           0       -7.186391   -2.440010    1.025138
     65          1           0       -7.318340    1.598151   -0.188439
     66          1           0       -4.512266    0.058782   -0.090524
     67          1           0       13.469042   -0.767814    2.298194
     68          1           0       12.148102   -1.990116    1.888135
     69          1           0       13.882836   -2.718139    0.710203
     70          1           0       12.873527   -2.424691   -1.701326
     71          1           0       11.805326   -2.770795   -0.496454
     72          1           0       11.708135    0.688618    3.301529
     73          1           0       10.530444    1.253016    2.193434
     74          1           0       10.349461   -0.390462    2.670713
     75          1           0       13.815866    1.424412    0.406252
     76          1           0       12.434805    2.351849    0.957077
     77          1           0       13.365573    1.203692    2.112928
     78          1           0       12.545352   -0.482586   -3.160673
     79          1           0       11.558950    0.830481   -2.138634
     80          1           0       13.199283    0.488384   -1.632616
     81          1           0       -5.477583    2.921998   -0.538394
     82          1           0        9.852130   -0.633590   -2.098414
     83          1           0       15.200614   -0.712331    0.461708
     84          1           0        8.241880    2.085140   -0.543997
     85          1           0       -2.013397    4.368225   -0.244592
     86          1           0       -2.409065    3.969902   -1.839446
     87          1           0       -3.705671    4.696267   -1.110650
     88          1           0       -2.497982    0.741348    0.118080
     89          1           0        6.838321   -1.937848    0.416156
     90          1           0        8.475747   -1.483659   -0.203644
     91          1           0        7.941481   -1.363755    1.563869
     92          1           0        6.264989    1.646378   -0.424272
     93          1           0       -0.545796    3.001272   -0.558346
     94          1           0        4.971007   -1.006002    0.214083
     95          1           0       -0.498281   -0.091005   -0.048728
     96          1           0        4.052568    1.962454   -0.274436
     97          1           0        1.640048    2.286771   -0.397287
     98          1           0        1.374549   -1.438442    0.300861
     99          1           0        2.969953   -1.706259   -0.290700
    100          1           0        2.627726   -1.368266    1.395452
 ---------------------------------------------------------------------
 Rotational constants (GHZ):           0.2652735           0.0088366           0.0087478
 Standard basis: 6-31G(d,p) (6D, 7F)
 There are   940 symmetry adapted cartesian basis functions of A   symmetry.
 There are   940 symmetry adapted basis functions of A   symmetry.
   940 basis functions,  1624 primitive gaussians,   940 cartesian basis functions
   164 alpha electrons      164 beta electrons
       nuclear repulsion energy      4463.9038966262 Hartrees.
 NAtoms=  100 NActive=  100 NUniq=  100 SFac= 1.00D+00 NAtFMM=   60 NAOKFM=T Big=T
 Integral buffers will be    131072 words long.
 Raffenetti 1 integral format.
 Two-electron integral symmetry is turned on.
 One-electron integrals computed using PRISM.
 NBasis=   940 RedAO= T EigKep=  4.95D-04  NBF=   940
 NBsUse=   940 1.00D-06 EigRej= -1.00D+00 NBFU=   940
 ExpMin= 1.61D-01 ExpMax= 5.48D+03 ExpMxC= 8.25D+02 IAcc=3 IRadAn=         5 AccDes= 0.00D+00
 Harris functional with IExCor=20419 and IRadAn=       5 diagonalized for initial guess.
 HarFok:  IExCor=20419 AccDes= 0.00D+00 IRadAn=         5 IDoV= 1 UseB2=F ITyADJ=14
 ICtDFT=  3500011 ScaDFX=  1.000000  1.000000  1.000000  1.000000
 FoFCou: FMM=F IPFlag=           0 FMFlag=      100000 FMFlg1=        2001
         NFxFlg=           0 DoJE=T BraDBF=F KetDBF=T FulRan=T
         wScrn=  0.000000 ICntrl=       500 IOpCl=  0 I1Cent=   200000004 NGrid=           0
         NMat0=    1 NMatS0=      1 NMatT0=    0 NMatD0=    1 NMtDS0=    0 NMtDT0=    0
 Petite list used in FoFCou.
 Requested convergence on RMS density matrix=1.00D-08 within 128 cycles.
 Requested convergence on MAX density matrix=1.00D-06.
 Requested convergence on             energy=1.00D-06.
 No special actions if energy rises.
 Integral accuracy reduced to 1.0D-05 until final iterations.
 Initial convergence to 1.0D-05 achieved.  Increase integral accuracy.
 SCF Done:  E(RCAM-B3LYP) =  -1857.36900299     A.U. after   15 cycles
            NFock= 15  Conv=0.86D-08     -V/T= 2.0093
 DoSCS=F DFT=T ScalE2(SS,OS)=  1.000000  1.000000
 ExpMin= 1.61D-01 ExpMax= 5.48D+03 ExpMxC= 8.25D+02 IAcc=3 IRadAn=         5 AccDes= 0.00D+00
 HarFok:  IExCor=  205 AccDes= 0.00D+00 IRadAn=         5 IDoV=-2 UseB2=F ITyADJ=14
 ICtDFT= 12500011 ScaDFX=  1.000000  1.000000  1.000000  1.000000
 GSVD:  LWork=       -2288 too small for GESVD, short by       10340 words or       10340 for optimal perf.
 Range of M.O.s used for correlation:    45   940
 NBasis=   940 NAE=   164 NBE=   164 NFC=    44 NFV=     0
 NROrb=    896 NOA=   120 NOB=   120 NVA=   776 NVB=   776
 Orbital symmetries:
       Occupied  (A) (A) (A) (A) (A) (A) (A) (A) (A) (A) (A) (A)
                 (A) (A) (A) (A) (A) (A) (A) (A) (A) (A) (A) (A)
                 (A) (A) (A) (A) (A) (A) (A) (A) (A) (A) (A) (A)
                 (A) (A) (A) (A) (A) (A) (A) (A) (A) (A) (A) (A)
                 (A) (A) (A) (A) (A) (A) (A) (A) (A) (A) (A) (A)
                 (A) (A) (A) (A) (A) (A) (A) (A) (A) (A) (A) (A)
                 (A) (A) (A) (A) (A) (A) (A) (A) (A) (A) (A) (A)
                 (A) (A) (A) (A) (A) (A) (A) (A) (A) (A) (A) (A)
                 (A) (A) (A) (A) (A) (A) (A) (A) (A) (A) (A) (A)
                 (A) (A) (A) (A) (A) (A) (A) (A) (A) (A) (A) (A)
                 (A) (A) (A) (A) (A) (A) (A) (A) (A) (A) (A) (A)
                 (A) (A) (A) (A) (A) (A) (A) (A) (A) (A) (A) (A)
                 (A) (A) (A) (A) (A) (A) (A) (A) (A) (A) (A) (A)
                 (A) (A) (A) (A) (A) (A) (A) (A)
       Virtual   (A) (A) (A) (A) (A) (A) (A) (A) (A) (A) (A) (A)
                 (A) (A) (A) (A) (A) (A) (A) (A) (A) (A) (A) (A)
                 (A) (A) (A) (A) (A) (A) (A) (A) (A) (A) (A) (A)
                 (A) (A) (A) (A) (A) (A) (A) (A) (A) (A) (A) (A)
                 (A) (A) (A) (A) (A) (A) (A) (A) (A) (A) (A) (A)
                 (A) (A) (A) (A) (A) (A) (A) (A) (A) (A) (A) (A)
                 (A) (A) (A) (A) (A) (A) (A) (A) (A) (A) (A) (A)
                 (A) (A) (A) (A) (A) (A) (A) (A) (A) (A) (A) (A)
                 (A) (A) (A) (A) (A) (A) (A) (A) (A) (A) (A) (A)
                 (A) (A) (A) (A) (A) (A) (A) (A) (A) (A) (A) (A)
                 (A) (A) (A) (A) (A) (A) (A) (A) (A) (A) (A) (A)
                 (A) (A) (A) (A) (A) (A) (A) (A) (A) (A) (A) (A)
                 (A) (A) (A) (A) (A) (A) (A) (A) (A) (A) (A) (A)
                 (A) (A) (A) (A) (A) (A) (A) (A) (A) (A) (A) (A)
                 (A) (A) (A) (A) (A) (A) (A) (A) (A) (A) (A) (A)
                 (A) (A) (A) (A) (A) (A) (A) (A) (A) (A) (A) (A)
                 (A) (A) (A) (A) (A) (A) (A) (A) (A) (A) (A) (A)
                 (A) (A) (A) (A) (A) (A) (A) (A) (A) (A) (A) (A)
                 (A) (A) (A) (A) (A) (A) (A) (A) (A) (A) (A) (A)
                 (A) (A) (A) (A) (A) (A) (A) (A) (A) (A) (A) (A)
                 (A) (A) (A) (A) (A) (A) (A) (A) (A) (A) (A) (A)
                 (A) (A) (A) (A) (A) (A) (A) (A) (A) (A) (A) (A)
                 (A) (A) (A) (A) (A) (A) (A) (A) (A) (A) (A) (A)
                 (A) (A) (A) (A) (A) (A) (A) (A) (A) (A) (A) (A)
                 (A) (A) (A) (A) (A) (A) (A) (A) (A) (A) (A) (A)
                 (A) (A) (A) (A) (A) (A) (A) (A) (A) (A) (A) (A)
                 (A) (A) (A) (A) (A) (A) (A) (A) (A) (A) (A) (A)
                 (A) (A) (A) (A) (A) (A) (A) (A) (A) (A) (A) (A)
                 (A) (A) (A) (A) (A) (A) (A) (A) (A) (A) (A) (A)
                 (A) (A) (A) (A) (A) (A) (A) (A) (A) (A) (A) (A)
                 (A) (A) (A) (A) (A) (A) (A) (A) (A) (A) (A) (A)
                 (A) (A) (A) (A) (A) (A) (A) (A) (A) (A) (A) (A)
                 (A) (A) (A) (A) (A) (A) (A) (A) (A) (A) (A) (A)
                 (A) (A) (A) (A) (A) (A) (A) (A) (A) (A) (A) (A)
                 (A) (A) (A) (A) (A) (A) (A) (A) (A) (A) (A) (A)
                 (A) (A) (A) (A) (A) (A) (A) (A) (A) (A) (A) (A)
                 (A) (A) (A) (A) (A) (A) (A) (A) (A) (A) (A) (A)
                 (A) (A) (A) (A) (A) (A) (A) (A) (A) (A) (A) (A)
                 (A) (A) (A) (A) (A) (A) (A) (A) (A) (A) (A) (A)
                 (A) (A) (A) (A) (A) (A) (A) (A) (A) (A) (A) (A)
                 (A) (A) (A) (A) (A) (A) (A) (A) (A) (A) (A) (A)
                 (A) (A) (A) (A) (A) (A) (A) (A) (A) (A) (A) (A)
                 (A) (A) (A) (A) (A) (A) (A) (A) (A) (A) (A) (A)
                 (A) (A) (A) (A) (A) (A) (A) (A) (A) (A) (A) (A)
                 (A) (A) (A) (A) (A) (A) (A) (A) (A) (A) (A) (A)
                 (A) (A) (A) (A) (A) (A) (A) (A) (A) (A) (A) (A)
                 (A) (A) (A) (A) (A) (A) (A) (A) (A) (A) (A) (A)
                 (A) (A) (A) (A) (A) (A) (A) (A) (A) (A) (A) (A)
                 (A) (A) (A) (A) (A) (A) (A) (A) (A) (A) (A) (A)
                 (A) (A) (A) (A) (A) (A) (A) (A) (A) (A) (A) (A)
                 (A) (A) (A) (A) (A) (A) (A) (A) (A) (A) (A) (A)
                 (A) (A) (A) (A) (A) (A) (A) (A) (A) (A) (A) (A)
                 (A) (A) (A) (A) (A) (A) (A) (A) (A) (A) (A) (A)
                 (A) (A) (A) (A) (A) (A) (A) (A) (A) (A) (A) (A)
                 (A) (A) (A) (A) (A) (A) (A) (A) (A) (A) (A) (A)
                 (A) (A) (A) (A) (A) (A) (A) (A) (A) (A) (A) (A)
                 (A) (A) (A) (A) (A) (A) (A) (A) (A) (A) (A) (A)
                 (A) (A) (A) (A) (A) (A) (A) (A) (A) (A) (A) (A)
                 (A) (A) (A) (A) (A) (A) (A) (A) (A) (A) (A) (A)
                 (A) (A) (A) (A) (A) (A) (A) (A) (A) (A) (A) (A)
                 (A) (A) (A) (A) (A) (A) (A) (A) (A) (A) (A) (A)
                 (A) (A) (A) (A) (A) (A) (A) (A) (A) (A) (A) (A)
                 (A) (A) (A) (A) (A) (A) (A) (A) (A) (A) (A) (A)
                 (A) (A) (A) (A) (A) (A) (A) (A) (A) (A) (A) (A)
                 (A) (A) (A) (A) (A) (A) (A) (A)
     4 initial guesses have been made.
 Convergence on wavefunction:    0.001000000000000
 Iteration     1 Dimension     4 NMult     0 NNew      4
 CISAX will form     4 AO SS matrices at one time.
 Iteration     2 Dimension     6 NMult     4 NNew      2
 Iteration     3 Dimension     8 NMult     6 NNew      2
 Iteration     4 Dimension    10 NMult     8 NNew      2
 Iteration     5 Dimension    12 NMult    10 NNew      2
 Iteration     6 Dimension    14 NMult    12 NNew      2
 ***********************************************************************
 Excited states from <AA,BB:AA,BB> singles matrix:
 ***********************************************************************
 
 Ground to excited state transition densities written to RWF  633
 Ground to excited state transition electric dipole moments (Au):
       state          X           Y           Z        Dip. S.      Osc.
         1         7.7481     -0.2030      0.0919     60.0833      2.9480
 Ground to excited state transition velocity dipole moments (Au):
       state          X           Y           Z        Dip. S.      Osc.
         1        -0.5516      0.0144     -0.0083      0.3046      2.7588
 Ground to excited state transition magnetic dipole moments (Au):
       state          X           Y           Z
         1        -0.0090      0.4507      2.3081
 Ground to excited state transition velocity quadrupole moments (Au):
       state          XX          YY          ZZ          XY          XZ          YZ
         1         0.6193      0.2577      0.0101      0.2595     -0.1251     -0.0446
 <0|del|b> * <b|rxdel|0> + <0|del|b> * <b|delr+rdel|0>
 Rotatory Strengths (R) in cgs (10**-40 erg-esu-cm/Gauss)
       state          XX          YY          ZZ    R(velocity)    E-M Angle
         1       -62.6053     60.1881    -71.6416    -24.6863       90.34
 1/2[<0|r|b>*<b|rxdel|0> + (<0|rxdel|b>*<b|r|0>)*]
 Rotatory Strengths (R) in cgs (10**-40 erg-esu-cm/Gauss)
       state          XX          YY          ZZ     R(length)
         1        49.3902     64.7028   -150.0484    -11.9851
  1/2[<0|del|b>*<b|r|0> + (<0|r|b>*<b|del|0>)*] (Au)
       state          X           Y           Z        Dip. S.   Osc.(frdel)
         1        -4.2740     -0.0029     -0.0008      4.2777      2.8518

 Excitation energies and oscillator strengths:
 
 Excited State   1:      Singlet-A      2.0027 eV  619.08 nm  f=2.9480  <S**2>=0.000
     163 ->166        -0.12987
     164 ->165         0.69862
     164 <-165        -0.10460
 This state for optimization and/or second-order correction.
 Total Energy, E(TD-HF/TD-DFT) =  -1857.29540460    
 Copying the excited state density for this state as the 1-particle RhoCI density.
 SavETr:  write IOETrn=   770 NScale= 10 NData=  16 NLR=1 NState=    1 LETran=      28.

 **********************************************************************

            Population analysis using the SCF density.

 **********************************************************************

 Orbital symmetries:
       Occupied  (A) (A) (A) (A) (A) (A) (A) (A) (A) (A) (A) (A)
                 (A) (A) (A) (A) (A) (A) (A) (A) (A) (A) (A) (A)
                 (A) (A) (A) (A) (A) (A) (A) (A) (A) (A) (A) (A)
                 (A) (A) (A) (A) (A) (A) (A) (A) (A) (A) (A) (A)
                 (A) (A) (A) (A) (A) (A) (A) (A) (A) (A) (A) (A)
                 (A) (A) (A) (A) (A) (A) (A) (A) (A) (A) (A) (A)
                 (A) (A) (A) (A) (A) (A) (A) (A) (A) (A) (A) (A)
                 (A) (A) (A) (A) (A) (A) (A) (A) (A) (A) (A) (A)
                 (A) (A) (A) (A) (A) (A) (A) (A) (A) (A) (A) (A)
                 (A) (A) (A) (A) (A) (A) (A) (A) (A) (A) (A) (A)
                 (A) (A) (A) (A) (A) (A) (A) (A) (A) (A) (A) (A)
                 (A) (A) (A) (A) (A) (A) (A) (A) (A) (A) (A) (A)
                 (A) (A) (A) (A) (A) (A) (A) (A) (A) (A) (A) (A)
                 (A) (A) (A) (A) (A) (A) (A) (A)
       Virtual   (A) (A) (A) (A) (A) (A) (A) (A) (A) (A) (A) (A)
                 (A) (A) (A) (A) (A) (A) (A) (A) (A) (A) (A) (A)
                 (A) (A) (A) (A) (A) (A) (A) (A) (A) (A) (A) (A)
                 (A) (A) (A) (A) (A) (A) (A) (A) (A) (A) (A) (A)
                 (A) (A) (A) (A) (A) (A) (A) (A) (A) (A) (A) (A)
                 (A) (A) (A) (A) (A) (A) (A) (A) (A) (A) (A) (A)
                 (A) (A) (A) (A) (A) (A) (A) (A) (A) (A) (A) (A)
                 (A) (A) (A) (A) (A) (A) (A) (A) (A) (A) (A) (A)
                 (A) (A) (A) (A) (A) (A) (A) (A) (A) (A) (A) (A)
                 (A) (A) (A) (A) (A) (A) (A) (A) (A) (A) (A) (A)
                 (A) (A) (A) (A) (A) (A) (A) (A) (A) (A) (A) (A)
                 (A) (A) (A) (A) (A) (A) (A) (A) (A) (A) (A) (A)
                 (A) (A) (A) (A) (A) (A) (A) (A) (A) (A) (A) (A)
                 (A) (A) (A) (A) (A) (A) (A) (A) (A) (A) (A) (A)
                 (A) (A) (A) (A) (A) (A) (A) (A) (A) (A) (A) (A)
                 (A) (A) (A) (A) (A) (A) (A) (A) (A) (A) (A) (A)
                 (A) (A) (A) (A) (A) (A) (A) (A) (A) (A) (A) (A)
                 (A) (A) (A) (A) (A) (A) (A) (A) (A) (A) (A) (A)
                 (A) (A) (A) (A) (A) (A) (A) (A) (A) (A) (A) (A)
                 (A) (A) (A) (A) (A) (A) (A) (A) (A) (A) (A) (A)
                 (A) (A) (A) (A) (A) (A) (A) (A) (A) (A) (A) (A)
                 (A) (A) (A) (A) (A) (A) (A) (A) (A) (A) (A) (A)
                 (A) (A) (A) (A) (A) (A) (A) (A) (A) (A) (A) (A)
                 (A) (A) (A) (A) (A) (A) (A) (A) (A) (A) (A) (A)
                 (A) (A) (A) (A) (A) (A) (A) (A) (A) (A) (A) (A)
                 (A) (A) (A) (A) (A) (A) (A) (A) (A) (A) (A) (A)
                 (A) (A) (A) (A) (A) (A) (A) (A) (A) (A) (A) (A)
                 (A) (A) (A) (A) (A) (A) (A) (A) (A) (A) (A) (A)
                 (A) (A) (A) (A) (A) (A) (A) (A) (A) (A) (A) (A)
                 (A) (A) (A) (A) (A) (A) (A) (A) (A) (A) (A) (A)
                 (A) (A) (A) (A) (A) (A) (A) (A) (A) (A) (A) (A)
                 (A) (A) (A) (A) (A) (A) (A) (A) (A) (A) (A) (A)
                 (A) (A) (A) (A) (A) (A) (A) (A) (A) (A) (A) (A)
                 (A) (A) (A) (A) (A) (A) (A) (A) (A) (A) (A) (A)
                 (A) (A) (A) (A) (A) (A) (A) (A) (A) (A) (A) (A)
                 (A) (A) (A) (A) (A) (A) (A) (A) (A) (A) (A) (A)
                 (A) (A) (A) (A) (A) (A) (A) (A) (A) (A) (A) (A)
                 (A) (A) (A) (A) (A) (A) (A) (A) (A) (A) (A) (A)
                 (A) (A) (A) (A) (A) (A) (A) (A) (A) (A) (A) (A)
                 (A) (A) (A) (A) (A) (A) (A) (A) (A) (A) (A) (A)
                 (A) (A) (A) (A) (A) (A) (A) (A) (A) (A) (A) (A)
                 (A) (A) (A) (A) (A) (A) (A) (A) (A) (A) (A) (A)
                 (A) (A) (A) (A) (A) (A) (A) (A) (A) (A) (A) (A)
                 (A) (A) (A) (A) (A) (A) (A) (A) (A) (A) (A) (A)
                 (A) (A) (A) (A) (A) (A) (A) (A) (A) (A) (A) (A)
                 (A) (A) (A) (A) (A) (A) (A) (A) (A) (A) (A) (A)
                 (A) (A) (A) (A) (A) (A) (A) (A) (A) (A) (A) (A)
                 (A) (A) (A) (A) (A) (A) (A) (A) (A) (A) (A) (A)
                 (A) (A) (A) (A) (A) (A) (A) (A) (A) (A) (A) (A)
                 (A) (A) (A) (A) (A) (A) (A) (A) (A) (A) (A) (A)
                 (A) (A) (A) (A) (A) (A) (A) (A) (A) (A) (A) (A)
                 (A) (A) (A) (A) (A) (A) (A) (A) (A) (A) (A) (A)
                 (A) (A) (A) (A) (A) (A) (A) (A) (A) (A) (A) (A)
                 (A) (A) (A) (A) (A) (A) (A) (A) (A) (A) (A) (A)
                 (A) (A) (A) (A) (A) (A) (A) (A) (A) (A) (A) (A)
                 (A) (A) (A) (A) (A) (A) (A) (A) (A) (A) (A) (A)
                 (A) (A) (A) (A) (A) (A) (A) (A) (A) (A) (A) (A)
                 (A) (A) (A) (A) (A) (A) (A) (A) (A) (A) (A) (A)
                 (A) (A) (A) (A) (A) (A) (A) (A) (A) (A) (A) (A)
                 (A) (A) (A) (A) (A) (A) (A) (A) (A) (A) (A) (A)
                 (A) (A) (A) (A) (A) (A) (A) (A) (A) (A) (A) (A)
                 (A) (A) (A) (A) (A) (A) (A) (A) (A) (A) (A) (A)
                 (A) (A) (A) (A) (A) (A) (A) (A) (A) (A) (A) (A)
                 (A) (A) (A) (A) (A) (A) (A) (A) (A) (A) (A) (A)
                 (A) (A) (A) (A) (A) (A) (A) (A)
 The electronic state is 1-A.
 Alpha  occ. eigenvalues --  -19.22800 -19.21246 -19.21030 -19.20804 -10.32562
 Alpha  occ. eigenvalues --  -10.32270 -10.31577 -10.31252 -10.30709 -10.29603
 Alpha  occ. eigenvalues --  -10.28582 -10.28508 -10.28025 -10.28001 -10.27935
 Alpha  occ. eigenvalues --  -10.27562 -10.27345 -10.27299 -10.27239 -10.27028
 Alpha  occ. eigenvalues --  -10.27014 -10.26965 -10.26926 -10.26817 -10.26651
 Alpha  occ. eigenvalues --  -10.26569 -10.26486 -10.26445 -10.26376 -10.26192
 Alpha  occ. eigenvalues --  -10.26017 -10.25862 -10.25854 -10.25745 -10.25741
 Alpha  occ. eigenvalues --  -10.25316 -10.25012 -10.24974 -10.24859 -10.24436
 Alpha  occ. eigenvalues --  -10.24419 -10.24167 -10.24076 -10.23720  -1.19453
 Alpha  occ. eigenvalues --   -1.08742  -1.06849  -1.05406  -0.93894  -0.92768
 Alpha  occ. eigenvalues --   -0.92256  -0.91936  -0.91225  -0.90288  -0.88013
 Alpha  occ. eigenvalues --   -0.87511  -0.87268  -0.85983  -0.85309  -0.83548
 Alpha  occ. eigenvalues --   -0.82514  -0.80900  -0.80124  -0.78564  -0.77801
 Alpha  occ. eigenvalues --   -0.77508  -0.77343  -0.76314  -0.76165  -0.75839
 Alpha  occ. eigenvalues --   -0.74522  -0.73838  -0.73043  -0.70525  -0.70082
 Alpha  occ. eigenvalues --   -0.68795  -0.66913  -0.65389  -0.64979  -0.64908
 Alpha  occ. eigenvalues --   -0.63841  -0.62870  -0.61593  -0.60550  -0.59143
 Alpha  occ. eigenvalues --   -0.58693  -0.58599  -0.58001  -0.57797  -0.56752
 Alpha  occ. eigenvalues --   -0.56119  -0.55844  -0.55453  -0.55331  -0.54607
 Alpha  occ. eigenvalues --   -0.54179  -0.53311  -0.53137  -0.52383  -0.51638
 Alpha  occ. eigenvalues --   -0.50986  -0.50857  -0.50536  -0.50457  -0.50153
 Alpha  occ. eigenvalues --   -0.49753  -0.49434  -0.49377  -0.49172  -0.48619
 Alpha  occ. eigenvalues --   -0.48242  -0.47673  -0.47307  -0.47064  -0.46930
 Alpha  occ. eigenvalues --   -0.46765  -0.46515  -0.46420  -0.45743  -0.45617
 Alpha  occ. eigenvalues --   -0.45226  -0.45109  -0.44911  -0.44512  -0.44305
 Alpha  occ. eigenvalues --   -0.43957  -0.43552  -0.43485  -0.43386  -0.43095
 Alpha  occ. eigenvalues --   -0.42279  -0.42203  -0.41903  -0.41562  -0.41402
 Alpha  occ. eigenvalues --   -0.40872  -0.40705  -0.40465  -0.40303  -0.40163
 Alpha  occ. eigenvalues --   -0.39710  -0.39163  -0.39149  -0.39045  -0.38771
 Alpha  occ. eigenvalues --   -0.38695  -0.38483  -0.37961  -0.37820  -0.37232
 Alpha  occ. eigenvalues --   -0.36850  -0.36228  -0.35445  -0.34969  -0.34001
 Alpha  occ. eigenvalues --   -0.32402  -0.32321  -0.32111  -0.31630  -0.30906
 Alpha  occ. eigenvalues --   -0.30131  -0.27579  -0.24139  -0.19475
 Alpha virt. eigenvalues --   -0.06819  -0.01176   0.02354   0.05680   0.06632
 Alpha virt. eigenvalues --    0.09225   0.09485   0.10204   0.11613   0.12208
 Alpha virt. eigenvalues --    0.12497   0.12752   0.13171   0.13577   0.14095
 Alpha virt. eigenvalues --    0.14345   0.14461   0.14629   0.14899   0.14919
 Alpha virt. eigenvalues --    0.15265   0.15965   0.16055   0.16256   0.16312
 Alpha virt. eigenvalues --    0.16590   0.16862   0.17197   0.17420   0.17696
 Alpha virt. eigenvalues --    0.18254   0.18821   0.19106   0.19375   0.19604
 Alpha virt. eigenvalues --    0.19993   0.20127   0.20596   0.20685   0.21032
 Alpha virt. eigenvalues --    0.21276   0.21750   0.21805   0.22208   0.22374
 Alpha virt. eigenvalues --    0.22467   0.22601   0.22706   0.23267   0.23502
 Alpha virt. eigenvalues --    0.23641   0.23729   0.23833   0.24126   0.24336
 Alpha virt. eigenvalues --    0.24809   0.24816   0.25092   0.25542   0.25814
 Alpha virt. eigenvalues --    0.26129   0.26314   0.26925   0.27168   0.27572
 Alpha virt. eigenvalues --    0.27683   0.28082   0.28261   0.28500   0.28532
 Alpha virt. eigenvalues --    0.28970   0.29168   0.29472   0.29851   0.29970
 Alpha virt. eigenvalues --    0.30346   0.30507   0.30713   0.31452   0.31591
 Alpha virt. eigenvalues --    0.31685   0.32530   0.32880   0.33219   0.33556
 Alpha virt. eigenvalues --    0.33872   0.34457   0.34806   0.35937   0.35985
 Alpha virt. eigenvalues --    0.36713   0.37346   0.37721   0.38763   0.39219
 Alpha virt. eigenvalues --    0.40047   0.40731   0.42027   0.42484   0.43372
 Alpha virt. eigenvalues --    0.44194   0.44982   0.45546   0.45946   0.46631
 Alpha virt. eigenvalues --    0.47604   0.48619   0.50047   0.50845   0.51751
 Alpha virt. eigenvalues --    0.52130   0.53746   0.54314   0.55704   0.56269
 Alpha virt. eigenvalues --    0.56512   0.56839   0.57332   0.57671   0.57924
 Alpha virt. eigenvalues --    0.58012   0.58199   0.58772   0.58889   0.59332
 Alpha virt. eigenvalues --    0.59558   0.60608   0.60898   0.61181   0.61376
 Alpha virt. eigenvalues --    0.61888   0.61993   0.62241   0.62497   0.62640
 Alpha virt. eigenvalues --    0.62984   0.63145   0.63321   0.63631   0.63774
 Alpha virt. eigenvalues --    0.64298   0.64627   0.64915   0.64993   0.65264
 Alpha virt. eigenvalues --    0.65832   0.66009   0.66348   0.66653   0.67038
 Alpha virt. eigenvalues --    0.67131   0.67511   0.67718   0.67912   0.68192
 Alpha virt. eigenvalues --    0.68418   0.68901   0.69520   0.69620   0.70241
 Alpha virt. eigenvalues --    0.70358   0.70956   0.71053   0.71391   0.71702
 Alpha virt. eigenvalues --    0.71836   0.72191   0.72429   0.72702   0.73124
 Alpha virt. eigenvalues --    0.74117   0.74345   0.74694   0.74875   0.75580
 Alpha virt. eigenvalues --    0.75852   0.76426   0.76836   0.77630   0.78039
 Alpha virt. eigenvalues --    0.78789   0.79166   0.79304   0.79581   0.79855
 Alpha virt. eigenvalues --    0.80116   0.80313   0.80784   0.81453   0.81498
 Alpha virt. eigenvalues --    0.82292   0.82882   0.83051   0.83795   0.83810
 Alpha virt. eigenvalues --    0.83961   0.84111   0.84496   0.84680   0.85155
 Alpha virt. eigenvalues --    0.85612   0.85636   0.85849   0.86326   0.86426
 Alpha virt. eigenvalues --    0.87146   0.87262   0.87541   0.87661   0.88380
 Alpha virt. eigenvalues --    0.88794   0.89257   0.89417   0.89647   0.90067
 Alpha virt. eigenvalues --    0.90370   0.90569   0.90853   0.90927   0.91123
 Alpha virt. eigenvalues --    0.91480   0.91812   0.92025   0.92126   0.92291
 Alpha virt. eigenvalues --    0.92654   0.93065   0.93809   0.93841   0.94068
 Alpha virt. eigenvalues --    0.94217   0.94698   0.94792   0.95646   0.95818
 Alpha virt. eigenvalues --    0.96074   0.96295   0.96338   0.96487   0.96872
 Alpha virt. eigenvalues --    0.97115   0.97445   0.97615   0.97681   0.98046
 Alpha virt. eigenvalues --    0.98468   0.98786   0.98910   1.00050   1.00195
 Alpha virt. eigenvalues --    1.00469   1.00622   1.01050   1.01316   1.01579
 Alpha virt. eigenvalues --    1.01659   1.02219   1.02409   1.02575   1.03049
 Alpha virt. eigenvalues --    1.03252   1.03987   1.04354   1.05042   1.05223
 Alpha virt. eigenvalues --    1.05555   1.05900   1.06280   1.06291   1.07125
 Alpha virt. eigenvalues --    1.07448   1.08371   1.08565   1.08967   1.09292
 Alpha virt. eigenvalues --    1.09703   1.10113   1.10773   1.11088   1.11676
 Alpha virt. eigenvalues --    1.12154   1.12299   1.12684   1.14611   1.14941
 Alpha virt. eigenvalues --    1.15820   1.16112   1.16726   1.17142   1.17996
 Alpha virt. eigenvalues --    1.18820   1.19909   1.20257   1.21034   1.21579
 Alpha virt. eigenvalues --    1.22146   1.22877   1.23073   1.24042   1.24297
 Alpha virt. eigenvalues --    1.24378   1.25220   1.25958   1.26941   1.27719
 Alpha virt. eigenvalues --    1.29103   1.29616   1.29803   1.31457   1.31647
 Alpha virt. eigenvalues --    1.32664   1.33775   1.33871   1.34787   1.34886
 Alpha virt. eigenvalues --    1.35824   1.36029   1.36512   1.37469   1.37855
 Alpha virt. eigenvalues --    1.38281   1.38336   1.39794   1.40609   1.40960
 Alpha virt. eigenvalues --    1.41609   1.41824   1.41976   1.42892   1.43571
 Alpha virt. eigenvalues --    1.44349   1.44580   1.45258   1.45934   1.47550
 Alpha virt. eigenvalues --    1.48780   1.50954   1.51480   1.51850   1.52338
 Alpha virt. eigenvalues --    1.52659   1.52988   1.53769   1.53826   1.54543
 Alpha virt. eigenvalues --    1.55372   1.56840   1.57029   1.57527   1.58342
 Alpha virt. eigenvalues --    1.58873   1.59075   1.59986   1.60447   1.61113
 Alpha virt. eigenvalues --    1.62164   1.62300   1.62795   1.64094   1.64504
 Alpha virt. eigenvalues --    1.65488   1.65630   1.66273   1.68752   1.68876
 Alpha virt. eigenvalues --    1.70359   1.70567   1.70825   1.72054   1.73071
 Alpha virt. eigenvalues --    1.73174   1.74721   1.75008   1.75866   1.77117
 Alpha virt. eigenvalues --    1.77552   1.78102   1.78662   1.79224   1.80145
 Alpha virt. eigenvalues --    1.80619   1.80752   1.80786   1.82386   1.82696
 Alpha virt. eigenvalues --    1.82943   1.83133   1.83354   1.84068   1.84476
 Alpha virt. eigenvalues --    1.84817   1.84938   1.85061   1.85664   1.86170
 Alpha virt. eigenvalues --    1.86758   1.87442   1.88074   1.88438   1.89248
 Alpha virt. eigenvalues --    1.89444   1.89594   1.89846   1.89982   1.90390
 Alpha virt. eigenvalues --    1.90953   1.91658   1.92662   1.93164   1.93406
 Alpha virt. eigenvalues --    1.93641   1.93823   1.94292   1.94889   1.95386
 Alpha virt. eigenvalues --    1.95548   1.95792   1.96318   1.96698   1.97228
 Alpha virt. eigenvalues --    1.97762   1.97943   1.98146   1.98743   1.99168
 Alpha virt. eigenvalues --    1.99572   1.99816   2.00364   2.00547   2.00943
 Alpha virt. eigenvalues --    2.01251   2.01555   2.02307   2.02725   2.03218
 Alpha virt. eigenvalues --    2.03451   2.04515   2.05383   2.05582   2.05895
 Alpha virt. eigenvalues --    2.06100   2.06337   2.06964   2.07484   2.07622
 Alpha virt. eigenvalues --    2.08096   2.08147   2.08531   2.08709   2.10292
 Alpha virt. eigenvalues --    2.10443   2.10798   2.10882   2.11286   2.11781
 Alpha virt. eigenvalues --    2.11975   2.12817   2.12917   2.13299   2.13752
 Alpha virt. eigenvalues --    2.13907   2.14174   2.14643   2.15376   2.16016
 Alpha virt. eigenvalues --    2.16645   2.17250   2.17434   2.18562   2.19284
 Alpha virt. eigenvalues --    2.19607   2.19878   2.20090   2.20472   2.20777
 Alpha virt. eigenvalues --    2.20895   2.21058   2.21120   2.21453   2.22118
 Alpha virt. eigenvalues --    2.22435   2.22795   2.22963   2.23615   2.23935
 Alpha virt. eigenvalues --    2.24449   2.24724   2.25120   2.25247   2.26089
 Alpha virt. eigenvalues --    2.26543   2.26612   2.27487   2.27734   2.28196
 Alpha virt. eigenvalues --    2.28624   2.28681   2.28881   2.29341   2.29532
 Alpha virt. eigenvalues --    2.30108   2.30465   2.30756   2.31235   2.31372
 Alpha virt. eigenvalues --    2.32107   2.32403   2.32923   2.33493   2.33564
 Alpha virt. eigenvalues --    2.34116   2.34964   2.35337   2.35873   2.36282
 Alpha virt. eigenvalues --    2.36684   2.37228   2.37256   2.38133   2.39265
 Alpha virt. eigenvalues --    2.39504   2.40129   2.40484   2.40831   2.41325
 Alpha virt. eigenvalues --    2.41981   2.42249   2.42917   2.43211   2.43915
 Alpha virt. eigenvalues --    2.44114   2.44595   2.45117   2.45660   2.45886
 Alpha virt. eigenvalues --    2.46066   2.46490   2.47099   2.47410   2.47750
 Alpha virt. eigenvalues --    2.48006   2.48158   2.48491   2.49772   2.50079
 Alpha virt. eigenvalues --    2.50307   2.51438   2.51949   2.52322   2.52630
 Alpha virt. eigenvalues --    2.53842   2.54952   2.55247   2.55581   2.55919
 Alpha virt. eigenvalues --    2.56100   2.56943   2.57544   2.58084   2.58158
 Alpha virt. eigenvalues --    2.59201   2.59256   2.59438   2.59845   2.60345
 Alpha virt. eigenvalues --    2.60789   2.61489   2.61817   2.62337   2.62586
 Alpha virt. eigenvalues --    2.62813   2.63038   2.63852   2.64563   2.65851
 Alpha virt. eigenvalues --    2.66291   2.66712   2.67071   2.67662   2.67863
 Alpha virt. eigenvalues --    2.68155   2.68669   2.68840   2.69018   2.69715
 Alpha virt. eigenvalues --    2.70810   2.71185   2.71396   2.71465   2.71937
 Alpha virt. eigenvalues --    2.72568   2.72776   2.73181   2.73431   2.73787
 Alpha virt. eigenvalues --    2.74147   2.74824   2.75291   2.75715   2.75802
 Alpha virt. eigenvalues --    2.76150   2.76558   2.77083   2.77699   2.77945
 Alpha virt. eigenvalues --    2.78474   2.79079   2.79189   2.79818   2.80061
 Alpha virt. eigenvalues --    2.80596   2.81182   2.81752   2.82668   2.82919
 Alpha virt. eigenvalues --    2.83038   2.83763   2.84071   2.84170   2.85343
 Alpha virt. eigenvalues --    2.85759   2.87093   2.87436   2.88001   2.88704
 Alpha virt. eigenvalues --    2.89137   2.89522   2.89608   2.90246   2.90683
 Alpha virt. eigenvalues --    2.90951   2.91233   2.92142   2.92824   2.93192
 Alpha virt. eigenvalues --    2.93753   2.94709   2.94757   2.95980   2.96256
 Alpha virt. eigenvalues --    2.96466   2.97170   2.97602   2.98193   2.98890
 Alpha virt. eigenvalues --    2.98930   2.99307   2.99844   3.01287   3.02073
 Alpha virt. eigenvalues --    3.02753   3.03539   3.03785   3.04233   3.04620
 Alpha virt. eigenvalues --    3.05672   3.06620   3.07604   3.07726   3.07918
 Alpha virt. eigenvalues --    3.09257   3.10013   3.10221   3.11554   3.12404
 Alpha virt. eigenvalues --    3.13538   3.15647   3.16141   3.16445   3.17537
 Alpha virt. eigenvalues --    3.18746   3.19018   3.19108   3.19363   3.21079
 Alpha virt. eigenvalues --    3.21478   3.23912   3.25705   3.26919   3.27351
 Alpha virt. eigenvalues --    3.28746   3.31606   3.32055   3.33184   3.34437
 Alpha virt. eigenvalues --    3.35758   3.35823   3.38048   3.39335   3.39573
 Alpha virt. eigenvalues --    3.40225   3.40513   3.42819   3.43616   3.44094
 Alpha virt. eigenvalues --    3.44509   3.44937   3.46055   3.46986   3.47006
 Alpha virt. eigenvalues --    3.47826   3.48305   3.48784   3.50195   3.50970
 Alpha virt. eigenvalues --    3.51580   3.52041   3.52494   3.53202   3.53749
 Alpha virt. eigenvalues --    3.54762   3.54840   3.55758   3.56141   3.56183
 Alpha virt. eigenvalues --    3.58028   3.59745   3.60590   3.60965   3.61907
 Alpha virt. eigenvalues --    3.63846   3.64260   3.65982   3.67915   3.69333
 Alpha virt. eigenvalues --    3.71497   3.72784   3.75158   3.77191   3.78981
 Alpha virt. eigenvalues --    3.79630   3.81440   3.95306   4.02626   4.15805
 Alpha virt. eigenvalues --    4.16835   4.17292   4.19413   4.20506   4.22118
 Alpha virt. eigenvalues --    4.22480   4.24624   4.27609   4.30545   4.34557
 Alpha virt. eigenvalues --    4.36908   4.38040   4.40409   4.44197   4.47211
 Alpha virt. eigenvalues --    4.48965   4.49383   4.49657   4.54014   4.54783
 Alpha virt. eigenvalues --    4.56358   4.57253   4.58652   4.61864   4.62442
 Alpha virt. eigenvalues --    4.64048   4.65242   4.70405   4.71068   4.73418
 Alpha virt. eigenvalues --    4.74422   4.77253   4.81028   4.82068   4.84546
 Alpha virt. eigenvalues --    4.86176   4.87578   4.89643   4.95341   4.95986
 Alpha virt. eigenvalues --    4.97755
          Condensed to atoms (all electrons):
 Mulliken charges:
               1
     1  O   -0.477342
     2  O   -0.557036
     3  O   -0.573597
     4  O   -0.579613
     5  C    0.274241
     6  C    0.182146
     7  C    0.018660
     8  C   -0.217995
     9  C   -0.168035
    10  C    0.112672
    11  C   -0.337754
    12  C   -0.172424
    13  C   -0.303780
    14  C   -0.292046
    15  C   -0.035583
    16  C    0.081427
    17  C   -0.370215
    18  C   -0.102101
    19  C   -0.065465
    20  C   -0.017964
    21  C    0.217151
    22  C   -0.174120
    23  C    0.146513
    24  C   -0.172465
    25  C   -0.012862
    26  C   -0.278767
    27  C   -0.296434
    28  C   -0.267808
    29  C   -0.135839
    30  C    0.024406
    31  C    0.130525
    32  C   -0.254387
    33  C   -0.406873
    34  C   -0.129714
    35  C    0.120653
    36  C   -0.343411
    37  C   -0.116178
    38  C   -0.066720
    39  C   -0.076503
    40  C   -0.077673
    41  C   -0.107108
    42  C   -0.133707
    43  C    0.098028
    44  C   -0.376529
    45  H    0.112006
    46  H    0.136240
    47  H    0.122473
    48  H    0.094922
    49  H    0.084191
    50  H    0.109047
    51  H    0.113953
    52  H    0.125188
    53  H    0.109442
    54  H    0.113562
    55  H    0.059701
    56  H    0.111940
    57  H    0.086613
    58  H    0.100246
    59  H    0.100161
    60  H    0.292004
    61  H    0.062250
    62  H    0.143704
    63  H    0.106115
    64  H    0.103730
    65  H    0.062529
    66  H    0.081481
    67  H    0.086351
    68  H    0.090622
    69  H    0.085751
    70  H    0.117947
    71  H    0.127563
    72  H    0.102347
    73  H    0.122750
    74  H    0.088162
    75  H    0.119410
    76  H    0.107336
    77  H    0.081452
    78  H    0.107272
    79  H    0.091962
    80  H    0.122784
    81  H    0.078339
    82  H    0.306074
    83  H    0.304178
    84  H    0.114102
    85  H    0.100904
    86  H    0.140302
    87  H    0.100533
    88  H    0.074991
    89  H    0.093073
    90  H    0.134579
    91  H    0.111351
    92  H    0.054298
    93  H    0.087915
    94  H    0.100383
    95  H    0.091156
    96  H    0.095640
    97  H    0.064149
    98  H    0.105881
    99  H    0.121280
   100  H    0.129289
 Sum of Mulliken charges =  -0.00000
 Mulliken charges with hydrogens summed into heavy atoms:
               1
     1  O   -0.477342
     2  O   -0.265032
     3  O   -0.267523
     4  O   -0.275436
     5  C    0.274241
     6  C    0.182146
     7  C    0.018660
     8  C    0.030251
     9  C    0.049359
    10  C    0.196863
    11  C    0.010434
    12  C   -0.062982
    13  C   -0.018578
    14  C   -0.005025
    15  C    0.026667
    16  C    0.081427
    17  C   -0.016667
    18  C   -0.039572
    19  C    0.016016
    20  C   -0.017964
    21  C    0.217151
    22  C    0.002853
    23  C    0.232263
    24  C    0.073045
    25  C   -0.012862
    26  C    0.034492
    27  C    0.011764
    28  C    0.054211
    29  C   -0.057501
    30  C    0.024406
    31  C    0.130525
    32  C   -0.140285
    33  C   -0.065134
    34  C   -0.054724
    35  C    0.120653
    36  C   -0.004407
    37  C   -0.061880
    38  C    0.021195
    39  C    0.023880
    40  C    0.013483
    41  C   -0.011467
    42  C   -0.069558
    43  C    0.098028
    44  C   -0.020079
 Electronic spatial extent (au):  <R**2>=         115281.7884
 Charge=             -0.0000 electrons
 Dipole moment (field-independent basis, Debye):
    X=              4.3995    Y=             -0.0925    Z=              0.9886  Tot=              4.5102
 Quadrupole moment (field-independent basis, Debye-Ang):
   XX=           -272.0456   YY=           -260.0524   ZZ=           -282.0255
   XY=              5.1931   XZ=             44.2075   YZ=             -1.2888
 Traceless Quadrupole moment (field-independent basis, Debye-Ang):
   XX=             -0.6711   YY=             11.3221   ZZ=            -10.6510
   XY=              5.1931   XZ=             44.2075   YZ=             -1.2888
 Octapole moment (field-independent basis, Debye-Ang**2):
  XXX=           1028.4446  YYY=             -7.2143  ZZZ=            -11.9314  XYY=             17.6617
  XXY=             29.4026  XXZ=            202.7326  XZZ=             95.8676  YZZ=             -5.4256
  YYZ=            -29.0953  XYZ=           -140.7657
 Hexadecapole moment (field-independent basis, Debye-Ang**3):
 XXXX=        -145407.4694 YYYY=          -3724.8294 ZZZZ=          -2183.3919 XXXY=          -1060.1724
 XXXZ=           8927.2415 YYYX=            -36.2420 YYYZ=            -28.6272 ZZZX=             45.9574
 ZZZY=             32.8289 XXYY=         -25605.0171 XXZZ=         -26443.9150 YYZZ=          -1029.2014
 XXYZ=            693.7927 YYXZ=            295.3873 ZZXY=            -78.6435
 N-N= 4.463903896626D+03 E-N=-1.323825806080D+04  KE= 1.840252867409D+03
 1\1\GINC-RYZEN-SSD3\SP\RCAM-B3LYP TD-FC\6-31G(d,p)\C40H56O4\PADAWAN\02
 -Aug-2019\0\\# td=(NStates=1) CAM-B3LYP/6-31G(d,p)\\TD\\0,1\O,0,-11.71
 08377514,0.153435992,-1.5958267463\O,0,-13.0328441202,-2.5393822462,1.
 3716328483\O,0,10.5096364835,-1.2276026482,-1.9866623925\O,0,14.500113
 378,-0.9382725488,-0.2897234597\C,0,-11.1187600432,-0.1005640111,-0.41
 97714015\C,0,-11.6808943791,-1.2113023101,-1.2238312234\C,0,-11.879059
 949,0.3636930521,0.8378634413\C,0,-13.0257977835,-1.811141272,-0.99712
 13461\C,0,-13.2828367417,-0.0745449021,0.9004047284\C,0,-13.5088873222
 ,-1.4843599738,0.3762063879\C,0,-10.7882144101,-2.0622216397,-2.211413
 4596\C,0,-9.6182812719,0.2061377476,-0.3331402721\C,0,-11.1477807555,-
 0.0310386999,2.0528703541\C,0,-11.8238327636,1.9071658197,0.8300310948
 \C,0,-8.7151349352,-0.6461726585,0.113090048\C,0,-7.2412321128,-0.5548
 873348,0.1983875391\C,0,-6.4424382587,-1.7240510939,0.5118434206\C,0,-
 6.5926249242,0.6130721371,-0.1248710423\C,0,-5.2748774293,0.8630283395
 ,-0.1026345937\C,0,11.917140961,0.050175047,1.2489444225\C,0,11.628450
 1351,-0.7297691321,-1.2411279925\C,0,12.7840056287,-1.2288171114,1.445
 6392973\C,0,13.3901236991,-1.811795713,0.1850124656\C,0,12.4249674314,
 -1.9622707361,-0.9224162041\C,0,11.1181287008,-0.0560508572,-0.0049833
 18\C,0,11.1081222171,0.2865752995,2.4989122314\C,0,12.9466177785,1.298
 3630571,1.2032933803\C,0,12.2798442906,0.3130301763,-2.1737313209\C,0,
 -4.7277592716,2.1379563016,-0.2693217811\C,0,9.936594847,0.5177525781,
 -0.0468258593\C,0,-3.3490100594,2.6023589896,-0.2916694276\C,0,8.59869
 9656,1.060912425,-0.1142957696\C,0,-2.9140930944,3.9529367532,-0.57308
 70408\C,0,-2.2528522003,1.7000018489,-0.1228648212\C,0,7.4974992924,0.
 1787184598,0.0714179577\C,0,7.7631110476,-1.2998769398,0.3161115341\C,
 0,6.2503763856,0.7114180721,-0.060810017\C,0,-0.8814922807,2.001179241
 6,-0.2181399891\C,0,4.9324448473,0.0674158577,0.1607874475\C,0,0.05407
 18862,0.9196652764,-0.1004691497\C,0,3.8609054982,0.9169820486,-0.0166
 991389\C,0,1.403042245,1.1512868564,-0.0663090118\C,0,2.5359714976,0.3
 987291726,0.1101643743\C,0,2.3931491766,-1.1360577861,0.3047490685\H,0
 ,-12.9144632471,-2.9124742252,-1.1867238964\H,0,-13.7936345872,-1.4838
 623704,-1.5983462893\H,0,-13.7253303352,0.0081278816,1.8515578385\H,0,
 -13.8341828119,0.5587310002,0.1720548711\H,0,-14.6344107452,-1.7263013
 435,0.4009316975\H,0,-10.3877073876,-2.9237791607,-1.7759128867\H,0,-1
 1.3519754064,-2.4763624276,-3.0266709533\H,0,-10.0064728308,-1.3291421
 228,-2.5718788004\H,0,-9.2283414889,1.1733794689,-0.7411379239\H,0,-10
 .1053518628,0.1908103451,1.9373594787\H,0,-11.3769130522,0.7090476064,
 3.0568940395\H,0,-11.2931600097,-1.0540922857,2.322163006\H,0,-12.5757
 601185,2.335859708,-0.0234291269\H,0,-12.4190081402,2.3138269582,1.714
 5151633\H,0,-10.7171219943,2.1147120617,0.7959338869\H,0,-12.104803552
 9,-2.708833757,0.8988843673\H,0,-9.0117820201,-1.6388122389,0.49047814
 67\H,0,-5.7575051966,-1.958519177,-0.2561536598\H,0,-5.6091733326,-1.2
 477200046,1.2791863148\H,0,-7.1847285835,-2.5162438974,0.8065068015\H,
 0,-7.3162329344,1.611149444,-0.056195296\H,0,-4.5101776625,0.068995518
 ,-0.089552731\H,0,13.4701526924,-0.9598776752,2.2268676274\H,0,12.1494
 00117,-2.1424636264,1.7129072904\H,0,13.88463082,-2.7667783428,0.47757
 46834\H,0,12.87631507,-2.2674932278,-1.900303125\H,0,11.8076207703,-2.
 715670691,-0.7300083429\H,0,11.7088104892,0.4051408808,3.3507301117\H,
 0,10.5315701347,1.0625518183,2.2946569899\H,0,10.3504126625,-0.6158098
 955,2.6290991511\H,0,13.8177286748,1.3865772819,0.5301270775\H,0,12.43
 64262558,2.2633657744,1.1579204977\H,0,13.3667325104,1.0202565048,2.21
 13876204\H,0,12.5487156911,-0.2073373433,-3.18778123\H,0,11.5618732557
 ,1.0132234132,-2.0572636613\H,0,13.2020010327,0.6289389468,-1.58178366
 38\H,0,-5.4753497589,2.9601003968,-0.2905204628\H,0,9.8550567563,-0.44
 8863544,-2.1435066865\H,0,15.2024830935,-0.7470745219,0.4026288622\H,0
 ,8.2441262634,2.1265149787,-0.3622335006\H,0,-2.0113062148,4.375714021
 1,0.1277086006\H,0,-2.4063093952,4.1156987947,-1.4956026694\H,0,-3.703
 2267078,4.7768858704,-0.7077105726\H,0,-2.495989219,0.7311053225,0.177
 6748129\H,0,6.8402267726,-1.9639859607,0.2486473494\H,0,8.4779030048,-
 1.4583305579,-0.3292236965\H,0,7.942904212,-1.4905013785,1.4418379447\
 H,0,6.2671918663,1.6791417196,-0.2814101607\H,0,-0.5435557126,3.040688
 1123,-0.3015600675\H,0,4.9729832847,-1.0181983165,0.1264953306\H,0,-0.
 4962085441,-0.0839102039,-0.0591032992\H,0,4.0547046384,1.9812437606,-
 0.1059228173\H,0,1.6422310983,2.3149572876,-0.2014928477\H,0,1.3764964
 844,-1.4564122454,0.1743664322\H,0,2.9721485397,-1.6725235539,-0.43733
 15032\H,0,2.6292196184,-1.4804322722,1.2714604326\\Version=ES64L-G16Re
 vA.03\State=1-A\HF=-1857.369003\RMSD=8.627e-09\PG=C01 [X(C40H56O4)]\\@


 AND THIS OUR LIFE, EXEMPT FROM PUBLIC HAUNT,
 FINDS TONGUES IN TREES, BOOKS IN THE RUNNING BROOKS,
 SERMONS IN STONES, AND GOOD IN EVERYTHING.
 I WOULD NOT CHANGE IT. -- W. SHAKESPEARE
 AS YOU LIKE IT, ACT II, SCENE 1.
 Job cpu time:       0 days  6 hours 42 minutes 36.4 seconds.
 Elapsed time:       0 days  2 hours 14 minutes 26.7 seconds.
 File lengths (MBytes):  RWF=   3379 Int=      0 D2E=      0 Chk=     90 Scr=      1
 Normal termination of Gaussian 16 at Fri Aug  2 08:51:13 2019.
