 Entering Gaussian System, Link 0=g16
 Input=Geometria-451-.com
 Output=Geometria-451-.log
 Initial command:
 /usr/local/g16/l1.exe "/home/padawan/israel-mol/neoxanthin/spectra/emi/Gau-5777.inp" -scrdir="/home/padawan/israel-mol/neoxanthin/spectra/emi/"
 Entering Link 1 = /usr/local/g16/l1.exe PID=      5779.
  
 Copyright (c) 1988,1990,1992,1993,1995,1998,2003,2009,2016,
            Gaussian, Inc.  All Rights Reserved.
  
 This is part of the Gaussian(R) 16 program.  It is based on
 the Gaussian(R) 09 system (copyright 2009, Gaussian, Inc.),
 the Gaussian(R) 03 system (copyright 2003, Gaussian, Inc.),
 the Gaussian(R) 98 system (copyright 1998, Gaussian, Inc.),
 the Gaussian(R) 94 system (copyright 1995, Gaussian, Inc.),
 the Gaussian 92(TM) system (copyright 1992, Gaussian, Inc.),
 the Gaussian 90(TM) system (copyright 1990, Gaussian, Inc.),
 the Gaussian 88(TM) system (copyright 1988, Gaussian, Inc.),
 the Gaussian 86(TM) system (copyright 1986, Carnegie Mellon
 University), and the Gaussian 82(TM) system (copyright 1983,
 Carnegie Mellon University). Gaussian is a federally registered
 trademark of Gaussian, Inc.
  
 This software contains proprietary and confidential information,
 including trade secrets, belonging to Gaussian, Inc.
  
 This software is provided under written license and may be
 used, copied, transmitted, or stored only in accord with that
 written license.
  
 The following legend is applicable only to US Government
 contracts under FAR:
  
                    RESTRICTED RIGHTS LEGEND
  
 Use, reproduction and disclosure by the US Government is
 subject to restrictions as set forth in subparagraphs (a)
 and (c) of the Commercial Computer Software - Restricted
 Rights clause in FAR 52.227-19.
  
 Gaussian, Inc.
 340 Quinnipiac St., Bldg. 40, Wallingford CT 06492
  
  
 ---------------------------------------------------------------
 Warning -- This program may not be used in any manner that
 competes with the business of Gaussian, Inc. or will provide
 assistance to any competitor of Gaussian, Inc.  The licensee
 of this program is prohibited from giving any competitor of
 Gaussian, Inc. access to this program.  By using this program,
 the user acknowledges that Gaussian, Inc. is engaged in the
 business of creating and licensing software in the field of
 computational chemistry and represents and warrants to the
 licensee that it is not a competitor of Gaussian, Inc. and that
 it will not use this program in any manner prohibited above.
 ---------------------------------------------------------------
  

 Cite this work as:
 Gaussian 16, Revision A.03,
 M. J. Frisch, G. W. Trucks, H. B. Schlegel, G. E. Scuseria, 
 M. A. Robb, J. R. Cheeseman, G. Scalmani, V. Barone, 
 G. A. Petersson, H. Nakatsuji, X. Li, M. Caricato, A. V. Marenich, 
 J. Bloino, B. G. Janesko, R. Gomperts, B. Mennucci, H. P. Hratchian, 
 J. V. Ortiz, A. F. Izmaylov, J. L. Sonnenberg, D. Williams-Young, 
 F. Ding, F. Lipparini, F. Egidi, J. Goings, B. Peng, A. Petrone, 
 T. Henderson, D. Ranasinghe, V. G. Zakrzewski, J. Gao, N. Rega, 
 G. Zheng, W. Liang, M. Hada, M. Ehara, K. Toyota, R. Fukuda, 
 J. Hasegawa, M. Ishida, T. Nakajima, Y. Honda, O. Kitao, H. Nakai, 
 T. Vreven, K. Throssell, J. A. Montgomery, Jr., J. E. Peralta, 
 F. Ogliaro, M. J. Bearpark, J. J. Heyd, E. N. Brothers, K. N. Kudin, 
 V. N. Staroverov, T. A. Keith, R. Kobayashi, J. Normand, 
 K. Raghavachari, A. P. Rendell, J. C. Burant, S. S. Iyengar, 
 J. Tomasi, M. Cossi, J. M. Millam, M. Klene, C. Adamo, R. Cammi, 
 J. W. Ochterski, R. L. Martin, K. Morokuma, O. Farkas, 
 J. B. Foresman, and D. J. Fox, Gaussian, Inc., Wallingford CT, 2016.
 
 ******************************************
 Gaussian 16:  ES64L-G16RevA.03 25-Dec-2016
                 2-Aug-2019 
 ******************************************
 %nproc=3
 Will use up to    3 processors via shared memory.
 %Mem=2GB
 -------------------------------------
 # td=(NStates=1) CAM-B3LYP/6-31G(d,p)
 -------------------------------------
 1/38=1,172=1/1;
 2/12=2,17=6,18=5,40=1/2;
 3/5=1,6=6,7=101,11=9,25=1,30=1,74=-40/1,2,3,8;
 4//1;
 5/5=2,38=5/2;
 8/6=1,10=2,108=1/1;
 9/41=1,42=1,70=2/14;
 6/7=2,8=2,9=2,10=2/1;
 99/5=1,9=1/99;
 --
 TD
 --
 Symbolic Z-matrix:
 Charge =  0 Multiplicity = 1
 8                    -11.663    0.19795  -1.59392 
 8                    -12.96142  -2.3018    1.40013 
 8                     10.56501  -1.08972  -2.05359 
 8                     14.49044  -0.95186  -0.31608 
 6                    -11.06321  -0.20401  -0.32794 
 6                    -11.72072  -1.24473  -1.20273 
 6                    -11.78687   0.35533   0.92922 
 6                    -13.13474  -1.88083  -1.00027 
 6                    -13.25193  -0.03612   0.86073 
 6                    -13.63446  -1.4648    0.40467 
 6                    -10.85325  -2.03813  -2.17659 
 6                    -9.57401   0.03388  -0.35533 
 6                    -11.14757  -0.09536   2.11473 
 6                    -11.66212   1.85624   0.92595 
 6                    -8.65854  -0.67529   0.18678 
 6                    -7.18473  -0.50222   0.29284 
 6                    -6.27009  -1.69329   0.51255 
 6                    -6.63183   0.75559   0.04527 
 6                    -5.252     1.07835  -0.16464 
 6                     12.00492   0.04412   1.20191 
 6                     11.65823  -0.59906  -1.23698 
 6                     12.76318  -1.24619   1.42165 
 6                     13.45087  -1.76311   0.16572 
 6                     12.4603  -1.86848  -0.92633 
 6                     11.08422  -0.04799   0.02263 
 6                     11.0994   0.08191   2.52944 
 6                     12.91766   1.25765   1.22004 
 6                     12.4776   0.47307  -2.04923 
 6                    -4.69164   2.21947  -0.32183 
 6                     9.88241   0.49659  -0.02081 
 6                    -3.37711   2.5509   -0.5437 
 6                     8.64318   0.96582   0.13506 
 6                    -3.07678   3.97103  -0.8307 
 6                    -2.33033   1.62633  -0.22153 
 6                     7.47768   0.08347   0.13877 
 6                     7.71398  -1.43672   0.30497 
 6                     6.24178   0.75423   0.15618 
 6                    -0.96955   1.84292  -0.31245 
 6                     4.91648   0.07645   0.19491 
 6                     0.00397   0.8035   -0.15112 
 6                     3.71751   0.83712  -0.00787 
 6                     1.4456    1.26744  -0.14115 
 6                     2.49674   0.33487   0.00024 
 6                     2.21162  -1.13311   0.20403 
 1                    -13.08965  -2.88819  -1.04064 
 1                    -13.86276  -1.48624  -1.80579 
 1                    -13.77564   0.14459   1.85305 
 1                    -13.52729   0.48385  -0.05539 
 1                    -14.67514  -1.7196    0.46077 
 1                    -10.82765  -3.10337  -1.7807 
 1                    -11.26011  -2.19863  -3.29514 
 1                    -9.76386  -1.63904  -2.14069 
 1                    -9.28509   0.82886  -1.02389 
 1                    -10.25897   0.39425   2.27917 
 1                    -11.94541   0.03356   2.95627 
 1                    -10.98983  -1.14834   1.98547 
 1                    -11.95036   2.34943  -0.02869 
 1                    -12.25068   2.28241   1.82734 
 1                    -10.62218   1.9803    0.94202 
 1                    -12.05488  -2.45248   1.14871 
 1                    -8.93929  -1.70459   0.55286 
 1                    -5.934    -1.98915  -0.4488 
 1                    -5.47066  -1.34911   1.18329 
 1                    -6.98424  -2.48803   0.99879 
 1                    -7.37204   1.49068  -0.17346 
 1                    -4.59942   0.10001  -0.18727 
 1                     13.53094  -1.24265   2.23386 
 1                     12.13401  -2.00948   1.70887 
 1                     13.76215  -2.86772   0.44761 
 1                     12.84024  -2.07509  -1.81069 
 1                     11.68749  -2.79029  -0.67786 
 1                     11.65152   0.02811   3.50182 
 1                     10.50417   0.97488   2.77868 
 1                     10.3272  -0.72062   2.49012 
 1                     13.50878   1.24651   0.24588 
 1                     12.33884   2.38883   1.04264 
 1                     13.4438   1.39432   2.12161 
 1                     12.76577   0.05389  -3.08867 
 1                     12.06039   1.50276  -2.22855 
 1                     13.4514   0.73698  -1.50169 
 1                    -5.45526   2.99911  -0.29301 
 1                     9.88568  -0.34776  -2.15232 
 1                     15.12283  -0.83411   0.38939 
 1                     8.59638   1.98971  -0.23304 
 1                    -2.50292   4.40798   0.24257 
 1                    -2.68331   4.27372  -1.89699 
 1                    -3.8993    4.58806  -0.72442 
 1                    -2.61219   0.74213   0.08732 
 1                     6.81549  -2.02434   0.03477 
 1                     8.6593   -1.86203  -0.32137 
 1                     8.16567  -1.6369    1.29954 
 1                     6.30247   1.77049  -0.04998 
 1                    -0.73291   2.7692   -0.71564 
 1                     4.84159  -1.01705   0.34983 
 1                    -0.40474  -0.23515   0.06287 
 1                     3.82116   2.09603  -0.16069 
 1                     1.49346   2.30175  -0.24834 
 1                     0.97418  -1.35747  -0.13601 
 1                     2.93159  -1.60303  -0.51514 
 1                     2.30482  -1.42999   1.34849 
 
 Stoichiometry    C40H56O4
 Framework group  C1[X(C40H56O4)]
 Deg. of freedom   294
 Full point group                 C1      NOp   1
 Largest Abelian subgroup         C1      NOp   1
 Largest concise Abelian subgroup C1      NOp   1
                         Standard orientation:                         
 ---------------------------------------------------------------------
 Center     Atomic      Atomic             Coordinates (Angstroms)
 Number     Number       Type             X           Y           Z
 ---------------------------------------------------------------------
      1          8           0      -11.663468    0.170577   -1.591556
      2          8           0      -12.960994   -2.278282    1.444631
      3          8           0       10.564487   -1.123747   -2.035161
      4          8           0       14.490359   -0.956391   -0.301242
      5          6           0      -11.063334   -0.209916   -0.319126
      6          6           0      -11.721016   -1.265286   -1.176034
      7          6           0      -11.786692    0.370562    0.928596
      8          6           0      -13.134955   -1.897936   -0.962492
      9          6           0      -13.251754   -0.022054    0.867107
     10          6           0      -13.634332   -1.458249    0.435349
     11          6           0      -10.853763   -2.074995   -2.136575
     12          6           0       -9.574145    0.027545   -0.350917
     13          6           0      -11.147065   -0.060004    2.121380
     14          6           0      -11.662008    1.871206    0.899933
     15          6           0       -8.658505   -0.672322    0.202860
     16          6           0       -7.184672   -0.497430    0.305599
     17          6           0       -6.269925   -1.684575    0.545172
     18          6           0       -6.631897    0.756039    0.036668
     19          6           0       -5.252132    1.075267   -0.179019
     20          6           0       12.005183    0.065000    1.200343
     21          6           0       11.657896   -0.619311   -1.227240
     22          6           0       12.763563   -1.221385    1.441653
     23          6           0       13.450948   -1.759425    0.194462
     24          6           0       12.460103   -1.883273   -0.895392
     25          6           0       11.084178   -0.047065    0.023025
     26          6           0       11.100005    0.125177    2.527274
     27          6           0       12.917876    1.278695    1.197725
     28          6           0       12.477008    0.438968   -2.057702
     29          6           0       -4.691866    2.213597   -0.355609
     30          6           0        9.882336    0.496653   -0.029301
     31          6           0       -3.377416    2.541285   -0.583395
     32          6           0        8.643129    0.968401    0.118942
     33          6           0       -3.077222    3.956370   -0.894424
     34          6           0       -2.330507    1.622334   -0.245920
     35          6           0        7.477664    0.086187    0.137867
     36          6           0        7.714076   -1.430968    0.329663
     37          6           0        6.241736    0.757097    0.144258
     38          6           0       -0.969762    1.837413   -0.340834
     39          6           0        4.916485    0.080007    0.194777
     40          6           0        0.003846    0.800908   -0.162222
     41          6           0        3.717425    0.837099   -0.020516
     42          6           0        1.445457    1.265006   -0.160457
     43          6           0        2.496677    0.335006   -0.003603
     44          6           0        2.211681   -1.129334    0.225030
     45          1           0      -13.089831   -2.905836   -0.985845
     46          1           0      -13.863204   -1.517048   -1.774370
     47          1           0      -13.775208    0.175377    1.856365
     48          1           0      -13.527373    0.482356   -0.057595
     49          1           0      -14.674991   -1.712110    0.496014
     50          1           0      -10.828013   -3.133391   -1.722753
     51          1           0      -11.260900   -2.254393   -3.252146
     52          1           0       -9.764380   -1.675314   -2.107701
     53          1           0       -9.285434    0.811122   -1.032882
     54          1           0      -10.258442    0.432348    2.277301
     55          1           0      -11.944693    0.083078    2.960836
     56          1           0      -10.989309   -1.115018    2.009892
     57          1           0      -11.950518    2.348184   -0.062830
     58          1           0      -12.250359    2.312524    1.794141
     59          1           0      -10.622075    1.995561    0.913633
     60          1           0      -12.054513   -2.433150    1.195562
     61          1           0       -8.939118   -1.695305    0.586359
     62          1           0       -5.934072   -1.996627   -0.411136
     63          1           0       -5.470337   -1.329081    1.209787
     64          1           0       -6.983911   -2.471019    1.044948
     65          1           0       -7.372197    1.487299   -0.194252
     66          1           0       -4.599514    0.096711   -0.185287
     67          1           0       13.531527   -1.204087    2.253490
     68          1           0       12.134497   -1.979741    1.741892
     69          1           0       13.762351   -2.859099    0.494896
     70          1           0       12.839824   -2.104783   -1.776241
     71          1           0       11.687397   -2.800782   -0.631189
     72          1           0       11.652382    0.087835    3.500282
     73          1           0       10.504794    1.022204    2.761545
     74          1           0       10.327831   -0.677940    2.501720
     75          1           0       13.508738    1.251127    0.223743
     76          1           0       12.338950    2.406692    1.001392
     77          1           0       13.444238    1.430606    2.096725
     78          1           0       12.764922    0.002300   -3.089988
     79          1           0       12.059703    1.465470   -2.254288
     80          1           0       13.450929    0.712136   -1.514948
     81          1           0       -5.455517    2.993580   -0.339772
     82          1           0        9.885095   -0.383594   -2.146236
     83          1           0       15.122919   -0.826711    0.401968
     84          1           0        8.596184    1.985921   -0.266393
     85          1           0       -2.503101    4.411415    0.171164
     86          1           0       -2.684039    4.241023   -1.965778
     87          1           0       -3.899740    4.575072   -0.798371
     88          1           0       -2.612247    0.743459    0.077899
     89          1           0        6.815551   -2.023108    0.069658
     90          1           0        8.659259   -1.866761   -0.289650
     91          1           0        8.166032   -1.614292    1.327359
     92          1           0        6.302326    1.769729   -0.079058
     93          1           0       -0.733272    2.756756   -0.759680
     94          1           0        4.841682   -1.010718    0.368166
     95          1           0       -0.404757   -0.233994    0.069396
     96          1           0        3.820978    2.093243   -0.194611
     97          1           0        1.493241    2.297356   -0.285121
     98          1           0        0.974159   -1.359463   -0.110853
     99          1           0        2.931490   -1.611307   -0.486282
    100          1           0        2.305186   -1.406830    1.374318
 ---------------------------------------------------------------------
 Rotational constants (GHZ):           0.2673964           0.0088345           0.0087543
 Standard basis: 6-31G(d,p) (6D, 7F)
 There are   940 symmetry adapted cartesian basis functions of A   symmetry.
 There are   940 symmetry adapted basis functions of A   symmetry.
   940 basis functions,  1624 primitive gaussians,   940 cartesian basis functions
   164 alpha electrons      164 beta electrons
       nuclear repulsion energy      4460.0831068561 Hartrees.
 NAtoms=  100 NActive=  100 NUniq=  100 SFac= 1.00D+00 NAtFMM=   60 NAOKFM=T Big=T
 Integral buffers will be    131072 words long.
 Raffenetti 1 integral format.
 Two-electron integral symmetry is turned on.
 One-electron integrals computed using PRISM.
 NBasis=   940 RedAO= T EigKep=  4.73D-04  NBF=   940
 NBsUse=   940 1.00D-06 EigRej= -1.00D+00 NBFU=   940
 ExpMin= 1.61D-01 ExpMax= 5.48D+03 ExpMxC= 8.25D+02 IAcc=3 IRadAn=         5 AccDes= 0.00D+00
 Harris functional with IExCor=20419 and IRadAn=       5 diagonalized for initial guess.
 HarFok:  IExCor=20419 AccDes= 0.00D+00 IRadAn=         5 IDoV= 1 UseB2=F ITyADJ=14
 ICtDFT=  3500011 ScaDFX=  1.000000  1.000000  1.000000  1.000000
 FoFCou: FMM=F IPFlag=           0 FMFlag=      100000 FMFlg1=        2001
         NFxFlg=           0 DoJE=T BraDBF=F KetDBF=T FulRan=T
         wScrn=  0.000000 ICntrl=       500 IOpCl=  0 I1Cent=   200000004 NGrid=           0
         NMat0=    1 NMatS0=      1 NMatT0=    0 NMatD0=    1 NMtDS0=    0 NMtDT0=    0
 Petite list used in FoFCou.
 Requested convergence on RMS density matrix=1.00D-08 within 128 cycles.
 Requested convergence on MAX density matrix=1.00D-06.
 Requested convergence on             energy=1.00D-06.
 No special actions if energy rises.
 Integral accuracy reduced to 1.0D-05 until final iterations.
 Initial convergence to 1.0D-05 achieved.  Increase integral accuracy.
 SCF Done:  E(RCAM-B3LYP) =  -1857.34355412     A.U. after   15 cycles
            NFock= 15  Conv=0.62D-08     -V/T= 2.0097
 DoSCS=F DFT=T ScalE2(SS,OS)=  1.000000  1.000000
 ExpMin= 1.61D-01 ExpMax= 5.48D+03 ExpMxC= 8.25D+02 IAcc=3 IRadAn=         5 AccDes= 0.00D+00
 HarFok:  IExCor=  205 AccDes= 0.00D+00 IRadAn=         5 IDoV=-2 UseB2=F ITyADJ=14
 ICtDFT= 12500011 ScaDFX=  1.000000  1.000000  1.000000  1.000000
 GSVD:  LWork=       -2288 too small for GESVD, short by       10340 words or       10340 for optimal perf.
 Range of M.O.s used for correlation:    45   940
 NBasis=   940 NAE=   164 NBE=   164 NFC=    44 NFV=     0
 NROrb=    896 NOA=   120 NOB=   120 NVA=   776 NVB=   776
 Orbital symmetries:
       Occupied  (A) (A) (A) (A) (A) (A) (A) (A) (A) (A) (A) (A)
                 (A) (A) (A) (A) (A) (A) (A) (A) (A) (A) (A) (A)
                 (A) (A) (A) (A) (A) (A) (A) (A) (A) (A) (A) (A)
                 (A) (A) (A) (A) (A) (A) (A) (A) (A) (A) (A) (A)
                 (A) (A) (A) (A) (A) (A) (A) (A) (A) (A) (A) (A)
                 (A) (A) (A) (A) (A) (A) (A) (A) (A) (A) (A) (A)
                 (A) (A) (A) (A) (A) (A) (A) (A) (A) (A) (A) (A)
                 (A) (A) (A) (A) (A) (A) (A) (A) (A) (A) (A) (A)
                 (A) (A) (A) (A) (A) (A) (A) (A) (A) (A) (A) (A)
                 (A) (A) (A) (A) (A) (A) (A) (A) (A) (A) (A) (A)
                 (A) (A) (A) (A) (A) (A) (A) (A) (A) (A) (A) (A)
                 (A) (A) (A) (A) (A) (A) (A) (A) (A) (A) (A) (A)
                 (A) (A) (A) (A) (A) (A) (A) (A) (A) (A) (A) (A)
                 (A) (A) (A) (A) (A) (A) (A) (A)
       Virtual   (A) (A) (A) (A) (A) (A) (A) (A) (A) (A) (A) (A)
                 (A) (A) (A) (A) (A) (A) (A) (A) (A) (A) (A) (A)
                 (A) (A) (A) (A) (A) (A) (A) (A) (A) (A) (A) (A)
                 (A) (A) (A) (A) (A) (A) (A) (A) (A) (A) (A) (A)
                 (A) (A) (A) (A) (A) (A) (A) (A) (A) (A) (A) (A)
                 (A) (A) (A) (A) (A) (A) (A) (A) (A) (A) (A) (A)
                 (A) (A) (A) (A) (A) (A) (A) (A) (A) (A) (A) (A)
                 (A) (A) (A) (A) (A) (A) (A) (A) (A) (A) (A) (A)
                 (A) (A) (A) (A) (A) (A) (A) (A) (A) (A) (A) (A)
                 (A) (A) (A) (A) (A) (A) (A) (A) (A) (A) (A) (A)
                 (A) (A) (A) (A) (A) (A) (A) (A) (A) (A) (A) (A)
                 (A) (A) (A) (A) (A) (A) (A) (A) (A) (A) (A) (A)
                 (A) (A) (A) (A) (A) (A) (A) (A) (A) (A) (A) (A)
                 (A) (A) (A) (A) (A) (A) (A) (A) (A) (A) (A) (A)
                 (A) (A) (A) (A) (A) (A) (A) (A) (A) (A) (A) (A)
                 (A) (A) (A) (A) (A) (A) (A) (A) (A) (A) (A) (A)
                 (A) (A) (A) (A) (A) (A) (A) (A) (A) (A) (A) (A)
                 (A) (A) (A) (A) (A) (A) (A) (A) (A) (A) (A) (A)
                 (A) (A) (A) (A) (A) (A) (A) (A) (A) (A) (A) (A)
                 (A) (A) (A) (A) (A) (A) (A) (A) (A) (A) (A) (A)
                 (A) (A) (A) (A) (A) (A) (A) (A) (A) (A) (A) (A)
                 (A) (A) (A) (A) (A) (A) (A) (A) (A) (A) (A) (A)
                 (A) (A) (A) (A) (A) (A) (A) (A) (A) (A) (A) (A)
                 (A) (A) (A) (A) (A) (A) (A) (A) (A) (A) (A) (A)
                 (A) (A) (A) (A) (A) (A) (A) (A) (A) (A) (A) (A)
                 (A) (A) (A) (A) (A) (A) (A) (A) (A) (A) (A) (A)
                 (A) (A) (A) (A) (A) (A) (A) (A) (A) (A) (A) (A)
                 (A) (A) (A) (A) (A) (A) (A) (A) (A) (A) (A) (A)
                 (A) (A) (A) (A) (A) (A) (A) (A) (A) (A) (A) (A)
                 (A) (A) (A) (A) (A) (A) (A) (A) (A) (A) (A) (A)
                 (A) (A) (A) (A) (A) (A) (A) (A) (A) (A) (A) (A)
                 (A) (A) (A) (A) (A) (A) (A) (A) (A) (A) (A) (A)
                 (A) (A) (A) (A) (A) (A) (A) (A) (A) (A) (A) (A)
                 (A) (A) (A) (A) (A) (A) (A) (A) (A) (A) (A) (A)
                 (A) (A) (A) (A) (A) (A) (A) (A) (A) (A) (A) (A)
                 (A) (A) (A) (A) (A) (A) (A) (A) (A) (A) (A) (A)
                 (A) (A) (A) (A) (A) (A) (A) (A) (A) (A) (A) (A)
                 (A) (A) (A) (A) (A) (A) (A) (A) (A) (A) (A) (A)
                 (A) (A) (A) (A) (A) (A) (A) (A) (A) (A) (A) (A)
                 (A) (A) (A) (A) (A) (A) (A) (A) (A) (A) (A) (A)
                 (A) (A) (A) (A) (A) (A) (A) (A) (A) (A) (A) (A)
                 (A) (A) (A) (A) (A) (A) (A) (A) (A) (A) (A) (A)
                 (A) (A) (A) (A) (A) (A) (A) (A) (A) (A) (A) (A)
                 (A) (A) (A) (A) (A) (A) (A) (A) (A) (A) (A) (A)
                 (A) (A) (A) (A) (A) (A) (A) (A) (A) (A) (A) (A)
                 (A) (A) (A) (A) (A) (A) (A) (A) (A) (A) (A) (A)
                 (A) (A) (A) (A) (A) (A) (A) (A) (A) (A) (A) (A)
                 (A) (A) (A) (A) (A) (A) (A) (A) (A) (A) (A) (A)
                 (A) (A) (A) (A) (A) (A) (A) (A) (A) (A) (A) (A)
                 (A) (A) (A) (A) (A) (A) (A) (A) (A) (A) (A) (A)
                 (A) (A) (A) (A) (A) (A) (A) (A) (A) (A) (A) (A)
                 (A) (A) (A) (A) (A) (A) (A) (A) (A) (A) (A) (A)
                 (A) (A) (A) (A) (A) (A) (A) (A) (A) (A) (A) (A)
                 (A) (A) (A) (A) (A) (A) (A) (A) (A) (A) (A) (A)
                 (A) (A) (A) (A) (A) (A) (A) (A) (A) (A) (A) (A)
                 (A) (A) (A) (A) (A) (A) (A) (A) (A) (A) (A) (A)
                 (A) (A) (A) (A) (A) (A) (A) (A) (A) (A) (A) (A)
                 (A) (A) (A) (A) (A) (A) (A) (A) (A) (A) (A) (A)
                 (A) (A) (A) (A) (A) (A) (A) (A) (A) (A) (A) (A)
                 (A) (A) (A) (A) (A) (A) (A) (A) (A) (A) (A) (A)
                 (A) (A) (A) (A) (A) (A) (A) (A) (A) (A) (A) (A)
                 (A) (A) (A) (A) (A) (A) (A) (A) (A) (A) (A) (A)
                 (A) (A) (A) (A) (A) (A) (A) (A) (A) (A) (A) (A)
                 (A) (A) (A) (A) (A) (A) (A) (A) (A) (A) (A) (A)
                 (A) (A) (A) (A) (A) (A) (A) (A)
     4 initial guesses have been made.
 Convergence on wavefunction:    0.001000000000000
 Iteration     1 Dimension     4 NMult     0 NNew      4
 CISAX will form     4 AO SS matrices at one time.
 Iteration     2 Dimension     6 NMult     4 NNew      2
 Iteration     3 Dimension     8 NMult     6 NNew      2
 Iteration     4 Dimension    10 NMult     8 NNew      2
 Iteration     5 Dimension    12 NMult    10 NNew      2
 Iteration     6 Dimension    14 NMult    12 NNew      2
 ***********************************************************************
 Excited states from <AA,BB:AA,BB> singles matrix:
 ***********************************************************************
 
 Ground to excited state transition densities written to RWF  633
 Ground to excited state transition electric dipole moments (Au):
       state          X           Y           Z        Dip. S.      Osc.
         1        -7.6591      0.5640     -0.1894     59.0158      3.0686
 Ground to excited state transition velocity dipole moments (Au):
       state          X           Y           Z        Dip. S.      Osc.
         1         0.5768     -0.0423      0.0159      0.3348      2.8616
 Ground to excited state transition magnetic dipole moments (Au):
       state          X           Y           Z
         1        -0.0690     -0.2333     -2.2414
 Ground to excited state transition velocity quadrupole moments (Au):
       state          XX          YY          ZZ          XY          XZ          YZ
         1         0.7650     -0.3497     -0.0005     -0.1724     -0.0003      0.0521
 <0|del|b> * <b|rxdel|0> + <0|del|b> * <b|delr+rdel|0>
 Rotatory Strengths (R) in cgs (10**-40 erg-esu-cm/Gauss)
       state          XX          YY          ZZ    R(velocity)    E-M Angle
         1      -129.0425   -193.2330   -271.9602   -198.0786       92.88
 1/2[<0|r|b>*<b|rxdel|0> + (<0|rxdel|b>*<b|r|0>)*]
 Rotatory Strengths (R) in cgs (10**-40 erg-esu-cm/Gauss)
       state          XX          YY          ZZ     R(length)
         1      -373.9503     93.0664   -300.2379   -193.7072
  1/2[<0|del|b>*<b|r|0> + (<0|r|b>*<b|del|0>)*] (Au)
       state          X           Y           Z        Dip. S.   Osc.(frdel)
         1        -4.4180     -0.0239     -0.0030      4.4449      2.9633

 Excitation energies and oscillator strengths:
 
 Excited State   1:      Singlet-A      2.1223 eV  584.19 nm  f=3.0686  <S**2>=0.000
     163 ->166         0.12966
     164 ->165         0.69737
 This state for optimization and/or second-order correction.
 Total Energy, E(TD-HF/TD-DFT) =  -1857.26556006    
 Copying the excited state density for this state as the 1-particle RhoCI density.
 SavETr:  write IOETrn=   770 NScale= 10 NData=  16 NLR=1 NState=    1 LETran=      28.

 **********************************************************************

            Population analysis using the SCF density.

 **********************************************************************

 Orbital symmetries:
       Occupied  (A) (A) (A) (A) (A) (A) (A) (A) (A) (A) (A) (A)
                 (A) (A) (A) (A) (A) (A) (A) (A) (A) (A) (A) (A)
                 (A) (A) (A) (A) (A) (A) (A) (A) (A) (A) (A) (A)
                 (A) (A) (A) (A) (A) (A) (A) (A) (A) (A) (A) (A)
                 (A) (A) (A) (A) (A) (A) (A) (A) (A) (A) (A) (A)
                 (A) (A) (A) (A) (A) (A) (A) (A) (A) (A) (A) (A)
                 (A) (A) (A) (A) (A) (A) (A) (A) (A) (A) (A) (A)
                 (A) (A) (A) (A) (A) (A) (A) (A) (A) (A) (A) (A)
                 (A) (A) (A) (A) (A) (A) (A) (A) (A) (A) (A) (A)
                 (A) (A) (A) (A) (A) (A) (A) (A) (A) (A) (A) (A)
                 (A) (A) (A) (A) (A) (A) (A) (A) (A) (A) (A) (A)
                 (A) (A) (A) (A) (A) (A) (A) (A) (A) (A) (A) (A)
                 (A) (A) (A) (A) (A) (A) (A) (A) (A) (A) (A) (A)
                 (A) (A) (A) (A) (A) (A) (A) (A)
       Virtual   (A) (A) (A) (A) (A) (A) (A) (A) (A) (A) (A) (A)
                 (A) (A) (A) (A) (A) (A) (A) (A) (A) (A) (A) (A)
                 (A) (A) (A) (A) (A) (A) (A) (A) (A) (A) (A) (A)
                 (A) (A) (A) (A) (A) (A) (A) (A) (A) (A) (A) (A)
                 (A) (A) (A) (A) (A) (A) (A) (A) (A) (A) (A) (A)
                 (A) (A) (A) (A) (A) (A) (A) (A) (A) (A) (A) (A)
                 (A) (A) (A) (A) (A) (A) (A) (A) (A) (A) (A) (A)
                 (A) (A) (A) (A) (A) (A) (A) (A) (A) (A) (A) (A)
                 (A) (A) (A) (A) (A) (A) (A) (A) (A) (A) (A) (A)
                 (A) (A) (A) (A) (A) (A) (A) (A) (A) (A) (A) (A)
                 (A) (A) (A) (A) (A) (A) (A) (A) (A) (A) (A) (A)
                 (A) (A) (A) (A) (A) (A) (A) (A) (A) (A) (A) (A)
                 (A) (A) (A) (A) (A) (A) (A) (A) (A) (A) (A) (A)
                 (A) (A) (A) (A) (A) (A) (A) (A) (A) (A) (A) (A)
                 (A) (A) (A) (A) (A) (A) (A) (A) (A) (A) (A) (A)
                 (A) (A) (A) (A) (A) (A) (A) (A) (A) (A) (A) (A)
                 (A) (A) (A) (A) (A) (A) (A) (A) (A) (A) (A) (A)
                 (A) (A) (A) (A) (A) (A) (A) (A) (A) (A) (A) (A)
                 (A) (A) (A) (A) (A) (A) (A) (A) (A) (A) (A) (A)
                 (A) (A) (A) (A) (A) (A) (A) (A) (A) (A) (A) (A)
                 (A) (A) (A) (A) (A) (A) (A) (A) (A) (A) (A) (A)
                 (A) (A) (A) (A) (A) (A) (A) (A) (A) (A) (A) (A)
                 (A) (A) (A) (A) (A) (A) (A) (A) (A) (A) (A) (A)
                 (A) (A) (A) (A) (A) (A) (A) (A) (A) (A) (A) (A)
                 (A) (A) (A) (A) (A) (A) (A) (A) (A) (A) (A) (A)
                 (A) (A) (A) (A) (A) (A) (A) (A) (A) (A) (A) (A)
                 (A) (A) (A) (A) (A) (A) (A) (A) (A) (A) (A) (A)
                 (A) (A) (A) (A) (A) (A) (A) (A) (A) (A) (A) (A)
                 (A) (A) (A) (A) (A) (A) (A) (A) (A) (A) (A) (A)
                 (A) (A) (A) (A) (A) (A) (A) (A) (A) (A) (A) (A)
                 (A) (A) (A) (A) (A) (A) (A) (A) (A) (A) (A) (A)
                 (A) (A) (A) (A) (A) (A) (A) (A) (A) (A) (A) (A)
                 (A) (A) (A) (A) (A) (A) (A) (A) (A) (A) (A) (A)
                 (A) (A) (A) (A) (A) (A) (A) (A) (A) (A) (A) (A)
                 (A) (A) (A) (A) (A) (A) (A) (A) (A) (A) (A) (A)
                 (A) (A) (A) (A) (A) (A) (A) (A) (A) (A) (A) (A)
                 (A) (A) (A) (A) (A) (A) (A) (A) (A) (A) (A) (A)
                 (A) (A) (A) (A) (A) (A) (A) (A) (A) (A) (A) (A)
                 (A) (A) (A) (A) (A) (A) (A) (A) (A) (A) (A) (A)
                 (A) (A) (A) (A) (A) (A) (A) (A) (A) (A) (A) (A)
                 (A) (A) (A) (A) (A) (A) (A) (A) (A) (A) (A) (A)
                 (A) (A) (A) (A) (A) (A) (A) (A) (A) (A) (A) (A)
                 (A) (A) (A) (A) (A) (A) (A) (A) (A) (A) (A) (A)
                 (A) (A) (A) (A) (A) (A) (A) (A) (A) (A) (A) (A)
                 (A) (A) (A) (A) (A) (A) (A) (A) (A) (A) (A) (A)
                 (A) (A) (A) (A) (A) (A) (A) (A) (A) (A) (A) (A)
                 (A) (A) (A) (A) (A) (A) (A) (A) (A) (A) (A) (A)
                 (A) (A) (A) (A) (A) (A) (A) (A) (A) (A) (A) (A)
                 (A) (A) (A) (A) (A) (A) (A) (A) (A) (A) (A) (A)
                 (A) (A) (A) (A) (A) (A) (A) (A) (A) (A) (A) (A)
                 (A) (A) (A) (A) (A) (A) (A) (A) (A) (A) (A) (A)
                 (A) (A) (A) (A) (A) (A) (A) (A) (A) (A) (A) (A)
                 (A) (A) (A) (A) (A) (A) (A) (A) (A) (A) (A) (A)
                 (A) (A) (A) (A) (A) (A) (A) (A) (A) (A) (A) (A)
                 (A) (A) (A) (A) (A) (A) (A) (A) (A) (A) (A) (A)
                 (A) (A) (A) (A) (A) (A) (A) (A) (A) (A) (A) (A)
                 (A) (A) (A) (A) (A) (A) (A) (A) (A) (A) (A) (A)
                 (A) (A) (A) (A) (A) (A) (A) (A) (A) (A) (A) (A)
                 (A) (A) (A) (A) (A) (A) (A) (A) (A) (A) (A) (A)
                 (A) (A) (A) (A) (A) (A) (A) (A) (A) (A) (A) (A)
                 (A) (A) (A) (A) (A) (A) (A) (A) (A) (A) (A) (A)
                 (A) (A) (A) (A) (A) (A) (A) (A) (A) (A) (A) (A)
                 (A) (A) (A) (A) (A) (A) (A) (A) (A) (A) (A) (A)
                 (A) (A) (A) (A) (A) (A) (A) (A) (A) (A) (A) (A)
                 (A) (A) (A) (A) (A) (A) (A) (A)
 The electronic state is 1-A.
 Alpha  occ. eigenvalues --  -19.22521 -19.21956 -19.20583 -19.19899 -10.33107
 Alpha  occ. eigenvalues --  -10.32590 -10.31708 -10.31311 -10.30613 -10.28816
 Alpha  occ. eigenvalues --  -10.28517 -10.28409 -10.28374 -10.27830 -10.27720
 Alpha  occ. eigenvalues --  -10.27610 -10.27357 -10.27327 -10.27274 -10.27259
 Alpha  occ. eigenvalues --  -10.27227 -10.27008 -10.26942 -10.26939 -10.26793
 Alpha  occ. eigenvalues --  -10.26784 -10.26554 -10.26512 -10.26466 -10.26286
 Alpha  occ. eigenvalues --  -10.26130 -10.25978 -10.25953 -10.25932 -10.25899
 Alpha  occ. eigenvalues --  -10.25440 -10.25206 -10.25164 -10.24970 -10.24849
 Alpha  occ. eigenvalues --  -10.24626 -10.24623 -10.24090 -10.22974  -1.12844
 Alpha  occ. eigenvalues --   -1.11633  -1.08144  -1.07835  -0.93608  -0.93088
 Alpha  occ. eigenvalues --   -0.92690  -0.92086  -0.90735  -0.90108  -0.87679
 Alpha  occ. eigenvalues --   -0.86599  -0.86042  -0.85435  -0.84946  -0.82980
 Alpha  occ. eigenvalues --   -0.82041  -0.80960  -0.79736  -0.77896  -0.76701
 Alpha  occ. eigenvalues --   -0.76586  -0.76279  -0.76234  -0.75768  -0.75588
 Alpha  occ. eigenvalues --   -0.75255  -0.74155  -0.73003  -0.70605  -0.69829
 Alpha  occ. eigenvalues --   -0.68781  -0.66836  -0.65552  -0.65206  -0.64041
 Alpha  occ. eigenvalues --   -0.63651  -0.63060  -0.60949  -0.60018  -0.59176
 Alpha  occ. eigenvalues --   -0.58923  -0.58406  -0.58107  -0.57317  -0.56980
 Alpha  occ. eigenvalues --   -0.56252  -0.55156  -0.54862  -0.54164  -0.53710
 Alpha  occ. eigenvalues --   -0.53592  -0.52953  -0.52649  -0.52304  -0.51856
 Alpha  occ. eigenvalues --   -0.51766  -0.51129  -0.51096  -0.50151  -0.49862
 Alpha  occ. eigenvalues --   -0.49748  -0.49652  -0.49170  -0.49067  -0.48449
 Alpha  occ. eigenvalues --   -0.48331  -0.48048  -0.47616  -0.47289  -0.46921
 Alpha  occ. eigenvalues --   -0.46226  -0.45910  -0.45493  -0.45383  -0.44784
 Alpha  occ. eigenvalues --   -0.44425  -0.44133  -0.43738  -0.43620  -0.43550
 Alpha  occ. eigenvalues --   -0.43284  -0.43160  -0.42780  -0.42476  -0.42079
 Alpha  occ. eigenvalues --   -0.41872  -0.41596  -0.41595  -0.41446  -0.40870
 Alpha  occ. eigenvalues --   -0.40716  -0.40437  -0.40148  -0.39956  -0.39740
 Alpha  occ. eigenvalues --   -0.39653  -0.39592  -0.39355  -0.39294  -0.38799
 Alpha  occ. eigenvalues --   -0.38450  -0.38206  -0.37984  -0.37513  -0.37410
 Alpha  occ. eigenvalues --   -0.36780  -0.36597  -0.35728  -0.35290  -0.34261
 Alpha  occ. eigenvalues --   -0.32420  -0.32197  -0.31847  -0.31182  -0.30427
 Alpha  occ. eigenvalues --   -0.29563  -0.28273  -0.24567  -0.19484
 Alpha virt. eigenvalues --   -0.06307  -0.00768   0.02942   0.06290   0.06744
 Alpha virt. eigenvalues --    0.09694   0.10253   0.10475   0.11163   0.11602
 Alpha virt. eigenvalues --    0.12205   0.12684   0.12827   0.13034   0.13236
 Alpha virt. eigenvalues --    0.13733   0.14194   0.14423   0.14556   0.15368
 Alpha virt. eigenvalues --    0.15462   0.15575   0.15837   0.15948   0.16539
 Alpha virt. eigenvalues --    0.16765   0.16970   0.17392   0.17561   0.17794
 Alpha virt. eigenvalues --    0.18319   0.18548   0.18874   0.19114   0.19450
 Alpha virt. eigenvalues --    0.19734   0.19911   0.20144   0.20320   0.20625
 Alpha virt. eigenvalues --    0.20698   0.20823   0.21304   0.21335   0.21734
 Alpha virt. eigenvalues --    0.22124   0.22255   0.22520   0.22667   0.22817
 Alpha virt. eigenvalues --    0.22881   0.23276   0.23558   0.23668   0.23922
 Alpha virt. eigenvalues --    0.24292   0.24314   0.24584   0.24818   0.25233
 Alpha virt. eigenvalues --    0.25652   0.26117   0.26571   0.26941   0.27133
 Alpha virt. eigenvalues --    0.27606   0.27907   0.28321   0.28456   0.28578
 Alpha virt. eigenvalues --    0.28768   0.28912   0.29114   0.29463   0.29854
 Alpha virt. eigenvalues --    0.29885   0.30489   0.31093   0.31511   0.32185
 Alpha virt. eigenvalues --    0.32255   0.32378   0.33157   0.33674   0.34136
 Alpha virt. eigenvalues --    0.34399   0.35396   0.36012   0.36135   0.36600
 Alpha virt. eigenvalues --    0.37507   0.37622   0.38551   0.38987   0.39777
 Alpha virt. eigenvalues --    0.40194   0.40703   0.41484   0.41701   0.42593
 Alpha virt. eigenvalues --    0.42882   0.43373   0.44190   0.44755   0.45673
 Alpha virt. eigenvalues --    0.46965   0.47711   0.48722   0.49763   0.51457
 Alpha virt. eigenvalues --    0.53661   0.54506   0.55259   0.55920   0.56210
 Alpha virt. eigenvalues --    0.56283   0.56525   0.57304   0.57471   0.57847
 Alpha virt. eigenvalues --    0.57984   0.58554   0.58743   0.59018   0.59375
 Alpha virt. eigenvalues --    0.59731   0.60070   0.60444   0.60781   0.60822
 Alpha virt. eigenvalues --    0.61048   0.61486   0.61909   0.62234   0.62660
 Alpha virt. eigenvalues --    0.62966   0.63118   0.63316   0.63685   0.63912
 Alpha virt. eigenvalues --    0.63975   0.64599   0.64722   0.65127   0.65320
 Alpha virt. eigenvalues --    0.65710   0.65811   0.66023   0.66287   0.66696
 Alpha virt. eigenvalues --    0.66951   0.67548   0.67766   0.67937   0.68636
 Alpha virt. eigenvalues --    0.68687   0.69164   0.69808   0.70105   0.70608
 Alpha virt. eigenvalues --    0.70752   0.71148   0.71721   0.71879   0.72108
 Alpha virt. eigenvalues --    0.72654   0.73064   0.73254   0.73720   0.74090
 Alpha virt. eigenvalues --    0.74500   0.74912   0.75285   0.75447   0.75906
 Alpha virt. eigenvalues --    0.76187   0.77001   0.77229   0.77973   0.77997
 Alpha virt. eigenvalues --    0.78508   0.78747   0.79022   0.79181   0.79878
 Alpha virt. eigenvalues --    0.80209   0.80488   0.80568   0.80764   0.81386
 Alpha virt. eigenvalues --    0.81571   0.81844   0.82017   0.82307   0.82817
 Alpha virt. eigenvalues --    0.83559   0.83902   0.84115   0.84357   0.84449
 Alpha virt. eigenvalues --    0.84924   0.85006   0.85102   0.85446   0.85923
 Alpha virt. eigenvalues --    0.86810   0.86856   0.86904   0.87681   0.88410
 Alpha virt. eigenvalues --    0.88734   0.88877   0.89109   0.89728   0.89947
 Alpha virt. eigenvalues --    0.90210   0.90536   0.90687   0.91009   0.91293
 Alpha virt. eigenvalues --    0.91482   0.91734   0.91759   0.91832   0.92196
 Alpha virt. eigenvalues --    0.92752   0.92951   0.93378   0.93593   0.94001
 Alpha virt. eigenvalues --    0.94493   0.94619   0.94776   0.94971   0.95210
 Alpha virt. eigenvalues --    0.95397   0.95831   0.95920   0.96031   0.96493
 Alpha virt. eigenvalues --    0.96594   0.96806   0.97317   0.97650   0.98473
 Alpha virt. eigenvalues --    0.98554   0.98756   0.99093   0.99205   0.99454
 Alpha virt. eigenvalues --    0.99834   1.00421   1.00601   1.01401   1.01543
 Alpha virt. eigenvalues --    1.01689   1.02237   1.02503   1.02839   1.03154
 Alpha virt. eigenvalues --    1.03567   1.03812   1.04175   1.04404   1.05434
 Alpha virt. eigenvalues --    1.05717   1.05984   1.06655   1.06959   1.07902
 Alpha virt. eigenvalues --    1.08141   1.08617   1.08897   1.09232   1.09851
 Alpha virt. eigenvalues --    1.10067   1.10414   1.10710   1.11127   1.11671
 Alpha virt. eigenvalues --    1.12610   1.12933   1.13455   1.13783   1.14252
 Alpha virt. eigenvalues --    1.15081   1.15830   1.16557   1.16985   1.17548
 Alpha virt. eigenvalues --    1.17879   1.18048   1.19448   1.20008   1.20770
 Alpha virt. eigenvalues --    1.21223   1.21702   1.22650   1.23278   1.23544
 Alpha virt. eigenvalues --    1.23805   1.25858   1.26465   1.27333   1.27575
 Alpha virt. eigenvalues --    1.27865   1.30233   1.30776   1.31190   1.31522
 Alpha virt. eigenvalues --    1.31611   1.31981   1.32396   1.32511   1.33812
 Alpha virt. eigenvalues --    1.34448   1.35779   1.36230   1.36514   1.37077
 Alpha virt. eigenvalues --    1.37695   1.39229   1.39305   1.40051   1.40369
 Alpha virt. eigenvalues --    1.40848   1.41033   1.41390   1.42759   1.43180
 Alpha virt. eigenvalues --    1.44142   1.44825   1.45238   1.47689   1.48011
 Alpha virt. eigenvalues --    1.48121   1.48672   1.49060   1.50550   1.50926
 Alpha virt. eigenvalues --    1.52758   1.52866   1.54074   1.54235   1.54614
 Alpha virt. eigenvalues --    1.55644   1.56221   1.56655   1.57369   1.57658
 Alpha virt. eigenvalues --    1.58076   1.58484   1.59047   1.59595   1.60524
 Alpha virt. eigenvalues --    1.60562   1.61059   1.62217   1.62336   1.62962
 Alpha virt. eigenvalues --    1.63950   1.65750   1.66116   1.67123   1.67755
 Alpha virt. eigenvalues --    1.69153   1.70873   1.70903   1.71171   1.72211
 Alpha virt. eigenvalues --    1.73208   1.73695   1.74196   1.74715   1.76466
 Alpha virt. eigenvalues --    1.76691   1.77009   1.77222   1.78504   1.78700
 Alpha virt. eigenvalues --    1.79591   1.80480   1.81943   1.82054   1.82900
 Alpha virt. eigenvalues --    1.82980   1.83017   1.83329   1.83759   1.84171
 Alpha virt. eigenvalues --    1.84930   1.85133   1.85284   1.85883   1.87009
 Alpha virt. eigenvalues --    1.87572   1.87883   1.88051   1.88317   1.89047
 Alpha virt. eigenvalues --    1.89627   1.89764   1.90006   1.90929   1.91112
 Alpha virt. eigenvalues --    1.91445   1.91858   1.92068   1.92134   1.92686
 Alpha virt. eigenvalues --    1.92946   1.93050   1.93989   1.94410   1.95028
 Alpha virt. eigenvalues --    1.95080   1.95218   1.95313   1.96242   1.96812
 Alpha virt. eigenvalues --    1.96995   1.97240   1.97509   1.97980   1.98380
 Alpha virt. eigenvalues --    1.99484   1.99867   2.00066   2.01056   2.01261
 Alpha virt. eigenvalues --    2.01455   2.01587   2.01956   2.02152   2.02325
 Alpha virt. eigenvalues --    2.02908   2.03618   2.04386   2.04840   2.04958
 Alpha virt. eigenvalues --    2.05358   2.05894   2.06173   2.06380   2.06798
 Alpha virt. eigenvalues --    2.07158   2.08312   2.08462   2.08855   2.09212
 Alpha virt. eigenvalues --    2.09482   2.09705   2.10425   2.10685   2.10839
 Alpha virt. eigenvalues --    2.11581   2.11708   2.12122   2.12623   2.13114
 Alpha virt. eigenvalues --    2.13342   2.13537   2.13900   2.14529   2.14642
 Alpha virt. eigenvalues --    2.14960   2.15322   2.15710   2.15943   2.16201
 Alpha virt. eigenvalues --    2.16706   2.17228   2.17823   2.18102   2.18543
 Alpha virt. eigenvalues --    2.18797   2.19069   2.19286   2.19685   2.20498
 Alpha virt. eigenvalues --    2.21046   2.21160   2.21898   2.22596   2.22889
 Alpha virt. eigenvalues --    2.23109   2.23317   2.23775   2.24067   2.24643
 Alpha virt. eigenvalues --    2.25635   2.26043   2.26237   2.26793   2.27220
 Alpha virt. eigenvalues --    2.28175   2.28308   2.28746   2.28946   2.29115
 Alpha virt. eigenvalues --    2.29139   2.29468   2.30580   2.30744   2.31142
 Alpha virt. eigenvalues --    2.31456   2.32167   2.32863   2.33318   2.33995
 Alpha virt. eigenvalues --    2.34268   2.34325   2.34941   2.35591   2.35822
 Alpha virt. eigenvalues --    2.37462   2.37558   2.38253   2.38521   2.38952
 Alpha virt. eigenvalues --    2.39371   2.39783   2.40209   2.40458   2.40905
 Alpha virt. eigenvalues --    2.41347   2.41434   2.42082   2.42768   2.42952
 Alpha virt. eigenvalues --    2.43975   2.44307   2.44706   2.44907   2.45757
 Alpha virt. eigenvalues --    2.46006   2.46058   2.46119   2.47490   2.47610
 Alpha virt. eigenvalues --    2.48828   2.49119   2.49395   2.50154   2.50553
 Alpha virt. eigenvalues --    2.51003   2.51381   2.51625   2.51886   2.53249
 Alpha virt. eigenvalues --    2.53455   2.53848   2.55067   2.55620   2.56026
 Alpha virt. eigenvalues --    2.56101   2.56731   2.57367   2.57430   2.57800
 Alpha virt. eigenvalues --    2.58318   2.58518   2.59257   2.59456   2.59618
 Alpha virt. eigenvalues --    2.60268   2.60590   2.61051   2.61722   2.62407
 Alpha virt. eigenvalues --    2.62465   2.63351   2.63770   2.64246   2.64701
 Alpha virt. eigenvalues --    2.65106   2.65929   2.66042   2.66426   2.67038
 Alpha virt. eigenvalues --    2.67345   2.67735   2.68461   2.69024   2.69271
 Alpha virt. eigenvalues --    2.69746   2.70082   2.70407   2.70596   2.71098
 Alpha virt. eigenvalues --    2.71311   2.71727   2.72339   2.72637   2.73328
 Alpha virt. eigenvalues --    2.73340   2.73679   2.74984   2.75017   2.75401
 Alpha virt. eigenvalues --    2.75947   2.76258   2.76366   2.77047   2.77352
 Alpha virt. eigenvalues --    2.77745   2.78542   2.79048   2.79123   2.79582
 Alpha virt. eigenvalues --    2.80107   2.80313   2.80855   2.81563   2.81835
 Alpha virt. eigenvalues --    2.82120   2.82215   2.82951   2.83787   2.84069
 Alpha virt. eigenvalues --    2.84281   2.84922   2.85391   2.85656   2.86136
 Alpha virt. eigenvalues --    2.86264   2.86508   2.87322   2.88046   2.88469
 Alpha virt. eigenvalues --    2.89112   2.89165   2.90642   2.91275   2.91502
 Alpha virt. eigenvalues --    2.92340   2.93081   2.93184   2.93478   2.95142
 Alpha virt. eigenvalues --    2.95930   2.96156   2.96416   2.97277   2.97901
 Alpha virt. eigenvalues --    2.98531   2.98651   2.98888   2.99830   3.00301
 Alpha virt. eigenvalues --    3.01670   3.01802   3.02448   3.02590   3.04279
 Alpha virt. eigenvalues --    3.05149   3.05435   3.06725   3.07048   3.08005
 Alpha virt. eigenvalues --    3.08623   3.09459   3.10747   3.11420   3.11861
 Alpha virt. eigenvalues --    3.12841   3.13732   3.14346   3.14744   3.14993
 Alpha virt. eigenvalues --    3.16075   3.16179   3.16566   3.18598   3.18762
 Alpha virt. eigenvalues --    3.19531   3.21503   3.21865   3.21898   3.24927
 Alpha virt. eigenvalues --    3.26143   3.27119   3.27609   3.30212   3.30693
 Alpha virt. eigenvalues --    3.31441   3.31965   3.33384   3.33823   3.34128
 Alpha virt. eigenvalues --    3.37457   3.38426   3.39000   3.41630   3.41705
 Alpha virt. eigenvalues --    3.42697   3.44560   3.45574   3.45738   3.47022
 Alpha virt. eigenvalues --    3.47331   3.47746   3.48222   3.48348   3.49629
 Alpha virt. eigenvalues --    3.50313   3.51246   3.52524   3.52922   3.53032
 Alpha virt. eigenvalues --    3.53864   3.54373   3.54471   3.54741   3.55189
 Alpha virt. eigenvalues --    3.56509   3.60819   3.61345   3.61867   3.62417
 Alpha virt. eigenvalues --    3.63426   3.64859   3.66054   3.66266   3.67975
 Alpha virt. eigenvalues --    3.69090   3.70016   3.70115   3.70725   3.75431
 Alpha virt. eigenvalues --    3.81548   3.87259   4.02608   4.06094   4.07775
 Alpha virt. eigenvalues --    4.15708   4.18005   4.18163   4.19823   4.21026
 Alpha virt. eigenvalues --    4.23263   4.25999   4.27801   4.31505   4.34560
 Alpha virt. eigenvalues --    4.35016   4.38299   4.41362   4.44026   4.46838
 Alpha virt. eigenvalues --    4.47834   4.48457   4.51189   4.52310   4.53653
 Alpha virt. eigenvalues --    4.54776   4.55183   4.56664   4.60431   4.62880
 Alpha virt. eigenvalues --    4.64638   4.68135   4.68589   4.70613   4.73325
 Alpha virt. eigenvalues --    4.74381   4.76543   4.77897   4.80766   4.82174
 Alpha virt. eigenvalues --    4.86664   4.89490   4.91523   4.92405   4.97353
 Alpha virt. eigenvalues --    5.01076
          Condensed to atoms (all electrons):
 Mulliken charges:
               1
     1  O   -0.518848
     2  O   -0.564162
     3  O   -0.576893
     4  O   -0.529719
     5  C    0.188505
     6  C    0.223754
     7  C    0.009252
     8  C   -0.215781
     9  C   -0.173518
    10  C    0.139137
    11  C   -0.324489
    12  C   -0.135412
    13  C   -0.251225
    14  C   -0.293798
    15  C   -0.048713
    16  C    0.046438
    17  C   -0.361617
    18  C   -0.111444
    19  C   -0.062304
    20  C    0.030735
    21  C    0.243951
    22  C   -0.174566
    23  C    0.136631
    24  C   -0.152593
    25  C   -0.037816
    26  C   -0.321328
    27  C   -0.284822
    28  C   -0.321684
    29  C   -0.106010
    30  C    0.094840
    31  C    0.090373
    32  C   -0.256403
    33  C   -0.379200
    34  C   -0.081700
    35  C    0.103124
    36  C   -0.380797
    37  C   -0.098834
    38  C   -0.081335
    39  C   -0.133467
    40  C   -0.108872
    41  C   -0.098110
    42  C   -0.122135
    43  C    0.136088
    44  C   -0.345957
    45  H    0.123424
    46  H    0.118993
    47  H    0.097589
    48  H    0.109159
    49  H    0.102144
    50  H    0.086620
    51  H    0.110553
    52  H    0.115662
    53  H    0.117105
    54  H    0.109511
    55  H    0.090761
    56  H    0.069131
    57  H    0.112508
    58  H    0.094678
    59  H    0.103647
    60  H    0.299490
    61  H    0.062455
    62  H    0.142864
    63  H    0.131158
    64  H    0.094876
    65  H    0.073574
    66  H    0.065547
    67  H    0.082095
    68  H    0.111956
    69  H    0.060215
    70  H    0.117524
    71  H    0.092168
    72  H    0.086864
    73  H    0.104369
    74  H    0.099021
    75  H    0.108526
    76  H    0.060970
    77  H    0.109764
    78  H    0.104633
    79  H    0.096607
    80  H    0.127765
    81  H    0.080177
    82  H    0.308120
    83  H    0.306502
    84  H    0.110164
    85  H    0.090138
    86  H    0.117445
    87  H    0.127530
    88  H    0.056539
    89  H    0.112502
    90  H    0.124586
    91  H    0.129263
    92  H    0.082987
    93  H    0.086668
    94  H    0.095558
    95  H    0.096049
    96  H    0.070337
    97  H    0.095128
    98  H    0.079483
    99  H    0.123404
   100  H    0.124220
 Sum of Mulliken charges =  -0.00000
 Mulliken charges with hydrogens summed into heavy atoms:
               1
     1  O   -0.518848
     2  O   -0.264672
     3  O   -0.268773
     4  O   -0.223217
     5  C    0.188505
     6  C    0.223754
     7  C    0.009252
     8  C    0.026636
     9  C    0.033229
    10  C    0.241281
    11  C   -0.011654
    12  C   -0.018307
    13  C    0.018178
    14  C    0.017034
    15  C    0.013741
    16  C    0.046438
    17  C    0.007281
    18  C   -0.037871
    19  C    0.003243
    20  C    0.030735
    21  C    0.243951
    22  C    0.019485
    23  C    0.196846
    24  C    0.057099
    25  C   -0.037816
    26  C   -0.031074
    27  C   -0.005563
    28  C    0.007322
    29  C   -0.025833
    30  C    0.094840
    31  C    0.090373
    32  C   -0.146239
    33  C   -0.044087
    34  C   -0.025161
    35  C    0.103124
    36  C   -0.014446
    37  C   -0.015847
    38  C    0.005333
    39  C   -0.037909
    40  C   -0.012823
    41  C   -0.027772
    42  C   -0.027006
    43  C    0.136088
    44  C   -0.018851
 Electronic spatial extent (au):  <R**2>=         115255.5736
 Charge=             -0.0000 electrons
 Dipole moment (field-independent basis, Debye):
    X=              2.7929    Y=             -0.0899    Z=              1.2637  Tot=              3.0668
 Quadrupole moment (field-independent basis, Debye-Ang):
   XX=           -265.7938   YY=           -259.7942   ZZ=           -280.2112
   XY=              9.4488   XZ=             36.8065   YZ=             -2.4655
 Traceless Quadrupole moment (field-independent basis, Debye-Ang):
   XX=              2.8059   YY=              8.8055   ZZ=            -11.6115
   XY=              9.4488   XZ=             36.8065   YZ=             -2.4655
 Octapole moment (field-independent basis, Debye-Ang**2):
  XXX=            927.8579  YYY=             10.1716  ZZZ=             -9.0036  XYY=              3.1789
  XXY=            -46.1334  XXZ=            253.5237  XZZ=             47.5959  YZZ=              1.7010
  YYZ=            -22.4875  XYZ=           -145.2336
 Hexadecapole moment (field-independent basis, Debye-Ang**3):
 XXXX=        -143041.2592 YYYY=          -3663.2901 ZZZZ=          -2224.7037 XXXY=            482.4212
 XXXZ=           7494.5894 YYYX=           -110.1459 YYYZ=            -26.3416 ZZZX=             31.4489
 ZZZY=              9.6659 XXYY=         -25551.7215 XXZZ=         -26204.0563 YYZZ=          -1007.6649
 XXYZ=            361.0420 YYXZ=            234.1140 ZZXY=             18.6156
 N-N= 4.460083106856D+03 E-N=-1.323042710479D+04  KE= 1.839493797378D+03
 1\1\GINC-RYZEN-SSD3\SP\RCAM-B3LYP TD-FC\6-31G(d,p)\C40H56O4\PADAWAN\02
 -Aug-2019\0\\# td=(NStates=1) CAM-B3LYP/6-31G(d,p)\\TD\\0,1\O,0,-11.66
 30029679,0.1979504434,-1.5939165553\O,0,-12.9614169775,-2.3017984878,1
 .4001256976\O,0,10.5650120211,-1.0897188598,-2.0535890852\O,0,14.49044
 24109,-0.9518639079,-0.316076095\C,0,-11.0632144886,-0.2040143561,-0.3
 279422186\C,0,-11.7207183615,-1.2447256525,-1.2027291132\C,0,-11.78687
 07301,0.355332216,0.9292225773\C,0,-13.1347386776,-1.8808282407,-1.000
 2716612\C,0,-13.2519336514,-0.0361210597,0.860730761\C,0,-13.634459879
 5,-1.4647980176,0.4046692342\C,0,-10.8532509138,-2.0381292304,-2.17658
 99773\C,0,-9.5740068445,0.0338805219,-0.3553324913\C,0,-11.1475707345,
 -0.0953551315,2.1147265398\C,0,-11.662116592,1.8562407272,0.9259506868
 \C,0,-8.6585392756,-0.6752855698,0.1867774167\C,0,-7.1847264622,-0.502
 2220683,0.292836984\C,0,-6.270091024,-1.6932880176,0.5125534916\C,0,-6
 .6318288446,0.7555863885,0.0452659714\C,0,-5.2519951411,1.0783498717,-
 0.1646407943\C,0,12.0049197389,0.0441244419,1.2019097191\C,0,11.658233
 1134,-0.5990560608,-1.2369775775\C,0,12.7631835465,-1.2461888486,1.421
 6468981\C,0,13.4508697737,-1.7631108445,0.1657205365\C,0,12.4603009648
 ,-1.8684813571,-0.9263265952\C,0,11.0842153094,-0.0479900511,0.0226294
 432\C,0,11.099401345,0.0819148335,2.5294352837\C,0,12.9176648832,1.257
 6489857,1.2200350545\C,0,12.4776040666,0.4730661799,-2.0492288707\C,0,
 -4.6916356593,2.2194744534,-0.3218270316\C,0,9.8824094284,0.4965904618
 ,-0.020813258\C,0,-3.3771128697,2.5509038441,-0.5437046312\C,0,8.64318
 41044,0.9658229161,0.1350591659\C,0,-3.076779363,3.9710285624,-0.83070
 28024\C,0,-2.3303299481,1.6263344821,-0.2215346882\C,0,7.4776773102,0.
 0834689349,0.1387746934\C,0,7.7139761341,-1.4367206242,0.3049704199\C,
 0,6.2417755256,0.7542323535,0.1561816822\C,0,-0.9695510866,1.842923416
 ,-0.31244942\C,0,4.9164832511,0.0764467608,0.1949108599\C,0,0.00396687
 57,0.8035036603,-0.1511242152\C,0,3.7175111588,0.8371240628,-0.0078682
 558\C,0,1.4455965005,1.2674384715,-0.1411464955\C,0,2.4967375743,0.334
 872787,0.0002433822\C,0,2.2116210238,-1.133107491,0.2040289965\H,0,-13
 .0896507659,-2.888191797,-1.0406392879\H,0,-13.8627614998,-1.486242608
 5,-1.8057870334\H,0,-13.7756353657,0.144591528,1.8530479875\H,0,-13.52
 72921228,0.4838535125,-0.0553878732\H,0,-14.6751448186,-1.7196006735,0
 .4607676811\H,0,-10.827651382,-3.1033671195,-1.7807033657\H,0,-11.2601
 062195,-2.1986346549,-3.2951378\H,0,-9.7638585694,-1.6390431129,-2.140
 6856811\H,0,-9.2850871635,0.8288550165,-1.0238861987\H,0,-10.258967224
 3,0.3942506892,2.2791736602\H,0,-11.9454099019,0.0335600576,2.95627397
 75\H,0,-10.9898296767,-1.1483417107,1.9854693366\H,0,-11.9503575783,2.
 3494310651,-0.028689653\H,0,-12.2506813075,2.2824138169,1.8273364454\H
 ,0,-10.6221825004,1.9802986204,0.9420184953\H,0,-12.0548785604,-2.4524
 781214,1.1487093498\H,0,-8.9392947714,-1.7045888166,0.5528643853\H,0,-
 5.9340028464,-1.9891522403,-0.4488029247\H,0,-5.4706594812,-1.34911014
 36,1.1832867249\H,0,-6.9842385345,-2.4880310761,0.9987860294\H,0,-7.37
 2038515,1.4906773968,-0.1734570222\H,0,-4.5994165864,0.1000086193,-0.1
 87272503\H,0,13.530938771,-1.242645952,2.2338583264\H,0,12.1340085779,
 -2.009480328,1.7088668864\H,0,13.7621485718,-2.8677184368,0.4476116871
 \H,0,12.8402414626,-2.0750939879,-1.8106941641\H,0,11.6874887571,-2.79
 02881527,-0.6778631284\H,0,11.6515247607,0.028113178,3.5018152202\H,0,
 10.5041673944,0.9748830514,2.7786753917\H,0,10.3272003412,-0.720620376
 5,2.4901152527\H,0,13.5087777797,1.2465132755,0.2458786527\H,0,12.3388
 364968,2.3888283206,1.0426389696\H,0,13.4438002171,1.3943239115,2.1216
 086425\H,0,12.7657673962,0.0538887793,-3.088671319\H,0,12.0603931077,1
 .5027623671,-2.22855079\H,0,13.4513959722,0.7369797509,-1.501685654\H,
 0,-5.4552577497,2.9991142982,-0.2930107119\H,0,9.8856798186,-0.3477634
 339,-2.1523175676\H,0,15.1228251277,-0.8341132257,0.3893875381\H,0,8.5
 963814889,1.9897112983,-0.2330405813\H,0,-2.5029153757,4.4079772474,0.
 2425700867\H,0,-2.683307095,4.2737245973,-1.8969928084\H,0,-3.89929631
 47,4.5880569875,-0.7244222437\H,0,-2.6121908392,0.7421264246,0.0873157
 77\H,0,6.8154942993,-2.0243419963,0.0347659613\H,0,8.6593011446,-1.862
 0309279,-0.3213729114\H,0,8.1656664882,-1.636896018,1.2995437153\H,0,6
 .3024653936,1.7704908545,-0.0499770174\H,0,-0.7329146485,2.7692009636,
 -0.7156414756\H,0,4.8415901454,-1.0170482015,0.3498276639\H,0,-0.40473
 93971,-0.2351453274,0.062868898\H,0,3.821161284,2.0960252387,-0.160688
 2938\H,0,1.4934562208,2.3017459665,-0.2483375322\H,0,0.9741762524,-1.3
 574723514,-0.1360146059\H,0,2.9315944842,-1.6030266042,-0.5151392839\H
 ,0,2.3048171781,-1.4299872277,1.3484881354\\Version=ES64L-G16RevA.03\S
 tate=1-A\HF=-1857.3435541\RMSD=6.162e-09\PG=C01 [X(C40H56O4)]\\@


 A MAN SHOULD NEVER BE ASHAMED TO OWN HE HAS BEEN IN THE WRONG
 WHICH IS BUT SAYING IN OTHER WORDS,
 THAT HE IS WISER TODAY THAN HE WAS YESTERDAY.

                          -- JONATHAN SWIFT
 Job cpu time:       0 days  6 hours 56 minutes  4.4 seconds.
 Elapsed time:       0 days  2 hours 18 minutes 54.5 seconds.
 File lengths (MBytes):  RWF=   3379 Int=      0 D2E=      0 Chk=     90 Scr=      1
 Normal termination of Gaussian 16 at Fri Aug  2 03:26:20 2019.
