 Entering Gaussian System, Link 0=g16
 Input=Geometria-138-.com
 Output=Geometria-138-.log
 Initial command:
 /usr/local/g16/l1.exe "/home/padawan/israel-mol/neoxanthin/spectra/emi/Gau-66470.inp" -scrdir="/home/padawan/israel-mol/neoxanthin/spectra/emi/"
 Entering Link 1 = /usr/local/g16/l1.exe PID=     66472.
  
 Copyright (c) 1988,1990,1992,1993,1995,1998,2003,2009,2016,
            Gaussian, Inc.  All Rights Reserved.
  
 This is part of the Gaussian(R) 16 program.  It is based on
 the Gaussian(R) 09 system (copyright 2009, Gaussian, Inc.),
 the Gaussian(R) 03 system (copyright 2003, Gaussian, Inc.),
 the Gaussian(R) 98 system (copyright 1998, Gaussian, Inc.),
 the Gaussian(R) 94 system (copyright 1995, Gaussian, Inc.),
 the Gaussian 92(TM) system (copyright 1992, Gaussian, Inc.),
 the Gaussian 90(TM) system (copyright 1990, Gaussian, Inc.),
 the Gaussian 88(TM) system (copyright 1988, Gaussian, Inc.),
 the Gaussian 86(TM) system (copyright 1986, Carnegie Mellon
 University), and the Gaussian 82(TM) system (copyright 1983,
 Carnegie Mellon University). Gaussian is a federally registered
 trademark of Gaussian, Inc.
  
 This software contains proprietary and confidential information,
 including trade secrets, belonging to Gaussian, Inc.
  
 This software is provided under written license and may be
 used, copied, transmitted, or stored only in accord with that
 written license.
  
 The following legend is applicable only to US Government
 contracts under FAR:
  
                    RESTRICTED RIGHTS LEGEND
  
 Use, reproduction and disclosure by the US Government is
 subject to restrictions as set forth in subparagraphs (a)
 and (c) of the Commercial Computer Software - Restricted
 Rights clause in FAR 52.227-19.
  
 Gaussian, Inc.
 340 Quinnipiac St., Bldg. 40, Wallingford CT 06492
  
  
 ---------------------------------------------------------------
 Warning -- This program may not be used in any manner that
 competes with the business of Gaussian, Inc. or will provide
 assistance to any competitor of Gaussian, Inc.  The licensee
 of this program is prohibited from giving any competitor of
 Gaussian, Inc. access to this program.  By using this program,
 the user acknowledges that Gaussian, Inc. is engaged in the
 business of creating and licensing software in the field of
 computational chemistry and represents and warrants to the
 licensee that it is not a competitor of Gaussian, Inc. and that
 it will not use this program in any manner prohibited above.
 ---------------------------------------------------------------
  

 Cite this work as:
 Gaussian 16, Revision A.03,
 M. J. Frisch, G. W. Trucks, H. B. Schlegel, G. E. Scuseria, 
 M. A. Robb, J. R. Cheeseman, G. Scalmani, V. Barone, 
 G. A. Petersson, H. Nakatsuji, X. Li, M. Caricato, A. V. Marenich, 
 J. Bloino, B. G. Janesko, R. Gomperts, B. Mennucci, H. P. Hratchian, 
 J. V. Ortiz, A. F. Izmaylov, J. L. Sonnenberg, D. Williams-Young, 
 F. Ding, F. Lipparini, F. Egidi, J. Goings, B. Peng, A. Petrone, 
 T. Henderson, D. Ranasinghe, V. G. Zakrzewski, J. Gao, N. Rega, 
 G. Zheng, W. Liang, M. Hada, M. Ehara, K. Toyota, R. Fukuda, 
 J. Hasegawa, M. Ishida, T. Nakajima, Y. Honda, O. Kitao, H. Nakai, 
 T. Vreven, K. Throssell, J. A. Montgomery, Jr., J. E. Peralta, 
 F. Ogliaro, M. J. Bearpark, J. J. Heyd, E. N. Brothers, K. N. Kudin, 
 V. N. Staroverov, T. A. Keith, R. Kobayashi, J. Normand, 
 K. Raghavachari, A. P. Rendell, J. C. Burant, S. S. Iyengar, 
 J. Tomasi, M. Cossi, J. M. Millam, M. Klene, C. Adamo, R. Cammi, 
 J. W. Ochterski, R. L. Martin, K. Morokuma, O. Farkas, 
 J. B. Foresman, and D. J. Fox, Gaussian, Inc., Wallingford CT, 2016.
 
 ******************************************
 Gaussian 16:  ES64L-G16RevA.03 25-Dec-2016
                30-Jul-2019 
 ******************************************
 %nproc=3
 Will use up to    3 processors via shared memory.
 %Mem=2GB
 -------------------------------------
 # td=(NStates=1) CAM-B3LYP/6-31G(d,p)
 -------------------------------------
 1/38=1,172=1/1;
 2/12=2,17=6,18=5,40=1/2;
 3/5=1,6=6,7=101,11=9,25=1,30=1,74=-40/1,2,3,8;
 4//1;
 5/5=2,38=5/2;
 8/6=1,10=2,108=1/1;
 9/41=1,42=1,70=2/14;
 6/7=2,8=2,9=2,10=2/1;
 99/5=1,9=1/99;
 --
 TD
 --
 Symbolic Z-matrix:
 Charge =  0 Multiplicity = 1
 8                    -11.81822   0.37544  -1.37307 
 8                    -12.75481  -2.72643   1.39891 
 8                     10.60299  -1.25605  -2.07535 
 8                     14.4736  -1.08772   0.01386 
 6                    -11.07653  -0.09724  -0.26314 
 6                    -11.70564  -0.99636  -1.23072 
 6                    -11.72832   0.17294   1.18674 
 6                    -13.0839  -1.66056  -0.89574 
 6                    -13.13943  -0.23798   1.16832 
 6                    -13.39324  -1.67151   0.70803 
 6                    -11.00738  -1.76098  -2.32083 
 6                    -9.63061   0.2139   -0.40397 
 6                    -10.87683  -0.47451   2.31217 
 6                    -11.69307   1.72253   1.28698 
 6                    -8.61398  -0.76725  -0.28613 
 6                    -7.20158  -0.54885  -0.21574 
 6                    -6.33054  -1.65931   0.32692 
 6                    -6.57852   0.72201  -0.44012 
 6                    -5.27587   0.95328  -0.22644 
 6                     11.9027   0.04508   1.33424 
 6                     11.68854  -0.66775  -1.19729 
 6                     12.53505  -1.26458   1.66064 
 6                     13.36435  -1.87738   0.41578 
 6                     12.42814  -1.97994  -0.75495 
 6                     11.05435  -0.06163   0.05396 
 6                     11.01843   0.36505   2.53239 
 6                     12.84508   1.27269   1.32683 
 6                     12.56484   0.28075  -1.96326 
 6                    -4.7529    2.23091  -0.48398 
 6                     9.806     0.42604  -0.03896 
 6                    -3.39148   2.54295  -0.51648 
 6                     8.63201   1.01057  -0.17679 
 6                    -2.98215   3.9557   -0.88749 
 6                    -2.36852   1.64792  -0.26969 
 6                     7.42073   0.12957   0.03483 
 6                     7.55483  -1.28149   0.21826 
 6                     6.22219   0.76885  -0.18669 
 6                    -1.02889   1.96602  -0.2651 
 6                     4.91824   0.19862  -0.06935 
 6                     0.08587   1.11204  -0.11634 
 6                     3.85275   0.9271   -0.38796 
 6                     1.48907   1.29864  -0.26589 
 6                     2.47541   0.48387  -0.06471 
 6                     2.16604  -0.97789   0.35547 
 1                    -13.05725  -2.7132   -1.14143 
 1                    -13.84475  -1.04085  -1.42928 
 1                    -13.54761  -0.14199   2.36912 
 1                    -14.16101   0.32641   0.80267 
 1                    -14.40724  -1.73023   0.84603 
 1                    -10.75404  -2.73752  -2.10523 
 1                    -11.66317  -1.74141  -3.29256 
 1                    -10.05109  -1.26447  -2.74866 
 1                    -9.37476   1.35066  -0.40462 
 1                    -10.00984   0.11639   2.14206 
 1                    -11.31076  -0.24405   3.38521 
 1                    -10.67977  -1.54504   2.21379 
 1                    -12.04062   2.28605   0.47981 
 1                    -12.31765   2.09555   2.27343 
 1                    -10.69539   2.06004   1.48997 
 1                    -11.79848  -2.41482   1.33596 
 1                    -9.06036  -1.8204   -0.27897 
 1                    -5.64699  -2.04119  -0.47026 
 1                    -5.74022  -1.35159   1.20111 
 1                    -6.89742  -2.45002   0.35785 
 1                    -7.23516   1.6471   -0.63251 
 1                    -4.62515   0.06174   0.1741 
 1                     13.08936  -1.04727   2.56887 
 1                     11.83111  -2.08764   1.9069 
 1                     13.52815  -2.8799    0.61092 
 1                     12.89088  -2.50563  -1.65076 
 1                     11.54959  -2.51088  -0.35408 
 1                     11.53941   0.11682   3.29683 
 1                     10.75333   1.29402   2.45534 
 1                     10.21822  -0.28573   2.84231 
 1                     13.61822   0.97687   0.79817 
 1                     12.37214   2.14524   0.93011 
 1                     13.22338   1.29002   2.37842 
 1                     12.95973  -0.08253  -2.84998 
 1                     11.8485   1.02601  -2.22784 
 1                     13.27043   0.81031  -1.27621 
 1                    -5.47854   3.07968  -0.3587 
 1                     9.87867  -0.69751  -2.15826 
 1                     15.15477  -1.01416   0.80949 
 1                     8.34537   2.00543  -0.61725 
 1                    -2.44723   4.4913    0.11954 
 1                    -2.14689   4.09476  -1.6439 
 1                    -3.91381   4.63643  -1.27711 
 1                    -2.64302   0.63945  -0.06581 
 1                     6.55885  -1.74009   0.05616 
 1                     8.4913   -1.615    -0.28393 
 1                     7.78597  -1.51617   1.43035 
 1                     6.37773   1.95448  -0.29484 
 1                    -0.62455   2.92852  -0.63642 
 1                     4.86826  -0.91488   0.30787 
 1                    -0.07582   0.0889    0.39995 
 1                     3.99622   1.9181   -0.6515 
 1                     1.72882   2.33362  -0.67514 
 1                     1.16565  -1.4401    0.04903 
 1                     3.05783  -1.46054  -0.09459 
 1                     2.26695  -1.04537   1.53211 
 
 Stoichiometry    C40H56O4
 Framework group  C1[X(C40H56O4)]
 Deg. of freedom   294
 Full point group                 C1      NOp   1
 Largest Abelian subgroup         C1      NOp   1
 Largest concise Abelian subgroup C1      NOp   1
                         Standard orientation:                         
 ---------------------------------------------------------------------
 Center     Atomic      Atomic             Coordinates (Angstroms)
 Number     Number       Type             X           Y           Z
 ---------------------------------------------------------------------
      1          8           0      -11.816743    0.494723   -1.328900
      2          8           0      -12.751369   -2.841542    1.156752
      3          8           0       10.603592   -1.069371   -2.193494
      4          8           0       14.476060   -1.087984   -0.101026
      5          6           0      -11.074150   -0.074949   -0.266108
      6          6           0      -11.704243   -0.884310   -1.309339
      7          6           0      -11.724638    0.065135    1.202640
      8          6           0      -13.082316   -1.575591   -1.033599
      9          6           0      -13.135823   -0.342418    1.148963
     10          6           0      -13.390245   -1.729256    0.563102
     11          6           0      -11.007053   -1.548895   -2.463813
     12          6           0       -9.628314    0.247392   -0.379961
     13          6           0      -10.872259   -0.680005    2.265204
     14          6           0      -11.689062    1.599639    1.440403
     15          6           0       -8.611731   -0.740429   -0.350841
     16          6           0       -7.199230   -0.529256   -0.262541
     17          6           0       -6.327881   -1.683689    0.178340
     18          6           0       -6.576181    0.756488   -0.373440
     19          6           0       -5.273304    0.967717   -0.141169
     20          6           0       11.906487   -0.077046    1.317244
     21          6           0       11.689999   -0.561663   -1.267512
     22          6           0       12.538927   -1.410614    1.525190
     23          6           0       13.367044   -1.910216    0.229978
     24          6           0       12.429790   -1.908076   -0.944399
     25          6           0       11.057003   -0.069298    0.033298
     26          6           0       11.023319    0.135049    2.539897
     27          6           0       12.849043    1.146279    1.418311
     28          6           0       12.565777    0.451199   -1.946771
     29          6           0       -4.750372    2.263163   -0.284412
     30          6           0        9.808645    0.424802   -0.014728
     31          6           0       -3.388936    2.576767   -0.290207
     32          6           0        8.634623    1.019361   -0.098940
     33          6           0       -2.979715    4.016901   -0.534332
     34          6           0       -2.365895    1.663240   -0.124983
     35          6           0        7.423395    0.123112    0.034487
     36          6           0        7.557442   -1.298683    0.091446
     37          6           0        6.224760    0.779662   -0.128186
     38          6           0       -1.026206    1.979571   -0.093284
     39          6           0        4.920827    0.201338   -0.060916
     40          6           0        0.088547    1.115667   -0.022124
     41          6           0        3.855169    0.955370   -0.312463
     42          6           0        1.491649    1.314736   -0.155710
     43          6           0        2.478037    0.485217   -0.028743
     44          6           0        2.168817   -1.008124    0.259914
     45          1           0      -13.056033   -2.602188   -1.372049
     46          1           0      -13.843536   -0.910790   -1.509174
     47          1           0      -13.542937   -0.353678    2.353900
     48          1           0      -14.157631    0.252357    0.835912
     49          1           0      -14.404135   -1.799959    0.696221
     50          1           0      -10.753679   -2.540770   -2.336223
     51          1           0      -11.663691   -1.442844   -3.429354
     52          1           0      -10.051064   -1.016332   -2.846580
     53          1           0       -9.372287    1.379677   -0.279640
     54          1           0      -10.005328   -0.076364    2.147611
     55          1           0      -11.305207   -0.545953    3.354885
     56          1           0      -10.675441   -1.737539    2.071740
     57          1           0      -12.037231    2.232813    0.686920
     58          1           0      -12.312720    1.883400    2.456702
     59          1           0      -10.691154    1.917664    1.671757
     60          1           0      -11.795055   -2.525637    1.120949
     61          1           0       -9.058255   -1.789999   -0.437071
     62          1           0       -5.645094   -1.993125   -0.650277
     63          1           0       -5.736749   -1.455055    1.075925
     64          1           0       -6.894855   -2.473965    0.139253
     65          1           0       -7.232852    1.695080   -0.482127
     66          1           0       -4.622369    0.044019    0.177835
     67          1           0       13.094069   -1.275059    2.448670
     68          1           0       11.835077   -2.252276    1.697818
     69          1           0       13.530858   -2.926137    0.334950
     70          1           0       12.891665   -2.351955   -1.883860
     71          1           0       11.551519   -2.472530   -0.591612
     72          1           0       11.544931   -0.180290    3.278750
     73          1           0       10.758290    1.067210    2.546099
     74          1           0       10.223279   -0.540681    2.791364
     75          1           0       13.621676    0.898638    0.864737
     76          1           0       12.375889    2.050720    1.101268
     77          1           0       13.228267    1.069895    2.466941
     78          1           0       12.959830    0.168273   -2.862658
     79          1           0       11.849317    1.217114   -2.143318
     80          1           0       13.272043    0.917441   -1.215932
     81          1           0       -5.475772    3.097468   -0.083418
     82          1           0        9.879287   -0.505619   -2.225706
     83          1           0       15.157936   -1.085602    0.697392
     84          1           0        8.347741    2.049509   -0.448824
     85          1           0       -2.443832    4.460682    0.515904
     86          1           0       -2.145100    4.222689   -1.276097
     87          1           0       -3.911611    4.729686   -0.860975
     88          1           0       -2.640368    0.640643   -0.011450
     89          1           0        6.561250   -1.740968   -0.109960
     90          1           0        8.493426   -1.586229   -0.439272
     91          1           0        7.789607   -1.640365    1.277619
     92          1           0        6.380383    1.970196   -0.130491
     93          1           0       -0.622054    2.971279   -0.377798
     94          1           0        4.871010   -0.941317    0.215719
     95          1           0       -0.072836    0.050630    0.401175
     96          1           0        3.998552    1.965882   -0.486860
     97          1           0        1.731195    2.382021   -0.471408
     98          1           0        1.168088   -1.441144   -0.085572
     99          1           0        3.060140   -1.448855   -0.232119
    100          1           0        2.270754   -1.180092    1.425777
 ---------------------------------------------------------------------
 Rotational constants (GHZ):           0.2547866           0.0088939           0.0088163
 Standard basis: 6-31G(d,p) (6D, 7F)
 There are   940 symmetry adapted cartesian basis functions of A   symmetry.
 There are   940 symmetry adapted basis functions of A   symmetry.
   940 basis functions,  1624 primitive gaussians,   940 cartesian basis functions
   164 alpha electrons      164 beta electrons
       nuclear repulsion energy      4455.2855711443 Hartrees.
 NAtoms=  100 NActive=  100 NUniq=  100 SFac= 1.00D+00 NAtFMM=   60 NAOKFM=T Big=T
 Integral buffers will be    131072 words long.
 Raffenetti 1 integral format.
 Two-electron integral symmetry is turned on.
 One-electron integrals computed using PRISM.
 NBasis=   940 RedAO= T EigKep=  3.92D-04  NBF=   940
 NBsUse=   940 1.00D-06 EigRej= -1.00D+00 NBFU=   940
 ExpMin= 1.61D-01 ExpMax= 5.48D+03 ExpMxC= 8.25D+02 IAcc=3 IRadAn=         5 AccDes= 0.00D+00
 Harris functional with IExCor=20419 and IRadAn=       5 diagonalized for initial guess.
 HarFok:  IExCor=20419 AccDes= 0.00D+00 IRadAn=         5 IDoV= 1 UseB2=F ITyADJ=14
 ICtDFT=  3500011 ScaDFX=  1.000000  1.000000  1.000000  1.000000
 FoFCou: FMM=F IPFlag=           0 FMFlag=      100000 FMFlg1=        2001
         NFxFlg=           0 DoJE=T BraDBF=F KetDBF=T FulRan=T
         wScrn=  0.000000 ICntrl=       500 IOpCl=  0 I1Cent=   200000004 NGrid=           0
         NMat0=    1 NMatS0=      1 NMatT0=    0 NMatD0=    1 NMtDS0=    0 NMtDT0=    0
 Petite list used in FoFCou.
 Requested convergence on RMS density matrix=1.00D-08 within 128 cycles.
 Requested convergence on MAX density matrix=1.00D-06.
 Requested convergence on             energy=1.00D-06.
 No special actions if energy rises.
 Integral accuracy reduced to 1.0D-05 until final iterations.
 Initial convergence to 1.0D-05 achieved.  Increase integral accuracy.
 SCF Done:  E(RCAM-B3LYP) =  -1857.33163684     A.U. after   16 cycles
            NFock= 16  Conv=0.66D-08     -V/T= 2.0096
 DoSCS=F DFT=T ScalE2(SS,OS)=  1.000000  1.000000
 ExpMin= 1.61D-01 ExpMax= 5.48D+03 ExpMxC= 8.25D+02 IAcc=3 IRadAn=         5 AccDes= 0.00D+00
 HarFok:  IExCor=  205 AccDes= 0.00D+00 IRadAn=         5 IDoV=-2 UseB2=F ITyADJ=14
 ICtDFT= 12500011 ScaDFX=  1.000000  1.000000  1.000000  1.000000
 GSVD:  LWork=       -2288 too small for GESVD, short by       10340 words or       10340 for optimal perf.
 Range of M.O.s used for correlation:    45   940
 NBasis=   940 NAE=   164 NBE=   164 NFC=    44 NFV=     0
 NROrb=    896 NOA=   120 NOB=   120 NVA=   776 NVB=   776
 Orbital symmetries:
       Occupied  (A) (A) (A) (A) (A) (A) (A) (A) (A) (A) (A) (A)
                 (A) (A) (A) (A) (A) (A) (A) (A) (A) (A) (A) (A)
                 (A) (A) (A) (A) (A) (A) (A) (A) (A) (A) (A) (A)
                 (A) (A) (A) (A) (A) (A) (A) (A) (A) (A) (A) (A)
                 (A) (A) (A) (A) (A) (A) (A) (A) (A) (A) (A) (A)
                 (A) (A) (A) (A) (A) (A) (A) (A) (A) (A) (A) (A)
                 (A) (A) (A) (A) (A) (A) (A) (A) (A) (A) (A) (A)
                 (A) (A) (A) (A) (A) (A) (A) (A) (A) (A) (A) (A)
                 (A) (A) (A) (A) (A) (A) (A) (A) (A) (A) (A) (A)
                 (A) (A) (A) (A) (A) (A) (A) (A) (A) (A) (A) (A)
                 (A) (A) (A) (A) (A) (A) (A) (A) (A) (A) (A) (A)
                 (A) (A) (A) (A) (A) (A) (A) (A) (A) (A) (A) (A)
                 (A) (A) (A) (A) (A) (A) (A) (A) (A) (A) (A) (A)
                 (A) (A) (A) (A) (A) (A) (A) (A)
       Virtual   (A) (A) (A) (A) (A) (A) (A) (A) (A) (A) (A) (A)
                 (A) (A) (A) (A) (A) (A) (A) (A) (A) (A) (A) (A)
                 (A) (A) (A) (A) (A) (A) (A) (A) (A) (A) (A) (A)
                 (A) (A) (A) (A) (A) (A) (A) (A) (A) (A) (A) (A)
                 (A) (A) (A) (A) (A) (A) (A) (A) (A) (A) (A) (A)
                 (A) (A) (A) (A) (A) (A) (A) (A) (A) (A) (A) (A)
                 (A) (A) (A) (A) (A) (A) (A) (A) (A) (A) (A) (A)
                 (A) (A) (A) (A) (A) (A) (A) (A) (A) (A) (A) (A)
                 (A) (A) (A) (A) (A) (A) (A) (A) (A) (A) (A) (A)
                 (A) (A) (A) (A) (A) (A) (A) (A) (A) (A) (A) (A)
                 (A) (A) (A) (A) (A) (A) (A) (A) (A) (A) (A) (A)
                 (A) (A) (A) (A) (A) (A) (A) (A) (A) (A) (A) (A)
                 (A) (A) (A) (A) (A) (A) (A) (A) (A) (A) (A) (A)
                 (A) (A) (A) (A) (A) (A) (A) (A) (A) (A) (A) (A)
                 (A) (A) (A) (A) (A) (A) (A) (A) (A) (A) (A) (A)
                 (A) (A) (A) (A) (A) (A) (A) (A) (A) (A) (A) (A)
                 (A) (A) (A) (A) (A) (A) (A) (A) (A) (A) (A) (A)
                 (A) (A) (A) (A) (A) (A) (A) (A) (A) (A) (A) (A)
                 (A) (A) (A) (A) (A) (A) (A) (A) (A) (A) (A) (A)
                 (A) (A) (A) (A) (A) (A) (A) (A) (A) (A) (A) (A)
                 (A) (A) (A) (A) (A) (A) (A) (A) (A) (A) (A) (A)
                 (A) (A) (A) (A) (A) (A) (A) (A) (A) (A) (A) (A)
                 (A) (A) (A) (A) (A) (A) (A) (A) (A) (A) (A) (A)
                 (A) (A) (A) (A) (A) (A) (A) (A) (A) (A) (A) (A)
                 (A) (A) (A) (A) (A) (A) (A) (A) (A) (A) (A) (A)
                 (A) (A) (A) (A) (A) (A) (A) (A) (A) (A) (A) (A)
                 (A) (A) (A) (A) (A) (A) (A) (A) (A) (A) (A) (A)
                 (A) (A) (A) (A) (A) (A) (A) (A) (A) (A) (A) (A)
                 (A) (A) (A) (A) (A) (A) (A) (A) (A) (A) (A) (A)
                 (A) (A) (A) (A) (A) (A) (A) (A) (A) (A) (A) (A)
                 (A) (A) (A) (A) (A) (A) (A) (A) (A) (A) (A) (A)
                 (A) (A) (A) (A) (A) (A) (A) (A) (A) (A) (A) (A)
                 (A) (A) (A) (A) (A) (A) (A) (A) (A) (A) (A) (A)
                 (A) (A) (A) (A) (A) (A) (A) (A) (A) (A) (A) (A)
                 (A) (A) (A) (A) (A) (A) (A) (A) (A) (A) (A) (A)
                 (A) (A) (A) (A) (A) (A) (A) (A) (A) (A) (A) (A)
                 (A) (A) (A) (A) (A) (A) (A) (A) (A) (A) (A) (A)
                 (A) (A) (A) (A) (A) (A) (A) (A) (A) (A) (A) (A)
                 (A) (A) (A) (A) (A) (A) (A) (A) (A) (A) (A) (A)
                 (A) (A) (A) (A) (A) (A) (A) (A) (A) (A) (A) (A)
                 (A) (A) (A) (A) (A) (A) (A) (A) (A) (A) (A) (A)
                 (A) (A) (A) (A) (A) (A) (A) (A) (A) (A) (A) (A)
                 (A) (A) (A) (A) (A) (A) (A) (A) (A) (A) (A) (A)
                 (A) (A) (A) (A) (A) (A) (A) (A) (A) (A) (A) (A)
                 (A) (A) (A) (A) (A) (A) (A) (A) (A) (A) (A) (A)
                 (A) (A) (A) (A) (A) (A) (A) (A) (A) (A) (A) (A)
                 (A) (A) (A) (A) (A) (A) (A) (A) (A) (A) (A) (A)
                 (A) (A) (A) (A) (A) (A) (A) (A) (A) (A) (A) (A)
                 (A) (A) (A) (A) (A) (A) (A) (A) (A) (A) (A) (A)
                 (A) (A) (A) (A) (A) (A) (A) (A) (A) (A) (A) (A)
                 (A) (A) (A) (A) (A) (A) (A) (A) (A) (A) (A) (A)
                 (A) (A) (A) (A) (A) (A) (A) (A) (A) (A) (A) (A)
                 (A) (A) (A) (A) (A) (A) (A) (A) (A) (A) (A) (A)
                 (A) (A) (A) (A) (A) (A) (A) (A) (A) (A) (A) (A)
                 (A) (A) (A) (A) (A) (A) (A) (A) (A) (A) (A) (A)
                 (A) (A) (A) (A) (A) (A) (A) (A) (A) (A) (A) (A)
                 (A) (A) (A) (A) (A) (A) (A) (A) (A) (A) (A) (A)
                 (A) (A) (A) (A) (A) (A) (A) (A) (A) (A) (A) (A)
                 (A) (A) (A) (A) (A) (A) (A) (A) (A) (A) (A) (A)
                 (A) (A) (A) (A) (A) (A) (A) (A) (A) (A) (A) (A)
                 (A) (A) (A) (A) (A) (A) (A) (A) (A) (A) (A) (A)
                 (A) (A) (A) (A) (A) (A) (A) (A) (A) (A) (A) (A)
                 (A) (A) (A) (A) (A) (A) (A) (A) (A) (A) (A) (A)
                 (A) (A) (A) (A) (A) (A) (A) (A) (A) (A) (A) (A)
                 (A) (A) (A) (A) (A) (A) (A) (A)
     4 initial guesses have been made.
 Convergence on wavefunction:    0.001000000000000
 Iteration     1 Dimension     4 NMult     0 NNew      4
 CISAX will form     4 AO SS matrices at one time.
 Iteration     2 Dimension     6 NMult     4 NNew      2
 Iteration     3 Dimension     8 NMult     6 NNew      2
 Iteration     4 Dimension    10 NMult     8 NNew      2
 Iteration     5 Dimension    12 NMult    10 NNew      2
 Iteration     6 Dimension    14 NMult    12 NNew      2
 ***********************************************************************
 Excited states from <AA,BB:AA,BB> singles matrix:
 ***********************************************************************
 
 Ground to excited state transition densities written to RWF  633
 Ground to excited state transition electric dipole moments (Au):
       state          X           Y           Z        Dip. S.      Osc.
         1         7.1173      0.2607      0.1042     50.7349      2.5593
 Ground to excited state transition velocity dipole moments (Au):
       state          X           Y           Z        Dip. S.      Osc.
         1        -0.5252     -0.0171     -0.0060      0.2761      2.4328
 Ground to excited state transition magnetic dipole moments (Au):
       state          X           Y           Z
         1        -0.0367      0.4164      2.4686
 Ground to excited state transition velocity quadrupole moments (Au):
       state          XX          YY          ZZ          XY          XZ          YZ
         1         3.3933      0.1059      0.0669      0.4237     -0.0613      0.0394
 <0|del|b> * <b|rxdel|0> + <0|del|b> * <b|delr+rdel|0>
 Rotatory Strengths (R) in cgs (10**-40 erg-esu-cm/Gauss)
       state          XX          YY          ZZ    R(velocity)    E-M Angle
         1      -118.7223    -63.5045    158.2833     -7.9812       90.11
 1/2[<0|r|b>*<b|rxdel|0> + (<0|rxdel|b>*<b|r|0>)*]
 Rotatory Strengths (R) in cgs (10**-40 erg-esu-cm/Gauss)
       state          XX          YY          ZZ     R(length)
         1       184.7029    -76.7653   -181.8541    -24.6388
  1/2[<0|del|b>*<b|r|0> + (<0|r|b>*<b|del|0>)*] (Au)
       state          X           Y           Z        Dip. S.   Osc.(frdel)
         1        -3.7377     -0.0045     -0.0006      3.7428      2.4952

 Excitation energies and oscillator strengths:
 
 Excited State   1:      Singlet-A      2.0590 eV  602.15 nm  f=2.5593  <S**2>=0.000
     163 ->166        -0.11777
     164 ->165         0.70291
     164 <-165        -0.11648
 This state for optimization and/or second-order correction.
 Total Energy, E(TD-HF/TD-DFT) =  -1857.25596894    
 Copying the excited state density for this state as the 1-particle RhoCI density.
 SavETr:  write IOETrn=   770 NScale= 10 NData=  16 NLR=1 NState=    1 LETran=      28.

 **********************************************************************

            Population analysis using the SCF density.

 **********************************************************************

 Orbital symmetries:
       Occupied  (A) (A) (A) (A) (A) (A) (A) (A) (A) (A) (A) (A)
                 (A) (A) (A) (A) (A) (A) (A) (A) (A) (A) (A) (A)
                 (A) (A) (A) (A) (A) (A) (A) (A) (A) (A) (A) (A)
                 (A) (A) (A) (A) (A) (A) (A) (A) (A) (A) (A) (A)
                 (A) (A) (A) (A) (A) (A) (A) (A) (A) (A) (A) (A)
                 (A) (A) (A) (A) (A) (A) (A) (A) (A) (A) (A) (A)
                 (A) (A) (A) (A) (A) (A) (A) (A) (A) (A) (A) (A)
                 (A) (A) (A) (A) (A) (A) (A) (A) (A) (A) (A) (A)
                 (A) (A) (A) (A) (A) (A) (A) (A) (A) (A) (A) (A)
                 (A) (A) (A) (A) (A) (A) (A) (A) (A) (A) (A) (A)
                 (A) (A) (A) (A) (A) (A) (A) (A) (A) (A) (A) (A)
                 (A) (A) (A) (A) (A) (A) (A) (A) (A) (A) (A) (A)
                 (A) (A) (A) (A) (A) (A) (A) (A) (A) (A) (A) (A)
                 (A) (A) (A) (A) (A) (A) (A) (A)
       Virtual   (A) (A) (A) (A) (A) (A) (A) (A) (A) (A) (A) (A)
                 (A) (A) (A) (A) (A) (A) (A) (A) (A) (A) (A) (A)
                 (A) (A) (A) (A) (A) (A) (A) (A) (A) (A) (A) (A)
                 (A) (A) (A) (A) (A) (A) (A) (A) (A) (A) (A) (A)
                 (A) (A) (A) (A) (A) (A) (A) (A) (A) (A) (A) (A)
                 (A) (A) (A) (A) (A) (A) (A) (A) (A) (A) (A) (A)
                 (A) (A) (A) (A) (A) (A) (A) (A) (A) (A) (A) (A)
                 (A) (A) (A) (A) (A) (A) (A) (A) (A) (A) (A) (A)
                 (A) (A) (A) (A) (A) (A) (A) (A) (A) (A) (A) (A)
                 (A) (A) (A) (A) (A) (A) (A) (A) (A) (A) (A) (A)
                 (A) (A) (A) (A) (A) (A) (A) (A) (A) (A) (A) (A)
                 (A) (A) (A) (A) (A) (A) (A) (A) (A) (A) (A) (A)
                 (A) (A) (A) (A) (A) (A) (A) (A) (A) (A) (A) (A)
                 (A) (A) (A) (A) (A) (A) (A) (A) (A) (A) (A) (A)
                 (A) (A) (A) (A) (A) (A) (A) (A) (A) (A) (A) (A)
                 (A) (A) (A) (A) (A) (A) (A) (A) (A) (A) (A) (A)
                 (A) (A) (A) (A) (A) (A) (A) (A) (A) (A) (A) (A)
                 (A) (A) (A) (A) (A) (A) (A) (A) (A) (A) (A) (A)
                 (A) (A) (A) (A) (A) (A) (A) (A) (A) (A) (A) (A)
                 (A) (A) (A) (A) (A) (A) (A) (A) (A) (A) (A) (A)
                 (A) (A) (A) (A) (A) (A) (A) (A) (A) (A) (A) (A)
                 (A) (A) (A) (A) (A) (A) (A) (A) (A) (A) (A) (A)
                 (A) (A) (A) (A) (A) (A) (A) (A) (A) (A) (A) (A)
                 (A) (A) (A) (A) (A) (A) (A) (A) (A) (A) (A) (A)
                 (A) (A) (A) (A) (A) (A) (A) (A) (A) (A) (A) (A)
                 (A) (A) (A) (A) (A) (A) (A) (A) (A) (A) (A) (A)
                 (A) (A) (A) (A) (A) (A) (A) (A) (A) (A) (A) (A)
                 (A) (A) (A) (A) (A) (A) (A) (A) (A) (A) (A) (A)
                 (A) (A) (A) (A) (A) (A) (A) (A) (A) (A) (A) (A)
                 (A) (A) (A) (A) (A) (A) (A) (A) (A) (A) (A) (A)
                 (A) (A) (A) (A) (A) (A) (A) (A) (A) (A) (A) (A)
                 (A) (A) (A) (A) (A) (A) (A) (A) (A) (A) (A) (A)
                 (A) (A) (A) (A) (A) (A) (A) (A) (A) (A) (A) (A)
                 (A) (A) (A) (A) (A) (A) (A) (A) (A) (A) (A) (A)
                 (A) (A) (A) (A) (A) (A) (A) (A) (A) (A) (A) (A)
                 (A) (A) (A) (A) (A) (A) (A) (A) (A) (A) (A) (A)
                 (A) (A) (A) (A) (A) (A) (A) (A) (A) (A) (A) (A)
                 (A) (A) (A) (A) (A) (A) (A) (A) (A) (A) (A) (A)
                 (A) (A) (A) (A) (A) (A) (A) (A) (A) (A) (A) (A)
                 (A) (A) (A) (A) (A) (A) (A) (A) (A) (A) (A) (A)
                 (A) (A) (A) (A) (A) (A) (A) (A) (A) (A) (A) (A)
                 (A) (A) (A) (A) (A) (A) (A) (A) (A) (A) (A) (A)
                 (A) (A) (A) (A) (A) (A) (A) (A) (A) (A) (A) (A)
                 (A) (A) (A) (A) (A) (A) (A) (A) (A) (A) (A) (A)
                 (A) (A) (A) (A) (A) (A) (A) (A) (A) (A) (A) (A)
                 (A) (A) (A) (A) (A) (A) (A) (A) (A) (A) (A) (A)
                 (A) (A) (A) (A) (A) (A) (A) (A) (A) (A) (A) (A)
                 (A) (A) (A) (A) (A) (A) (A) (A) (A) (A) (A) (A)
                 (A) (A) (A) (A) (A) (A) (A) (A) (A) (A) (A) (A)
                 (A) (A) (A) (A) (A) (A) (A) (A) (A) (A) (A) (A)
                 (A) (A) (A) (A) (A) (A) (A) (A) (A) (A) (A) (A)
                 (A) (A) (A) (A) (A) (A) (A) (A) (A) (A) (A) (A)
                 (A) (A) (A) (A) (A) (A) (A) (A) (A) (A) (A) (A)
                 (A) (A) (A) (A) (A) (A) (A) (A) (A) (A) (A) (A)
                 (A) (A) (A) (A) (A) (A) (A) (A) (A) (A) (A) (A)
                 (A) (A) (A) (A) (A) (A) (A) (A) (A) (A) (A) (A)
                 (A) (A) (A) (A) (A) (A) (A) (A) (A) (A) (A) (A)
                 (A) (A) (A) (A) (A) (A) (A) (A) (A) (A) (A) (A)
                 (A) (A) (A) (A) (A) (A) (A) (A) (A) (A) (A) (A)
                 (A) (A) (A) (A) (A) (A) (A) (A) (A) (A) (A) (A)
                 (A) (A) (A) (A) (A) (A) (A) (A) (A) (A) (A) (A)
                 (A) (A) (A) (A) (A) (A) (A) (A) (A) (A) (A) (A)
                 (A) (A) (A) (A) (A) (A) (A) (A) (A) (A) (A) (A)
                 (A) (A) (A) (A) (A) (A) (A) (A) (A) (A) (A) (A)
                 (A) (A) (A) (A) (A) (A) (A) (A)
 The electronic state is 1-A.
 Alpha  occ. eigenvalues --  -19.23314 -19.22466 -19.22022 -19.19748 -10.32152
 Alpha  occ. eigenvalues --  -10.32005 -10.31848 -10.30791 -10.29709 -10.28805
 Alpha  occ. eigenvalues --  -10.28376 -10.28228 -10.28057 -10.28020 -10.27871
 Alpha  occ. eigenvalues --  -10.27798 -10.27569 -10.27396 -10.27307 -10.27297
 Alpha  occ. eigenvalues --  -10.27293 -10.27232 -10.27185 -10.27153 -10.27137
 Alpha  occ. eigenvalues --  -10.27094 -10.27041 -10.26678 -10.26642 -10.26637
 Alpha  occ. eigenvalues --  -10.26592 -10.26566 -10.26234 -10.26054 -10.25704
 Alpha  occ. eigenvalues --  -10.25588 -10.25437 -10.25424 -10.25273 -10.25075
 Alpha  occ. eigenvalues --  -10.25030 -10.23956 -10.23371 -10.21338  -1.17639
 Alpha  occ. eigenvalues --   -1.09515  -1.09340  -1.07412  -0.93968  -0.92674
 Alpha  occ. eigenvalues --   -0.92376  -0.91362  -0.91011  -0.90345  -0.87400
 Alpha  occ. eigenvalues --   -0.87117  -0.86025  -0.85205  -0.84412  -0.83419
 Alpha  occ. eigenvalues --   -0.82246  -0.81335  -0.80724  -0.78151  -0.77806
 Alpha  occ. eigenvalues --   -0.77427  -0.76822  -0.76546  -0.76006  -0.75796
 Alpha  occ. eigenvalues --   -0.74982  -0.74331  -0.73410  -0.70667  -0.70270
 Alpha  occ. eigenvalues --   -0.68260  -0.66590  -0.65289  -0.64936  -0.63865
 Alpha  occ. eigenvalues --   -0.63095  -0.61545  -0.60000  -0.59727  -0.59696
 Alpha  occ. eigenvalues --   -0.59197  -0.58604  -0.58325  -0.57323  -0.56414
 Alpha  occ. eigenvalues --   -0.56060  -0.55525  -0.55072  -0.54885  -0.54775
 Alpha  occ. eigenvalues --   -0.53795  -0.53230  -0.53020  -0.52500  -0.52135
 Alpha  occ. eigenvalues --   -0.51517  -0.51245  -0.50967  -0.50487  -0.49788
 Alpha  occ. eigenvalues --   -0.49352  -0.48806  -0.48673  -0.48279  -0.48143
 Alpha  occ. eigenvalues --   -0.47824  -0.47568  -0.47359  -0.47211  -0.46807
 Alpha  occ. eigenvalues --   -0.46510  -0.46368  -0.46297  -0.46210  -0.45719
 Alpha  occ. eigenvalues --   -0.45249  -0.45154  -0.44854  -0.44584  -0.44265
 Alpha  occ. eigenvalues --   -0.44044  -0.43490  -0.43303  -0.43205  -0.42856
 Alpha  occ. eigenvalues --   -0.42823  -0.42353  -0.42188  -0.42079  -0.41957
 Alpha  occ. eigenvalues --   -0.41713  -0.41149  -0.40647  -0.40310  -0.40268
 Alpha  occ. eigenvalues --   -0.39644  -0.39458  -0.39275  -0.38829  -0.38569
 Alpha  occ. eigenvalues --   -0.37962  -0.37864  -0.37709  -0.37392  -0.37205
 Alpha  occ. eigenvalues --   -0.37010  -0.35450  -0.34933  -0.34487  -0.33719
 Alpha  occ. eigenvalues --   -0.32860  -0.32335  -0.32170  -0.31826  -0.30915
 Alpha  occ. eigenvalues --   -0.29684  -0.27922  -0.24408  -0.19523
 Alpha virt. eigenvalues --   -0.06515  -0.00804   0.03007   0.05053   0.06923
 Alpha virt. eigenvalues --    0.09328   0.09655   0.10191   0.11519   0.11598
 Alpha virt. eigenvalues --    0.11912   0.12670   0.12739   0.13154   0.13940
 Alpha virt. eigenvalues --    0.14039   0.14622   0.14930   0.15032   0.15476
 Alpha virt. eigenvalues --    0.15699   0.15858   0.16107   0.16371   0.17056
 Alpha virt. eigenvalues --    0.17445   0.17498   0.17673   0.17774   0.18053
 Alpha virt. eigenvalues --    0.18586   0.18645   0.18772   0.18985   0.19313
 Alpha virt. eigenvalues --    0.19877   0.20031   0.20237   0.20414   0.20732
 Alpha virt. eigenvalues --    0.20887   0.21227   0.21255   0.21470   0.21559
 Alpha virt. eigenvalues --    0.21943   0.22119   0.22327   0.22895   0.23057
 Alpha virt. eigenvalues --    0.23446   0.23851   0.24325   0.24572   0.24665
 Alpha virt. eigenvalues --    0.25002   0.25114   0.25181   0.25422   0.25885
 Alpha virt. eigenvalues --    0.26012   0.26134   0.26680   0.26816   0.27168
 Alpha virt. eigenvalues --    0.27284   0.27502   0.27574   0.28026   0.28698
 Alpha virt. eigenvalues --    0.28885   0.29248   0.29425   0.29466   0.29823
 Alpha virt. eigenvalues --    0.29957   0.30290   0.30891   0.31167   0.31354
 Alpha virt. eigenvalues --    0.31553   0.31809   0.32374   0.32537   0.32979
 Alpha virt. eigenvalues --    0.33582   0.34133   0.36406   0.36583   0.36876
 Alpha virt. eigenvalues --    0.37037   0.37390   0.38133   0.38424   0.38914
 Alpha virt. eigenvalues --    0.39975   0.40371   0.41329   0.41944   0.42113
 Alpha virt. eigenvalues --    0.43243   0.43346   0.45280   0.46165   0.46553
 Alpha virt. eigenvalues --    0.47465   0.48555   0.49497   0.50808   0.51889
 Alpha virt. eigenvalues --    0.53467   0.53777   0.54693   0.55129   0.55653
 Alpha virt. eigenvalues --    0.56110   0.56630   0.56902   0.57500   0.57896
 Alpha virt. eigenvalues --    0.58169   0.58733   0.59064   0.59735   0.60155
 Alpha virt. eigenvalues --    0.60264   0.60547   0.60907   0.60982   0.61394
 Alpha virt. eigenvalues --    0.61525   0.61910   0.62265   0.62493   0.62735
 Alpha virt. eigenvalues --    0.62936   0.63253   0.63640   0.63853   0.63964
 Alpha virt. eigenvalues --    0.64392   0.64429   0.64774   0.65012   0.65352
 Alpha virt. eigenvalues --    0.65610   0.65852   0.66071   0.66272   0.66739
 Alpha virt. eigenvalues --    0.67263   0.67460   0.67681   0.67868   0.68610
 Alpha virt. eigenvalues --    0.68727   0.68987   0.69158   0.70060   0.70320
 Alpha virt. eigenvalues --    0.70717   0.71000   0.71484   0.71640   0.71902
 Alpha virt. eigenvalues --    0.71991   0.72624   0.73360   0.73471   0.73900
 Alpha virt. eigenvalues --    0.74426   0.74592   0.75343   0.75780   0.76102
 Alpha virt. eigenvalues --    0.76211   0.76467   0.76946   0.77185   0.77777
 Alpha virt. eigenvalues --    0.77977   0.78179   0.78368   0.78874   0.79625
 Alpha virt. eigenvalues --    0.79787   0.79993   0.80329   0.81223   0.81644
 Alpha virt. eigenvalues --    0.81854   0.81941   0.82352   0.82828   0.83143
 Alpha virt. eigenvalues --    0.83376   0.83805   0.84036   0.84275   0.84522
 Alpha virt. eigenvalues --    0.84895   0.85242   0.85843   0.85946   0.86025
 Alpha virt. eigenvalues --    0.86528   0.86731   0.86835   0.87252   0.87862
 Alpha virt. eigenvalues --    0.88369   0.88577   0.88705   0.89090   0.89380
 Alpha virt. eigenvalues --    0.89595   0.89720   0.89979   0.90273   0.90619
 Alpha virt. eigenvalues --    0.90731   0.91222   0.91480   0.91619   0.91867
 Alpha virt. eigenvalues --    0.91975   0.92368   0.92834   0.93068   0.93295
 Alpha virt. eigenvalues --    0.93384   0.94205   0.94862   0.95040   0.95057
 Alpha virt. eigenvalues --    0.95563   0.95702   0.95806   0.97049   0.97431
 Alpha virt. eigenvalues --    0.97609   0.97715   0.98109   0.98738   0.98963
 Alpha virt. eigenvalues --    0.99185   0.99261   0.99643   0.99841   1.00089
 Alpha virt. eigenvalues --    1.00910   1.00934   1.01282   1.01405   1.01916
 Alpha virt. eigenvalues --    1.02082   1.02768   1.02919   1.03040   1.03438
 Alpha virt. eigenvalues --    1.03726   1.04012   1.04180   1.05259   1.06026
 Alpha virt. eigenvalues --    1.06097   1.06826   1.06887   1.07394   1.07656
 Alpha virt. eigenvalues --    1.08004   1.08408   1.08574   1.08923   1.09720
 Alpha virt. eigenvalues --    1.09796   1.10444   1.11075   1.11493   1.12324
 Alpha virt. eigenvalues --    1.12593   1.12835   1.13195   1.13669   1.14326
 Alpha virt. eigenvalues --    1.14917   1.16037   1.16747   1.16909   1.17759
 Alpha virt. eigenvalues --    1.18059   1.18438   1.18973   1.19810   1.20505
 Alpha virt. eigenvalues --    1.20798   1.22104   1.22713   1.23951   1.24133
 Alpha virt. eigenvalues --    1.24523   1.24970   1.26531   1.27219   1.27940
 Alpha virt. eigenvalues --    1.28378   1.28610   1.29043   1.29146   1.29993
 Alpha virt. eigenvalues --    1.31086   1.31705   1.32340   1.33198   1.34222
 Alpha virt. eigenvalues --    1.34416   1.34768   1.36433   1.36611   1.37485
 Alpha virt. eigenvalues --    1.38405   1.38986   1.39221   1.39685   1.39949
 Alpha virt. eigenvalues --    1.40151   1.41118   1.41813   1.42753   1.43514
 Alpha virt. eigenvalues --    1.44645   1.45893   1.46920   1.47193   1.48101
 Alpha virt. eigenvalues --    1.48822   1.48901   1.50232   1.51071   1.52862
 Alpha virt. eigenvalues --    1.52976   1.53797   1.54053   1.54810   1.55472
 Alpha virt. eigenvalues --    1.56017   1.56465   1.57326   1.57890   1.58336
 Alpha virt. eigenvalues --    1.59235   1.59438   1.59621   1.60316   1.60638
 Alpha virt. eigenvalues --    1.61166   1.61848   1.62505   1.63025   1.64817
 Alpha virt. eigenvalues --    1.65702   1.65920   1.67087   1.67949   1.68070
 Alpha virt. eigenvalues --    1.68792   1.69500   1.70147   1.70192   1.71466
 Alpha virt. eigenvalues --    1.72253   1.73253   1.73885   1.74057   1.75815
 Alpha virt. eigenvalues --    1.76798   1.77589   1.77894   1.78240   1.78453
 Alpha virt. eigenvalues --    1.79787   1.81035   1.81354   1.81683   1.81991
 Alpha virt. eigenvalues --    1.82173   1.82781   1.83047   1.83351   1.83911
 Alpha virt. eigenvalues --    1.83957   1.84531   1.85318   1.85490   1.86039
 Alpha virt. eigenvalues --    1.86061   1.86685   1.87415   1.88275   1.88393
 Alpha virt. eigenvalues --    1.88793   1.89236   1.89678   1.89770   1.90223
 Alpha virt. eigenvalues --    1.90696   1.90920   1.91458   1.91813   1.92101
 Alpha virt. eigenvalues --    1.92819   1.93205   1.93994   1.94102   1.94656
 Alpha virt. eigenvalues --    1.95069   1.95339   1.95588   1.95849   1.96561
 Alpha virt. eigenvalues --    1.97034   1.97449   1.97822   1.98004   1.98518
 Alpha virt. eigenvalues --    1.99025   1.99191   2.00055   2.00213   2.00304
 Alpha virt. eigenvalues --    2.00582   2.01338   2.01790   2.02361   2.02713
 Alpha virt. eigenvalues --    2.03259   2.04315   2.04490   2.05093   2.05266
 Alpha virt. eigenvalues --    2.05363   2.05635   2.05853   2.06421   2.06818
 Alpha virt. eigenvalues --    2.07070   2.07319   2.08339   2.08410   2.09461
 Alpha virt. eigenvalues --    2.09907   2.10372   2.10486   2.10624   2.11049
 Alpha virt. eigenvalues --    2.11555   2.11824   2.12276   2.12589   2.12809
 Alpha virt. eigenvalues --    2.13509   2.14282   2.14569   2.14671   2.14880
 Alpha virt. eigenvalues --    2.15262   2.15362   2.16384   2.16686   2.17005
 Alpha virt. eigenvalues --    2.17194   2.17773   2.17974   2.18218   2.18453
 Alpha virt. eigenvalues --    2.18774   2.19395   2.19808   2.19889   2.20233
 Alpha virt. eigenvalues --    2.21019   2.21409   2.21814   2.21953   2.22414
 Alpha virt. eigenvalues --    2.22457   2.23406   2.23912   2.24744   2.24960
 Alpha virt. eigenvalues --    2.25417   2.25539   2.26077   2.26222   2.26626
 Alpha virt. eigenvalues --    2.26940   2.27181   2.28251   2.28419   2.28748
 Alpha virt. eigenvalues --    2.29260   2.30719   2.31015   2.31115   2.31666
 Alpha virt. eigenvalues --    2.32127   2.32400   2.32836   2.32857   2.34217
 Alpha virt. eigenvalues --    2.34624   2.35021   2.35635   2.36432   2.36523
 Alpha virt. eigenvalues --    2.37107   2.37445   2.37836   2.38474   2.38579
 Alpha virt. eigenvalues --    2.39030   2.39706   2.40045   2.40605   2.40871
 Alpha virt. eigenvalues --    2.41581   2.41871   2.42139   2.42747   2.43732
 Alpha virt. eigenvalues --    2.44171   2.44685   2.45323   2.45705   2.45919
 Alpha virt. eigenvalues --    2.46322   2.46493   2.46937   2.47696   2.47920
 Alpha virt. eigenvalues --    2.48214   2.48934   2.50039   2.50315   2.50745
 Alpha virt. eigenvalues --    2.50925   2.51393   2.51596   2.52107   2.53062
 Alpha virt. eigenvalues --    2.54014   2.54460   2.54953   2.55319   2.55618
 Alpha virt. eigenvalues --    2.56114   2.56269   2.57247   2.57757   2.58532
 Alpha virt. eigenvalues --    2.58903   2.59289   2.59800   2.59899   2.60064
 Alpha virt. eigenvalues --    2.60468   2.60977   2.61636   2.62431   2.62892
 Alpha virt. eigenvalues --    2.63609   2.64051   2.64223   2.64652   2.65109
 Alpha virt. eigenvalues --    2.65734   2.66080   2.66167   2.66304   2.67160
 Alpha virt. eigenvalues --    2.67372   2.67696   2.68187   2.68890   2.69244
 Alpha virt. eigenvalues --    2.69442   2.70089   2.70311   2.70757   2.70997
 Alpha virt. eigenvalues --    2.71347   2.71582   2.72011   2.72739   2.73323
 Alpha virt. eigenvalues --    2.73616   2.73793   2.74043   2.74429   2.74968
 Alpha virt. eigenvalues --    2.75197   2.75326   2.75894   2.76600   2.77381
 Alpha virt. eigenvalues --    2.78187   2.78874   2.79206   2.80018   2.80660
 Alpha virt. eigenvalues --    2.80969   2.81330   2.82345   2.82686   2.82828
 Alpha virt. eigenvalues --    2.82940   2.83155   2.83992   2.84573   2.85032
 Alpha virt. eigenvalues --    2.86408   2.86698   2.87032   2.87596   2.87973
 Alpha virt. eigenvalues --    2.88715   2.89143   2.89598   2.89801   2.90164
 Alpha virt. eigenvalues --    2.90535   2.90589   2.91682   2.92091   2.93176
 Alpha virt. eigenvalues --    2.94188   2.94432   2.95121   2.95698   2.96378
 Alpha virt. eigenvalues --    2.96509   2.96566   2.96948   2.97325   2.98155
 Alpha virt. eigenvalues --    2.99018   2.99718   3.00041   3.00356   3.00464
 Alpha virt. eigenvalues --    3.00886   3.01899   3.02781   3.03536   3.04399
 Alpha virt. eigenvalues --    3.04528   3.05713   3.05874   3.06667   3.07994
 Alpha virt. eigenvalues --    3.09386   3.10114   3.10556   3.10912   3.11219
 Alpha virt. eigenvalues --    3.12017   3.12627   3.12900   3.13845   3.14494
 Alpha virt. eigenvalues --    3.15021   3.17263   3.17575   3.19607   3.19832
 Alpha virt. eigenvalues --    3.20752   3.22741   3.22891   3.23792   3.24807
 Alpha virt. eigenvalues --    3.24973   3.25601   3.31855   3.32880   3.33321
 Alpha virt. eigenvalues --    3.34636   3.37131   3.37418   3.39430   3.39643
 Alpha virt. eigenvalues --    3.39796   3.40543   3.41396   3.41652   3.41924
 Alpha virt. eigenvalues --    3.42407   3.43675   3.44520   3.45379   3.46526
 Alpha virt. eigenvalues --    3.46974   3.47615   3.47925   3.48872   3.49709
 Alpha virt. eigenvalues --    3.49934   3.51391   3.52297   3.52345   3.53701
 Alpha virt. eigenvalues --    3.54271   3.54651   3.56366   3.57225   3.57640
 Alpha virt. eigenvalues --    3.58257   3.59011   3.59834   3.61841   3.64519
 Alpha virt. eigenvalues --    3.65091   3.65584   3.66666   3.67510   3.67992
 Alpha virt. eigenvalues --    3.71160   3.71423   3.75159   3.79185   3.82906
 Alpha virt. eigenvalues --    3.85484   3.90471   4.02594   4.04091   4.10133
 Alpha virt. eigenvalues --    4.14552   4.19801   4.20214   4.20913   4.21431
 Alpha virt. eigenvalues --    4.22353   4.26325   4.27399   4.30679   4.32856
 Alpha virt. eigenvalues --    4.34264   4.37835   4.39800   4.43103   4.43874
 Alpha virt. eigenvalues --    4.45168   4.47692   4.50840   4.52878   4.54295
 Alpha virt. eigenvalues --    4.54418   4.55015   4.58293   4.59092   4.61246
 Alpha virt. eigenvalues --    4.62571   4.64621   4.69246   4.70308   4.71834
 Alpha virt. eigenvalues --    4.74728   4.76287   4.80472   4.81477   4.84381
 Alpha virt. eigenvalues --    4.85914   4.86668   4.90012   4.92090   4.95113
 Alpha virt. eigenvalues --    4.99839
          Condensed to atoms (all electrons):
 Mulliken charges:
               1
     1  O   -0.483308
     2  O   -0.537127
     3  O   -0.580162
     4  O   -0.546178
     5  C    0.190357
     6  C    0.243041
     7  C    0.006018
     8  C   -0.215551
     9  C   -0.175528
    10  C    0.144078
    11  C   -0.348782
    12  C   -0.101566
    13  C   -0.296647
    14  C   -0.310824
    15  C   -0.105506
    16  C    0.050921
    17  C   -0.363636
    18  C   -0.086911
    19  C   -0.054336
    20  C   -0.008098
    21  C    0.233766
    22  C   -0.218199
    23  C    0.161110
    24  C   -0.182264
    25  C   -0.082193
    26  C   -0.265102
    27  C   -0.299900
    28  C   -0.282436
    29  C   -0.160189
    30  C    0.136664
    31  C    0.127607
    32  C   -0.274182
    33  C   -0.367286
    34  C   -0.092723
    35  C    0.126268
    36  C   -0.366429
    37  C   -0.126719
    38  C   -0.088494
    39  C   -0.089902
    40  C   -0.103361
    41  C   -0.097192
    42  C   -0.115543
    43  C    0.112392
    44  C   -0.365614
    45  H    0.106704
    46  H    0.114878
    47  H    0.053665
    48  H    0.098580
    49  H    0.097877
    50  H    0.118807
    51  H    0.103709
    52  H    0.112957
    53  H    0.097033
    54  H    0.127604
    55  H    0.110901
    56  H    0.094409
    57  H    0.139355
    58  H    0.074001
    59  H    0.098881
    60  H    0.305863
    61  H    0.080272
    62  H    0.117622
    63  H    0.132665
    64  H    0.110447
    65  H    0.079081
    66  H    0.094113
    67  H    0.083632
    68  H    0.103825
    69  H    0.093152
    70  H    0.109097
    71  H    0.111225
    72  H    0.093076
    73  H    0.109133
    74  H    0.088201
    75  H    0.123946
    76  H    0.117960
    77  H    0.089735
    78  H    0.122356
    79  H    0.092241
    80  H    0.119433
    81  H    0.098556
    82  H    0.295998
    83  H    0.311287
    84  H    0.117173
    85  H    0.092176
    86  H    0.126407
    87  H    0.089662
    88  H    0.076863
    89  H    0.109493
    90  H    0.135022
    91  H    0.088246
    92  H    0.066886
    93  H    0.078289
    94  H    0.093847
    95  H    0.057878
    96  H    0.089080
    97  H    0.059727
    98  H    0.123324
    99  H    0.111824
   100  H    0.111492
 Sum of Mulliken charges =  -0.00000
 Mulliken charges with hydrogens summed into heavy atoms:
               1
     1  O   -0.483308
     2  O   -0.231265
     3  O   -0.284164
     4  O   -0.234891
     5  C    0.190357
     6  C    0.243041
     7  C    0.006018
     8  C    0.006031
     9  C   -0.023283
    10  C    0.241955
    11  C   -0.013309
    12  C   -0.004533
    13  C    0.036268
    14  C    0.001412
    15  C   -0.025234
    16  C    0.050921
    17  C   -0.002901
    18  C   -0.007830
    19  C    0.039777
    20  C   -0.008098
    21  C    0.233766
    22  C   -0.030742
    23  C    0.254262
    24  C    0.038058
    25  C   -0.082193
    26  C    0.025309
    27  C    0.031742
    28  C    0.051595
    29  C   -0.061634
    30  C    0.136664
    31  C    0.127607
    32  C   -0.157009
    33  C   -0.059040
    34  C   -0.015860
    35  C    0.126268
    36  C   -0.033667
    37  C   -0.059833
    38  C   -0.010206
    39  C    0.003945
    40  C   -0.045483
    41  C   -0.008112
    42  C   -0.055816
    43  C    0.112392
    44  C   -0.018974
 Electronic spatial extent (au):  <R**2>=         114540.6186
 Charge=             -0.0000 electrons
 Dipole moment (field-independent basis, Debye):
    X=              4.2640    Y=              0.2193    Z=              2.9729  Tot=              5.2026
 Quadrupole moment (field-independent basis, Debye-Ang):
   XX=           -264.3379   YY=           -265.6763   ZZ=           -277.4722
   XY=             -7.9574   XZ=             31.2547   YZ=             -2.3475
 Traceless Quadrupole moment (field-independent basis, Debye-Ang):
   XX=              4.8242   YY=              3.4858   ZZ=             -8.3101
   XY=             -7.9574   XZ=             31.2547   YZ=             -2.3475
 Octapole moment (field-independent basis, Debye-Ang**2):
  XXX=           1273.2915  YYY=             19.8757  ZZZ=              2.7517  XYY=            100.5032
  XXY=             90.1709  XXZ=            447.2514  XZZ=             26.9444  YZZ=            -12.3836
  YYZ=            -18.1440  XYZ=           -145.2515
 Hexadecapole moment (field-independent basis, Debye-Ang**3):
 XXXX=        -143250.4710 YYYY=          -3810.2857 ZZZZ=          -2380.0069 XXXY=          -3475.0649
 XXXZ=           6442.6135 YYYX=           -373.2942 YYYZ=              2.0326 ZZZX=             47.7597
 ZZZY=            -17.4067 XXYY=         -26087.0463 XXZZ=         -25471.6430 YYZZ=          -1074.2707
 XXYZ=             74.4237 YYXZ=            234.4116 ZZXY=             35.5881
 N-N= 4.455285571144D+03 E-N=-1.322057039355D+04  KE= 1.839705002659D+03
 1\1\GINC-RYZEN-SSD3\SP\RCAM-B3LYP TD-FC\6-31G(d,p)\C40H56O4\PADAWAN\30
 -Jul-2019\0\\# td=(NStates=1) CAM-B3LYP/6-31G(d,p)\\TD\\0,1\O,0,-11.81
 82184894,0.3754381922,-1.373074471\O,0,-12.7548063164,-2.7264309511,1.
 3989055756\O,0,10.6029858185,-1.2560454924,-2.0753512614\O,0,14.473600
 7268,-1.0877174932,0.0138568983\C,0,-11.0765258198,-0.0972436791,-0.26
 3135738\C,0,-11.7056368534,-0.996360816,-1.2307219125\C,0,-11.72832487
 55,0.1729439772,1.1867383288\C,0,-13.0839035941,-1.6605562135,-0.89574
 12081\C,0,-13.1394324012,-0.2379812457,1.1683215201\C,0,-13.3932357571
 ,-1.6715086887,0.7080295703\C,0,-11.0073763263,-1.7609815157,-2.320834
 4017\C,0,-9.6306125051,0.2138985237,-0.4039673548\C,0,-10.8768336608,-
 0.4745130473,2.3121662837\C,0,-11.6930696873,1.7225273558,1.2869767894
 \C,0,-8.6139848202,-0.7672547667,-0.286129874\C,0,-7.2015781474,-0.548
 8467308,-0.2157438741\C,0,-6.3305370686,-1.6593146203,0.3269249288\C,0
 ,-6.5785235141,0.7220130312,-0.4401225675\C,0,-5.2758675284,0.95327736
 44,-0.2264369739\C,0,11.9026995169,0.045084538,1.3342429524\C,0,11.688
 5361437,-0.6677529305,-1.1972936091\C,0,12.5350507332,-1.2645806878,1.
 6606407975\C,0,13.3643511218,-1.8773822716,0.415775542\C,0,12.42813774
 85,-1.9799425033,-0.7549494574\C,0,11.0543523231,-0.0616314152,0.05396
 25766\C,0,11.0184332482,0.3650531473,2.5323855788\C,0,12.8450776245,1.
 2726904898,1.3268257336\C,0,12.5648427905,0.280746948,-1.9632602738\C,
 0,-4.7529017859,2.2309055966,-0.4839832472\C,0,9.8060017877,0.42604340
 71,-0.0389550722\C,0,-3.3914843068,2.542953049,-0.5164819089\C,0,8.632
 0129873,1.0105673905,-0.1767920192\C,0,-2.9821499001,3.9556970292,-0.8
 874884809\C,0,-2.3685237675,1.6479166404,-0.2696895037\C,0,7.420731615
 7,0.1295735454,0.0348342993\C,0,7.5548302195,-1.2814851006,0.218261749
 1\C,0,6.2221935674,0.7688538157,-0.1866926053\C,0,-1.0288870202,1.9660
 157253,-0.2651046856\C,0,4.9182434271,0.198618978,-0.0693455658\C,0,0.
 0858650655,1.1120445144,-0.1163407369\C,0,3.8527546832,0.9271030607,-0
 .3879562646\C,0,1.4890708479,1.2986415919,-0.2658889698\C,0,2.47540544
 1,0.4838676865,-0.0647131134\C,0,2.1660364653,-0.9778919695,0.35547414
 1\H,0,-13.0572475256,-2.7132042982,-1.1414293669\H,0,-13.8447496987,-1
 .040848069,-1.4292793826\H,0,-13.5476125635,-0.1419871299,2.3691195947
 \H,0,-14.1610054941,0.3264077679,0.8026679324\H,0,-14.4072380279,-1.73
 02317366,0.8460262069\H,0,-10.7540440213,-2.7375205349,-2.105225818\H,
 0,-11.6631665256,-1.7414089323,-3.292557542\H,0,-10.0510872922,-1.2644
 656552,-2.7486564781\H,0,-9.3747561304,1.3506571967,-0.4046242725\H,0,
 -10.0098423118,0.1163929034,2.1420599488\H,0,-11.3107564365,-0.2440477
 032,3.3852068708\H,0,-10.6797686706,-1.5450413806,2.2137921689\H,0,-12
 .0406166042,2.2860547275,0.4798111971\H,0,-12.3176480042,2.09554513,2.
 2734310549\H,0,-10.6953898211,2.0600365942,1.4899732908\H,0,-11.798482
 9208,-2.414824356,1.3359580747\H,0,-9.0603568776,-1.8204003977,-0.2789
 68798\H,0,-5.6469941455,-2.0411874438,-0.4702550699\H,0,-5.7402164369,
 -1.3515903916,1.2011085071\H,0,-6.8974198526,-2.4500172747,0.357851936
 \H,0,-7.2351648276,1.6471030394,-0.6325129278\H,0,-4.6251491596,0.0617
 447929,0.1741036347\H,0,13.0893646136,-1.047266414,2.5688718278\H,0,11
 .8311082878,-2.0876381438,1.9068966894\H,0,13.5281451714,-2.879899655,
 0.6109180177\H,0,12.8908765262,-2.5056270412,-1.6507581705\H,0,11.5495
 949677,-2.5108802119,-0.3540807502\H,0,11.5394135496,0.1168220489,3.29
 68347222\H,0,10.7533323109,1.2940249656,2.4553430585\H,0,10.2182194431
 ,-0.2857268872,2.8423104722\H,0,13.6182187238,0.9768663108,0.798173882
 2\H,0,12.3721398272,2.1452439622,0.9301077165\H,0,13.2233781749,1.2900
 234814,2.378424324\H,0,12.9597267922,-0.0825348631,-2.8499774496\H,0,1
 1.8485019186,1.0260146924,-2.227840719\H,0,13.2704278754,0.8103070836,
 -1.2762131067\H,0,-5.4785400779,3.079682355,-0.3586972805\H,0,9.878669
 1175,-0.6975084084,-2.1582581616\H,0,15.154768322,-1.0141612305,0.8094
 895483\H,0,8.3453663874,2.0054328705,-0.6172490021\H,0,-2.4472298072,4
 .4912955793,0.1195377835\H,0,-2.1468934536,4.0947567005,-1.6438974988\
 H,0,-3.9138077659,4.636431825,-1.2771075123\H,0,-2.6430239225,0.639446
 1566,-0.0658095356\H,0,6.5588486348,-1.7400935715,0.0561581005\H,0,8.4
 913043449,-1.6149962244,-0.283929167\H,0,7.7859685185,-1.5161739458,1.
 4303467956\H,0,6.3777329204,1.9544792533,-0.2948415039\H,0,-0.62455381
 24,2.9285168952,-0.6364235539\H,0,4.8682628127,-0.9148779845,0.3078734
 684\H,0,-0.0758165049,0.0888970768,0.3999526064\H,0,3.9962187898,1.918
 0974459,-0.6514973747\H,0,1.7288197572,2.3336191538,-0.6751402124\H,0,
 1.1656453993,-1.4401006143,0.049033899\H,0,3.0578271075,-1.4605423557,
 -0.0945872287\H,0,2.2669533917,-1.0453687659,1.5321064972\\Version=ES6
 4L-G16RevA.03\State=1-A\HF=-1857.3316368\RMSD=6.610e-09\PG=C01 [X(C40H
 56O4)]\\@


 DIATOMIC MOLECULES ARE PECULIAR BECAUSE THEY ONLY HAVE TWO ENDS,
 AND THESE ENDS ARE VERY CLOSE TOGETHER.
 KLAUS RUEDENBERG, REV.MOD.PHYS. PG 176, 32, (1960)
 Job cpu time:       0 days  6 hours 49 minutes 35.7 seconds.
 Elapsed time:       0 days  2 hours 16 minutes 52.7 seconds.
 File lengths (MBytes):  RWF=   3379 Int=      0 D2E=      0 Chk=     90 Scr=      1
 Normal termination of Gaussian 16 at Tue Jul 30 04:40:19 2019.
