 Entering Gaussian System, Link 0=g16
 Input=Geometria-254-.com
 Output=Geometria-254-.log
 Initial command:
 /usr/local/g16/l1.exe "/home/padawan/israel-mol/neoxanthin/spectra/emi/Gau-91797.inp" -scrdir="/home/padawan/israel-mol/neoxanthin/spectra/emi/"
 Entering Link 1 = /usr/local/g16/l1.exe PID=     91799.
  
 Copyright (c) 1988,1990,1992,1993,1995,1998,2003,2009,2016,
            Gaussian, Inc.  All Rights Reserved.
  
 This is part of the Gaussian(R) 16 program.  It is based on
 the Gaussian(R) 09 system (copyright 2009, Gaussian, Inc.),
 the Gaussian(R) 03 system (copyright 2003, Gaussian, Inc.),
 the Gaussian(R) 98 system (copyright 1998, Gaussian, Inc.),
 the Gaussian(R) 94 system (copyright 1995, Gaussian, Inc.),
 the Gaussian 92(TM) system (copyright 1992, Gaussian, Inc.),
 the Gaussian 90(TM) system (copyright 1990, Gaussian, Inc.),
 the Gaussian 88(TM) system (copyright 1988, Gaussian, Inc.),
 the Gaussian 86(TM) system (copyright 1986, Carnegie Mellon
 University), and the Gaussian 82(TM) system (copyright 1983,
 Carnegie Mellon University). Gaussian is a federally registered
 trademark of Gaussian, Inc.
  
 This software contains proprietary and confidential information,
 including trade secrets, belonging to Gaussian, Inc.
  
 This software is provided under written license and may be
 used, copied, transmitted, or stored only in accord with that
 written license.
  
 The following legend is applicable only to US Government
 contracts under FAR:
  
                    RESTRICTED RIGHTS LEGEND
  
 Use, reproduction and disclosure by the US Government is
 subject to restrictions as set forth in subparagraphs (a)
 and (c) of the Commercial Computer Software - Restricted
 Rights clause in FAR 52.227-19.
  
 Gaussian, Inc.
 340 Quinnipiac St., Bldg. 40, Wallingford CT 06492
  
  
 ---------------------------------------------------------------
 Warning -- This program may not be used in any manner that
 competes with the business of Gaussian, Inc. or will provide
 assistance to any competitor of Gaussian, Inc.  The licensee
 of this program is prohibited from giving any competitor of
 Gaussian, Inc. access to this program.  By using this program,
 the user acknowledges that Gaussian, Inc. is engaged in the
 business of creating and licensing software in the field of
 computational chemistry and represents and warrants to the
 licensee that it is not a competitor of Gaussian, Inc. and that
 it will not use this program in any manner prohibited above.
 ---------------------------------------------------------------
  

 Cite this work as:
 Gaussian 16, Revision A.03,
 M. J. Frisch, G. W. Trucks, H. B. Schlegel, G. E. Scuseria, 
 M. A. Robb, J. R. Cheeseman, G. Scalmani, V. Barone, 
 G. A. Petersson, H. Nakatsuji, X. Li, M. Caricato, A. V. Marenich, 
 J. Bloino, B. G. Janesko, R. Gomperts, B. Mennucci, H. P. Hratchian, 
 J. V. Ortiz, A. F. Izmaylov, J. L. Sonnenberg, D. Williams-Young, 
 F. Ding, F. Lipparini, F. Egidi, J. Goings, B. Peng, A. Petrone, 
 T. Henderson, D. Ranasinghe, V. G. Zakrzewski, J. Gao, N. Rega, 
 G. Zheng, W. Liang, M. Hada, M. Ehara, K. Toyota, R. Fukuda, 
 J. Hasegawa, M. Ishida, T. Nakajima, Y. Honda, O. Kitao, H. Nakai, 
 T. Vreven, K. Throssell, J. A. Montgomery, Jr., J. E. Peralta, 
 F. Ogliaro, M. J. Bearpark, J. J. Heyd, E. N. Brothers, K. N. Kudin, 
 V. N. Staroverov, T. A. Keith, R. Kobayashi, J. Normand, 
 K. Raghavachari, A. P. Rendell, J. C. Burant, S. S. Iyengar, 
 J. Tomasi, M. Cossi, J. M. Millam, M. Klene, C. Adamo, R. Cammi, 
 J. W. Ochterski, R. L. Martin, K. Morokuma, O. Farkas, 
 J. B. Foresman, and D. J. Fox, Gaussian, Inc., Wallingford CT, 2016.
 
 ******************************************
 Gaussian 16:  ES64L-G16RevA.03 25-Dec-2016
                31-Jul-2019 
 ******************************************
 %nproc=3
 Will use up to    3 processors via shared memory.
 %Mem=2GB
 -------------------------------------
 # td=(NStates=1) CAM-B3LYP/6-31G(d,p)
 -------------------------------------
 1/38=1,172=1/1;
 2/12=2,17=6,18=5,40=1/2;
 3/5=1,6=6,7=101,11=9,25=1,30=1,74=-40/1,2,3,8;
 4//1;
 5/5=2,38=5/2;
 8/6=1,10=2,108=1/1;
 9/41=1,42=1,70=2/14;
 6/7=2,8=2,9=2,10=2/1;
 99/5=1,9=1/99;
 --
 TD
 --
 Symbolic Z-matrix:
 Charge =  0 Multiplicity = 1
 8                    -11.83491   0.23675  -1.53016 
 8                    -13.21299  -2.56807   1.29265 
 8                     10.43767  -1.14448  -2.07251 
 8                     14.46144  -1.12361  -0.36865 
 6                    -11.0795  -0.12212  -0.3577 
 6                    -11.64555  -1.12855  -1.21102 
 6                    -11.86552   0.21312   0.901 
 6                    -13.01463  -1.77307  -0.97804 
 6                    -13.31929  -0.11027   0.89265 
 6                    -13.61546  -1.50551   0.32659 
 6                    -10.69495  -1.93826  -2.11503 
 6                    -9.53958   0.06239  -0.33918 
 6                    -11.25231  -0.15613   2.26657 
 6                    -11.76925   1.72023   0.94447 
 6                    -8.53332  -0.7831    0.06461 
 6                    -7.21243  -0.55457   0.12509 
 6                    -6.30199  -1.73733   0.49849 
 6                    -6.70628   0.75591  -0.10539 
 6                    -5.27537   0.93093  -0.05083 
 6                     12.19009   0.06988   1.31633 
 6                     11.60538  -0.71983  -1.28446 
 6                     12.8148  -1.29422   1.46171 
 6                     13.36152  -1.90645   0.20375 
 6                     12.25168  -1.97879  -0.80441 
 6                     11.13526   0.08828   0.05226 
 6                     11.29208   0.31064   2.58185 
 6                     13.16053   1.20196   1.21904 
 6                     12.46133   0.13633  -2.11221 
 6                    -4.71295   2.221    -0.31065 
 6                     9.9285    0.61301   0.15968 
 6                    -3.38867   2.57968  -0.47012 
 6                     8.69462   1.04653  -0.14942 
 6                    -3.00884   4.02685  -0.69841 
 6                    -2.3217    1.61459  -0.14742 
 6                     7.51806   0.14758   0.12411 
 6                     7.7391   -1.21478   0.4451 
 6                     6.27665   0.81075  -0.05467 
 6                    -1.01912   1.95732  -0.25416 
 6                     5.00161   0.16385   0.06124 
 6                    -0.02917   1.04466  -0.18151 
 6                     3.83582   0.916    -0.14865 
 6                     1.39658   1.27442  -0.16527 
 6                     2.48414   0.48529   0.00147 
 6                     2.34721  -0.99392   0.30263 
 1                    -13.15528  -2.8886   -0.91313 
 1                    -13.75904  -1.35149  -1.55162 
 1                    -13.63875   0.00832   1.75792 
 1                    -14.02112   0.5871    0.15667 
 1                    -14.8114  -1.62599   0.13464 
 1                    -10.31528  -3.09153  -1.83617 
 1                    -11.24602  -2.3522   -3.00478 
 1                    -10.02475  -1.28937  -2.39028 
 1                    -9.37822   1.2008   -0.56305 
 1                    -10.23542   0.0985    2.4372 
 1                    -11.91876   0.61705   3.03022 
 1                    -11.33622  -1.32525   2.44484 
 1                    -12.12638   2.13684  -0.14962 
 1                    -12.53139   2.00037   1.52968 
 1                    -10.78403   1.99164   1.05684 
 1                    -12.20001  -2.5459    1.08135 
 1                    -8.8447   -1.88398   0.27227 
 1                    -5.72909  -2.19632  -0.32351 
 1                    -5.82975  -1.51604   1.4192 
 1                    -7.18045  -2.35689   0.77277 
 1                    -7.28454   1.68235  -0.1567 
 1                    -4.70787  -0.02513  -0.07373 
 1                     13.35057  -1.15851   2.26031 
 1                     11.8166  -1.93825   1.6868 
 1                     13.53258  -3.03681   0.44316 
 1                     12.53955  -2.40884  -1.79406 
 1                     11.42631  -2.76265  -0.36854 
 1                     12.11302   0.46939   3.33109 
 1                     10.72254   1.27702   2.42381 
 1                     10.65666  -0.52463   2.76358 
 1                     13.86526   1.02946   0.52724 
 1                     12.57961   2.07489   1.23331 
 1                     13.72071   1.20323   2.26586 
 1                     12.70327  -0.0831   -3.19457 
 1                     12.09907   1.24779  -2.3867 
 1                     13.37363   0.21698  -1.44863 
 1                    -5.41463   2.95174  -0.3993 
 1                     9.92941  -0.28817  -2.08068 
 1                     15.18397  -1.17368   0.29511 
 1                     8.71086   2.19531  -0.35089 
 1                    -2.60758   4.51846   0.23508 
 1                    -2.34405   4.12863  -1.54503 
 1                    -3.97622   4.45751  -0.76507 
 1                    -2.41974   0.65039   0.13792 
 1                     6.76379  -1.85713   0.24511 
 1                     8.58848  -1.65583  -0.08959 
 1                     7.95358  -1.16731   1.47098 
 1                     6.40048   1.87372  -0.2593 
 1                    -0.74553   2.86059  -0.42675 
 1                     4.89528  -0.86283   0.17046 
 1                    -0.17858  -0.1282   -0.17031 
 1                     3.85868   2.05825  -0.17281 
 1                     1.61214   2.32803  -0.51926 
 1                     1.32793  -1.46231  -0.00048 
 1                     3.28493  -1.41595  -0.18775 
 1                     2.38171  -0.96324   1.51529 
 
 Stoichiometry    C40H56O4
 Framework group  C1[X(C40H56O4)]
 Deg. of freedom   294
 Full point group                 C1      NOp   1
 Largest Abelian subgroup         C1      NOp   1
 Largest concise Abelian subgroup C1      NOp   1
                         Standard orientation:                         
 ---------------------------------------------------------------------
 Center     Atomic      Atomic             Coordinates (Angstroms)
 Number     Number       Type             X           Y           Z
 ---------------------------------------------------------------------
      1          8           0      -11.837584    0.188296   -1.531707
      2          8           0      -13.215193   -2.517379    1.386498
      3          8           0       10.433970   -1.221979   -2.040417
      4          8           0       14.458852   -1.144723   -0.340812
      5          6           0      -11.081584   -0.130540   -0.348102
      6          6           0      -11.648678   -1.165361   -1.166055
      7          6           0      -11.866630    0.248057    0.898852
      8          6           0      -13.017914   -1.800815   -0.910247
      9          6           0      -13.320563   -0.074691    0.902518
     10          6           0      -13.617771   -1.488376    0.384820
     11          6           0      -10.699049   -2.006070   -2.042370
     12          6           0       -9.541571    0.053718   -0.336897
     13          6           0      -11.252717   -0.074458    2.275896
     14          6           0      -11.769602    1.755721    0.890557
     15          6           0       -8.535452   -0.777936    0.095011
     16          6           0       -7.214415   -0.548134    0.146791
     17          6           0       -6.304310   -1.717859    0.559958
     18          6           0       -6.707778    0.753409   -0.128811
     19          6           0       -5.276750    0.929473   -0.081187
     20          6           0       12.189169    0.106991    1.303684
     21          6           0       11.602393   -0.771139   -1.268130
     22          6           0       12.813314   -1.251638    1.495362
     23          6           0       13.358926   -1.906912    0.258795
     24          6           0       12.248398   -2.013228   -0.745600
     25          6           0       11.133532    0.082573    0.040393
     26          6           0       11.292097    0.391460    2.560769
     27          6           0       13.160094    1.234585    1.167022
     28          6           0       12.458225    0.055701   -2.125285
     29          6           0       -4.713875    2.209600   -0.385444
     30          6           0        9.927099    0.611286    0.130519
     31          6           0       -3.389532    2.561924   -0.557956
     32          6           0        8.693224    1.034573   -0.192491
     33          6           0       -3.009149    4.000229   -0.835980
     34          6           0       -2.322815    1.607935   -0.203024
     35          6           0        7.516409    0.146121    0.112449
     36          6           0        7.736996   -1.204536    0.479829
     37          6           0        6.275202    0.803400   -0.088187
     38          6           0       -1.020136    1.946146   -0.322282
     39          6           0        4.999928    0.161496    0.050639
     40          6           0       -0.030580    1.036008   -0.218996
     41          6           0        3.834367    0.906602   -0.184185
     42          6           0        1.395289    1.265470   -0.211545
     43          6           0        2.482570    0.481972   -0.018525
     44          6           0        2.345128   -0.985973    0.333264
     45          1           0      -13.159061   -2.913396   -0.807030
     46          1           0      -13.762496   -1.398778   -1.497479
     47          1           0      -13.639406    0.073658    1.763408
     48          1           0      -14.022533    0.597387    0.143498
     49          1           0      -14.813893   -1.614762    0.197862
     50          1           0      -10.319761   -3.149288   -1.724361
     51          1           0      -11.250904   -2.450000   -2.917050
     52          1           0      -10.028723   -1.367338   -2.340129
     53          1           0       -9.379799    1.183699   -0.599774
     54          1           0      -10.235597    0.185362    2.437051
     55          1           0      -11.918294    0.724791    3.013003
     56          1           0      -11.337079   -1.236733    2.494199
     57          1           0      -12.127237    2.134751   -0.216954
     58          1           0      -12.531230    2.056148    1.466291
     59          1           0      -10.784180    2.030330    0.992930
     60          1           0      -12.202340   -2.502982    1.173922
     61          1           0       -8.847228   -1.870891    0.340497
     62          1           0       -5.732162   -2.205057   -0.246182
     63          1           0       -5.831358   -1.465360    1.472238
     64          1           0       -7.182886   -2.327201    0.855878
     65          1           0       -7.285627    1.677837   -0.211491
     66          1           0       -4.709727   -0.027096   -0.071648
     67          1           0       13.349669   -1.088887    2.288500
     68          1           0       11.814947   -1.887065    1.743038
     69          1           0       13.529589   -3.028484    0.536715
     70          1           0       12.535420   -2.477102   -1.720100
     71          1           0       11.422934   -2.781256   -0.282584
     72          1           0       12.113599    0.575394    3.303604
     73          1           0       10.722921    1.352145    2.370041
     74          1           0       10.656394   -0.436764    2.771438
     75          1           0       13.864296    1.038106    0.481092
     76          1           0       12.579606    2.107778    1.151709
     77          1           0       13.720951    1.271470    2.212827
     78          1           0       12.699357   -0.200846   -3.199643
     79          1           0       12.096319    1.157272   -2.437500
     80          1           0       13.370990    0.158593   -1.465441
     81          1           0       -5.415265    2.937219   -0.498663
     82          1           0        9.926123   -0.366190   -2.077626
     83          1           0       15.181789   -1.172363    0.323818
     84          1           0        8.709892    2.175761   -0.433250
     85          1           0       -2.607041    4.523352    0.079849
     86          1           0       -2.344859    4.072578   -1.686009
     87          1           0       -3.976365    4.428839   -0.916756
     88          1           0       -2.421138    0.654130    0.115272
     89          1           0        6.761247   -1.852871    0.302592
     90          1           0        8.585822   -1.664093   -0.039961
     91          1           0        7.952160   -1.122024    1.503339
     92          1           0        6.399409    1.858668   -0.329225
     93          1           0       -0.746221    2.842824   -0.525917
     94          1           0        4.893166   -0.860779    0.195071
     95          1           0       -0.180550   -0.135706   -0.167496
     96          1           0        3.857755    2.047339   -0.247512
     97          1           0        1.611125    2.306212   -0.601598
     98          1           0        1.325423   -1.463966    0.047037
     99          1           0        3.282322   -1.425039   -0.142942
    100          1           0        2.380428   -0.913742    1.544142
 ---------------------------------------------------------------------
 Rotational constants (GHZ):           0.2621133           0.0087849           0.0087009
 Standard basis: 6-31G(d,p) (6D, 7F)
 There are   940 symmetry adapted cartesian basis functions of A   symmetry.
 There are   940 symmetry adapted basis functions of A   symmetry.
   940 basis functions,  1624 primitive gaussians,   940 cartesian basis functions
   164 alpha electrons      164 beta electrons
       nuclear repulsion energy      4450.6482114935 Hartrees.
 NAtoms=  100 NActive=  100 NUniq=  100 SFac= 1.00D+00 NAtFMM=   60 NAOKFM=T Big=T
 Integral buffers will be    131072 words long.
 Raffenetti 1 integral format.
 Two-electron integral symmetry is turned on.
 One-electron integrals computed using PRISM.
 NBasis=   940 RedAO= T EigKep=  6.50D-04  NBF=   940
 NBsUse=   940 1.00D-06 EigRej= -1.00D+00 NBFU=   940
 ExpMin= 1.61D-01 ExpMax= 5.48D+03 ExpMxC= 8.25D+02 IAcc=3 IRadAn=         5 AccDes= 0.00D+00
 Harris functional with IExCor=20419 and IRadAn=       5 diagonalized for initial guess.
 HarFok:  IExCor=20419 AccDes= 0.00D+00 IRadAn=         5 IDoV= 1 UseB2=F ITyADJ=14
 ICtDFT=  3500011 ScaDFX=  1.000000  1.000000  1.000000  1.000000
 FoFCou: FMM=F IPFlag=           0 FMFlag=      100000 FMFlg1=        2001
         NFxFlg=           0 DoJE=T BraDBF=F KetDBF=T FulRan=T
         wScrn=  0.000000 ICntrl=       500 IOpCl=  0 I1Cent=   200000004 NGrid=           0
         NMat0=    1 NMatS0=      1 NMatT0=    0 NMatD0=    1 NMtDS0=    0 NMtDT0=    0
 Petite list used in FoFCou.
 Requested convergence on RMS density matrix=1.00D-08 within 128 cycles.
 Requested convergence on MAX density matrix=1.00D-06.
 Requested convergence on             energy=1.00D-06.
 No special actions if energy rises.
 Integral accuracy reduced to 1.0D-05 until final iterations.
 Initial convergence to 1.0D-05 achieved.  Increase integral accuracy.
 SCF Done:  E(RCAM-B3LYP) =  -1857.24552351     A.U. after   16 cycles
            NFock= 16  Conv=0.64D-08     -V/T= 2.0094
 DoSCS=F DFT=T ScalE2(SS,OS)=  1.000000  1.000000
 ExpMin= 1.61D-01 ExpMax= 5.48D+03 ExpMxC= 8.25D+02 IAcc=3 IRadAn=         5 AccDes= 0.00D+00
 HarFok:  IExCor=  205 AccDes= 0.00D+00 IRadAn=         5 IDoV=-2 UseB2=F ITyADJ=14
 ICtDFT= 12500011 ScaDFX=  1.000000  1.000000  1.000000  1.000000
 GSVD:  LWork=       -2288 too small for GESVD, short by       10340 words or       10340 for optimal perf.
 Range of M.O.s used for correlation:    45   940
 NBasis=   940 NAE=   164 NBE=   164 NFC=    44 NFV=     0
 NROrb=    896 NOA=   120 NOB=   120 NVA=   776 NVB=   776
 Orbital symmetries:
       Occupied  (A) (A) (A) (A) (A) (A) (A) (A) (A) (A) (A) (A)
                 (A) (A) (A) (A) (A) (A) (A) (A) (A) (A) (A) (A)
                 (A) (A) (A) (A) (A) (A) (A) (A) (A) (A) (A) (A)
                 (A) (A) (A) (A) (A) (A) (A) (A) (A) (A) (A) (A)
                 (A) (A) (A) (A) (A) (A) (A) (A) (A) (A) (A) (A)
                 (A) (A) (A) (A) (A) (A) (A) (A) (A) (A) (A) (A)
                 (A) (A) (A) (A) (A) (A) (A) (A) (A) (A) (A) (A)
                 (A) (A) (A) (A) (A) (A) (A) (A) (A) (A) (A) (A)
                 (A) (A) (A) (A) (A) (A) (A) (A) (A) (A) (A) (A)
                 (A) (A) (A) (A) (A) (A) (A) (A) (A) (A) (A) (A)
                 (A) (A) (A) (A) (A) (A) (A) (A) (A) (A) (A) (A)
                 (A) (A) (A) (A) (A) (A) (A) (A) (A) (A) (A) (A)
                 (A) (A) (A) (A) (A) (A) (A) (A) (A) (A) (A) (A)
                 (A) (A) (A) (A) (A) (A) (A) (A)
       Virtual   (A) (A) (A) (A) (A) (A) (A) (A) (A) (A) (A) (A)
                 (A) (A) (A) (A) (A) (A) (A) (A) (A) (A) (A) (A)
                 (A) (A) (A) (A) (A) (A) (A) (A) (A) (A) (A) (A)
                 (A) (A) (A) (A) (A) (A) (A) (A) (A) (A) (A) (A)
                 (A) (A) (A) (A) (A) (A) (A) (A) (A) (A) (A) (A)
                 (A) (A) (A) (A) (A) (A) (A) (A) (A) (A) (A) (A)
                 (A) (A) (A) (A) (A) (A) (A) (A) (A) (A) (A) (A)
                 (A) (A) (A) (A) (A) (A) (A) (A) (A) (A) (A) (A)
                 (A) (A) (A) (A) (A) (A) (A) (A) (A) (A) (A) (A)
                 (A) (A) (A) (A) (A) (A) (A) (A) (A) (A) (A) (A)
                 (A) (A) (A) (A) (A) (A) (A) (A) (A) (A) (A) (A)
                 (A) (A) (A) (A) (A) (A) (A) (A) (A) (A) (A) (A)
                 (A) (A) (A) (A) (A) (A) (A) (A) (A) (A) (A) (A)
                 (A) (A) (A) (A) (A) (A) (A) (A) (A) (A) (A) (A)
                 (A) (A) (A) (A) (A) (A) (A) (A) (A) (A) (A) (A)
                 (A) (A) (A) (A) (A) (A) (A) (A) (A) (A) (A) (A)
                 (A) (A) (A) (A) (A) (A) (A) (A) (A) (A) (A) (A)
                 (A) (A) (A) (A) (A) (A) (A) (A) (A) (A) (A) (A)
                 (A) (A) (A) (A) (A) (A) (A) (A) (A) (A) (A) (A)
                 (A) (A) (A) (A) (A) (A) (A) (A) (A) (A) (A) (A)
                 (A) (A) (A) (A) (A) (A) (A) (A) (A) (A) (A) (A)
                 (A) (A) (A) (A) (A) (A) (A) (A) (A) (A) (A) (A)
                 (A) (A) (A) (A) (A) (A) (A) (A) (A) (A) (A) (A)
                 (A) (A) (A) (A) (A) (A) (A) (A) (A) (A) (A) (A)
                 (A) (A) (A) (A) (A) (A) (A) (A) (A) (A) (A) (A)
                 (A) (A) (A) (A) (A) (A) (A) (A) (A) (A) (A) (A)
                 (A) (A) (A) (A) (A) (A) (A) (A) (A) (A) (A) (A)
                 (A) (A) (A) (A) (A) (A) (A) (A) (A) (A) (A) (A)
                 (A) (A) (A) (A) (A) (A) (A) (A) (A) (A) (A) (A)
                 (A) (A) (A) (A) (A) (A) (A) (A) (A) (A) (A) (A)
                 (A) (A) (A) (A) (A) (A) (A) (A) (A) (A) (A) (A)
                 (A) (A) (A) (A) (A) (A) (A) (A) (A) (A) (A) (A)
                 (A) (A) (A) (A) (A) (A) (A) (A) (A) (A) (A) (A)
                 (A) (A) (A) (A) (A) (A) (A) (A) (A) (A) (A) (A)
                 (A) (A) (A) (A) (A) (A) (A) (A) (A) (A) (A) (A)
                 (A) (A) (A) (A) (A) (A) (A) (A) (A) (A) (A) (A)
                 (A) (A) (A) (A) (A) (A) (A) (A) (A) (A) (A) (A)
                 (A) (A) (A) (A) (A) (A) (A) (A) (A) (A) (A) (A)
                 (A) (A) (A) (A) (A) (A) (A) (A) (A) (A) (A) (A)
                 (A) (A) (A) (A) (A) (A) (A) (A) (A) (A) (A) (A)
                 (A) (A) (A) (A) (A) (A) (A) (A) (A) (A) (A) (A)
                 (A) (A) (A) (A) (A) (A) (A) (A) (A) (A) (A) (A)
                 (A) (A) (A) (A) (A) (A) (A) (A) (A) (A) (A) (A)
                 (A) (A) (A) (A) (A) (A) (A) (A) (A) (A) (A) (A)
                 (A) (A) (A) (A) (A) (A) (A) (A) (A) (A) (A) (A)
                 (A) (A) (A) (A) (A) (A) (A) (A) (A) (A) (A) (A)
                 (A) (A) (A) (A) (A) (A) (A) (A) (A) (A) (A) (A)
                 (A) (A) (A) (A) (A) (A) (A) (A) (A) (A) (A) (A)
                 (A) (A) (A) (A) (A) (A) (A) (A) (A) (A) (A) (A)
                 (A) (A) (A) (A) (A) (A) (A) (A) (A) (A) (A) (A)
                 (A) (A) (A) (A) (A) (A) (A) (A) (A) (A) (A) (A)
                 (A) (A) (A) (A) (A) (A) (A) (A) (A) (A) (A) (A)
                 (A) (A) (A) (A) (A) (A) (A) (A) (A) (A) (A) (A)
                 (A) (A) (A) (A) (A) (A) (A) (A) (A) (A) (A) (A)
                 (A) (A) (A) (A) (A) (A) (A) (A) (A) (A) (A) (A)
                 (A) (A) (A) (A) (A) (A) (A) (A) (A) (A) (A) (A)
                 (A) (A) (A) (A) (A) (A) (A) (A) (A) (A) (A) (A)
                 (A) (A) (A) (A) (A) (A) (A) (A) (A) (A) (A) (A)
                 (A) (A) (A) (A) (A) (A) (A) (A) (A) (A) (A) (A)
                 (A) (A) (A) (A) (A) (A) (A) (A) (A) (A) (A) (A)
                 (A) (A) (A) (A) (A) (A) (A) (A) (A) (A) (A) (A)
                 (A) (A) (A) (A) (A) (A) (A) (A) (A) (A) (A) (A)
                 (A) (A) (A) (A) (A) (A) (A) (A) (A) (A) (A) (A)
                 (A) (A) (A) (A) (A) (A) (A) (A) (A) (A) (A) (A)
                 (A) (A) (A) (A) (A) (A) (A) (A)
     4 initial guesses have been made.
 Convergence on wavefunction:    0.001000000000000
 Iteration     1 Dimension     4 NMult     0 NNew      4
 CISAX will form     4 AO SS matrices at one time.
 Iteration     2 Dimension     6 NMult     4 NNew      2
 Iteration     3 Dimension     8 NMult     6 NNew      2
 Iteration     4 Dimension    10 NMult     8 NNew      2
 Iteration     5 Dimension    12 NMult    10 NNew      2
 Iteration     6 Dimension    14 NMult    12 NNew      2
 ***********************************************************************
 Excited states from <AA,BB:AA,BB> singles matrix:
 ***********************************************************************
 
 Ground to excited state transition densities written to RWF  633
 Ground to excited state transition electric dipole moments (Au):
       state          X           Y           Z        Dip. S.      Osc.
         1         7.8903      0.0894      0.1437     62.2852      2.9149
 Ground to excited state transition velocity dipole moments (Au):
       state          X           Y           Z        Dip. S.      Osc.
         1        -0.5394     -0.0057     -0.0115      0.2911      2.7642
 Ground to excited state transition magnetic dipole moments (Au):
       state          X           Y           Z
         1         0.0180      0.3858      2.3550
 Ground to excited state transition velocity quadrupole moments (Au):
       state          XX          YY          ZZ          XY          XZ          YZ
         1         1.9796      0.1663      0.0143      0.3471     -0.0462     -0.0071
 <0|del|b> * <b|rxdel|0> + <0|del|b> * <b|delr+rdel|0>
 Rotatory Strengths (R) in cgs (10**-40 erg-esu-cm/Gauss)
       state          XX          YY          ZZ    R(velocity)    E-M Angle
         1      -168.8204   -145.8315    -77.9863   -130.8794       91.73
 1/2[<0|r|b>*<b|rxdel|0> + (<0|rxdel|b>*<b|r|0>)*]
 Rotatory Strengths (R) in cgs (10**-40 erg-esu-cm/Gauss)
       state          XX          YY          ZZ     R(length)
         1      -100.4698    -24.3825   -239.3232   -121.3918
  1/2[<0|del|b>*<b|r|0> + (<0|r|b>*<b|del|0>)*] (Au)
       state          X           Y           Z        Dip. S.   Osc.(frdel)
         1        -4.2556     -0.0005     -0.0017      4.2578      2.8385

 Excitation energies and oscillator strengths:
 
 Excited State   1:      Singlet-A      1.9102 eV  649.07 nm  f=2.9149  <S**2>=0.000
     163 ->166         0.12715
     164 ->165         0.70257
     164 <-165        -0.12118
 This state for optimization and/or second-order correction.
 Total Energy, E(TD-HF/TD-DFT) =  -1857.17532521    
 Copying the excited state density for this state as the 1-particle RhoCI density.
 SavETr:  write IOETrn=   770 NScale= 10 NData=  16 NLR=1 NState=    1 LETran=      28.

 **********************************************************************

            Population analysis using the SCF density.

 **********************************************************************

 Orbital symmetries:
       Occupied  (A) (A) (A) (A) (A) (A) (A) (A) (A) (A) (A) (A)
                 (A) (A) (A) (A) (A) (A) (A) (A) (A) (A) (A) (A)
                 (A) (A) (A) (A) (A) (A) (A) (A) (A) (A) (A) (A)
                 (A) (A) (A) (A) (A) (A) (A) (A) (A) (A) (A) (A)
                 (A) (A) (A) (A) (A) (A) (A) (A) (A) (A) (A) (A)
                 (A) (A) (A) (A) (A) (A) (A) (A) (A) (A) (A) (A)
                 (A) (A) (A) (A) (A) (A) (A) (A) (A) (A) (A) (A)
                 (A) (A) (A) (A) (A) (A) (A) (A) (A) (A) (A) (A)
                 (A) (A) (A) (A) (A) (A) (A) (A) (A) (A) (A) (A)
                 (A) (A) (A) (A) (A) (A) (A) (A) (A) (A) (A) (A)
                 (A) (A) (A) (A) (A) (A) (A) (A) (A) (A) (A) (A)
                 (A) (A) (A) (A) (A) (A) (A) (A) (A) (A) (A) (A)
                 (A) (A) (A) (A) (A) (A) (A) (A) (A) (A) (A) (A)
                 (A) (A) (A) (A) (A) (A) (A) (A)
       Virtual   (A) (A) (A) (A) (A) (A) (A) (A) (A) (A) (A) (A)
                 (A) (A) (A) (A) (A) (A) (A) (A) (A) (A) (A) (A)
                 (A) (A) (A) (A) (A) (A) (A) (A) (A) (A) (A) (A)
                 (A) (A) (A) (A) (A) (A) (A) (A) (A) (A) (A) (A)
                 (A) (A) (A) (A) (A) (A) (A) (A) (A) (A) (A) (A)
                 (A) (A) (A) (A) (A) (A) (A) (A) (A) (A) (A) (A)
                 (A) (A) (A) (A) (A) (A) (A) (A) (A) (A) (A) (A)
                 (A) (A) (A) (A) (A) (A) (A) (A) (A) (A) (A) (A)
                 (A) (A) (A) (A) (A) (A) (A) (A) (A) (A) (A) (A)
                 (A) (A) (A) (A) (A) (A) (A) (A) (A) (A) (A) (A)
                 (A) (A) (A) (A) (A) (A) (A) (A) (A) (A) (A) (A)
                 (A) (A) (A) (A) (A) (A) (A) (A) (A) (A) (A) (A)
                 (A) (A) (A) (A) (A) (A) (A) (A) (A) (A) (A) (A)
                 (A) (A) (A) (A) (A) (A) (A) (A) (A) (A) (A) (A)
                 (A) (A) (A) (A) (A) (A) (A) (A) (A) (A) (A) (A)
                 (A) (A) (A) (A) (A) (A) (A) (A) (A) (A) (A) (A)
                 (A) (A) (A) (A) (A) (A) (A) (A) (A) (A) (A) (A)
                 (A) (A) (A) (A) (A) (A) (A) (A) (A) (A) (A) (A)
                 (A) (A) (A) (A) (A) (A) (A) (A) (A) (A) (A) (A)
                 (A) (A) (A) (A) (A) (A) (A) (A) (A) (A) (A) (A)
                 (A) (A) (A) (A) (A) (A) (A) (A) (A) (A) (A) (A)
                 (A) (A) (A) (A) (A) (A) (A) (A) (A) (A) (A) (A)
                 (A) (A) (A) (A) (A) (A) (A) (A) (A) (A) (A) (A)
                 (A) (A) (A) (A) (A) (A) (A) (A) (A) (A) (A) (A)
                 (A) (A) (A) (A) (A) (A) (A) (A) (A) (A) (A) (A)
                 (A) (A) (A) (A) (A) (A) (A) (A) (A) (A) (A) (A)
                 (A) (A) (A) (A) (A) (A) (A) (A) (A) (A) (A) (A)
                 (A) (A) (A) (A) (A) (A) (A) (A) (A) (A) (A) (A)
                 (A) (A) (A) (A) (A) (A) (A) (A) (A) (A) (A) (A)
                 (A) (A) (A) (A) (A) (A) (A) (A) (A) (A) (A) (A)
                 (A) (A) (A) (A) (A) (A) (A) (A) (A) (A) (A) (A)
                 (A) (A) (A) (A) (A) (A) (A) (A) (A) (A) (A) (A)
                 (A) (A) (A) (A) (A) (A) (A) (A) (A) (A) (A) (A)
                 (A) (A) (A) (A) (A) (A) (A) (A) (A) (A) (A) (A)
                 (A) (A) (A) (A) (A) (A) (A) (A) (A) (A) (A) (A)
                 (A) (A) (A) (A) (A) (A) (A) (A) (A) (A) (A) (A)
                 (A) (A) (A) (A) (A) (A) (A) (A) (A) (A) (A) (A)
                 (A) (A) (A) (A) (A) (A) (A) (A) (A) (A) (A) (A)
                 (A) (A) (A) (A) (A) (A) (A) (A) (A) (A) (A) (A)
                 (A) (A) (A) (A) (A) (A) (A) (A) (A) (A) (A) (A)
                 (A) (A) (A) (A) (A) (A) (A) (A) (A) (A) (A) (A)
                 (A) (A) (A) (A) (A) (A) (A) (A) (A) (A) (A) (A)
                 (A) (A) (A) (A) (A) (A) (A) (A) (A) (A) (A) (A)
                 (A) (A) (A) (A) (A) (A) (A) (A) (A) (A) (A) (A)
                 (A) (A) (A) (A) (A) (A) (A) (A) (A) (A) (A) (A)
                 (A) (A) (A) (A) (A) (A) (A) (A) (A) (A) (A) (A)
                 (A) (A) (A) (A) (A) (A) (A) (A) (A) (A) (A) (A)
                 (A) (A) (A) (A) (A) (A) (A) (A) (A) (A) (A) (A)
                 (A) (A) (A) (A) (A) (A) (A) (A) (A) (A) (A) (A)
                 (A) (A) (A) (A) (A) (A) (A) (A) (A) (A) (A) (A)
                 (A) (A) (A) (A) (A) (A) (A) (A) (A) (A) (A) (A)
                 (A) (A) (A) (A) (A) (A) (A) (A) (A) (A) (A) (A)
                 (A) (A) (A) (A) (A) (A) (A) (A) (A) (A) (A) (A)
                 (A) (A) (A) (A) (A) (A) (A) (A) (A) (A) (A) (A)
                 (A) (A) (A) (A) (A) (A) (A) (A) (A) (A) (A) (A)
                 (A) (A) (A) (A) (A) (A) (A) (A) (A) (A) (A) (A)
                 (A) (A) (A) (A) (A) (A) (A) (A) (A) (A) (A) (A)
                 (A) (A) (A) (A) (A) (A) (A) (A) (A) (A) (A) (A)
                 (A) (A) (A) (A) (A) (A) (A) (A) (A) (A) (A) (A)
                 (A) (A) (A) (A) (A) (A) (A) (A) (A) (A) (A) (A)
                 (A) (A) (A) (A) (A) (A) (A) (A) (A) (A) (A) (A)
                 (A) (A) (A) (A) (A) (A) (A) (A) (A) (A) (A) (A)
                 (A) (A) (A) (A) (A) (A) (A) (A) (A) (A) (A) (A)
                 (A) (A) (A) (A) (A) (A) (A) (A) (A) (A) (A) (A)
                 (A) (A) (A) (A) (A) (A) (A) (A)
 The electronic state is 1-A.
 Alpha  occ. eigenvalues --  -19.24065 -19.22842 -19.21123 -19.20763 -10.33026
 Alpha  occ. eigenvalues --  -10.32342 -10.31963 -10.31607 -10.30668 -10.28726
 Alpha  occ. eigenvalues --  -10.28519 -10.28032 -10.27844 -10.27687 -10.27648
 Alpha  occ. eigenvalues --  -10.27572 -10.27565 -10.27426 -10.27358 -10.27170
 Alpha  occ. eigenvalues --  -10.27147 -10.27113 -10.27078 -10.27073 -10.27008
 Alpha  occ. eigenvalues --  -10.26858 -10.26677 -10.26666 -10.26345 -10.26318
 Alpha  occ. eigenvalues --  -10.26308 -10.26052 -10.25960 -10.25811 -10.25741
 Alpha  occ. eigenvalues --  -10.25686 -10.25321 -10.25311 -10.24855 -10.24593
 Alpha  occ. eigenvalues --  -10.24381 -10.24249 -10.24189 -10.23094  -1.16479
 Alpha  occ. eigenvalues --   -1.10620  -1.07825  -1.06690  -0.93379  -0.92845
 Alpha  occ. eigenvalues --   -0.92441  -0.92008  -0.91696  -0.90665  -0.88198
 Alpha  occ. eigenvalues --   -0.87415  -0.86815  -0.85738  -0.84538  -0.83567
 Alpha  occ. eigenvalues --   -0.82405  -0.81615  -0.80364  -0.78907  -0.77362
 Alpha  occ. eigenvalues --   -0.77337  -0.76855  -0.76513  -0.76054  -0.75343
 Alpha  occ. eigenvalues --   -0.74968  -0.74833  -0.73246  -0.70542  -0.70006
 Alpha  occ. eigenvalues --   -0.68647  -0.66925  -0.65190  -0.64298  -0.64205
 Alpha  occ. eigenvalues --   -0.63210  -0.62402  -0.61719  -0.60686  -0.59563
 Alpha  occ. eigenvalues --   -0.59171  -0.58284  -0.57382  -0.57248  -0.56606
 Alpha  occ. eigenvalues --   -0.55927  -0.55628  -0.55167  -0.54978  -0.54304
 Alpha  occ. eigenvalues --   -0.53878  -0.53200  -0.52901  -0.52108  -0.52040
 Alpha  occ. eigenvalues --   -0.51706  -0.51500  -0.51001  -0.50989  -0.50636
 Alpha  occ. eigenvalues --   -0.50564  -0.50188  -0.49847  -0.49127  -0.49011
 Alpha  occ. eigenvalues --   -0.48453  -0.48257  -0.48050  -0.47910  -0.47274
 Alpha  occ. eigenvalues --   -0.46970  -0.46476  -0.45964  -0.45766  -0.45351
 Alpha  occ. eigenvalues --   -0.44825  -0.44384  -0.44331  -0.43822  -0.43505
 Alpha  occ. eigenvalues --   -0.43340  -0.43262  -0.43109  -0.42841  -0.42765
 Alpha  occ. eigenvalues --   -0.41895  -0.41791  -0.41504  -0.41360  -0.41221
 Alpha  occ. eigenvalues --   -0.41087  -0.41014  -0.40801  -0.40518  -0.40186
 Alpha  occ. eigenvalues --   -0.39806  -0.39601  -0.39488  -0.39244  -0.39114
 Alpha  occ. eigenvalues --   -0.38551  -0.38019  -0.37239  -0.37082  -0.36931
 Alpha  occ. eigenvalues --   -0.36891  -0.36137  -0.35677  -0.34466  -0.34051
 Alpha  occ. eigenvalues --   -0.33863  -0.32638  -0.32316  -0.31179  -0.30688
 Alpha  occ. eigenvalues --   -0.30116  -0.27872  -0.23902  -0.19159
 Alpha virt. eigenvalues --   -0.07075  -0.01628   0.02364   0.06055   0.07230
 Alpha virt. eigenvalues --    0.08613   0.09650   0.09895   0.11905   0.12215
 Alpha virt. eigenvalues --    0.12269   0.12623   0.12792   0.13451   0.13497
 Alpha virt. eigenvalues --    0.13970   0.14268   0.14775   0.14958   0.15190
 Alpha virt. eigenvalues --    0.15496   0.15694   0.16065   0.16085   0.16281
 Alpha virt. eigenvalues --    0.16401   0.16719   0.16933   0.17195   0.17665
 Alpha virt. eigenvalues --    0.18230   0.18482   0.18708   0.18790   0.19212
 Alpha virt. eigenvalues --    0.19472   0.19731   0.19929   0.20029   0.20067
 Alpha virt. eigenvalues --    0.20662   0.21549   0.21786   0.21850   0.21959
 Alpha virt. eigenvalues --    0.22052   0.22233   0.22278   0.22729   0.23213
 Alpha virt. eigenvalues --    0.23370   0.23842   0.24220   0.24499   0.24531
 Alpha virt. eigenvalues --    0.25025   0.25134   0.25285   0.25629   0.25699
 Alpha virt. eigenvalues --    0.25891   0.25959   0.26512   0.26731   0.27238
 Alpha virt. eigenvalues --    0.27334   0.27589   0.28073   0.28258   0.28314
 Alpha virt. eigenvalues --    0.28610   0.28940   0.29034   0.29151   0.29365
 Alpha virt. eigenvalues --    0.29844   0.30481   0.30768   0.30887   0.31453
 Alpha virt. eigenvalues --    0.32063   0.32421   0.32851   0.32936   0.33544
 Alpha virt. eigenvalues --    0.33766   0.34430   0.34783   0.35224   0.36498
 Alpha virt. eigenvalues --    0.36671   0.37347   0.37915   0.38836   0.38980
 Alpha virt. eigenvalues --    0.39308   0.39730   0.39984   0.42930   0.44012
 Alpha virt. eigenvalues --    0.44541   0.44966   0.45792   0.46839   0.47107
 Alpha virt. eigenvalues --    0.47357   0.49051   0.50268   0.50997   0.51719
 Alpha virt. eigenvalues --    0.52823   0.54508   0.55189   0.55715   0.55776
 Alpha virt. eigenvalues --    0.56191   0.56651   0.56906   0.57543   0.57967
 Alpha virt. eigenvalues --    0.58113   0.58250   0.58563   0.59490   0.59524
 Alpha virt. eigenvalues --    0.59637   0.59972   0.60521   0.60865   0.61135
 Alpha virt. eigenvalues --    0.61419   0.61481   0.62005   0.62114   0.62676
 Alpha virt. eigenvalues --    0.62862   0.63182   0.63628   0.63706   0.63900
 Alpha virt. eigenvalues --    0.64086   0.64457   0.64667   0.64728   0.64971
 Alpha virt. eigenvalues --    0.65871   0.66025   0.66248   0.66537   0.66994
 Alpha virt. eigenvalues --    0.67183   0.67500   0.67733   0.68016   0.68360
 Alpha virt. eigenvalues --    0.69269   0.69298   0.69745   0.70245   0.70389
 Alpha virt. eigenvalues --    0.70679   0.70960   0.71229   0.71447   0.71657
 Alpha virt. eigenvalues --    0.71933   0.72220   0.72714   0.73082   0.73215
 Alpha virt. eigenvalues --    0.73686   0.74246   0.74770   0.75201   0.75551
 Alpha virt. eigenvalues --    0.76328   0.76387   0.77251   0.77467   0.77523
 Alpha virt. eigenvalues --    0.78040   0.78454   0.78509   0.79263   0.79387
 Alpha virt. eigenvalues --    0.80030   0.80627   0.81089   0.81193   0.81546
 Alpha virt. eigenvalues --    0.81592   0.81877   0.82280   0.82608   0.82736
 Alpha virt. eigenvalues --    0.83158   0.83778   0.83969   0.84275   0.84403
 Alpha virt. eigenvalues --    0.85183   0.85320   0.85568   0.86156   0.86308
 Alpha virt. eigenvalues --    0.86471   0.86692   0.87085   0.87155   0.87551
 Alpha virt. eigenvalues --    0.87818   0.88056   0.88785   0.89082   0.89706
 Alpha virt. eigenvalues --    0.89996   0.90120   0.90270   0.90460   0.90784
 Alpha virt. eigenvalues --    0.91723   0.91873   0.92007   0.92278   0.92538
 Alpha virt. eigenvalues --    0.92742   0.92918   0.93283   0.93484   0.93680
 Alpha virt. eigenvalues --    0.94217   0.94559   0.94665   0.94878   0.95182
 Alpha virt. eigenvalues --    0.95744   0.96278   0.96375   0.96713   0.96772
 Alpha virt. eigenvalues --    0.96910   0.97299   0.97772   0.97969   0.98209
 Alpha virt. eigenvalues --    0.98354   0.99026   0.99485   0.99548   1.00054
 Alpha virt. eigenvalues --    1.00422   1.00774   1.01073   1.01185   1.02138
 Alpha virt. eigenvalues --    1.02273   1.02495   1.03143   1.03188   1.03700
 Alpha virt. eigenvalues --    1.03959   1.04679   1.04856   1.05110   1.05464
 Alpha virt. eigenvalues --    1.05743   1.05991   1.06392   1.06915   1.07246
 Alpha virt. eigenvalues --    1.07453   1.07980   1.08500   1.09133   1.09539
 Alpha virt. eigenvalues --    1.09887   1.10277   1.11012   1.11172   1.11638
 Alpha virt. eigenvalues --    1.12579   1.13092   1.13471   1.14169   1.14806
 Alpha virt. eigenvalues --    1.15349   1.16509   1.17270   1.18059   1.18196
 Alpha virt. eigenvalues --    1.18689   1.19252   1.19643   1.20268   1.20620
 Alpha virt. eigenvalues --    1.21729   1.22222   1.22689   1.22855   1.23643
 Alpha virt. eigenvalues --    1.24659   1.25358   1.25829   1.26384   1.26531
 Alpha virt. eigenvalues --    1.27111   1.27526   1.29118   1.29997   1.30926
 Alpha virt. eigenvalues --    1.31109   1.31284   1.32231   1.32651   1.34198
 Alpha virt. eigenvalues --    1.35161   1.35425   1.36529   1.36639   1.37058
 Alpha virt. eigenvalues --    1.37743   1.38066   1.38696   1.39540   1.40053
 Alpha virt. eigenvalues --    1.40648   1.41020   1.41671   1.42638   1.43139
 Alpha virt. eigenvalues --    1.43638   1.45272   1.45341   1.45916   1.47498
 Alpha virt. eigenvalues --    1.48014   1.48634   1.49408   1.50612   1.51077
 Alpha virt. eigenvalues --    1.51124   1.53207   1.53920   1.54119   1.54707
 Alpha virt. eigenvalues --    1.55980   1.56241   1.57210   1.57484   1.58052
 Alpha virt. eigenvalues --    1.59241   1.59894   1.60242   1.60958   1.61407
 Alpha virt. eigenvalues --    1.62527   1.63357   1.63609   1.64245   1.64363
 Alpha virt. eigenvalues --    1.64560   1.65150   1.65296   1.66444   1.68590
 Alpha virt. eigenvalues --    1.68616   1.69850   1.70746   1.70826   1.72189
 Alpha virt. eigenvalues --    1.72460   1.73133   1.73539   1.75141   1.75242
 Alpha virt. eigenvalues --    1.75906   1.77080   1.77357   1.77432   1.79030
 Alpha virt. eigenvalues --    1.79279   1.81178   1.81558   1.81844   1.81958
 Alpha virt. eigenvalues --    1.82027   1.82787   1.82941   1.83828   1.84043
 Alpha virt. eigenvalues --    1.84163   1.85037   1.85459   1.86022   1.86192
 Alpha virt. eigenvalues --    1.86987   1.87115   1.88275   1.88438   1.89082
 Alpha virt. eigenvalues --    1.89139   1.89294   1.90165   1.91438   1.91536
 Alpha virt. eigenvalues --    1.91717   1.92051   1.92414   1.92843   1.93192
 Alpha virt. eigenvalues --    1.93567   1.94173   1.94305   1.94813   1.95503
 Alpha virt. eigenvalues --    1.95736   1.95978   1.96353   1.96565   1.97258
 Alpha virt. eigenvalues --    1.97326   1.97788   1.98564   1.99071   1.99215
 Alpha virt. eigenvalues --    1.99259   1.99743   1.99795   2.00208   2.00623
 Alpha virt. eigenvalues --    2.00744   2.00931   2.01034   2.01686   2.03056
 Alpha virt. eigenvalues --    2.03433   2.03538   2.04060   2.04381   2.04434
 Alpha virt. eigenvalues --    2.05120   2.05187   2.05230   2.05382   2.05532
 Alpha virt. eigenvalues --    2.06350   2.06558   2.07271   2.07666   2.08176
 Alpha virt. eigenvalues --    2.08910   2.09508   2.09604   2.10382   2.10718
 Alpha virt. eigenvalues --    2.10900   2.11069   2.11471   2.11586   2.12466
 Alpha virt. eigenvalues --    2.12499   2.13065   2.13167   2.13950   2.14405
 Alpha virt. eigenvalues --    2.14618   2.15483   2.15558   2.16074   2.16431
 Alpha virt. eigenvalues --    2.16642   2.17157   2.17582   2.18662   2.18840
 Alpha virt. eigenvalues --    2.19327   2.19345   2.20209   2.20410   2.20910
 Alpha virt. eigenvalues --    2.21151   2.21849   2.21924   2.22066   2.22998
 Alpha virt. eigenvalues --    2.23104   2.23462   2.24844   2.24873   2.25179
 Alpha virt. eigenvalues --    2.25602   2.25831   2.25992   2.26736   2.27347
 Alpha virt. eigenvalues --    2.27666   2.28903   2.29477   2.29674   2.29979
 Alpha virt. eigenvalues --    2.31518   2.31713   2.32021   2.32154   2.32546
 Alpha virt. eigenvalues --    2.32705   2.33104   2.33474   2.34047   2.35032
 Alpha virt. eigenvalues --    2.35129   2.35938   2.36151   2.36413   2.37820
 Alpha virt. eigenvalues --    2.38039   2.38476   2.38916   2.39143   2.39815
 Alpha virt. eigenvalues --    2.39930   2.40180   2.40222   2.40399   2.40646
 Alpha virt. eigenvalues --    2.41251   2.42106   2.43251   2.43305   2.43734
 Alpha virt. eigenvalues --    2.43862   2.44707   2.45290   2.45764   2.45814
 Alpha virt. eigenvalues --    2.46131   2.46693   2.46839   2.47522   2.47651
 Alpha virt. eigenvalues --    2.48132   2.48870   2.49660   2.50102   2.50170
 Alpha virt. eigenvalues --    2.50954   2.51510   2.51890   2.53234   2.54021
 Alpha virt. eigenvalues --    2.54299   2.54438   2.54963   2.55397   2.55742
 Alpha virt. eigenvalues --    2.56132   2.56216   2.56947   2.57266   2.58280
 Alpha virt. eigenvalues --    2.58825   2.59251   2.59561   2.59782   2.60331
 Alpha virt. eigenvalues --    2.60906   2.61200   2.61611   2.62277   2.62638
 Alpha virt. eigenvalues --    2.63126   2.63696   2.64051   2.64619   2.65158
 Alpha virt. eigenvalues --    2.65235   2.65416   2.65687   2.65978   2.66856
 Alpha virt. eigenvalues --    2.66972   2.67278   2.67736   2.68723   2.69524
 Alpha virt. eigenvalues --    2.69584   2.69864   2.70042   2.70447   2.70858
 Alpha virt. eigenvalues --    2.71131   2.71826   2.72476   2.72524   2.72878
 Alpha virt. eigenvalues --    2.73218   2.74066   2.74482   2.74617   2.74926
 Alpha virt. eigenvalues --    2.75056   2.75444   2.76109   2.76791   2.77090
 Alpha virt. eigenvalues --    2.78042   2.78775   2.78925   2.79538   2.80259
 Alpha virt. eigenvalues --    2.80568   2.80684   2.81132   2.81591   2.82332
 Alpha virt. eigenvalues --    2.83301   2.83443   2.83920   2.84402   2.85028
 Alpha virt. eigenvalues --    2.85334   2.86276   2.87105   2.87586   2.87956
 Alpha virt. eigenvalues --    2.88419   2.88665   2.89959   2.90035   2.90800
 Alpha virt. eigenvalues --    2.91715   2.92048   2.92484   2.92943   2.93194
 Alpha virt. eigenvalues --    2.93731   2.94508   2.95305   2.95480   2.95565
 Alpha virt. eigenvalues --    2.96011   2.96756   2.97384   2.97673   2.98913
 Alpha virt. eigenvalues --    2.99690   3.00046   3.00276   3.00945   3.01083
 Alpha virt. eigenvalues --    3.01489   3.01962   3.02992   3.03391   3.03846
 Alpha virt. eigenvalues --    3.04683   3.06680   3.06727   3.07684   3.07920
 Alpha virt. eigenvalues --    3.08595   3.09259   3.10678   3.10810   3.11450
 Alpha virt. eigenvalues --    3.11916   3.12640   3.13374   3.15816   3.16056
 Alpha virt. eigenvalues --    3.16536   3.18120   3.19126   3.20227   3.21339
 Alpha virt. eigenvalues --    3.23588   3.23984   3.24758   3.25709   3.28161
 Alpha virt. eigenvalues --    3.29193   3.29801   3.29850   3.30108   3.30890
 Alpha virt. eigenvalues --    3.31256   3.31435   3.31933   3.32517   3.33828
 Alpha virt. eigenvalues --    3.34026   3.37745   3.38957   3.39927   3.40193
 Alpha virt. eigenvalues --    3.43309   3.43342   3.43950   3.45445   3.46597
 Alpha virt. eigenvalues --    3.47195   3.48244   3.48791   3.49130   3.49202
 Alpha virt. eigenvalues --    3.50365   3.50861   3.51417   3.52740   3.53456
 Alpha virt. eigenvalues --    3.54655   3.57173   3.57289   3.57560   3.58546
 Alpha virt. eigenvalues --    3.58975   3.59274   3.60121   3.60888   3.61568
 Alpha virt. eigenvalues --    3.63594   3.66400   3.68574   3.70348   3.74789
 Alpha virt. eigenvalues --    3.74914   3.80097   3.81740   3.83716   3.84707
 Alpha virt. eigenvalues --    3.95355   3.97700   4.00019   4.09737   4.13869
 Alpha virt. eigenvalues --    4.14025   4.18044   4.19310   4.20495   4.20967
 Alpha virt. eigenvalues --    4.23243   4.25007   4.27054   4.29337   4.32147
 Alpha virt. eigenvalues --    4.35295   4.38937   4.40813   4.42582   4.46060
 Alpha virt. eigenvalues --    4.48120   4.49530   4.50390   4.53273   4.54492
 Alpha virt. eigenvalues --    4.55336   4.57881   4.58757   4.59558   4.63074
 Alpha virt. eigenvalues --    4.63558   4.65649   4.67822   4.71019   4.72705
 Alpha virt. eigenvalues --    4.73662   4.77306   4.81341   4.83248   4.84026
 Alpha virt. eigenvalues --    4.86204   4.87671   4.90322   4.91686   4.95222
 Alpha virt. eigenvalues --    4.99026
          Condensed to atoms (all electrons):
 Mulliken charges:
               1
     1  O   -0.495504
     2  O   -0.552360
     3  O   -0.573388
     4  O   -0.542213
     5  C    0.229302
     6  C    0.199149
     7  C   -0.008376
     8  C   -0.192143
     9  C   -0.119282
    10  C    0.094867
    11  C   -0.314124
    12  C   -0.156290
    13  C   -0.278618
    14  C   -0.287681
    15  C   -0.071580
    16  C    0.057044
    17  C   -0.368533
    18  C   -0.092841
    19  C   -0.077025
    20  C   -0.031840
    21  C    0.244605
    22  C   -0.144483
    23  C    0.140782
    24  C   -0.189352
    25  C   -0.043146
    26  C   -0.289599
    27  C   -0.272697
    28  C   -0.305845
    29  C   -0.118515
    30  C    0.043411
    31  C    0.050881
    32  C   -0.254278
    33  C   -0.367459
    34  C   -0.075171
    35  C    0.105292
    36  C   -0.381121
    37  C   -0.097210
    38  C   -0.029169
    39  C   -0.093835
    40  C   -0.091226
    41  C   -0.116805
    42  C   -0.147119
    43  C    0.118137
    44  C   -0.354074
    45  H    0.119167
    46  H    0.127239
    47  H    0.104662
    48  H    0.075988
    49  H    0.071317
    50  H    0.083327
    51  H    0.102867
    52  H    0.127801
    53  H    0.092673
    54  H    0.120132
    55  H    0.072865
    56  H    0.082814
    57  H    0.088996
    58  H    0.103002
    59  H    0.102792
    60  H    0.296549
    61  H    0.077247
    62  H    0.134194
    63  H    0.139110
    64  H    0.101296
    65  H    0.094085
    66  H    0.092945
    67  H    0.086536
    68  H    0.081093
    69  H    0.091070
    70  H    0.121325
    71  H    0.100945
    72  H    0.085212
    73  H    0.108366
    74  H    0.108766
    75  H    0.123491
    76  H    0.116613
    77  H    0.060318
    78  H    0.111937
    79  H    0.074080
    80  H    0.140722
    81  H    0.073350
    82  H    0.308285
    83  H    0.315392
    84  H    0.119053
    85  H    0.125795
    86  H    0.131887
    87  H    0.112275
    88  H    0.075716
    89  H    0.099595
    90  H    0.147531
    91  H    0.140383
    92  H    0.086355
    93  H    0.064483
    94  H    0.092366
    95  H    0.063023
    96  H    0.079503
    97  H    0.062865
    98  H    0.104832
    99  H    0.111524
   100  H    0.113677
 Sum of Mulliken charges =  -0.00000
 Mulliken charges with hydrogens summed into heavy atoms:
               1
     1  O   -0.495504
     2  O   -0.255812
     3  O   -0.265102
     4  O   -0.226821
     5  C    0.229302
     6  C    0.199149
     7  C   -0.008376
     8  C    0.054263
     9  C    0.061368
    10  C    0.166184
    11  C   -0.000130
    12  C   -0.063617
    13  C   -0.002807
    14  C    0.007108
    15  C    0.005667
    16  C    0.057044
    17  C    0.006068
    18  C    0.001244
    19  C    0.015921
    20  C   -0.031840
    21  C    0.244605
    22  C    0.023146
    23  C    0.231852
    24  C    0.032918
    25  C   -0.043146
    26  C    0.012745
    27  C    0.027724
    28  C    0.020894
    29  C   -0.045166
    30  C    0.043411
    31  C    0.050881
    32  C   -0.135225
    33  C    0.002498
    34  C    0.000546
    35  C    0.105292
    36  C    0.006387
    37  C   -0.010856
    38  C    0.035314
    39  C   -0.001469
    40  C   -0.028203
    41  C   -0.037302
    42  C   -0.084254
    43  C    0.118137
    44  C   -0.024040
 Electronic spatial extent (au):  <R**2>=         115985.1511
 Charge=             -0.0000 electrons
 Dipole moment (field-independent basis, Debye):
    X=              6.5319    Y=              0.6151    Z=              2.1497  Tot=              6.9040
 Quadrupole moment (field-independent basis, Debye-Ang):
   XX=           -278.7306   YY=           -261.5111   ZZ=           -282.5626
   XY=             -9.9342   XZ=             35.0500   YZ=             -2.0431
 Traceless Quadrupole moment (field-independent basis, Debye-Ang):
   XX=             -4.4625   YY=             12.7570   ZZ=             -8.2945
   XY=             -9.9342   XZ=             35.0500   YZ=             -2.0431
 Octapole moment (field-independent basis, Debye-Ang**2):
  XXX=           1833.3786  YYY=             14.1166  ZZZ=            -12.1320  XYY=             45.1209
  XXY=             67.7701  XXZ=            289.2755  XZZ=             54.6079  YZZ=              1.8636
  YYZ=            -21.3183  XYZ=           -154.0813
 Hexadecapole moment (field-independent basis, Debye-Ang**3):
 XXXX=        -147591.8824 YYYY=          -3728.7649 ZZZZ=          -2284.4394 XXXY=          -3956.1189
 XXXZ=           7320.0011 YYYX=           -214.7860 YYYZ=             14.8117 ZZZX=            -80.2584
 ZZZY=             -3.4800 XXYY=         -26159.5451 XXZZ=         -26777.3920 YYZZ=          -1044.0242
 XXYZ=            320.6629 YYXZ=            255.9964 ZZXY=              8.8122
 N-N= 4.450648211493D+03 E-N=-1.321125821954D+04  KE= 1.840032768107D+03
 1\1\GINC-RYZEN-SSD3\SP\RCAM-B3LYP TD-FC\6-31G(d,p)\C40H56O4\PADAWAN\31
 -Jul-2019\0\\# td=(NStates=1) CAM-B3LYP/6-31G(d,p)\\TD\\0,1\O,0,-11.83
 49101586,0.2367543238,-1.5301601796\O,0,-13.212992135,-2.5680651145,1.
 2926549505\O,0,10.4376692868,-1.1444843363,-2.0725109774\O,0,14.461439
 5107,-1.1236110826,-0.3686513525\C,0,-11.0794961168,-0.1221161663,-0.3
 576951939\C,0,-11.6455508448,-1.1285540353,-1.2110199423\C,0,-11.86551
 85949,0.2131179946,0.900999755\C,0,-13.0146266664,-1.7730674646,-0.978
 0394379\C,0,-13.319290387,-0.1102684744,0.8926539533\C,0,-13.615457979
 3,-1.505512089,0.3265914264\C,0,-10.6949450832,-1.9382592434,-2.115033
 8217\C,0,-9.5395834021,0.0623933731,-0.3391808762\C,0,-11.2523112085,-
 0.1561312091,2.2665717243\C,0,-11.769247305,1.7202271258,0.944472539\C
 ,0,-8.5333167534,-0.7830963508,0.0646051995\C,0,-7.2124292325,-0.55456
 73028,0.1250902093\C,0,-6.3019942143,-1.737332422,0.4984920855\C,0,-6.
 7062762893,0.7559064205,-0.1053890941\C,0,-5.2753674783,0.9309251292,-
 0.0508294131\C,0,12.1900882557,0.0698770172,1.3163311612\C,0,11.605377
 8279,-0.719828138,-1.2844623259\C,0,12.814798708,-1.2942236521,1.46171
 09045\C,0,13.3615208388,-1.9064451779,0.2037543398\C,0,12.2516801027,-
 1.9787923882,-0.8044144039\C,0,11.1352604139,0.0882835763,0.0522624065
 \C,0,11.292080613,0.3106377058,2.5818505253\C,0,13.1605291696,1.201963
 4171,1.2190449555\C,0,12.4613324394,0.1363325066,-2.1122051683\C,0,-4.
 7129477905,2.2210046065,-0.3106459135\C,0,9.9285040379,0.613012104,0.1
 596847918\C,0,-3.3886740258,2.5796767214,-0.4701172724\C,0,8.694619247
 9,1.0465309869,-0.1494192819\C,0,-3.0088425694,4.0268541449,-0.6984095
 731\C,0,-2.321699085,1.614593308,-0.1474172764\C,0,7.5180613486,0.1475
 753455,0.1241132272\C,0,7.7390986464,-1.2147784299,0.4451044333\C,0,6.
 2766490129,0.8107480051,-0.0546694029\C,0,-1.0191160431,1.9573248562,-
 0.2541635915\C,0,5.001611764,0.1638455007,0.0612374925\C,0,-0.02916643
 76,1.0446577757,-0.1815072535\C,0,3.83582299,0.9160019506,-0.148652334
 2\C,0,1.396581599,1.2744191696,-0.1652689078\C,0,2.4841363141,0.485287
 8285,0.0014735053\C,0,2.3472145832,-0.9939235727,0.3026288565\H,0,-13.
 1552773285,-2.888601838,-0.9131265367\H,0,-13.7590411278,-1.3514891331
 ,-1.5516216169\H,0,-13.6387516774,0.0083179006,1.7579184745\H,0,-14.02
 11215058,0.5871038375,0.1566733329\H,0,-14.8113984439,-1.6259913125,0.
 1346350678\H,0,-10.3152801449,-3.0915259354,-1.8361689123\H,0,-11.2460
 248114,-2.3522000114,-3.0047787641\H,0,-10.024754659,-1.2893681454,-2.
 3902806406\H,0,-9.3782164764,1.2008022112,-0.5630501151\H,0,-10.235424
 8701,0.0985011142,2.4371994627\H,0,-11.9187572366,0.6170484064,3.03022
 13722\H,0,-11.3362243161,-1.3252494014,2.4448352732\H,0,-12.12637518,2
 .136839806,-0.1496217462\H,0,-12.5313893783,2.0003656121,1.5296766795\
 H,0,-10.784028685,1.9916397545,1.0568399775\H,0,-12.2000130738,-2.5458
 974633,1.0813526142\H,0,-8.8446953114,-1.8839767554,0.2722663255\H,0,-
 5.7290923553,-2.1963229574,-0.3235103954\H,0,-5.8297453898,-1.51603683
 63,1.4192003162\H,0,-7.1804481554,-2.3568879618,0.7727734281\H,0,-7.28
 45397651,1.6823465638,-0.156695346\H,0,-4.7078674314,-0.025133895,-0.0
 737311488\H,0,13.3505707342,-1.1585075382,2.2603109717\H,0,11.81659683
 67,-1.9382532053,1.6868046802\H,0,13.5325756145,-3.0368053455,0.443161
 242\H,0,12.5395513936,-2.4088373622,-1.794062501\H,0,11.4263126395,-2.
 7626453884,-0.3685421963\H,0,12.1130209103,0.4693873054,3.3310881475\H
 ,0,10.7225392316,1.2770232654,2.4238099052\H,0,10.6566632875,-0.524630
 7776,2.7635825995\H,0,13.8652634282,1.0294615704,0.5272367885\H,0,12.5
 796105743,2.0748869265,1.2333080365\H,0,13.7207079079,1.2032348026,2.2
 658630679\H,0,12.7032711466,-0.0831049201,-3.1945719091\H,0,12.0990669
 751,1.2477868696,-2.3866966046\H,0,13.3736281954,0.2169777507,-1.44863
 03484\H,0,-5.4146336873,2.9517395608,-0.3993013409\H,0,9.929414192,-0.
 2881674743,-2.0806804038\H,0,15.1839712423,-1.1736771821,0.2951081101\
 H,0,8.7108629371,2.1953118584,-0.3508923664\H,0,-2.6075758418,4.518458
 2955,0.2350793376\H,0,-2.3440531696,4.1286300878,-1.5450276119\H,0,-3.
 9762240075,4.4575139332,-0.7650663081\H,0,-2.4197415943,0.6503872507,0
 .1379208375\H,0,6.7637891288,-1.8571252746,0.2451069954\H,0,8.58848406
 29,-1.6558303078,-0.0895897331\H,0,7.9535752791,-1.1673090593,1.470980
 859\H,0,6.4004751946,1.8737211775,-0.2592979495\H,0,-0.7455259096,2.86
 05901025,-0.4267525868\H,0,4.895275514,-0.86283278,0.1704597271\H,0,-0
 .1785767809,-0.1282046334,-0.1703144203\H,0,3.8586750354,2.0582514613,
 -0.172809506\H,0,1.612138089,2.3280285948,-0.5192646249\H,0,1.32793162
 8,-1.4623128355,-0.0004810525\H,0,3.2849298178,-1.4159478963,-0.187746
 5447\H,0,2.3817148679,-0.9632405531,1.5152948161\\Version=ES64L-G16Rev
 A.03\State=1-A\HF=-1857.2455235\RMSD=6.439e-09\PG=C01 [X(C40H56O4)]\\@


 THERE ARE PEOPLE SO ADDICTED TO EXAGERATING THEY
 CAN'T TELL THE TRUTH WITHOUT LYING. -- FORTUNE COOKIE
 Job cpu time:       0 days  7 hours  7 minutes 49.9 seconds.
 Elapsed time:       0 days  2 hours 22 minutes 51.4 seconds.
 File lengths (MBytes):  RWF=   3379 Int=      0 D2E=      0 Chk=     90 Scr=      1
 Normal termination of Gaussian 16 at Wed Jul 31 07:03:09 2019.
