 Entering Gaussian System, Link 0=g16
 Input=Geometria-340-.com
 Output=Geometria-340-.log
 Initial command:
 /usr/local/g16/l1.exe "/home/padawan/israel-mol/neoxanthin/spectra/emi/Gau-112038.inp" -scrdir="/home/padawan/israel-mol/neoxanthin/spectra/emi/"
 Entering Link 1 = /usr/local/g16/l1.exe PID=    112040.
  
 Copyright (c) 1988,1990,1992,1993,1995,1998,2003,2009,2016,
            Gaussian, Inc.  All Rights Reserved.
  
 This is part of the Gaussian(R) 16 program.  It is based on
 the Gaussian(R) 09 system (copyright 2009, Gaussian, Inc.),
 the Gaussian(R) 03 system (copyright 2003, Gaussian, Inc.),
 the Gaussian(R) 98 system (copyright 1998, Gaussian, Inc.),
 the Gaussian(R) 94 system (copyright 1995, Gaussian, Inc.),
 the Gaussian 92(TM) system (copyright 1992, Gaussian, Inc.),
 the Gaussian 90(TM) system (copyright 1990, Gaussian, Inc.),
 the Gaussian 88(TM) system (copyright 1988, Gaussian, Inc.),
 the Gaussian 86(TM) system (copyright 1986, Carnegie Mellon
 University), and the Gaussian 82(TM) system (copyright 1983,
 Carnegie Mellon University). Gaussian is a federally registered
 trademark of Gaussian, Inc.
  
 This software contains proprietary and confidential information,
 including trade secrets, belonging to Gaussian, Inc.
  
 This software is provided under written license and may be
 used, copied, transmitted, or stored only in accord with that
 written license.
  
 The following legend is applicable only to US Government
 contracts under FAR:
  
                    RESTRICTED RIGHTS LEGEND
  
 Use, reproduction and disclosure by the US Government is
 subject to restrictions as set forth in subparagraphs (a)
 and (c) of the Commercial Computer Software - Restricted
 Rights clause in FAR 52.227-19.
  
 Gaussian, Inc.
 340 Quinnipiac St., Bldg. 40, Wallingford CT 06492
  
  
 ---------------------------------------------------------------
 Warning -- This program may not be used in any manner that
 competes with the business of Gaussian, Inc. or will provide
 assistance to any competitor of Gaussian, Inc.  The licensee
 of this program is prohibited from giving any competitor of
 Gaussian, Inc. access to this program.  By using this program,
 the user acknowledges that Gaussian, Inc. is engaged in the
 business of creating and licensing software in the field of
 computational chemistry and represents and warrants to the
 licensee that it is not a competitor of Gaussian, Inc. and that
 it will not use this program in any manner prohibited above.
 ---------------------------------------------------------------
  

 Cite this work as:
 Gaussian 16, Revision A.03,
 M. J. Frisch, G. W. Trucks, H. B. Schlegel, G. E. Scuseria, 
 M. A. Robb, J. R. Cheeseman, G. Scalmani, V. Barone, 
 G. A. Petersson, H. Nakatsuji, X. Li, M. Caricato, A. V. Marenich, 
 J. Bloino, B. G. Janesko, R. Gomperts, B. Mennucci, H. P. Hratchian, 
 J. V. Ortiz, A. F. Izmaylov, J. L. Sonnenberg, D. Williams-Young, 
 F. Ding, F. Lipparini, F. Egidi, J. Goings, B. Peng, A. Petrone, 
 T. Henderson, D. Ranasinghe, V. G. Zakrzewski, J. Gao, N. Rega, 
 G. Zheng, W. Liang, M. Hada, M. Ehara, K. Toyota, R. Fukuda, 
 J. Hasegawa, M. Ishida, T. Nakajima, Y. Honda, O. Kitao, H. Nakai, 
 T. Vreven, K. Throssell, J. A. Montgomery, Jr., J. E. Peralta, 
 F. Ogliaro, M. J. Bearpark, J. J. Heyd, E. N. Brothers, K. N. Kudin, 
 V. N. Staroverov, T. A. Keith, R. Kobayashi, J. Normand, 
 K. Raghavachari, A. P. Rendell, J. C. Burant, S. S. Iyengar, 
 J. Tomasi, M. Cossi, J. M. Millam, M. Klene, C. Adamo, R. Cammi, 
 J. W. Ochterski, R. L. Martin, K. Morokuma, O. Farkas, 
 J. B. Foresman, and D. J. Fox, Gaussian, Inc., Wallingford CT, 2016.
 
 ******************************************
 Gaussian 16:  ES64L-G16RevA.03 25-Dec-2016
                31-Jul-2019 
 ******************************************
 %nproc=3
 Will use up to    3 processors via shared memory.
 %Mem=2GB
 -------------------------------------
 # td=(NStates=1) CAM-B3LYP/6-31G(d,p)
 -------------------------------------
 1/38=1,172=1/1;
 2/12=2,17=6,18=5,40=1/2;
 3/5=1,6=6,7=101,11=9,25=1,30=1,74=-40/1,2,3,8;
 4//1;
 5/5=2,38=5/2;
 8/6=1,10=2,108=1/1;
 9/41=1,42=1,70=2/14;
 6/7=2,8=2,9=2,10=2/1;
 99/5=1,9=1/99;
 --
 TD
 --
 Symbolic Z-matrix:
 Charge =  0 Multiplicity = 1
 8                    -11.76874   0.21214  -1.58488 
 8                    -12.9485  -2.45105   1.37742 
 8                     10.69402  -0.94497  -2.20498 
 8                     14.47966  -1.21176  -0.07003 
 6                    -11.05051  -0.16166  -0.35988 
 6                    -11.69326  -1.12646  -1.26205 
 6                    -11.81148   0.38625   0.87265 
 6                    -12.94473  -1.84476  -0.93256 
 6                    -13.32933   0.01331   0.82382 
 6                    -13.4654  -1.48399   0.4168 
 6                    -10.88888  -1.86507  -2.24078 
 6                    -9.59766   0.13802  -0.45888 
 6                    -11.26876  -0.10297   2.30454 
 6                    -11.80114   1.91115   0.89071 
 6                    -8.71667  -0.74146   0.29623 
 6                    -7.25173  -0.5596    0.30037 
 6                    -6.46102  -1.74755   0.73113 
 6                    -6.68237   0.65564   0.00431 
 6                    -5.28024   0.81147   0.05036 
 6                     11.87812   0.10109   1.36614 
 6                     11.80339  -0.52913  -1.2322 
 6                     12.61737  -1.36853   1.42139 
 6                     13.34397  -1.93461   0.20541 
 6                     12.32229  -1.80345  -0.97112 
 6                     11.14341   0.0853    0.04324 
 6                     10.99138   0.15844   2.54986 
 6                     12.95131   1.15405   1.33533 
 6                     12.64342   0.47313  -2.02436 
 6                    -4.73272   2.10159  -0.37779 
 6                     9.94876   0.52289  -0.02246 
 6                    -3.37268   2.45122  -0.49581 
 6                     8.71898   1.02944  -0.12977 
 6                    -3.07351   3.8889   -0.79462 
 6                    -2.38645   1.60029  -0.24494 
 6                     7.55337   0.17766   0.06702 
 6                     7.80839  -1.17343   0.20329 
 6                     6.29813   0.76215   0.0173 
 6                    -1.00831   1.87686  -0.30371 
 6                     5.00496   0.11848   0.08387 
 6                    -0.00357   0.85582  -0.36398 
 6                     3.78571   0.89542  -0.02897 
 6                     1.40012   1.18278  -0.22221 
 6                     2.53481   0.27067   0.03985 
 6                     2.29046  -1.10772   0.2689 
 1                    -12.75395  -2.9727   -0.80514 
 1                    -13.57517  -1.43615  -1.83262 
 1                    -13.7826   0.20939   1.83967 
 1                    -13.82986   0.44233   0.03487 
 1                    -14.53642  -1.79887   0.58642 
 1                    -10.28059  -2.7355   -1.75968 
 1                    -11.37562  -2.2329   -3.09018 
 1                    -9.97598  -1.14029  -2.60552 
 1                    -9.31564   0.84526  -1.19748 
 1                    -10.33971   0.38428   2.39662 
 1                    -12.06853   0.32583   2.96759 
 1                    -11.20119  -1.1652    2.66524 
 1                    -12.14514   2.36449  -0.21168 
 1                    -12.39773   2.56685   1.75268 
 1                    -10.72181   2.30638   0.88503 
 1                    -11.75584  -2.37939   1.39072 
 1                    -9.03773  -1.5932    0.88608 
 1                    -5.96885  -2.34359  -0.20474 
 1                    -5.67452  -1.55898   1.40825 
 1                    -7.06566  -2.5021    1.21852 
 1                    -7.35768   1.49756  -0.09451 
 1                    -4.49768   0.19278   0.21422 
 1                     13.3616  -1.28906   2.19322 
 1                     11.89087  -2.25529   1.70525 
 1                     13.4721  -2.7605    0.19526 
 1                     12.66813  -2.07567  -2.11157 
 1                     11.57052  -2.49571  -0.69893 
 1                     11.56683   0.35872   3.42118 
 1                     10.20927   1.11296   2.64398 
 1                     10.35096  -0.63614   2.66763 
 1                     13.86896   0.95747   0.71142 
 1                     12.53841   2.136     0.82419 
 1                     13.40713   1.21337   2.32456 
 1                     13.00271   0.17156  -2.93241 
 1                     12.06451   1.50475  -2.20145 
 1                     13.42408   0.75027  -1.54599 
 1                    -5.64871   2.68649  -0.76638 
 1                     10.39648   0.08315  -2.67584 
 1                     14.96023  -1.29399   0.91962 
 1                     8.54644   2.00435  -0.28531 
 1                    -2.4688    4.37493   0.03471 
 1                    -2.53468   4.01607  -1.78342 
 1                    -3.98777   4.55956  -0.85098 
 1                    -2.58869   0.53651  -0.10296 
 1                     7.03842  -2.0316    0.24028 
 1                     8.49297  -1.49107  -0.54903 
 1                     8.51904  -1.41075   1.27548 
 1                     6.26525   1.94886  -0.12582 
 1                    -0.89047   2.91907  -0.58691 
 1                     4.923    -0.8505    0.11219 
 1                    -0.37472  -0.19872  -0.20576 
 1                     4.14718   1.92662  -0.20101 
 1                     1.64528   2.23905  -0.03057 
 1                     1.2667   -1.40196   0.30273 
 1                     3.07831  -1.53589  -0.44465 
 1                     2.65591  -1.35129   1.30407 
 
 Stoichiometry    C40H56O4
 Framework group  C1[X(C40H56O4)]
 Deg. of freedom   294
 Full point group                 C1      NOp   1
 Largest Abelian subgroup         C1      NOp   1
 Largest concise Abelian subgroup C1      NOp   1
                         Standard orientation:                         
 ---------------------------------------------------------------------
 Center     Atomic      Atomic             Coordinates (Angstroms)
 Number     Number       Type             X           Y           Z
 ---------------------------------------------------------------------
      1          8           0      -11.768080    0.283247   -1.582408
      2          8           0      -12.948986   -2.523460    1.243808
      3          8           0       10.695576   -0.834075   -2.242074
      4          8           0       14.479749   -1.204711   -0.120069
      5          6           0      -11.050605   -0.150374   -0.376834
      6          6           0      -11.692318   -1.069648   -1.326051
      7          6           0      -11.812686    0.335705    0.880682
      8          6           0      -12.943759   -1.803781   -1.033401
      9          6           0      -13.330356   -0.034882    0.812348
     10          6           0      -13.465558   -1.510294    0.331750
     11          6           0      -10.886949   -1.758720   -2.339475
     12          6           0       -9.597793    0.154333   -0.459824
     13          6           0      -11.270828   -0.223467    2.287059
     14          6           0      -11.802938    1.857855    0.974068
     15          6           0       -8.717017   -0.761079    0.251574
     16          6           0       -7.252158   -0.579137    0.265793
     17          6           0       -6.461308   -1.786651    0.637925
     18          6           0       -6.683045    0.649437    0.030566
     19          6           0       -5.281003    0.803291    0.085310
     20          6           0       11.876653    0.034682    1.377255
     21          6           0       11.804067   -0.466418   -1.249097
     22          6           0       12.616425   -1.435619    1.360384
     23          6           0       13.344131   -1.940677    0.118475
     24          6           0       12.323261   -1.751907   -1.050911
     25          6           0       11.142923    0.084021    0.054645
     26          6           0       10.989028    0.033175    2.561699
     27          6           0       12.949465    1.088247    1.399312
     28          6           0       12.644298    0.574041   -1.990140
     29          6           0       -4.733664    2.113178   -0.278169
     30          6           0        9.948149    0.523911    0.009744
     31          6           0       -3.373674    2.468681   -0.377748
     32          6           0        8.718260    1.034716   -0.073325
     33          6           0       -3.074830    3.919468   -0.604937
     34          6           0       -2.387296    1.606734   -0.168483
     35          6           0        7.552835    0.173852    0.080262
     36          6           0        7.808261   -1.182236    0.149806
     37          6           0        6.297405    0.759656    0.058539
     38          6           0       -1.009229    1.886340   -0.212484
     39          6           0        5.004433    0.113035    0.092257
     40          6           0       -0.004054    0.869873   -0.322370
     41          6           0        3.784966    0.894180    0.017026
     42          6           0        1.399412    1.189915   -0.163575
     43          6           0        2.534257    0.266358    0.053954
     44          6           0        2.290263   -1.121750    0.214438
     45          1           0      -12.752640   -2.936569   -0.961712
     46          1           0      -13.573699   -1.351412   -1.912641
     47          1           0      -13.784439    0.110607    1.836304
     48          1           0      -13.830473    0.432417    0.045186
     49          1           0      -14.536580   -1.833538    0.484802
     50          1           0      -10.278672   -2.651645   -1.901516
     51          1           0      -11.372920   -2.084299   -3.206377
     52          1           0       -9.974054   -1.016491   -2.667282
     53          1           0       -9.315503    0.897295   -1.162369
     54          1           0      -10.342024    0.258955    2.403796
     55          1           0      -12.071246    0.171770    2.969884
     56          1           0      -11.203115   -1.302205    2.594889
     57          1           0      -12.146300    2.364994   -0.104830
     58          1           0      -12.400405    2.469967    1.866936
     59          1           0      -10.723757    2.253259    0.988738
     60          1           0      -11.756366   -2.452131    1.261527
     61          1           0       -9.038194   -1.641028    0.798381
     62          1           0       -5.968221   -2.335550   -0.325875
     63          1           0       -5.675375   -1.631493    1.324128
     64          1           0       -7.066013   -2.564568    1.086989
     65          1           0       -7.358597    1.494980   -0.027044
     66          1           0       -4.498326    0.177526    0.218987
     67          1           0       13.360062   -1.394123    2.135764
     68          1           0       11.890061   -2.335575    1.599540
     69          1           0       13.472584   -2.765012    0.067621
     70          1           0       12.670047   -1.967329   -2.203161
     71          1           0       11.571556   -2.457023   -0.813813
     72          1           0       11.563759    0.190353    3.442281
     73          1           0       10.206483    0.981604    2.702281
     74          1           0       10.348827   -0.766479    2.639592
     75          1           0       13.867652    0.923055    0.767139
     76          1           0       12.536563    2.094113    0.937002
     77          1           0       13.404536    1.098774    2.390608
     78          1           0       13.004368    0.317831   -2.911710
     79          1           0       12.065127    1.612958   -2.116481
     80          1           0       13.424504    0.827482   -1.498080
     81          1           0       -5.649589    2.716247   -0.638069
     82          1           0       10.397985    0.215954   -2.661781
     83          1           0       14.959623   -1.335570    0.864672
     84          1           0        8.545457    2.016064   -0.180636
     85          1           0       -2.470916    4.364142    0.247846
     86          1           0       -2.535327    4.095521   -1.585844
     87          1           0       -3.989300    4.591783   -0.628785
     88          1           0       -2.589237    0.537163   -0.079392
     89          1           0        7.038592   -2.041449    0.143771
     90          1           0        8.493522   -1.462082   -0.616770
     91          1           0        8.518222   -1.471994    1.209496
     92          1           0        6.264178    1.951972   -0.025803
     93          1           0       -0.891574    2.941309   -0.443758
     94          1           0        4.922818   -0.856191    0.072611
     95          1           0       -0.374910   -0.191325   -0.216725
     96          1           0        4.146174    1.932744   -0.103587
     97          1           0        1.644029    2.235510    0.080211
     98          1           0        1.266587   -1.417647    0.232925
     99          1           0        3.078799   -1.513867   -0.518801
    100          1           0        2.655051   -1.416036    1.236592
 ---------------------------------------------------------------------
 Rotational constants (GHZ):           0.2650205           0.0088018           0.0087323
 Standard basis: 6-31G(d,p) (6D, 7F)
 There are   940 symmetry adapted cartesian basis functions of A   symmetry.
 There are   940 symmetry adapted basis functions of A   symmetry.
   940 basis functions,  1624 primitive gaussians,   940 cartesian basis functions
   164 alpha electrons      164 beta electrons
       nuclear repulsion energy      4456.6900988313 Hartrees.
 NAtoms=  100 NActive=  100 NUniq=  100 SFac= 1.00D+00 NAtFMM=   60 NAOKFM=T Big=T
 Integral buffers will be    131072 words long.
 Raffenetti 1 integral format.
 Two-electron integral symmetry is turned on.
 One-electron integrals computed using PRISM.
 NBasis=   940 RedAO= T EigKep=  3.46D-04  NBF=   940
 NBsUse=   940 1.00D-06 EigRej= -1.00D+00 NBFU=   940
 ExpMin= 1.61D-01 ExpMax= 5.48D+03 ExpMxC= 8.25D+02 IAcc=3 IRadAn=         5 AccDes= 0.00D+00
 Harris functional with IExCor=20419 and IRadAn=       5 diagonalized for initial guess.
 HarFok:  IExCor=20419 AccDes= 0.00D+00 IRadAn=         5 IDoV= 1 UseB2=F ITyADJ=14
 ICtDFT=  3500011 ScaDFX=  1.000000  1.000000  1.000000  1.000000
 FoFCou: FMM=F IPFlag=           0 FMFlag=      100000 FMFlg1=        2001
         NFxFlg=           0 DoJE=T BraDBF=F KetDBF=T FulRan=T
         wScrn=  0.000000 ICntrl=       500 IOpCl=  0 I1Cent=   200000004 NGrid=           0
         NMat0=    1 NMatS0=      1 NMatT0=    0 NMatD0=    1 NMtDS0=    0 NMtDT0=    0
 Petite list used in FoFCou.
 Requested convergence on RMS density matrix=1.00D-08 within 128 cycles.
 Requested convergence on MAX density matrix=1.00D-06.
 Requested convergence on             energy=1.00D-06.
 No special actions if energy rises.
 Integral accuracy reduced to 1.0D-05 until final iterations.
 Initial convergence to 1.0D-05 achieved.  Increase integral accuracy.
 SCF Done:  E(RCAM-B3LYP) =  -1857.18158141     A.U. after   15 cycles
            NFock= 15  Conv=0.89D-08     -V/T= 2.0095
 DoSCS=F DFT=T ScalE2(SS,OS)=  1.000000  1.000000
 ExpMin= 1.61D-01 ExpMax= 5.48D+03 ExpMxC= 8.25D+02 IAcc=3 IRadAn=         5 AccDes= 0.00D+00
 HarFok:  IExCor=  205 AccDes= 0.00D+00 IRadAn=         5 IDoV=-2 UseB2=F ITyADJ=14
 ICtDFT= 12500011 ScaDFX=  1.000000  1.000000  1.000000  1.000000
 GSVD:  LWork=       -2288 too small for GESVD, short by       10340 words or       10340 for optimal perf.
 Range of M.O.s used for correlation:    45   940
 NBasis=   940 NAE=   164 NBE=   164 NFC=    44 NFV=     0
 NROrb=    896 NOA=   120 NOB=   120 NVA=   776 NVB=   776
 Orbital symmetries:
       Occupied  (A) (A) (A) (A) (A) (A) (A) (A) (A) (A) (A) (A)
                 (A) (A) (A) (A) (A) (A) (A) (A) (A) (A) (A) (A)
                 (A) (A) (A) (A) (A) (A) (A) (A) (A) (A) (A) (A)
                 (A) (A) (A) (A) (A) (A) (A) (A) (A) (A) (A) (A)
                 (A) (A) (A) (A) (A) (A) (A) (A) (A) (A) (A) (A)
                 (A) (A) (A) (A) (A) (A) (A) (A) (A) (A) (A) (A)
                 (A) (A) (A) (A) (A) (A) (A) (A) (A) (A) (A) (A)
                 (A) (A) (A) (A) (A) (A) (A) (A) (A) (A) (A) (A)
                 (A) (A) (A) (A) (A) (A) (A) (A) (A) (A) (A) (A)
                 (A) (A) (A) (A) (A) (A) (A) (A) (A) (A) (A) (A)
                 (A) (A) (A) (A) (A) (A) (A) (A) (A) (A) (A) (A)
                 (A) (A) (A) (A) (A) (A) (A) (A) (A) (A) (A) (A)
                 (A) (A) (A) (A) (A) (A) (A) (A) (A) (A) (A) (A)
                 (A) (A) (A) (A) (A) (A) (A) (A)
       Virtual   (A) (A) (A) (A) (A) (A) (A) (A) (A) (A) (A) (A)
                 (A) (A) (A) (A) (A) (A) (A) (A) (A) (A) (A) (A)
                 (A) (A) (A) (A) (A) (A) (A) (A) (A) (A) (A) (A)
                 (A) (A) (A) (A) (A) (A) (A) (A) (A) (A) (A) (A)
                 (A) (A) (A) (A) (A) (A) (A) (A) (A) (A) (A) (A)
                 (A) (A) (A) (A) (A) (A) (A) (A) (A) (A) (A) (A)
                 (A) (A) (A) (A) (A) (A) (A) (A) (A) (A) (A) (A)
                 (A) (A) (A) (A) (A) (A) (A) (A) (A) (A) (A) (A)
                 (A) (A) (A) (A) (A) (A) (A) (A) (A) (A) (A) (A)
                 (A) (A) (A) (A) (A) (A) (A) (A) (A) (A) (A) (A)
                 (A) (A) (A) (A) (A) (A) (A) (A) (A) (A) (A) (A)
                 (A) (A) (A) (A) (A) (A) (A) (A) (A) (A) (A) (A)
                 (A) (A) (A) (A) (A) (A) (A) (A) (A) (A) (A) (A)
                 (A) (A) (A) (A) (A) (A) (A) (A) (A) (A) (A) (A)
                 (A) (A) (A) (A) (A) (A) (A) (A) (A) (A) (A) (A)
                 (A) (A) (A) (A) (A) (A) (A) (A) (A) (A) (A) (A)
                 (A) (A) (A) (A) (A) (A) (A) (A) (A) (A) (A) (A)
                 (A) (A) (A) (A) (A) (A) (A) (A) (A) (A) (A) (A)
                 (A) (A) (A) (A) (A) (A) (A) (A) (A) (A) (A) (A)
                 (A) (A) (A) (A) (A) (A) (A) (A) (A) (A) (A) (A)
                 (A) (A) (A) (A) (A) (A) (A) (A) (A) (A) (A) (A)
                 (A) (A) (A) (A) (A) (A) (A) (A) (A) (A) (A) (A)
                 (A) (A) (A) (A) (A) (A) (A) (A) (A) (A) (A) (A)
                 (A) (A) (A) (A) (A) (A) (A) (A) (A) (A) (A) (A)
                 (A) (A) (A) (A) (A) (A) (A) (A) (A) (A) (A) (A)
                 (A) (A) (A) (A) (A) (A) (A) (A) (A) (A) (A) (A)
                 (A) (A) (A) (A) (A) (A) (A) (A) (A) (A) (A) (A)
                 (A) (A) (A) (A) (A) (A) (A) (A) (A) (A) (A) (A)
                 (A) (A) (A) (A) (A) (A) (A) (A) (A) (A) (A) (A)
                 (A) (A) (A) (A) (A) (A) (A) (A) (A) (A) (A) (A)
                 (A) (A) (A) (A) (A) (A) (A) (A) (A) (A) (A) (A)
                 (A) (A) (A) (A) (A) (A) (A) (A) (A) (A) (A) (A)
                 (A) (A) (A) (A) (A) (A) (A) (A) (A) (A) (A) (A)
                 (A) (A) (A) (A) (A) (A) (A) (A) (A) (A) (A) (A)
                 (A) (A) (A) (A) (A) (A) (A) (A) (A) (A) (A) (A)
                 (A) (A) (A) (A) (A) (A) (A) (A) (A) (A) (A) (A)
                 (A) (A) (A) (A) (A) (A) (A) (A) (A) (A) (A) (A)
                 (A) (A) (A) (A) (A) (A) (A) (A) (A) (A) (A) (A)
                 (A) (A) (A) (A) (A) (A) (A) (A) (A) (A) (A) (A)
                 (A) (A) (A) (A) (A) (A) (A) (A) (A) (A) (A) (A)
                 (A) (A) (A) (A) (A) (A) (A) (A) (A) (A) (A) (A)
                 (A) (A) (A) (A) (A) (A) (A) (A) (A) (A) (A) (A)
                 (A) (A) (A) (A) (A) (A) (A) (A) (A) (A) (A) (A)
                 (A) (A) (A) (A) (A) (A) (A) (A) (A) (A) (A) (A)
                 (A) (A) (A) (A) (A) (A) (A) (A) (A) (A) (A) (A)
                 (A) (A) (A) (A) (A) (A) (A) (A) (A) (A) (A) (A)
                 (A) (A) (A) (A) (A) (A) (A) (A) (A) (A) (A) (A)
                 (A) (A) (A) (A) (A) (A) (A) (A) (A) (A) (A) (A)
                 (A) (A) (A) (A) (A) (A) (A) (A) (A) (A) (A) (A)
                 (A) (A) (A) (A) (A) (A) (A) (A) (A) (A) (A) (A)
                 (A) (A) (A) (A) (A) (A) (A) (A) (A) (A) (A) (A)
                 (A) (A) (A) (A) (A) (A) (A) (A) (A) (A) (A) (A)
                 (A) (A) (A) (A) (A) (A) (A) (A) (A) (A) (A) (A)
                 (A) (A) (A) (A) (A) (A) (A) (A) (A) (A) (A) (A)
                 (A) (A) (A) (A) (A) (A) (A) (A) (A) (A) (A) (A)
                 (A) (A) (A) (A) (A) (A) (A) (A) (A) (A) (A) (A)
                 (A) (A) (A) (A) (A) (A) (A) (A) (A) (A) (A) (A)
                 (A) (A) (A) (A) (A) (A) (A) (A) (A) (A) (A) (A)
                 (A) (A) (A) (A) (A) (A) (A) (A) (A) (A) (A) (A)
                 (A) (A) (A) (A) (A) (A) (A) (A) (A) (A) (A) (A)
                 (A) (A) (A) (A) (A) (A) (A) (A) (A) (A) (A) (A)
                 (A) (A) (A) (A) (A) (A) (A) (A) (A) (A) (A) (A)
                 (A) (A) (A) (A) (A) (A) (A) (A) (A) (A) (A) (A)
                 (A) (A) (A) (A) (A) (A) (A) (A) (A) (A) (A) (A)
                 (A) (A) (A) (A) (A) (A) (A) (A)
     4 initial guesses have been made.
 Convergence on wavefunction:    0.001000000000000
 Iteration     1 Dimension     4 NMult     0 NNew      4
 CISAX will form     4 AO SS matrices at one time.
 Iteration     2 Dimension     6 NMult     4 NNew      2
 Iteration     3 Dimension     8 NMult     6 NNew      2
 Iteration     4 Dimension    10 NMult     8 NNew      2
 Iteration     5 Dimension    12 NMult    10 NNew      2
 Iteration     6 Dimension    14 NMult    12 NNew      2
 ***********************************************************************
 Excited states from <AA,BB:AA,BB> singles matrix:
 ***********************************************************************
 
 Ground to excited state transition densities written to RWF  633
 Ground to excited state transition electric dipole moments (Au):
       state          X           Y           Z        Dip. S.      Osc.
         1        -8.0653      0.2833     -0.1180     65.1436      3.0977
 Ground to excited state transition velocity dipole moments (Au):
       state          X           Y           Z        Dip. S.      Osc.
         1         0.5561     -0.0183      0.0089      0.3096      2.8940
 Ground to excited state transition magnetic dipole moments (Au):
       state          X           Y           Z
         1        -0.0690     -0.2081     -2.1649
 Ground to excited state transition velocity quadrupole moments (Au):
       state          XX          YY          ZZ          XY          XZ          YZ
         1        -0.1648     -0.2309      0.0015     -0.2757      0.0480      0.0070
 <0|del|b> * <b|rxdel|0> + <0|del|b> * <b|delr+rdel|0>
 Rotatory Strengths (R) in cgs (10**-40 erg-esu-cm/Gauss)
       state          XX          YY          ZZ    R(velocity)    E-M Angle
         1       -84.7082   -254.4149   -195.1121   -178.0784       92.55
 1/2[<0|r|b>*<b|rxdel|0> + (<0|rxdel|b>*<b|r|0>)*]
 Rotatory Strengths (R) in cgs (10**-40 erg-esu-cm/Gauss)
       state          XX          YY          ZZ     R(length)
         1      -393.6250     41.7015   -180.6701   -177.5312
  1/2[<0|del|b>*<b|r|0> + (<0|r|b>*<b|del|0>)*] (Au)
       state          X           Y           Z        Dip. S.   Osc.(frdel)
         1        -4.4849     -0.0052     -0.0011      4.4912      2.9941

 Excitation energies and oscillator strengths:
 
 Excited State   1:      Singlet-A      1.9409 eV  638.79 nm  f=3.0977  <S**2>=0.000
     163 ->166         0.13920
     164 ->165         0.69659
     164 <-165        -0.10356
 This state for optimization and/or second-order correction.
 Total Energy, E(TD-HF/TD-DFT) =  -1857.11025376    
 Copying the excited state density for this state as the 1-particle RhoCI density.
 SavETr:  write IOETrn=   770 NScale= 10 NData=  16 NLR=1 NState=    1 LETran=      28.

 **********************************************************************

            Population analysis using the SCF density.

 **********************************************************************

 Orbital symmetries:
       Occupied  (A) (A) (A) (A) (A) (A) (A) (A) (A) (A) (A) (A)
                 (A) (A) (A) (A) (A) (A) (A) (A) (A) (A) (A) (A)
                 (A) (A) (A) (A) (A) (A) (A) (A) (A) (A) (A) (A)
                 (A) (A) (A) (A) (A) (A) (A) (A) (A) (A) (A) (A)
                 (A) (A) (A) (A) (A) (A) (A) (A) (A) (A) (A) (A)
                 (A) (A) (A) (A) (A) (A) (A) (A) (A) (A) (A) (A)
                 (A) (A) (A) (A) (A) (A) (A) (A) (A) (A) (A) (A)
                 (A) (A) (A) (A) (A) (A) (A) (A) (A) (A) (A) (A)
                 (A) (A) (A) (A) (A) (A) (A) (A) (A) (A) (A) (A)
                 (A) (A) (A) (A) (A) (A) (A) (A) (A) (A) (A) (A)
                 (A) (A) (A) (A) (A) (A) (A) (A) (A) (A) (A) (A)
                 (A) (A) (A) (A) (A) (A) (A) (A) (A) (A) (A) (A)
                 (A) (A) (A) (A) (A) (A) (A) (A) (A) (A) (A) (A)
                 (A) (A) (A) (A) (A) (A) (A) (A)
       Virtual   (A) (A) (A) (A) (A) (A) (A) (A) (A) (A) (A) (A)
                 (A) (A) (A) (A) (A) (A) (A) (A) (A) (A) (A) (A)
                 (A) (A) (A) (A) (A) (A) (A) (A) (A) (A) (A) (A)
                 (A) (A) (A) (A) (A) (A) (A) (A) (A) (A) (A) (A)
                 (A) (A) (A) (A) (A) (A) (A) (A) (A) (A) (A) (A)
                 (A) (A) (A) (A) (A) (A) (A) (A) (A) (A) (A) (A)
                 (A) (A) (A) (A) (A) (A) (A) (A) (A) (A) (A) (A)
                 (A) (A) (A) (A) (A) (A) (A) (A) (A) (A) (A) (A)
                 (A) (A) (A) (A) (A) (A) (A) (A) (A) (A) (A) (A)
                 (A) (A) (A) (A) (A) (A) (A) (A) (A) (A) (A) (A)
                 (A) (A) (A) (A) (A) (A) (A) (A) (A) (A) (A) (A)
                 (A) (A) (A) (A) (A) (A) (A) (A) (A) (A) (A) (A)
                 (A) (A) (A) (A) (A) (A) (A) (A) (A) (A) (A) (A)
                 (A) (A) (A) (A) (A) (A) (A) (A) (A) (A) (A) (A)
                 (A) (A) (A) (A) (A) (A) (A) (A) (A) (A) (A) (A)
                 (A) (A) (A) (A) (A) (A) (A) (A) (A) (A) (A) (A)
                 (A) (A) (A) (A) (A) (A) (A) (A) (A) (A) (A) (A)
                 (A) (A) (A) (A) (A) (A) (A) (A) (A) (A) (A) (A)
                 (A) (A) (A) (A) (A) (A) (A) (A) (A) (A) (A) (A)
                 (A) (A) (A) (A) (A) (A) (A) (A) (A) (A) (A) (A)
                 (A) (A) (A) (A) (A) (A) (A) (A) (A) (A) (A) (A)
                 (A) (A) (A) (A) (A) (A) (A) (A) (A) (A) (A) (A)
                 (A) (A) (A) (A) (A) (A) (A) (A) (A) (A) (A) (A)
                 (A) (A) (A) (A) (A) (A) (A) (A) (A) (A) (A) (A)
                 (A) (A) (A) (A) (A) (A) (A) (A) (A) (A) (A) (A)
                 (A) (A) (A) (A) (A) (A) (A) (A) (A) (A) (A) (A)
                 (A) (A) (A) (A) (A) (A) (A) (A) (A) (A) (A) (A)
                 (A) (A) (A) (A) (A) (A) (A) (A) (A) (A) (A) (A)
                 (A) (A) (A) (A) (A) (A) (A) (A) (A) (A) (A) (A)
                 (A) (A) (A) (A) (A) (A) (A) (A) (A) (A) (A) (A)
                 (A) (A) (A) (A) (A) (A) (A) (A) (A) (A) (A) (A)
                 (A) (A) (A) (A) (A) (A) (A) (A) (A) (A) (A) (A)
                 (A) (A) (A) (A) (A) (A) (A) (A) (A) (A) (A) (A)
                 (A) (A) (A) (A) (A) (A) (A) (A) (A) (A) (A) (A)
                 (A) (A) (A) (A) (A) (A) (A) (A) (A) (A) (A) (A)
                 (A) (A) (A) (A) (A) (A) (A) (A) (A) (A) (A) (A)
                 (A) (A) (A) (A) (A) (A) (A) (A) (A) (A) (A) (A)
                 (A) (A) (A) (A) (A) (A) (A) (A) (A) (A) (A) (A)
                 (A) (A) (A) (A) (A) (A) (A) (A) (A) (A) (A) (A)
                 (A) (A) (A) (A) (A) (A) (A) (A) (A) (A) (A) (A)
                 (A) (A) (A) (A) (A) (A) (A) (A) (A) (A) (A) (A)
                 (A) (A) (A) (A) (A) (A) (A) (A) (A) (A) (A) (A)
                 (A) (A) (A) (A) (A) (A) (A) (A) (A) (A) (A) (A)
                 (A) (A) (A) (A) (A) (A) (A) (A) (A) (A) (A) (A)
                 (A) (A) (A) (A) (A) (A) (A) (A) (A) (A) (A) (A)
                 (A) (A) (A) (A) (A) (A) (A) (A) (A) (A) (A) (A)
                 (A) (A) (A) (A) (A) (A) (A) (A) (A) (A) (A) (A)
                 (A) (A) (A) (A) (A) (A) (A) (A) (A) (A) (A) (A)
                 (A) (A) (A) (A) (A) (A) (A) (A) (A) (A) (A) (A)
                 (A) (A) (A) (A) (A) (A) (A) (A) (A) (A) (A) (A)
                 (A) (A) (A) (A) (A) (A) (A) (A) (A) (A) (A) (A)
                 (A) (A) (A) (A) (A) (A) (A) (A) (A) (A) (A) (A)
                 (A) (A) (A) (A) (A) (A) (A) (A) (A) (A) (A) (A)
                 (A) (A) (A) (A) (A) (A) (A) (A) (A) (A) (A) (A)
                 (A) (A) (A) (A) (A) (A) (A) (A) (A) (A) (A) (A)
                 (A) (A) (A) (A) (A) (A) (A) (A) (A) (A) (A) (A)
                 (A) (A) (A) (A) (A) (A) (A) (A) (A) (A) (A) (A)
                 (A) (A) (A) (A) (A) (A) (A) (A) (A) (A) (A) (A)
                 (A) (A) (A) (A) (A) (A) (A) (A) (A) (A) (A) (A)
                 (A) (A) (A) (A) (A) (A) (A) (A) (A) (A) (A) (A)
                 (A) (A) (A) (A) (A) (A) (A) (A) (A) (A) (A) (A)
                 (A) (A) (A) (A) (A) (A) (A) (A) (A) (A) (A) (A)
                 (A) (A) (A) (A) (A) (A) (A) (A) (A) (A) (A) (A)
                 (A) (A) (A) (A) (A) (A) (A) (A) (A) (A) (A) (A)
                 (A) (A) (A) (A) (A) (A) (A) (A)
 The electronic state is 1-A.
 Alpha  occ. eigenvalues --  -19.23506 -19.21801 -19.21771 -19.21745 -10.31896
 Alpha  occ. eigenvalues --  -10.31711 -10.31170 -10.29981 -10.29080 -10.28887
 Alpha  occ. eigenvalues --  -10.28401 -10.28279 -10.27992 -10.27980 -10.27495
 Alpha  occ. eigenvalues --  -10.27304 -10.27250 -10.27115 -10.27047 -10.26954
 Alpha  occ. eigenvalues --  -10.26893 -10.26798 -10.26685 -10.26648 -10.26426
 Alpha  occ. eigenvalues --  -10.26379 -10.26358 -10.26257 -10.26199 -10.26137
 Alpha  occ. eigenvalues --  -10.26133 -10.26111 -10.26021 -10.25999 -10.25952
 Alpha  occ. eigenvalues --  -10.25713 -10.25677 -10.25470 -10.25182 -10.25173
 Alpha  occ. eigenvalues --  -10.25162 -10.25136 -10.24598 -10.24061  -1.16323
 Alpha  occ. eigenvalues --   -1.11145  -1.05178  -1.04726  -0.93603  -0.92389
 Alpha  occ. eigenvalues --   -0.91947  -0.91032  -0.90721  -0.89716  -0.87401
 Alpha  occ. eigenvalues --   -0.86738  -0.86170  -0.85282  -0.84275  -0.83279
 Alpha  occ. eigenvalues --   -0.81978  -0.81397  -0.80017  -0.78289  -0.77879
 Alpha  occ. eigenvalues --   -0.77227  -0.76680  -0.76325  -0.76003  -0.75654
 Alpha  occ. eigenvalues --   -0.74992  -0.73840  -0.72595  -0.71774  -0.69841
 Alpha  occ. eigenvalues --   -0.68651  -0.66269  -0.65137  -0.64945  -0.63838
 Alpha  occ. eigenvalues --   -0.63343  -0.62501  -0.61370  -0.60275  -0.59831
 Alpha  occ. eigenvalues --   -0.59073  -0.57990  -0.57956  -0.57906  -0.56244
 Alpha  occ. eigenvalues --   -0.56128  -0.55679  -0.54873  -0.54526  -0.53989
 Alpha  occ. eigenvalues --   -0.53401  -0.53026  -0.52756  -0.51942  -0.51888
 Alpha  occ. eigenvalues --   -0.51555  -0.50967  -0.50604  -0.50108  -0.49918
 Alpha  occ. eigenvalues --   -0.49611  -0.49171  -0.49002  -0.48549  -0.48505
 Alpha  occ. eigenvalues --   -0.48123  -0.48009  -0.47607  -0.47404  -0.47229
 Alpha  occ. eigenvalues --   -0.46763  -0.46207  -0.46133  -0.45704  -0.45101
 Alpha  occ. eigenvalues --   -0.44920  -0.44664  -0.44132  -0.44046  -0.43842
 Alpha  occ. eigenvalues --   -0.43592  -0.43460  -0.42993  -0.42636  -0.42541
 Alpha  occ. eigenvalues --   -0.42473  -0.42002  -0.41686  -0.41455  -0.41175
 Alpha  occ. eigenvalues --   -0.40656  -0.40541  -0.40266  -0.39510  -0.39430
 Alpha  occ. eigenvalues --   -0.39235  -0.39134  -0.38663  -0.38502  -0.38371
 Alpha  occ. eigenvalues --   -0.38162  -0.38122  -0.37841  -0.37361  -0.36808
 Alpha  occ. eigenvalues --   -0.36164  -0.35517  -0.34451  -0.34081  -0.33539
 Alpha  occ. eigenvalues --   -0.32998  -0.32607  -0.32015  -0.31252  -0.30540
 Alpha  occ. eigenvalues --   -0.30258  -0.27406  -0.23396  -0.18645
 Alpha virt. eigenvalues --   -0.06363  -0.01263   0.02846   0.06081   0.06874
 Alpha virt. eigenvalues --    0.07184   0.08333   0.09473   0.09776   0.10915
 Alpha virt. eigenvalues --    0.12262   0.12339   0.12720   0.13373   0.13718
 Alpha virt. eigenvalues --    0.14079   0.14570   0.14681   0.14916   0.15126
 Alpha virt. eigenvalues --    0.15310   0.15543   0.15837   0.16004   0.16303
 Alpha virt. eigenvalues --    0.16434   0.16706   0.16892   0.16990   0.17143
 Alpha virt. eigenvalues --    0.17658   0.17826   0.18378   0.18741   0.18835
 Alpha virt. eigenvalues --    0.18932   0.19633   0.19810   0.19973   0.20331
 Alpha virt. eigenvalues --    0.20611   0.21144   0.21285   0.21421   0.21774
 Alpha virt. eigenvalues --    0.21912   0.22366   0.22551   0.22767   0.22911
 Alpha virt. eigenvalues --    0.22963   0.23167   0.23346   0.23646   0.24080
 Alpha virt. eigenvalues --    0.24350   0.24760   0.24971   0.25052   0.25426
 Alpha virt. eigenvalues --    0.25872   0.26162   0.26544   0.26827   0.27009
 Alpha virt. eigenvalues --    0.27530   0.28077   0.28378   0.28732   0.29352
 Alpha virt. eigenvalues --    0.29528   0.29796   0.29886   0.30174   0.30843
 Alpha virt. eigenvalues --    0.31027   0.31322   0.31464   0.31916   0.32229
 Alpha virt. eigenvalues --    0.32472   0.32850   0.33069   0.33591   0.33682
 Alpha virt. eigenvalues --    0.33952   0.34156   0.35345   0.35654   0.36547
 Alpha virt. eigenvalues --    0.36774   0.37460   0.38021   0.38438   0.38825
 Alpha virt. eigenvalues --    0.39883   0.40566   0.42071   0.42334   0.42959
 Alpha virt. eigenvalues --    0.43177   0.43480   0.45035   0.45351   0.46195
 Alpha virt. eigenvalues --    0.47157   0.47667   0.48551   0.50290   0.51148
 Alpha virt. eigenvalues --    0.54182   0.54558   0.54850   0.55324   0.55672
 Alpha virt. eigenvalues --    0.55926   0.56735   0.57271   0.57648   0.57814
 Alpha virt. eigenvalues --    0.58214   0.58556   0.58611   0.59312   0.59592
 Alpha virt. eigenvalues --    0.59851   0.60371   0.60823   0.61061   0.61179
 Alpha virt. eigenvalues --    0.61497   0.61739   0.62248   0.62346   0.62930
 Alpha virt. eigenvalues --    0.63069   0.63464   0.63592   0.63774   0.64184
 Alpha virt. eigenvalues --    0.64644   0.65141   0.65556   0.65787   0.66260
 Alpha virt. eigenvalues --    0.66328   0.66713   0.66851   0.66916   0.67151
 Alpha virt. eigenvalues --    0.67517   0.67733   0.68125   0.68450   0.68522
 Alpha virt. eigenvalues --    0.69097   0.69528   0.69673   0.70112   0.70447
 Alpha virt. eigenvalues --    0.70771   0.70802   0.71079   0.71356   0.72188
 Alpha virt. eigenvalues --    0.72271   0.72435   0.72707   0.73228   0.73636
 Alpha virt. eigenvalues --    0.74789   0.74960   0.75235   0.75878   0.76321
 Alpha virt. eigenvalues --    0.77471   0.77812   0.78597   0.78665   0.78768
 Alpha virt. eigenvalues --    0.79076   0.79362   0.79609   0.80079   0.80248
 Alpha virt. eigenvalues --    0.80713   0.80789   0.81283   0.81559   0.81982
 Alpha virt. eigenvalues --    0.82234   0.82923   0.83018   0.83089   0.83403
 Alpha virt. eigenvalues --    0.83766   0.83950   0.84095   0.84337   0.84520
 Alpha virt. eigenvalues --    0.84783   0.85140   0.85497   0.85771   0.86352
 Alpha virt. eigenvalues --    0.86532   0.86601   0.87543   0.87725   0.87990
 Alpha virt. eigenvalues --    0.88854   0.89200   0.89344   0.89583   0.89654
 Alpha virt. eigenvalues --    0.89802   0.89970   0.90305   0.90474   0.90770
 Alpha virt. eigenvalues --    0.91148   0.91296   0.91445   0.91568   0.91899
 Alpha virt. eigenvalues --    0.92252   0.92439   0.92720   0.93425   0.93484
 Alpha virt. eigenvalues --    0.94050   0.94178   0.94396   0.94507   0.94944
 Alpha virt. eigenvalues --    0.95223   0.95620   0.95776   0.96073   0.96277
 Alpha virt. eigenvalues --    0.96382   0.96743   0.96891   0.97219   0.97834
 Alpha virt. eigenvalues --    0.97873   0.98804   0.99177   0.99337   0.99448
 Alpha virt. eigenvalues --    0.99666   0.99921   1.00559   1.00821   1.01040
 Alpha virt. eigenvalues --    1.01234   1.01255   1.01828   1.02017   1.02301
 Alpha virt. eigenvalues --    1.03237   1.03693   1.03809   1.04270   1.04860
 Alpha virt. eigenvalues --    1.05206   1.05472   1.06031   1.06761   1.07473
 Alpha virt. eigenvalues --    1.08104   1.08319   1.08796   1.09318   1.09581
 Alpha virt. eigenvalues --    1.10258   1.11498   1.11888   1.12123   1.13508
 Alpha virt. eigenvalues --    1.13917   1.14203   1.14549   1.15137   1.15380
 Alpha virt. eigenvalues --    1.15898   1.16119   1.16754   1.17081   1.17652
 Alpha virt. eigenvalues --    1.17990   1.19028   1.19304   1.19753   1.20219
 Alpha virt. eigenvalues --    1.20735   1.21647   1.21951   1.23243   1.24201
 Alpha virt. eigenvalues --    1.24579   1.24839   1.25812   1.26287   1.27072
 Alpha virt. eigenvalues --    1.27174   1.28068   1.29045   1.29458   1.30387
 Alpha virt. eigenvalues --    1.31347   1.31918   1.32161   1.32481   1.32818
 Alpha virt. eigenvalues --    1.33045   1.33893   1.34952   1.35623   1.37438
 Alpha virt. eigenvalues --    1.38098   1.39387   1.39734   1.40418   1.40711
 Alpha virt. eigenvalues --    1.41196   1.41876   1.42255   1.43128   1.43300
 Alpha virt. eigenvalues --    1.44291   1.44789   1.44937   1.45700   1.46649
 Alpha virt. eigenvalues --    1.47371   1.48338   1.49301   1.49981   1.50569
 Alpha virt. eigenvalues --    1.50845   1.51054   1.52494   1.52995   1.53311
 Alpha virt. eigenvalues --    1.53785   1.54290   1.55297   1.56200   1.57258
 Alpha virt. eigenvalues --    1.57511   1.58460   1.59752   1.60217   1.61477
 Alpha virt. eigenvalues --    1.61722   1.62209   1.62757   1.64362   1.64678
 Alpha virt. eigenvalues --    1.65646   1.66240   1.66755   1.67492   1.68322
 Alpha virt. eigenvalues --    1.69515   1.70513   1.71007   1.71802   1.71835
 Alpha virt. eigenvalues --    1.73540   1.73556   1.73655   1.75201   1.77822
 Alpha virt. eigenvalues --    1.78779   1.79291   1.79498   1.81100   1.81326
 Alpha virt. eigenvalues --    1.81922   1.81967   1.82664   1.83056   1.83122
 Alpha virt. eigenvalues --    1.83475   1.83832   1.84051   1.84741   1.85098
 Alpha virt. eigenvalues --    1.85531   1.85836   1.86387   1.86609   1.86926
 Alpha virt. eigenvalues --    1.87354   1.87517   1.88355   1.88556   1.88720
 Alpha virt. eigenvalues --    1.89271   1.89328   1.89733   1.90398   1.90779
 Alpha virt. eigenvalues --    1.91474   1.91818   1.91903   1.92105   1.92662
 Alpha virt. eigenvalues --    1.93069   1.93439   1.93706   1.94010   1.94656
 Alpha virt. eigenvalues --    1.94944   1.95155   1.95538   1.96284   1.96708
 Alpha virt. eigenvalues --    1.97072   1.97354   1.97411   1.97575   1.97698
 Alpha virt. eigenvalues --    1.98695   1.99356   1.99442   1.99960   2.00026
 Alpha virt. eigenvalues --    2.00616   2.01179   2.01636   2.02089   2.02339
 Alpha virt. eigenvalues --    2.02490   2.03289   2.03619   2.04493   2.04865
 Alpha virt. eigenvalues --    2.06306   2.06368   2.06548   2.06935   2.07247
 Alpha virt. eigenvalues --    2.07444   2.08080   2.08491   2.08733   2.09288
 Alpha virt. eigenvalues --    2.09652   2.10457   2.10720   2.10979   2.11352
 Alpha virt. eigenvalues --    2.12160   2.12435   2.12706   2.12862   2.13064
 Alpha virt. eigenvalues --    2.13176   2.13695   2.13825   2.14133   2.14515
 Alpha virt. eigenvalues --    2.14814   2.15360   2.15629   2.16028   2.16538
 Alpha virt. eigenvalues --    2.17280   2.17743   2.18075   2.18546   2.18805
 Alpha virt. eigenvalues --    2.19020   2.19516   2.19861   2.20456   2.20861
 Alpha virt. eigenvalues --    2.21152   2.21471   2.21793   2.22100   2.22878
 Alpha virt. eigenvalues --    2.23356   2.23537   2.23699   2.24033   2.24145
 Alpha virt. eigenvalues --    2.25179   2.25297   2.25905   2.26120   2.26640
 Alpha virt. eigenvalues --    2.26672   2.26857   2.27634   2.27746   2.28014
 Alpha virt. eigenvalues --    2.28271   2.28630   2.28887   2.29164   2.29293
 Alpha virt. eigenvalues --    2.30520   2.31482   2.31738   2.32323   2.32536
 Alpha virt. eigenvalues --    2.32820   2.33715   2.34138   2.35069   2.35666
 Alpha virt. eigenvalues --    2.36395   2.37031   2.37686   2.37991   2.38627
 Alpha virt. eigenvalues --    2.38927   2.39337   2.39802   2.39999   2.40222
 Alpha virt. eigenvalues --    2.40511   2.40731   2.40874   2.43230   2.43308
 Alpha virt. eigenvalues --    2.43669   2.44059   2.44797   2.45171   2.45193
 Alpha virt. eigenvalues --    2.45278   2.45941   2.46893   2.46980   2.47671
 Alpha virt. eigenvalues --    2.47996   2.48552   2.49242   2.49836   2.50082
 Alpha virt. eigenvalues --    2.51092   2.51467   2.51674   2.51781   2.52104
 Alpha virt. eigenvalues --    2.52860   2.53217   2.53325   2.53606   2.53845
 Alpha virt. eigenvalues --    2.54463   2.54824   2.55317   2.55431   2.55682
 Alpha virt. eigenvalues --    2.56339   2.56673   2.57390   2.57877   2.58348
 Alpha virt. eigenvalues --    2.58874   2.59526   2.59742   2.60106   2.60304
 Alpha virt. eigenvalues --    2.62196   2.62516   2.62765   2.63117   2.63260
 Alpha virt. eigenvalues --    2.63438   2.64260   2.64562   2.64681   2.66233
 Alpha virt. eigenvalues --    2.67051   2.67416   2.67453   2.67851   2.68293
 Alpha virt. eigenvalues --    2.68652   2.69101   2.70208   2.70449   2.70800
 Alpha virt. eigenvalues --    2.70914   2.71787   2.72517   2.72620   2.73692
 Alpha virt. eigenvalues --    2.73741   2.74012   2.74144   2.74956   2.75259
 Alpha virt. eigenvalues --    2.75524   2.76405   2.76979   2.77159   2.77793
 Alpha virt. eigenvalues --    2.78268   2.78808   2.79268   2.79461   2.79848
 Alpha virt. eigenvalues --    2.80525   2.80767   2.80934   2.81996   2.82085
 Alpha virt. eigenvalues --    2.82339   2.82472   2.82887   2.83317   2.83867
 Alpha virt. eigenvalues --    2.84713   2.85110   2.86053   2.86306   2.87591
 Alpha virt. eigenvalues --    2.87849   2.88083   2.89248   2.89642   2.90188
 Alpha virt. eigenvalues --    2.90556   2.90996   2.92017   2.92344   2.92477
 Alpha virt. eigenvalues --    2.93013   2.93335   2.93634   2.94219   2.95182
 Alpha virt. eigenvalues --    2.95442   2.95646   2.96873   2.97344   2.98297
 Alpha virt. eigenvalues --    2.98887   2.99080   3.00074   3.00171   3.01010
 Alpha virt. eigenvalues --    3.01566   3.02443   3.02594   3.03277   3.03983
 Alpha virt. eigenvalues --    3.04198   3.05064   3.05952   3.07428   3.07833
 Alpha virt. eigenvalues --    3.08958   3.09716   3.09941   3.10931   3.14345
 Alpha virt. eigenvalues --    3.14705   3.15487   3.16384   3.16658   3.17681
 Alpha virt. eigenvalues --    3.17878   3.18733   3.19768   3.20377   3.20858
 Alpha virt. eigenvalues --    3.21756   3.22485   3.22791   3.24919   3.25555
 Alpha virt. eigenvalues --    3.26883   3.27621   3.28358   3.28981   3.30552
 Alpha virt. eigenvalues --    3.30864   3.31896   3.34931   3.34932   3.36464
 Alpha virt. eigenvalues --    3.37115   3.39968   3.40108   3.40570   3.42160
 Alpha virt. eigenvalues --    3.42256   3.42338   3.44098   3.44409   3.44462
 Alpha virt. eigenvalues --    3.44662   3.45499   3.46131   3.47270   3.47611
 Alpha virt. eigenvalues --    3.48886   3.49660   3.51270   3.52032   3.53376
 Alpha virt. eigenvalues --    3.54120   3.54815   3.55640   3.57268   3.58447
 Alpha virt. eigenvalues --    3.59979   3.60565   3.61479   3.61546   3.61886
 Alpha virt. eigenvalues --    3.62850   3.67148   3.67203   3.67546   3.68983
 Alpha virt. eigenvalues --    3.69359   3.73580   3.79273   3.87320   3.87893
 Alpha virt. eigenvalues --    3.90675   3.96508   4.00003   4.08435   4.12281
 Alpha virt. eigenvalues --    4.18235   4.19792   4.20327   4.22003   4.23623
 Alpha virt. eigenvalues --    4.25365   4.27885   4.31591   4.34508   4.35401
 Alpha virt. eigenvalues --    4.37171   4.40934   4.43450   4.45055   4.45940
 Alpha virt. eigenvalues --    4.47162   4.49421   4.49722   4.53932   4.55359
 Alpha virt. eigenvalues --    4.56416   4.58157   4.60900   4.61483   4.61718
 Alpha virt. eigenvalues --    4.64645   4.65237   4.69010   4.71475   4.72637
 Alpha virt. eigenvalues --    4.72906   4.77418   4.81434   4.82814   4.85024
 Alpha virt. eigenvalues --    4.86279   4.93099   4.95719   4.95805   4.97258
 Alpha virt. eigenvalues --    4.99783
          Condensed to atoms (all electrons):
 Mulliken charges:
               1
     1  O   -0.508020
     2  O   -0.561148
     3  O   -0.570187
     4  O   -0.537400
     5  C    0.162938
     6  C    0.285654
     7  C    0.018999
     8  C   -0.201762
     9  C   -0.166299
    10  C    0.148503
    11  C   -0.320125
    12  C   -0.122950
    13  C   -0.312619
    14  C   -0.304360
    15  C   -0.102927
    16  C    0.089211
    17  C   -0.374324
    18  C   -0.118100
    19  C   -0.044632
    20  C    0.054352
    21  C    0.245769
    22  C   -0.233813
    23  C    0.259061
    24  C   -0.208443
    25  C   -0.134261
    26  C   -0.300715
    27  C   -0.322317
    28  C   -0.304362
    29  C   -0.156160
    30  C    0.216279
    31  C    0.124036
    32  C   -0.256392
    33  C   -0.393355
    34  C   -0.108471
    35  C    0.183593
    36  C   -0.405415
    37  C   -0.147413
    38  C   -0.087843
    39  C   -0.075359
    40  C   -0.111584
    41  C   -0.097888
    42  C   -0.130689
    43  C    0.093974
    44  C   -0.365112
    45  H    0.122400
    46  H    0.108420
    47  H    0.098337
    48  H    0.115992
    49  H    0.095246
    50  H    0.089701
    51  H    0.120759
    52  H    0.092915
    53  H    0.125111
    54  H    0.117867
    55  H    0.104527
    56  H    0.096281
    57  H    0.101856
    58  H    0.092367
    59  H    0.090123
    60  H    0.269635
    61  H    0.084787
    62  H    0.101753
    63  H    0.129538
    64  H    0.106606
    65  H    0.099154
    66  H    0.078511
    67  H    0.071692
    68  H    0.084143
    69  H    0.053009
    70  H    0.096517
    71  H    0.120874
    72  H    0.103094
    73  H    0.083393
    74  H    0.122475
    75  H    0.128344
    76  H    0.099030
    77  H    0.097080
    78  H    0.124575
    79  H    0.071934
    80  H    0.134442
    81  H    0.079122
    82  H    0.289685
    83  H    0.298764
    84  H    0.097531
    85  H    0.122601
    86  H    0.121693
    87  H    0.109470
    88  H    0.072867
    89  H    0.105575
    90  H    0.159341
    91  H    0.065220
    92  H    0.062684
    93  H    0.087358
    94  H    0.062876
    95  H    0.084905
    96  H    0.091289
    97  H    0.091152
    98  H    0.120395
    99  H    0.119900
   100  H    0.127161
 Sum of Mulliken charges =  -0.00000
 Mulliken charges with hydrogens summed into heavy atoms:
               1
     1  O   -0.508020
     2  O   -0.291513
     3  O   -0.280503
     4  O   -0.238637
     5  C    0.162938
     6  C    0.285654
     7  C    0.018999
     8  C    0.029058
     9  C    0.048030
    10  C    0.243749
    11  C   -0.016750
    12  C    0.002161
    13  C    0.006056
    14  C   -0.020014
    15  C   -0.018140
    16  C    0.089211
    17  C   -0.036427
    18  C   -0.018945
    19  C    0.033879
    20  C    0.054352
    21  C    0.245769
    22  C   -0.077978
    23  C    0.312070
    24  C    0.008948
    25  C   -0.134261
    26  C    0.008248
    27  C    0.002137
    28  C    0.026589
    29  C   -0.077038
    30  C    0.216279
    31  C    0.124036
    32  C   -0.158861
    33  C   -0.039590
    34  C   -0.035604
    35  C    0.183593
    36  C   -0.075279
    37  C   -0.084730
    38  C   -0.000485
    39  C   -0.012483
    40  C   -0.026680
    41  C   -0.006598
    42  C   -0.039537
    43  C    0.093974
    44  C    0.002344
 Electronic spatial extent (au):  <R**2>=         115600.9448
 Charge=             -0.0000 electrons
 Dipole moment (field-independent basis, Debye):
    X=              5.8200    Y=             -0.2606    Z=              1.9711  Tot=              6.1503
 Quadrupole moment (field-independent basis, Debye-Ang):
   XX=           -260.8120   YY=           -260.3679   ZZ=           -275.9699
   XY=             -6.6773   XZ=             26.7587   YZ=             -4.8642
 Traceless Quadrupole moment (field-independent basis, Debye-Ang):
   XX=              4.9046   YY=              5.3487   ZZ=            -10.2533
   XY=             -6.6773   XZ=             26.7587   YZ=             -4.8642
 Octapole moment (field-independent basis, Debye-Ang**2):
  XXX=           1498.8962  YYY=              6.0464  ZZZ=            -13.3011  XYY=             92.0526
  XXY=             51.6030  XXZ=            294.2938  XZZ=             55.5231  YZZ=             -4.7073
  YYZ=            -13.9479  XYZ=           -135.3677
 Hexadecapole moment (field-independent basis, Debye-Ang**3):
 XXXX=        -147608.1213 YYYY=          -3588.8074 ZZZZ=          -2322.7552 XXXY=          -3096.6343
 XXXZ=           5861.2443 YYYX=           -362.2105 YYYZ=            -12.1933 ZZZX=            -72.9344
 ZZZY=            -18.3426 XXYY=         -25749.0789 XXZZ=         -25481.4836 YYZZ=          -1024.1651
 XXYZ=           -176.5939 YYXZ=            146.2603 ZZXY=             88.6419
 N-N= 4.456690098831D+03 E-N=-1.322367981556D+04  KE= 1.839636258063D+03
 1\1\GINC-RYZEN-SSD3\SP\RCAM-B3LYP TD-FC\6-31G(d,p)\C40H56O4\PADAWAN\01
 -Aug-2019\0\\# td=(NStates=1) CAM-B3LYP/6-31G(d,p)\\TD\\0,1\O,0,-11.76
 8743542,0.2121418626,-1.5848756512\O,0,-12.9484956854,-2.4510534133,1.
 3774234273\O,0,10.6940249224,-0.9449743853,-2.2049842247\O,0,14.479661
 3328,-1.2117598975,-0.0700314905\C,0,-11.0505132185,-0.1616601207,-0.3
 598754119\C,0,-11.6932556153,-1.1264638263,-1.2620450448\C,0,-11.81148
 31913,0.3862453073,0.8726469197\C,0,-12.9447296767,-1.8447646344,-0.93
 25648905\C,0,-13.3293313911,0.0133138838,0.8238170696\C,0,-13.46540297
 38,-1.4839899368,0.4168004473\C,0,-10.8888844771,-1.8650719247,-2.2407
 763959\C,0,-9.5976592097,0.1380209359,-0.4588828464\C,0,-11.2687628537
 ,-0.1029658926,2.3045355207\C,0,-11.8011404943,1.9111462177,0.89070716
 24\C,0,-8.7166650882,-0.7414621874,0.2962283618\C,0,-7.2517331629,-0.5
 595978059,0.3003677371\C,0,-6.4610201169,-1.7475534441,0.7311253488\C,
 0,-6.6823738991,0.6556363935,0.004311876\C,0,-5.2802379654,0.811473184
 ,0.0503607059\C,0,11.8781170586,0.1010901385,1.3661361417\C,0,11.80338
 76289,-0.5291290681,-1.2321970994\C,0,12.617368965,-1.3685310828,1.421
 3868721\C,0,13.3439690836,-1.9346079942,0.2054145059\C,0,12.3222871634
 ,-1.8034548545,-0.9711210746\C,0,11.143411229,0.0853032782,0.043241504
 5\C,0,10.991380543,0.1584424862,2.5498573259\C,0,12.9513082475,1.15404
 86257,1.3353265837\C,0,12.6434206483,0.4731261859,-2.0243563834\C,0,-4
 .7327197677,2.1015926653,-0.3777926282\C,0,9.9487560631,0.5228930921,-
 0.022463423\C,0,-3.3726824266,2.4512238761,-0.4958098417\C,0,8.7189816
 842,1.0294392777,-0.1297673167\C,0,-3.073509036,3.8889003495,-0.794619
 194\C,0,-2.3864455597,1.6002918779,-0.2449370284\C,0,7.55337488,0.1776
 583538,0.0670175177\C,0,7.8083855751,-1.1734342955,0.2032902519\C,0,6.
 2981311611,0.7621531456,0.0172977938\C,0,-1.008314963,1.8768568094,-0.
 303708546\C,0,5.004962099,0.1184809642,0.0838697558\C,0,-0.0035738784,
 0.8558188918,-0.3639755004\C,0,3.7857079785,0.8954198924,-0.028970366\
 C,0,1.400121953,1.1827800057,-0.2222146024\C,0,2.5348113816,0.27066636
 63,0.0398473426\C,0,2.2904589076,-1.1077249528,0.2688954831\H,0,-12.75
 39471955,-2.9727002478,-0.8051357376\H,0,-13.575172741,-1.436147599,-1
 .8326197167\H,0,-13.7825960618,0.2093880076,1.8396666494\H,0,-13.82986
 23798,0.44232936,0.0348711527\H,0,-14.5364209462,-1.7988686003,0.58642
 02463\H,0,-10.2805866756,-2.7355003328,-1.7596812635\H,0,-11.375617770
 7,-2.2328980812,-3.0901773039\H,0,-9.9759797815,-1.1402932379,-2.60552
 21647\H,0,-9.3156402188,0.8452566567,-1.1974835585\H,0,-10.3397052981,
 0.3842796921,2.3966154043\H,0,-12.0685322141,0.3258292845,2.9675851086
 \H,0,-11.2011908128,-1.1652033968,2.6652373134\H,0,-12.1451370562,2.36
 44925713,-0.2116779518\H,0,-12.397726012,2.5668522607,1.7526789797\H,0
 ,-10.7218124633,2.3063812286,0.8850327968\H,0,-11.7558386564,-2.379390
 8127,1.3907235513\H,0,-9.0377346154,-1.5931976775,0.8860777067\H,0,-5.
 9688463307,-2.3435876839,-0.2047385183\H,0,-5.6745198673,-1.5589811307
 ,1.4082492211\H,0,-7.0656566763,-2.5021024832,1.2185180026\H,0,-7.3576
 770788,1.4975580849,-0.0945091274\H,0,-4.4976764123,0.1927778962,0.214
 2176461\H,0,13.3616018373,-1.2890605935,2.193224263\H,0,11.8908742644,
 -2.2552949095,1.7052465244\H,0,13.4720995669,-2.7604977148,0.195256451
 5\H,0,12.6681342519,-2.0756740459,-2.1115742521\H,0,11.5705170599,-2.4
 957086948,-0.6989252346\H,0,11.5668262908,0.3587162383,3.4211771564\H,
 0,10.2092679045,1.1129568588,2.6439819224\H,0,10.3509627175,-0.6361419
 287,2.6676330045\H,0,13.8689637983,0.9574743716,0.7114152063\H,0,12.53
 84064538,2.1360030381,0.8241871244\H,0,13.4071265498,1.2133658157,2.32
 45589375\H,0,13.0027110906,0.1715605465,-2.9324056925\H,0,12.064513519
 8,1.5047525662,-2.2014480797\H,0,13.4240832409,0.75027108,-1.545990084
 4\H,0,-5.6487070946,2.6864930361,-0.7663780486\H,0,10.3964808987,0.083
 1496574,-2.6758399198\H,0,14.9602288681,-1.2939892133,0.9196205614\H,0
 ,8.5464364944,2.0043527625,-0.2853058078\H,0,-2.4688019644,4.374933943
 1,0.0347093006\H,0,-2.5346822325,4.0160688317,-1.7834214512\H,0,-3.987
 7651616,4.5595641382,-0.8509849\H,0,-2.5886884889,0.5365058626,-0.1029
 632509\H,0,7.0384165916,-2.0316027224,0.2402765124\H,0,8.492974512,-1.
 4910738322,-0.5490256767\H,0,8.5190418258,-1.4107534037,1.275481309\H,
 0,6.2652516723,1.9488586913,-0.1258246022\H,0,-0.890470404,2.919065950
 1,-0.5869086024\H,0,4.9229982862,-0.8505015469,0.1121939005\H,0,-0.374
 7163948,-0.1987216851,-0.2057579647\H,0,4.1471838863,1.926618298,-0.20
 10123262\H,0,1.6452814033,2.2390496969,-0.030565755\H,0,1.2666955044,-
 1.4019567999,0.3027292685\H,0,3.0783091557,-1.5358898905,-0.4446522352
 \H,0,2.6559122876,-1.3512893579,1.304073694\\Version=ES64L-G16RevA.03\
 State=1-A\HF=-1857.1815814\RMSD=8.935e-09\PG=C01 [X(C40H56O4)]\\@


 HE THAT FOLLOWS NATURE IS NEVER LOST.

                             -- BACON
 Job cpu time:       0 days  7 hours  3 minutes 30.3 seconds.
 Elapsed time:       0 days  2 hours 21 minutes 26.7 seconds.
 File lengths (MBytes):  RWF=   3379 Int=      0 D2E=      0 Chk=     90 Scr=      1
 Normal termination of Gaussian 16 at Thu Aug  1 02:06:24 2019.
