 Entering Gaussian System, Link 0=g16
 Input=Geometria-323-.com
 Output=Geometria-323-.log
 Initial command:
 /usr/local/g16/l1.exe "/home/padawan/israel-mol/neoxanthin/spectra/emi/Gau-108224.inp" -scrdir="/home/padawan/israel-mol/neoxanthin/spectra/emi/"
 Entering Link 1 = /usr/local/g16/l1.exe PID=    108226.
  
 Copyright (c) 1988,1990,1992,1993,1995,1998,2003,2009,2016,
            Gaussian, Inc.  All Rights Reserved.
  
 This is part of the Gaussian(R) 16 program.  It is based on
 the Gaussian(R) 09 system (copyright 2009, Gaussian, Inc.),
 the Gaussian(R) 03 system (copyright 2003, Gaussian, Inc.),
 the Gaussian(R) 98 system (copyright 1998, Gaussian, Inc.),
 the Gaussian(R) 94 system (copyright 1995, Gaussian, Inc.),
 the Gaussian 92(TM) system (copyright 1992, Gaussian, Inc.),
 the Gaussian 90(TM) system (copyright 1990, Gaussian, Inc.),
 the Gaussian 88(TM) system (copyright 1988, Gaussian, Inc.),
 the Gaussian 86(TM) system (copyright 1986, Carnegie Mellon
 University), and the Gaussian 82(TM) system (copyright 1983,
 Carnegie Mellon University). Gaussian is a federally registered
 trademark of Gaussian, Inc.
  
 This software contains proprietary and confidential information,
 including trade secrets, belonging to Gaussian, Inc.
  
 This software is provided under written license and may be
 used, copied, transmitted, or stored only in accord with that
 written license.
  
 The following legend is applicable only to US Government
 contracts under FAR:
  
                    RESTRICTED RIGHTS LEGEND
  
 Use, reproduction and disclosure by the US Government is
 subject to restrictions as set forth in subparagraphs (a)
 and (c) of the Commercial Computer Software - Restricted
 Rights clause in FAR 52.227-19.
  
 Gaussian, Inc.
 340 Quinnipiac St., Bldg. 40, Wallingford CT 06492
  
  
 ---------------------------------------------------------------
 Warning -- This program may not be used in any manner that
 competes with the business of Gaussian, Inc. or will provide
 assistance to any competitor of Gaussian, Inc.  The licensee
 of this program is prohibited from giving any competitor of
 Gaussian, Inc. access to this program.  By using this program,
 the user acknowledges that Gaussian, Inc. is engaged in the
 business of creating and licensing software in the field of
 computational chemistry and represents and warrants to the
 licensee that it is not a competitor of Gaussian, Inc. and that
 it will not use this program in any manner prohibited above.
 ---------------------------------------------------------------
  

 Cite this work as:
 Gaussian 16, Revision A.03,
 M. J. Frisch, G. W. Trucks, H. B. Schlegel, G. E. Scuseria, 
 M. A. Robb, J. R. Cheeseman, G. Scalmani, V. Barone, 
 G. A. Petersson, H. Nakatsuji, X. Li, M. Caricato, A. V. Marenich, 
 J. Bloino, B. G. Janesko, R. Gomperts, B. Mennucci, H. P. Hratchian, 
 J. V. Ortiz, A. F. Izmaylov, J. L. Sonnenberg, D. Williams-Young, 
 F. Ding, F. Lipparini, F. Egidi, J. Goings, B. Peng, A. Petrone, 
 T. Henderson, D. Ranasinghe, V. G. Zakrzewski, J. Gao, N. Rega, 
 G. Zheng, W. Liang, M. Hada, M. Ehara, K. Toyota, R. Fukuda, 
 J. Hasegawa, M. Ishida, T. Nakajima, Y. Honda, O. Kitao, H. Nakai, 
 T. Vreven, K. Throssell, J. A. Montgomery, Jr., J. E. Peralta, 
 F. Ogliaro, M. J. Bearpark, J. J. Heyd, E. N. Brothers, K. N. Kudin, 
 V. N. Staroverov, T. A. Keith, R. Kobayashi, J. Normand, 
 K. Raghavachari, A. P. Rendell, J. C. Burant, S. S. Iyengar, 
 J. Tomasi, M. Cossi, J. M. Millam, M. Klene, C. Adamo, R. Cammi, 
 J. W. Ochterski, R. L. Martin, K. Morokuma, O. Farkas, 
 J. B. Foresman, and D. J. Fox, Gaussian, Inc., Wallingford CT, 2016.
 
 ******************************************
 Gaussian 16:  ES64L-G16RevA.03 25-Dec-2016
                31-Jul-2019 
 ******************************************
 %nproc=3
 Will use up to    3 processors via shared memory.
 %Mem=2GB
 -------------------------------------
 # td=(NStates=1) CAM-B3LYP/6-31G(d,p)
 -------------------------------------
 1/38=1,172=1/1;
 2/12=2,17=6,18=5,40=1/2;
 3/5=1,6=6,7=101,11=9,25=1,30=1,74=-40/1,2,3,8;
 4//1;
 5/5=2,38=5/2;
 8/6=1,10=2,108=1/1;
 9/41=1,42=1,70=2/14;
 6/7=2,8=2,9=2,10=2/1;
 99/5=1,9=1/99;
 --
 TD
 --
 Symbolic Z-matrix:
 Charge =  0 Multiplicity = 1
 8                    -11.68612   0.34658  -1.54894 
 8                    -13.05033  -2.37361   1.27227 
 8                     10.72595  -0.89434  -2.15989 
 8                     14.47185  -1.02353  -0.20208 
 6                    -11.07483  -0.1408   -0.32053 
 6                    -11.6911  -1.08312  -1.24158 
 6                    -11.75119   0.4244    0.95661 
 6                    -13.1806  -1.58596  -1.03696 
 6                    -13.31946  -0.01347   0.89741 
 6                    -13.68097  -1.43664   0.4105 
 6                    -10.90322  -1.92237  -2.15412 
 6                    -9.60803  -0.04363  -0.31966 
 6                    -11.18158  -0.03605   2.1515 
 6                    -11.81695   1.94975   0.85131 
 6                    -8.61081  -0.6951    0.31586 
 6                    -7.24341  -0.59129   0.29607 
 6                    -6.50172  -1.86043   0.68954 
 6                    -6.66102   0.60413  -0.01425 
 6                    -5.20983   0.90112  -0.03737 
 6                     11.97905   0.03432   1.33399 
 6                     11.70868  -0.45674  -1.20291 
 6                     12.73074  -1.27233   1.4786 
 6                     13.3277  -1.74628   0.21154 
 6                     12.3163  -1.80027  -0.94146 
 6                     11.06617   0.05264   0.04704 
 6                     11.1252   0.31415   2.66711 
 6                     12.91075   1.29244   1.3045 
 6                     12.61202   0.47038  -1.96384 
 6                    -4.67825   2.10161  -0.38262 
 6                     9.86782   0.56885   0.03379 
 6                    -3.35395   2.35469  -0.4283 
 6                     8.638     1.00558  -0.12008 
 6                    -2.95169   3.80181  -0.61606 
 6                    -2.27545   1.32148  -0.34139 
 6                     7.44821   0.15013   0.0132 
 6                     7.63923  -1.29515   0.22162 
 6                     6.19637   0.73785  -0.12177 
 6                    -0.87907   1.73151  -0.57905 
 6                     4.93589   0.06069   0.00116 
 6                     0.07953   0.73488  -0.28759 
 6                     3.82972   0.75036  -0.05995 
 6                     1.46584   1.14542  -0.15209 
 6                     2.57889   0.23248   0.04803 
 6                     2.3749   -1.29926   0.31184 
 1                    -13.18112  -2.69602  -1.08717 
 1                    -13.75646  -1.21909  -1.89684 
 1                    -13.73435   0.10703   1.99092 
 1                    -13.70534   0.73344   0.13549 
 1                    -14.94097  -1.5268    0.31207 
 1                    -10.86473  -2.91179  -1.62875 
 1                    -11.51252  -1.96296  -3.09186 
 1                    -9.81121  -1.56283  -2.26363 
 1                    -9.17796   0.82434  -0.84201 
 1                    -10.13526   0.27219   2.2771 
 1                    -11.74568   0.41445   3.04064 
 1                    -11.14271  -1.06245   2.12462 
 1                    -11.95793   2.4882   -0.04915 
 1                    -12.63966   2.39233   1.50726 
 1                    -10.77257   2.46268   1.09962 
 1                    -12.06461  -2.21456   1.3628 
 1                    -8.9639   -1.6185    0.80671 
 1                    -5.98513  -2.3298   -0.33654 
 1                    -5.76767  -1.70966   1.56503 
 1                    -7.16459  -2.5958    1.03638 
 1                    -7.28915   1.62048  -0.02292 
 1                    -4.44424   0.15812   0.29842 
 1                     13.4324  -1.3613    2.10729 
 1                     11.992   -1.99223   1.81475 
 1                     13.67281  -2.70807   0.15831 
 1                     13.0065  -2.278    -1.86189 
 1                     11.47225  -2.51994  -0.73841 
 1                     11.71311   0.29003   3.60861 
 1                     10.55643   1.20767   2.65775 
 1                     10.51242  -0.60187   2.78533 
 1                     13.73363   1.2159    0.52479 
 1                     12.33056   2.23781   1.07108 
 1                     13.2611   1.48081   2.26325 
 1                     12.94092   0.15102  -3.05311 
 1                     12.00848   1.34036  -2.00699 
 1                     13.47205   0.60321  -1.4611 
 1                    -5.35438   2.9282   -0.29229 
 1                     10.20745  -0.11225  -2.15866 
 1                     15.15463  -1.12905   0.53054 
 1                     8.24188   1.93832  -0.38316 
 1                    -2.42551   4.02949   0.2748 
 1                    -2.2265    4.02675  -1.46324 
 1                    -3.79839   4.6808   -0.74771 
 1                    -2.46862   0.37835  -0.25548 
 1                     6.76874  -1.8323    0.42601 
 1                     8.1441   -1.59011  -0.68898 
 1                     8.42861  -1.49203   1.07765 
 1                     6.11093   1.86577  -0.29561 
 1                    -0.68286   2.75936  -0.95019 
 1                     4.74285  -0.97044   0.11695 
 1                    -0.16889  -0.25026   0.01618 
 1                     4.0111    1.68545  -0.43487 
 1                     1.68435   2.17544  -0.17141 
 1                     1.45948  -1.5985    0.49502 
 1                     2.95828  -1.66883  -0.50535 
 1                     2.71789  -1.54577   1.34158 
 
 Stoichiometry    C40H56O4
 Framework group  C1[X(C40H56O4)]
 Deg. of freedom   294
 Full point group                 C1      NOp   1
 Largest Abelian subgroup         C1      NOp   1
 Largest concise Abelian subgroup C1      NOp   1
                         Standard orientation:                         
 ---------------------------------------------------------------------
 Center     Atomic      Atomic             Coordinates (Angstroms)
 Number     Number       Type             X           Y           Z
 ---------------------------------------------------------------------
      1          8           0      -11.685685    0.351487   -1.554394
      2          8           0      -13.052303   -2.368847    1.265508
      3          8           0       10.725907   -0.901331   -2.158275
      4          8           0       14.471088   -1.033162   -0.199265
      5          6           0      -11.075068   -0.136604   -0.325934
      6          6           0      -11.691539   -1.078302   -1.247488
      7          6           0      -11.751549    0.428555    0.951156
      8          6           0      -13.181386   -1.580402   -1.043515
      9          6           0      -13.320039   -0.008447    0.891305
     10          6           0      -13.682159   -1.431265    0.403821
     11          6           0      -10.903809   -1.917688   -2.160025
     12          6           0       -9.608220   -0.040225   -0.324543
     13          6           0      -11.182593   -0.032577    2.146095
     14          6           0      -11.816456    1.953975    0.846323
     15          6           0       -8.611568   -0.692434    0.311103
     16          6           0       -7.244104   -0.589359    0.291797
     17          6           0       -6.503231   -1.859027    0.685118
     18          6           0       -6.660965    0.605846   -0.017949
     19          6           0       -5.209606    0.902061   -0.040490
     20          6           0       11.978344    0.025553    1.336317
     21          6           0       11.708555   -0.464566   -1.200835
     22          6           0       12.729284   -1.281553    1.480764
     23          6           0       13.326407   -1.755423    0.213746
     24          6           0       12.315361   -1.808509   -0.939601
     25          6           0       11.065909    0.044768    0.049068
     26          6           0       11.124208    0.305418    2.669237
     27          6           0       12.910740    1.283178    1.307534
     28          6           0       12.612648    0.462304   -1.961168
     29          6           0       -4.677267    2.102374   -0.385190
     30          6           0        9.867837    0.561627    0.035582
     31          6           0       -3.352812    2.354755   -0.430349
     32          6           0        8.638309    0.999068   -0.118558
     33          6           0       -2.949705    3.801714   -0.617517
     34          6           0       -2.274902    1.320935   -0.343400
     35          6           0        7.448014    0.144217    0.014055
     36          6           0        7.638179   -1.301223    0.222082
     37          6           0        6.196533    0.732660   -0.121144
     38          6           0       -0.878220    1.730285   -0.580465
     39          6           0        4.935642    0.056137    0.001150
     40          6           0        0.079752    0.733040   -0.289002
     41          6           0        3.829871    0.746423   -0.060115
     42          6           0        1.466232    1.142789   -0.152911
     43          6           0        2.578720    0.229191    0.047287
     44          6           0        2.373817   -1.302528    0.310547
     45          1           0      -13.182485   -2.690449   -1.094084
     46          1           0      -13.756759   -1.212947   -1.903471
     47          1           0      -13.735229    0.111928    1.984712
     48          1           0      -13.705262    0.738908    0.129489
     49          1           0      -14.942171   -1.520720    0.304946
     50          1           0      -10.866027   -2.907294   -1.634955
     51          1           0      -11.512824   -1.957656   -3.097980
     52          1           0       -9.811576   -1.558700   -2.269059
     53          1           0       -9.177504    0.827679   -0.846475
     54          1           0      -10.136149    0.275056    2.272144
     55          1           0      -11.746741    0.417944    3.035191
     56          1           0      -11.144268   -1.058993    2.118907
     57          1           0      -11.956842    2.492790   -0.054019
     58          1           0      -12.639144    2.396797    1.502140
     59          1           0      -10.771878    2.466259    1.095144
     60          1           0      -12.066531   -2.210366    1.356414
     61          1           0       -8.965312   -1.615801    0.801543
     62          1           0       -5.986547   -2.328344   -0.340941
     63          1           0       -5.769387   -1.708921    1.560903
     64          1           0       -7.166606   -2.594146    1.031503
     65          1           0       -7.288542    1.622537   -0.026509
     66          1           0       -4.444529    0.158545    0.295314
     67          1           0       13.430685   -1.371096    2.109653
     68          1           0       11.990048   -2.001157    1.816436
     69          1           0       13.671018   -2.717386    0.160335
     70          1           0       13.005611   -2.286321   -1.859953
     71          1           0       11.470856   -2.527784   -0.737060
     72          1           0       11.711789    0.280685    3.610922
     73          1           0       10.555922    1.199246    2.659974
     74          1           0       10.510890   -0.610305    2.786970
     75          1           0       13.733834    1.206438    0.528067
     76          1           0       12.331129    2.228936    1.074218
     77          1           0       13.260870    1.471057    2.266460
     78          1           0       12.941745    0.143113   -3.050426
     79          1           0       12.009592    1.332623   -2.004242
     80          1           0       13.472582    0.594512   -1.458101
     81          1           0       -5.352974    2.929294   -0.294821
     82          1           0       10.207833   -0.118962   -2.156970
     83          1           0       15.153564   -1.139283    0.533555
     84          1           0        8.242773    1.932104   -0.381474
     85          1           0       -2.423699    4.028827    0.273595
     86          1           0       -2.224116    4.026528   -1.464382
     87          1           0       -3.795886    4.681197   -0.749174
     88          1           0       -2.468602    0.377879   -0.257854
     89          1           0        6.767333   -1.837974    0.426006
     90          1           0        8.143194   -1.596176   -0.688444
     91          1           0        8.427172   -1.498804    1.078312
     92          1           0        6.111755    1.860681   -0.294662
     93          1           0       -0.681329    2.758143   -0.951224
     94          1           0        4.742012   -0.974924    0.116553
     95          1           0       -0.169301   -0.252055    0.014376
     96          1           0        4.011879    1.681542   -0.434672
     97          1           0        1.685301    2.172704   -0.171836
     98          1           0        1.458182   -1.601324    0.493327
     99          1           0        2.957269   -1.672154   -0.506563
    100          1           0        2.716332   -1.549543    1.340321
 ---------------------------------------------------------------------
 Rotational constants (GHZ):           0.2764284           0.0088015           0.0087366
 Standard basis: 6-31G(d,p) (6D, 7F)
 There are   940 symmetry adapted cartesian basis functions of A   symmetry.
 There are   940 symmetry adapted basis functions of A   symmetry.
   940 basis functions,  1624 primitive gaussians,   940 cartesian basis functions
   164 alpha electrons      164 beta electrons
       nuclear repulsion energy      4459.7823684129 Hartrees.
 NAtoms=  100 NActive=  100 NUniq=  100 SFac= 1.00D+00 NAtFMM=   60 NAOKFM=T Big=T
 Integral buffers will be    131072 words long.
 Raffenetti 1 integral format.
 Two-electron integral symmetry is turned on.
 One-electron integrals computed using PRISM.
 NBasis=   940 RedAO= T EigKep=  3.43D-04  NBF=   940
 NBsUse=   940 1.00D-06 EigRej= -1.00D+00 NBFU=   940
 ExpMin= 1.61D-01 ExpMax= 5.48D+03 ExpMxC= 8.25D+02 IAcc=3 IRadAn=         5 AccDes= 0.00D+00
 Harris functional with IExCor=20419 and IRadAn=       5 diagonalized for initial guess.
 HarFok:  IExCor=20419 AccDes= 0.00D+00 IRadAn=         5 IDoV= 1 UseB2=F ITyADJ=14
 ICtDFT=  3500011 ScaDFX=  1.000000  1.000000  1.000000  1.000000
 FoFCou: FMM=F IPFlag=           0 FMFlag=      100000 FMFlg1=        2001
         NFxFlg=           0 DoJE=T BraDBF=F KetDBF=T FulRan=T
         wScrn=  0.000000 ICntrl=       500 IOpCl=  0 I1Cent=   200000004 NGrid=           0
         NMat0=    1 NMatS0=      1 NMatT0=    0 NMatD0=    1 NMtDS0=    0 NMtDT0=    0
 Petite list used in FoFCou.
 Requested convergence on RMS density matrix=1.00D-08 within 128 cycles.
 Requested convergence on MAX density matrix=1.00D-06.
 Requested convergence on             energy=1.00D-06.
 No special actions if energy rises.
 Integral accuracy reduced to 1.0D-05 until final iterations.
 Initial convergence to 1.0D-05 achieved.  Increase integral accuracy.
 SCF Done:  E(RCAM-B3LYP) =  -1857.34586460     A.U. after   15 cycles
            NFock= 15  Conv=0.67D-08     -V/T= 2.0090
 DoSCS=F DFT=T ScalE2(SS,OS)=  1.000000  1.000000
 ExpMin= 1.61D-01 ExpMax= 5.48D+03 ExpMxC= 8.25D+02 IAcc=3 IRadAn=         5 AccDes= 0.00D+00
 HarFok:  IExCor=  205 AccDes= 0.00D+00 IRadAn=         5 IDoV=-2 UseB2=F ITyADJ=14
 ICtDFT= 12500011 ScaDFX=  1.000000  1.000000  1.000000  1.000000
 GSVD:  LWork=       -2288 too small for GESVD, short by       10340 words or       10340 for optimal perf.
 Range of M.O.s used for correlation:    45   940
 NBasis=   940 NAE=   164 NBE=   164 NFC=    44 NFV=     0
 NROrb=    896 NOA=   120 NOB=   120 NVA=   776 NVB=   776
 Orbital symmetries:
       Occupied  (A) (A) (A) (A) (A) (A) (A) (A) (A) (A) (A) (A)
                 (A) (A) (A) (A) (A) (A) (A) (A) (A) (A) (A) (A)
                 (A) (A) (A) (A) (A) (A) (A) (A) (A) (A) (A) (A)
                 (A) (A) (A) (A) (A) (A) (A) (A) (A) (A) (A) (A)
                 (A) (A) (A) (A) (A) (A) (A) (A) (A) (A) (A) (A)
                 (A) (A) (A) (A) (A) (A) (A) (A) (A) (A) (A) (A)
                 (A) (A) (A) (A) (A) (A) (A) (A) (A) (A) (A) (A)
                 (A) (A) (A) (A) (A) (A) (A) (A) (A) (A) (A) (A)
                 (A) (A) (A) (A) (A) (A) (A) (A) (A) (A) (A) (A)
                 (A) (A) (A) (A) (A) (A) (A) (A) (A) (A) (A) (A)
                 (A) (A) (A) (A) (A) (A) (A) (A) (A) (A) (A) (A)
                 (A) (A) (A) (A) (A) (A) (A) (A) (A) (A) (A) (A)
                 (A) (A) (A) (A) (A) (A) (A) (A) (A) (A) (A) (A)
                 (A) (A) (A) (A) (A) (A) (A) (A)
       Virtual   (A) (A) (A) (A) (A) (A) (A) (A) (A) (A) (A) (A)
                 (A) (A) (A) (A) (A) (A) (A) (A) (A) (A) (A) (A)
                 (A) (A) (A) (A) (A) (A) (A) (A) (A) (A) (A) (A)
                 (A) (A) (A) (A) (A) (A) (A) (A) (A) (A) (A) (A)
                 (A) (A) (A) (A) (A) (A) (A) (A) (A) (A) (A) (A)
                 (A) (A) (A) (A) (A) (A) (A) (A) (A) (A) (A) (A)
                 (A) (A) (A) (A) (A) (A) (A) (A) (A) (A) (A) (A)
                 (A) (A) (A) (A) (A) (A) (A) (A) (A) (A) (A) (A)
                 (A) (A) (A) (A) (A) (A) (A) (A) (A) (A) (A) (A)
                 (A) (A) (A) (A) (A) (A) (A) (A) (A) (A) (A) (A)
                 (A) (A) (A) (A) (A) (A) (A) (A) (A) (A) (A) (A)
                 (A) (A) (A) (A) (A) (A) (A) (A) (A) (A) (A) (A)
                 (A) (A) (A) (A) (A) (A) (A) (A) (A) (A) (A) (A)
                 (A) (A) (A) (A) (A) (A) (A) (A) (A) (A) (A) (A)
                 (A) (A) (A) (A) (A) (A) (A) (A) (A) (A) (A) (A)
                 (A) (A) (A) (A) (A) (A) (A) (A) (A) (A) (A) (A)
                 (A) (A) (A) (A) (A) (A) (A) (A) (A) (A) (A) (A)
                 (A) (A) (A) (A) (A) (A) (A) (A) (A) (A) (A) (A)
                 (A) (A) (A) (A) (A) (A) (A) (A) (A) (A) (A) (A)
                 (A) (A) (A) (A) (A) (A) (A) (A) (A) (A) (A) (A)
                 (A) (A) (A) (A) (A) (A) (A) (A) (A) (A) (A) (A)
                 (A) (A) (A) (A) (A) (A) (A) (A) (A) (A) (A) (A)
                 (A) (A) (A) (A) (A) (A) (A) (A) (A) (A) (A) (A)
                 (A) (A) (A) (A) (A) (A) (A) (A) (A) (A) (A) (A)
                 (A) (A) (A) (A) (A) (A) (A) (A) (A) (A) (A) (A)
                 (A) (A) (A) (A) (A) (A) (A) (A) (A) (A) (A) (A)
                 (A) (A) (A) (A) (A) (A) (A) (A) (A) (A) (A) (A)
                 (A) (A) (A) (A) (A) (A) (A) (A) (A) (A) (A) (A)
                 (A) (A) (A) (A) (A) (A) (A) (A) (A) (A) (A) (A)
                 (A) (A) (A) (A) (A) (A) (A) (A) (A) (A) (A) (A)
                 (A) (A) (A) (A) (A) (A) (A) (A) (A) (A) (A) (A)
                 (A) (A) (A) (A) (A) (A) (A) (A) (A) (A) (A) (A)
                 (A) (A) (A) (A) (A) (A) (A) (A) (A) (A) (A) (A)
                 (A) (A) (A) (A) (A) (A) (A) (A) (A) (A) (A) (A)
                 (A) (A) (A) (A) (A) (A) (A) (A) (A) (A) (A) (A)
                 (A) (A) (A) (A) (A) (A) (A) (A) (A) (A) (A) (A)
                 (A) (A) (A) (A) (A) (A) (A) (A) (A) (A) (A) (A)
                 (A) (A) (A) (A) (A) (A) (A) (A) (A) (A) (A) (A)
                 (A) (A) (A) (A) (A) (A) (A) (A) (A) (A) (A) (A)
                 (A) (A) (A) (A) (A) (A) (A) (A) (A) (A) (A) (A)
                 (A) (A) (A) (A) (A) (A) (A) (A) (A) (A) (A) (A)
                 (A) (A) (A) (A) (A) (A) (A) (A) (A) (A) (A) (A)
                 (A) (A) (A) (A) (A) (A) (A) (A) (A) (A) (A) (A)
                 (A) (A) (A) (A) (A) (A) (A) (A) (A) (A) (A) (A)
                 (A) (A) (A) (A) (A) (A) (A) (A) (A) (A) (A) (A)
                 (A) (A) (A) (A) (A) (A) (A) (A) (A) (A) (A) (A)
                 (A) (A) (A) (A) (A) (A) (A) (A) (A) (A) (A) (A)
                 (A) (A) (A) (A) (A) (A) (A) (A) (A) (A) (A) (A)
                 (A) (A) (A) (A) (A) (A) (A) (A) (A) (A) (A) (A)
                 (A) (A) (A) (A) (A) (A) (A) (A) (A) (A) (A) (A)
                 (A) (A) (A) (A) (A) (A) (A) (A) (A) (A) (A) (A)
                 (A) (A) (A) (A) (A) (A) (A) (A) (A) (A) (A) (A)
                 (A) (A) (A) (A) (A) (A) (A) (A) (A) (A) (A) (A)
                 (A) (A) (A) (A) (A) (A) (A) (A) (A) (A) (A) (A)
                 (A) (A) (A) (A) (A) (A) (A) (A) (A) (A) (A) (A)
                 (A) (A) (A) (A) (A) (A) (A) (A) (A) (A) (A) (A)
                 (A) (A) (A) (A) (A) (A) (A) (A) (A) (A) (A) (A)
                 (A) (A) (A) (A) (A) (A) (A) (A) (A) (A) (A) (A)
                 (A) (A) (A) (A) (A) (A) (A) (A) (A) (A) (A) (A)
                 (A) (A) (A) (A) (A) (A) (A) (A) (A) (A) (A) (A)
                 (A) (A) (A) (A) (A) (A) (A) (A) (A) (A) (A) (A)
                 (A) (A) (A) (A) (A) (A) (A) (A) (A) (A) (A) (A)
                 (A) (A) (A) (A) (A) (A) (A) (A) (A) (A) (A) (A)
                 (A) (A) (A) (A) (A) (A) (A) (A) (A) (A) (A) (A)
                 (A) (A) (A) (A) (A) (A) (A) (A)
     4 initial guesses have been made.
 Convergence on wavefunction:    0.001000000000000
 Iteration     1 Dimension     4 NMult     0 NNew      4
 CISAX will form     4 AO SS matrices at one time.
 Iteration     2 Dimension     6 NMult     4 NNew      2
 Iteration     3 Dimension     8 NMult     6 NNew      2
 Iteration     4 Dimension    10 NMult     8 NNew      2
 Iteration     5 Dimension    12 NMult    10 NNew      2
 ***********************************************************************
 Excited states from <AA,BB:AA,BB> singles matrix:
 ***********************************************************************
 
 Ground to excited state transition densities written to RWF  633
 Ground to excited state transition electric dipole moments (Au):
       state          X           Y           Z        Dip. S.      Osc.
         1        -7.5764      0.2323     -0.0680     57.4607      2.8696
 Ground to excited state transition velocity dipole moments (Au):
       state          X           Y           Z        Dip. S.      Osc.
         1         0.5501     -0.0158      0.0044      0.3029      2.6953
 Ground to excited state transition magnetic dipole moments (Au):
       state          X           Y           Z
         1        -0.0957     -0.4093     -2.1028
 Ground to excited state transition velocity quadrupole moments (Au):
       state          XX          YY          ZZ          XY          XZ          YZ
         1        -0.9522     -0.2385     -0.0081     -0.2848      0.0504      0.0213
 <0|del|b> * <b|rxdel|0> + <0|del|b> * <b|delr+rdel|0>
 Rotatory Strengths (R) in cgs (10**-40 erg-esu-cm/Gauss)
       state          XX          YY          ZZ    R(velocity)    E-M Angle
         1       -15.2991   -230.6962   -277.0113   -174.3355       92.69
 1/2[<0|r|b>*<b|rxdel|0> + (<0|rxdel|b>*<b|r|0>)*]
 Rotatory Strengths (R) in cgs (10**-40 erg-esu-cm/Gauss)
       state          XX          YY          ZZ     R(length)
         1      -512.5020     67.2255   -101.1542   -182.1436
  1/2[<0|del|b>*<b|r|0> + (<0|r|b>*<b|del|0>)*] (Au)
       state          X           Y           Z        Dip. S.   Osc.(frdel)
         1        -4.1676     -0.0037     -0.0003      4.1716      2.7811

 Excitation energies and oscillator strengths:
 
 Excited State   1:      Singlet-A      2.0384 eV  608.24 nm  f=2.8696  <S**2>=0.000
     163 ->166         0.12591
     164 ->165         0.69875
     164 <-165        -0.10335
 This state for optimization and/or second-order correction.
 Total Energy, E(TD-HF/TD-DFT) =  -1857.27095403    
 Copying the excited state density for this state as the 1-particle RhoCI density.
 SavETr:  write IOETrn=   770 NScale= 10 NData=  16 NLR=1 NState=    1 LETran=      28.

 **********************************************************************

            Population analysis using the SCF density.

 **********************************************************************

 Orbital symmetries:
       Occupied  (A) (A) (A) (A) (A) (A) (A) (A) (A) (A) (A) (A)
                 (A) (A) (A) (A) (A) (A) (A) (A) (A) (A) (A) (A)
                 (A) (A) (A) (A) (A) (A) (A) (A) (A) (A) (A) (A)
                 (A) (A) (A) (A) (A) (A) (A) (A) (A) (A) (A) (A)
                 (A) (A) (A) (A) (A) (A) (A) (A) (A) (A) (A) (A)
                 (A) (A) (A) (A) (A) (A) (A) (A) (A) (A) (A) (A)
                 (A) (A) (A) (A) (A) (A) (A) (A) (A) (A) (A) (A)
                 (A) (A) (A) (A) (A) (A) (A) (A) (A) (A) (A) (A)
                 (A) (A) (A) (A) (A) (A) (A) (A) (A) (A) (A) (A)
                 (A) (A) (A) (A) (A) (A) (A) (A) (A) (A) (A) (A)
                 (A) (A) (A) (A) (A) (A) (A) (A) (A) (A) (A) (A)
                 (A) (A) (A) (A) (A) (A) (A) (A) (A) (A) (A) (A)
                 (A) (A) (A) (A) (A) (A) (A) (A) (A) (A) (A) (A)
                 (A) (A) (A) (A) (A) (A) (A) (A)
       Virtual   (A) (A) (A) (A) (A) (A) (A) (A) (A) (A) (A) (A)
                 (A) (A) (A) (A) (A) (A) (A) (A) (A) (A) (A) (A)
                 (A) (A) (A) (A) (A) (A) (A) (A) (A) (A) (A) (A)
                 (A) (A) (A) (A) (A) (A) (A) (A) (A) (A) (A) (A)
                 (A) (A) (A) (A) (A) (A) (A) (A) (A) (A) (A) (A)
                 (A) (A) (A) (A) (A) (A) (A) (A) (A) (A) (A) (A)
                 (A) (A) (A) (A) (A) (A) (A) (A) (A) (A) (A) (A)
                 (A) (A) (A) (A) (A) (A) (A) (A) (A) (A) (A) (A)
                 (A) (A) (A) (A) (A) (A) (A) (A) (A) (A) (A) (A)
                 (A) (A) (A) (A) (A) (A) (A) (A) (A) (A) (A) (A)
                 (A) (A) (A) (A) (A) (A) (A) (A) (A) (A) (A) (A)
                 (A) (A) (A) (A) (A) (A) (A) (A) (A) (A) (A) (A)
                 (A) (A) (A) (A) (A) (A) (A) (A) (A) (A) (A) (A)
                 (A) (A) (A) (A) (A) (A) (A) (A) (A) (A) (A) (A)
                 (A) (A) (A) (A) (A) (A) (A) (A) (A) (A) (A) (A)
                 (A) (A) (A) (A) (A) (A) (A) (A) (A) (A) (A) (A)
                 (A) (A) (A) (A) (A) (A) (A) (A) (A) (A) (A) (A)
                 (A) (A) (A) (A) (A) (A) (A) (A) (A) (A) (A) (A)
                 (A) (A) (A) (A) (A) (A) (A) (A) (A) (A) (A) (A)
                 (A) (A) (A) (A) (A) (A) (A) (A) (A) (A) (A) (A)
                 (A) (A) (A) (A) (A) (A) (A) (A) (A) (A) (A) (A)
                 (A) (A) (A) (A) (A) (A) (A) (A) (A) (A) (A) (A)
                 (A) (A) (A) (A) (A) (A) (A) (A) (A) (A) (A) (A)
                 (A) (A) (A) (A) (A) (A) (A) (A) (A) (A) (A) (A)
                 (A) (A) (A) (A) (A) (A) (A) (A) (A) (A) (A) (A)
                 (A) (A) (A) (A) (A) (A) (A) (A) (A) (A) (A) (A)
                 (A) (A) (A) (A) (A) (A) (A) (A) (A) (A) (A) (A)
                 (A) (A) (A) (A) (A) (A) (A) (A) (A) (A) (A) (A)
                 (A) (A) (A) (A) (A) (A) (A) (A) (A) (A) (A) (A)
                 (A) (A) (A) (A) (A) (A) (A) (A) (A) (A) (A) (A)
                 (A) (A) (A) (A) (A) (A) (A) (A) (A) (A) (A) (A)
                 (A) (A) (A) (A) (A) (A) (A) (A) (A) (A) (A) (A)
                 (A) (A) (A) (A) (A) (A) (A) (A) (A) (A) (A) (A)
                 (A) (A) (A) (A) (A) (A) (A) (A) (A) (A) (A) (A)
                 (A) (A) (A) (A) (A) (A) (A) (A) (A) (A) (A) (A)
                 (A) (A) (A) (A) (A) (A) (A) (A) (A) (A) (A) (A)
                 (A) (A) (A) (A) (A) (A) (A) (A) (A) (A) (A) (A)
                 (A) (A) (A) (A) (A) (A) (A) (A) (A) (A) (A) (A)
                 (A) (A) (A) (A) (A) (A) (A) (A) (A) (A) (A) (A)
                 (A) (A) (A) (A) (A) (A) (A) (A) (A) (A) (A) (A)
                 (A) (A) (A) (A) (A) (A) (A) (A) (A) (A) (A) (A)
                 (A) (A) (A) (A) (A) (A) (A) (A) (A) (A) (A) (A)
                 (A) (A) (A) (A) (A) (A) (A) (A) (A) (A) (A) (A)
                 (A) (A) (A) (A) (A) (A) (A) (A) (A) (A) (A) (A)
                 (A) (A) (A) (A) (A) (A) (A) (A) (A) (A) (A) (A)
                 (A) (A) (A) (A) (A) (A) (A) (A) (A) (A) (A) (A)
                 (A) (A) (A) (A) (A) (A) (A) (A) (A) (A) (A) (A)
                 (A) (A) (A) (A) (A) (A) (A) (A) (A) (A) (A) (A)
                 (A) (A) (A) (A) (A) (A) (A) (A) (A) (A) (A) (A)
                 (A) (A) (A) (A) (A) (A) (A) (A) (A) (A) (A) (A)
                 (A) (A) (A) (A) (A) (A) (A) (A) (A) (A) (A) (A)
                 (A) (A) (A) (A) (A) (A) (A) (A) (A) (A) (A) (A)
                 (A) (A) (A) (A) (A) (A) (A) (A) (A) (A) (A) (A)
                 (A) (A) (A) (A) (A) (A) (A) (A) (A) (A) (A) (A)
                 (A) (A) (A) (A) (A) (A) (A) (A) (A) (A) (A) (A)
                 (A) (A) (A) (A) (A) (A) (A) (A) (A) (A) (A) (A)
                 (A) (A) (A) (A) (A) (A) (A) (A) (A) (A) (A) (A)
                 (A) (A) (A) (A) (A) (A) (A) (A) (A) (A) (A) (A)
                 (A) (A) (A) (A) (A) (A) (A) (A) (A) (A) (A) (A)
                 (A) (A) (A) (A) (A) (A) (A) (A) (A) (A) (A) (A)
                 (A) (A) (A) (A) (A) (A) (A) (A) (A) (A) (A) (A)
                 (A) (A) (A) (A) (A) (A) (A) (A) (A) (A) (A) (A)
                 (A) (A) (A) (A) (A) (A) (A) (A) (A) (A) (A) (A)
                 (A) (A) (A) (A) (A) (A) (A) (A) (A) (A) (A) (A)
                 (A) (A) (A) (A) (A) (A) (A) (A)
 The electronic state is 1-A.
 Alpha  occ. eigenvalues --  -19.21945 -19.21942 -19.21638 -19.19448 -10.32765
 Alpha  occ. eigenvalues --  -10.32015 -10.31783 -10.30352 -10.28990 -10.28964
 Alpha  occ. eigenvalues --  -10.27809 -10.27743 -10.27739 -10.27685 -10.27630
 Alpha  occ. eigenvalues --  -10.27624 -10.27526 -10.27428 -10.27403 -10.27333
 Alpha  occ. eigenvalues --  -10.27202 -10.26958 -10.26874 -10.26793 -10.26734
 Alpha  occ. eigenvalues --  -10.26455 -10.26307 -10.26166 -10.26077 -10.26075
 Alpha  occ. eigenvalues --  -10.25996 -10.25843 -10.25416 -10.25394 -10.25227
 Alpha  occ. eigenvalues --  -10.25169 -10.25031 -10.24951 -10.24892 -10.24404
 Alpha  occ. eigenvalues --  -10.24386 -10.24141 -10.23730 -10.22803  -1.13899
 Alpha  occ. eigenvalues --   -1.10233  -1.09667  -1.09312  -0.93238  -0.92800
 Alpha  occ. eigenvalues --   -0.92737  -0.91741  -0.90945  -0.90568  -0.87597
 Alpha  occ. eigenvalues --   -0.86059  -0.85915  -0.85490  -0.84589  -0.83538
 Alpha  occ. eigenvalues --   -0.82159  -0.81240  -0.80989  -0.78664  -0.77664
 Alpha  occ. eigenvalues --   -0.77359  -0.76921  -0.76690  -0.76614  -0.75373
 Alpha  occ. eigenvalues --   -0.75009  -0.74604  -0.73063  -0.70477  -0.69959
 Alpha  occ. eigenvalues --   -0.68292  -0.66885  -0.65414  -0.65158  -0.64498
 Alpha  occ. eigenvalues --   -0.63807  -0.62802  -0.62377  -0.60418  -0.59931
 Alpha  occ. eigenvalues --   -0.59081  -0.58738  -0.58020  -0.57417  -0.56693
 Alpha  occ. eigenvalues --   -0.56415  -0.55690  -0.54951  -0.54874  -0.54070
 Alpha  occ. eigenvalues --   -0.53890  -0.53296  -0.52809  -0.52542  -0.51730
 Alpha  occ. eigenvalues --   -0.51504  -0.51395  -0.51096  -0.50676  -0.50311
 Alpha  occ. eigenvalues --   -0.49745  -0.49383  -0.48825  -0.48743  -0.48661
 Alpha  occ. eigenvalues --   -0.48619  -0.48348  -0.48087  -0.47279  -0.46983
 Alpha  occ. eigenvalues --   -0.46665  -0.46408  -0.46127  -0.45605  -0.45517
 Alpha  occ. eigenvalues --   -0.44956  -0.44697  -0.44416  -0.44235  -0.44217
 Alpha  occ. eigenvalues --   -0.43978  -0.43704  -0.43308  -0.42510  -0.42423
 Alpha  occ. eigenvalues --   -0.42274  -0.42194  -0.41703  -0.41331  -0.41090
 Alpha  occ. eigenvalues --   -0.41054  -0.40621  -0.40517  -0.40215  -0.40012
 Alpha  occ. eigenvalues --   -0.39887  -0.39388  -0.39260  -0.38776  -0.38597
 Alpha  occ. eigenvalues --   -0.38587  -0.38015  -0.37842  -0.37450  -0.37143
 Alpha  occ. eigenvalues --   -0.36387  -0.35971  -0.35407  -0.34556  -0.33237
 Alpha  occ. eigenvalues --   -0.32547  -0.32499  -0.31914  -0.31831  -0.30739
 Alpha  occ. eigenvalues --   -0.30480  -0.28025  -0.24323  -0.19090
 Alpha virt. eigenvalues --   -0.06083  -0.00886   0.03142   0.05867   0.06088
 Alpha virt. eigenvalues --    0.09430   0.10138   0.10407   0.12150   0.12333
 Alpha virt. eigenvalues --    0.12827   0.13395   0.13585   0.13758   0.14138
 Alpha virt. eigenvalues --    0.14567   0.14688   0.15467   0.15607   0.15738
 Alpha virt. eigenvalues --    0.16140   0.16224   0.16361   0.16492   0.16754
 Alpha virt. eigenvalues --    0.17204   0.17243   0.17455   0.18134   0.18216
 Alpha virt. eigenvalues --    0.18805   0.18876   0.19201   0.19438   0.19783
 Alpha virt. eigenvalues --    0.20020   0.20129   0.20568   0.20617   0.20899
 Alpha virt. eigenvalues --    0.21022   0.21393   0.21595   0.21706   0.21877
 Alpha virt. eigenvalues --    0.21980   0.22336   0.22567   0.22685   0.22844
 Alpha virt. eigenvalues --    0.22876   0.23281   0.23424   0.23771   0.23955
 Alpha virt. eigenvalues --    0.24184   0.24394   0.24600   0.24960   0.26130
 Alpha virt. eigenvalues --    0.26621   0.26763   0.26881   0.27129   0.27195
 Alpha virt. eigenvalues --    0.27536   0.27587   0.28030   0.28181   0.29022
 Alpha virt. eigenvalues --    0.29191   0.29436   0.29494   0.29971   0.30264
 Alpha virt. eigenvalues --    0.30335   0.30742   0.31283   0.31882   0.32043
 Alpha virt. eigenvalues --    0.32378   0.32554   0.33363   0.34248   0.34928
 Alpha virt. eigenvalues --    0.35081   0.35986   0.36740   0.37055   0.37080
 Alpha virt. eigenvalues --    0.37499   0.37968   0.38796   0.38970   0.39448
 Alpha virt. eigenvalues --    0.40007   0.40739   0.41815   0.42457   0.43190
 Alpha virt. eigenvalues --    0.43526   0.44385   0.44961   0.45225   0.46015
 Alpha virt. eigenvalues --    0.46656   0.48128   0.48942   0.51026   0.52047
 Alpha virt. eigenvalues --    0.52563   0.54151   0.54555   0.55479   0.56183
 Alpha virt. eigenvalues --    0.56406   0.56749   0.56940   0.57544   0.57680
 Alpha virt. eigenvalues --    0.57832   0.58572   0.58975   0.59010   0.59192
 Alpha virt. eigenvalues --    0.59752   0.60177   0.60441   0.60948   0.61233
 Alpha virt. eigenvalues --    0.61316   0.61430   0.61791   0.62530   0.62619
 Alpha virt. eigenvalues --    0.62963   0.63332   0.63697   0.64038   0.64517
 Alpha virt. eigenvalues --    0.64647   0.64790   0.64977   0.65272   0.65651
 Alpha virt. eigenvalues --    0.65857   0.66097   0.66204   0.66397   0.66664
 Alpha virt. eigenvalues --    0.67231   0.67382   0.67867   0.67995   0.68655
 Alpha virt. eigenvalues --    0.68826   0.69345   0.69493   0.69733   0.69856
 Alpha virt. eigenvalues --    0.70501   0.70818   0.71179   0.71656   0.72723
 Alpha virt. eigenvalues --    0.72956   0.73061   0.73114   0.73777   0.74010
 Alpha virt. eigenvalues --    0.74317   0.75001   0.75275   0.75764   0.75994
 Alpha virt. eigenvalues --    0.76141   0.76618   0.77481   0.78189   0.78329
 Alpha virt. eigenvalues --    0.78696   0.78987   0.79180   0.79643   0.79657
 Alpha virt. eigenvalues --    0.79958   0.80655   0.81504   0.81590   0.81958
 Alpha virt. eigenvalues --    0.82507   0.82813   0.83077   0.83427   0.83591
 Alpha virt. eigenvalues --    0.83716   0.84154   0.84315   0.84686   0.84730
 Alpha virt. eigenvalues --    0.85091   0.85139   0.85834   0.86113   0.86894
 Alpha virt. eigenvalues --    0.86974   0.87644   0.87763   0.88414   0.88606
 Alpha virt. eigenvalues --    0.88842   0.88939   0.89213   0.89652   0.89881
 Alpha virt. eigenvalues --    0.89993   0.90112   0.91070   0.91146   0.91165
 Alpha virt. eigenvalues --    0.91716   0.92304   0.92522   0.92560   0.93001
 Alpha virt. eigenvalues --    0.93227   0.93489   0.93683   0.93903   0.94170
 Alpha virt. eigenvalues --    0.94568   0.94735   0.95193   0.95407   0.95718
 Alpha virt. eigenvalues --    0.95973   0.96116   0.96229   0.96715   0.96932
 Alpha virt. eigenvalues --    0.97149   0.97301   0.97590   0.97795   0.98845
 Alpha virt. eigenvalues --    0.99153   0.99562   0.99659   0.99962   1.00128
 Alpha virt. eigenvalues --    1.00257   1.00693   1.00979   1.01054   1.01748
 Alpha virt. eigenvalues --    1.02035   1.02219   1.02307   1.02779   1.02877
 Alpha virt. eigenvalues --    1.03580   1.04515   1.04881   1.04945   1.05385
 Alpha virt. eigenvalues --    1.05600   1.06313   1.06485   1.07606   1.07865
 Alpha virt. eigenvalues --    1.08397   1.08578   1.08986   1.09417   1.09586
 Alpha virt. eigenvalues --    1.09852   1.10257   1.11377   1.11676   1.11793
 Alpha virt. eigenvalues --    1.13311   1.13491   1.14869   1.15243   1.15787
 Alpha virt. eigenvalues --    1.16396   1.17191   1.17435   1.17896   1.18444
 Alpha virt. eigenvalues --    1.18966   1.19223   1.20448   1.20706   1.20941
 Alpha virt. eigenvalues --    1.21806   1.22208   1.23272   1.23829   1.24876
 Alpha virt. eigenvalues --    1.25258   1.26192   1.26723   1.27640   1.28161
 Alpha virt. eigenvalues --    1.28601   1.29539   1.29848   1.30337   1.30406
 Alpha virt. eigenvalues --    1.31090   1.32462   1.32782   1.33019   1.33068
 Alpha virt. eigenvalues --    1.34077   1.34968   1.36574   1.36847   1.37106
 Alpha virt. eigenvalues --    1.37201   1.37752   1.39053   1.39413   1.39503
 Alpha virt. eigenvalues --    1.39909   1.41325   1.41617   1.42486   1.42756
 Alpha virt. eigenvalues --    1.43488   1.44211   1.44662   1.45167   1.46263
 Alpha virt. eigenvalues --    1.46644   1.47312   1.47593   1.49258   1.49870
 Alpha virt. eigenvalues --    1.50942   1.51970   1.52774   1.53050   1.53298
 Alpha virt. eigenvalues --    1.53796   1.55869   1.57508   1.57782   1.58524
 Alpha virt. eigenvalues --    1.58681   1.59132   1.59851   1.60034   1.60698
 Alpha virt. eigenvalues --    1.61532   1.62125   1.63080   1.63663   1.63791
 Alpha virt. eigenvalues --    1.64494   1.65592   1.67189   1.67591   1.68142
 Alpha virt. eigenvalues --    1.69924   1.70027   1.70842   1.71492   1.71740
 Alpha virt. eigenvalues --    1.72446   1.73129   1.74073   1.74684   1.75577
 Alpha virt. eigenvalues --    1.76184   1.77695   1.78402   1.78912   1.79510
 Alpha virt. eigenvalues --    1.79656   1.80646   1.81080   1.81692   1.82029
 Alpha virt. eigenvalues --    1.82369   1.83088   1.83133   1.83416   1.84315
 Alpha virt. eigenvalues --    1.85171   1.85213   1.85772   1.86125   1.86640
 Alpha virt. eigenvalues --    1.87434   1.88360   1.88590   1.88675   1.89569
 Alpha virt. eigenvalues --    1.89892   1.90206   1.91227   1.91479   1.91773
 Alpha virt. eigenvalues --    1.91854   1.92464   1.92829   1.93343   1.93626
 Alpha virt. eigenvalues --    1.93806   1.94172   1.94430   1.94987   1.95831
 Alpha virt. eigenvalues --    1.96196   1.96265   1.96633   1.96858   1.97485
 Alpha virt. eigenvalues --    1.98316   1.98516   1.99138   1.99517   1.99628
 Alpha virt. eigenvalues --    1.99852   2.00381   2.00710   2.00903   2.00958
 Alpha virt. eigenvalues --    2.02009   2.02057   2.02763   2.03537   2.03626
 Alpha virt. eigenvalues --    2.04077   2.04438   2.05271   2.05776   2.05871
 Alpha virt. eigenvalues --    2.06622   2.06678   2.06846   2.07288   2.08021
 Alpha virt. eigenvalues --    2.08840   2.09354   2.09812   2.10714   2.11007
 Alpha virt. eigenvalues --    2.11150   2.11482   2.11762   2.12061   2.12210
 Alpha virt. eigenvalues --    2.12489   2.12794   2.13011   2.13380   2.13750
 Alpha virt. eigenvalues --    2.13819   2.14020   2.14204   2.14793   2.15072
 Alpha virt. eigenvalues --    2.15932   2.16246   2.16629   2.16711   2.16939
 Alpha virt. eigenvalues --    2.17409   2.17676   2.18460   2.19076   2.19504
 Alpha virt. eigenvalues --    2.19549   2.20168   2.20903   2.21130   2.21662
 Alpha virt. eigenvalues --    2.21740   2.22522   2.22568   2.23045   2.23190
 Alpha virt. eigenvalues --    2.23543   2.24060   2.24649   2.24803   2.25785
 Alpha virt. eigenvalues --    2.25970   2.26477   2.27101   2.27657   2.28060
 Alpha virt. eigenvalues --    2.28493   2.28754   2.29678   2.30164   2.30563
 Alpha virt. eigenvalues --    2.30913   2.31371   2.31912   2.32488   2.32757
 Alpha virt. eigenvalues --    2.33038   2.33816   2.34696   2.34785   2.35243
 Alpha virt. eigenvalues --    2.36031   2.36560   2.36909   2.37190   2.37440
 Alpha virt. eigenvalues --    2.37979   2.38486   2.39000   2.39264   2.39661
 Alpha virt. eigenvalues --    2.39873   2.40380   2.40595   2.41089   2.41941
 Alpha virt. eigenvalues --    2.42776   2.43060   2.43622   2.43944   2.44329
 Alpha virt. eigenvalues --    2.44444   2.44589   2.46126   2.46395   2.46946
 Alpha virt. eigenvalues --    2.47267   2.47776   2.48558   2.48845   2.49249
 Alpha virt. eigenvalues --    2.49405   2.49611   2.50576   2.50813   2.50988
 Alpha virt. eigenvalues --    2.51859   2.52050   2.52541   2.53648   2.53827
 Alpha virt. eigenvalues --    2.54191   2.55271   2.55776   2.55944   2.56093
 Alpha virt. eigenvalues --    2.56404   2.56830   2.57119   2.57709   2.58438
 Alpha virt. eigenvalues --    2.58562   2.59236   2.59848   2.60423   2.60795
 Alpha virt. eigenvalues --    2.61136   2.61647   2.61782   2.62513   2.62861
 Alpha virt. eigenvalues --    2.63333   2.63642   2.64664   2.65425   2.66155
 Alpha virt. eigenvalues --    2.66469   2.66956   2.67193   2.67829   2.68189
 Alpha virt. eigenvalues --    2.68822   2.69146   2.69311   2.69921   2.70296
 Alpha virt. eigenvalues --    2.70530   2.71397   2.71681   2.72121   2.72921
 Alpha virt. eigenvalues --    2.73163   2.73455   2.73743   2.74417   2.75002
 Alpha virt. eigenvalues --    2.75445   2.76085   2.76763   2.77414   2.77877
 Alpha virt. eigenvalues --    2.78038   2.78152   2.78583   2.78899   2.79035
 Alpha virt. eigenvalues --    2.80425   2.80637   2.81430   2.81587   2.81977
 Alpha virt. eigenvalues --    2.82134   2.82595   2.83006   2.83372   2.83677
 Alpha virt. eigenvalues --    2.84271   2.84661   2.85419   2.85591   2.85791
 Alpha virt. eigenvalues --    2.86264   2.86609   2.86788   2.87417   2.88052
 Alpha virt. eigenvalues --    2.88473   2.88878   2.89642   2.90101   2.90746
 Alpha virt. eigenvalues --    2.91330   2.91534   2.91865   2.92111   2.94562
 Alpha virt. eigenvalues --    2.94626   2.94819   2.95115   2.95325   2.95721
 Alpha virt. eigenvalues --    2.96829   2.97282   2.98194   2.98631   2.99164
 Alpha virt. eigenvalues --    2.99474   3.00531   3.00779   3.00798   3.01126
 Alpha virt. eigenvalues --    3.01852   3.03039   3.04448   3.05667   3.06107
 Alpha virt. eigenvalues --    3.07668   3.08774   3.08963   3.09889   3.10485
 Alpha virt. eigenvalues --    3.11567   3.12452   3.12546   3.12914   3.13654
 Alpha virt. eigenvalues --    3.14303   3.15184   3.16202   3.16699   3.18389
 Alpha virt. eigenvalues --    3.18940   3.19929   3.21167   3.22363   3.23128
 Alpha virt. eigenvalues --    3.23550   3.24271   3.24751   3.25301   3.26115
 Alpha virt. eigenvalues --    3.27001   3.27362   3.29966   3.30347   3.31780
 Alpha virt. eigenvalues --    3.33100   3.33365   3.34557   3.36426   3.37471
 Alpha virt. eigenvalues --    3.40828   3.41909   3.43712   3.44263   3.44512
 Alpha virt. eigenvalues --    3.45426   3.46746   3.47207   3.49076   3.49619
 Alpha virt. eigenvalues --    3.50869   3.51324   3.51488   3.51888   3.52883
 Alpha virt. eigenvalues --    3.53091   3.53506   3.54098   3.56010   3.56640
 Alpha virt. eigenvalues --    3.56917   3.56956   3.57142   3.57649   3.60551
 Alpha virt. eigenvalues --    3.61283   3.61490   3.62099   3.62512   3.64799
 Alpha virt. eigenvalues --    3.65517   3.68246   3.70176   3.70295   3.71243
 Alpha virt. eigenvalues --    3.71528   3.72998   3.75772   3.78010   3.85115
 Alpha virt. eigenvalues --    3.85902   3.94154   4.02280   4.06221   4.07881
 Alpha virt. eigenvalues --    4.17809   4.18986   4.19429   4.20104   4.21663
 Alpha virt. eigenvalues --    4.25213   4.26275   4.27541   4.31156   4.33968
 Alpha virt. eigenvalues --    4.36248   4.37421   4.40563   4.43940   4.45963
 Alpha virt. eigenvalues --    4.47920   4.49290   4.51194   4.52957   4.55672
 Alpha virt. eigenvalues --    4.56013   4.58355   4.59694   4.61575   4.61996
 Alpha virt. eigenvalues --    4.62384   4.64216   4.70663   4.70961   4.74265
 Alpha virt. eigenvalues --    4.76466   4.78514   4.79920   4.81659   4.83354
 Alpha virt. eigenvalues --    4.86186   4.88203   4.94280   4.94711   4.98328
 Alpha virt. eigenvalues --    4.98990
          Condensed to atoms (all electrons):
 Mulliken charges:
               1
     1  O   -0.513568
     2  O   -0.558289
     3  O   -0.548283
     4  O   -0.555669
     5  C    0.209111
     6  C    0.220032
     7  C    0.028315
     8  C   -0.201103
     9  C   -0.192033
    10  C    0.161888
    11  C   -0.320770
    12  C   -0.121122
    13  C   -0.279848
    14  C   -0.319263
    15  C   -0.084623
    16  C    0.117994
    17  C   -0.359369
    18  C   -0.148629
    19  C   -0.082476
    20  C    0.008274
    21  C    0.213402
    22  C   -0.140128
    23  C    0.131071
    24  C   -0.175700
    25  C   -0.077121
    26  C   -0.319081
    27  C   -0.306784
    28  C   -0.280432
    29  C   -0.098043
    30  C    0.161117
    31  C    0.072322
    32  C   -0.276702
    33  C   -0.386002
    34  C   -0.099449
    35  C    0.121920
    36  C   -0.367659
    37  C   -0.154745
    38  C   -0.086990
    39  C   -0.075869
    40  C   -0.087131
    41  C   -0.064092
    42  C   -0.132421
    43  C    0.049083
    44  C   -0.352789
    45  H    0.106329
    46  H    0.120362
    47  H    0.085350
    48  H    0.108846
    49  H    0.082468
    50  H    0.104385
    51  H    0.118831
    52  H    0.119814
    53  H    0.095501
    54  H    0.113502
    55  H    0.105648
    56  H    0.066358
    57  H    0.137452
    58  H    0.099131
    59  H    0.073698
    60  H    0.321363
    61  H    0.049632
    62  H    0.106144
    63  H    0.118363
    64  H    0.121868
    65  H    0.089441
    66  H    0.085285
    67  H    0.081860
    68  H    0.099497
    69  H    0.082814
    70  H    0.085510
    71  H    0.109787
    72  H    0.097523
    73  H    0.120714
    74  H    0.095513
    75  H    0.114049
    76  H    0.094357
    77  H    0.104022
    78  H    0.104832
    79  H    0.082810
    80  H    0.138594
    81  H    0.084782
    82  H    0.285194
    83  H    0.308216
    84  H    0.103808
    85  H    0.139825
    86  H    0.116069
    87  H    0.092735
    88  H    0.074846
    89  H    0.113963
    90  H    0.143524
    91  H    0.100904
    92  H    0.078090
    93  H    0.098850
    94  H    0.079041
    95  H    0.089275
    96  H    0.072863
    97  H    0.083543
    98  H    0.111025
    99  H    0.135424
   100  H    0.118020
 Sum of Mulliken charges =  -0.00000
 Mulliken charges with hydrogens summed into heavy atoms:
               1
     1  O   -0.513568
     2  O   -0.236926
     3  O   -0.263089
     4  O   -0.247452
     5  C    0.209111
     6  C    0.220032
     7  C    0.028315
     8  C    0.025588
     9  C    0.002164
    10  C    0.244356
    11  C    0.022259
    12  C   -0.025621
    13  C    0.005660
    14  C   -0.008982
    15  C   -0.034991
    16  C    0.117994
    17  C   -0.012994
    18  C   -0.059187
    19  C    0.002809
    20  C    0.008274
    21  C    0.213402
    22  C    0.041230
    23  C    0.213885
    24  C    0.019597
    25  C   -0.077121
    26  C   -0.005331
    27  C    0.005644
    28  C    0.045805
    29  C   -0.013261
    30  C    0.161117
    31  C    0.072322
    32  C   -0.172894
    33  C   -0.037373
    34  C   -0.024604
    35  C    0.121920
    36  C   -0.009267
    37  C   -0.076655
    38  C    0.011860
    39  C    0.003172
    40  C    0.002144
    41  C    0.008771
    42  C   -0.048878
    43  C    0.049083
    44  C    0.011681
 Electronic spatial extent (au):  <R**2>=         115539.5265
 Charge=              0.0000 electrons
 Dipole moment (field-independent basis, Debye):
    X=              2.8009    Y=             -0.1857    Z=              3.2837  Tot=              4.3200
 Quadrupole moment (field-independent basis, Debye-Ang):
   XX=           -280.3024   YY=           -259.6115   ZZ=           -278.1608
   XY=             -5.2511   XZ=             32.9268   YZ=             -3.8658
 Traceless Quadrupole moment (field-independent basis, Debye-Ang):
   XX=             -7.6109   YY=             13.0801   ZZ=             -5.4692
   XY=             -5.2511   XZ=             32.9268   YZ=             -3.8658
 Octapole moment (field-independent basis, Debye-Ang**2):
  XXX=           1039.8715  YYY=             20.5680  ZZZ=              6.7235  XYY=             58.8221
  XXY=            -25.5582  XXZ=            412.0818  XZZ=             30.5259  YZZ=             -8.0552
  YYZ=            -11.8631  XYZ=           -127.3458
 Hexadecapole moment (field-independent basis, Debye-Ang**3):
 XXXX=        -147385.5383 YYYY=          -3448.8701 ZZZZ=          -2266.9079 XXXY=          -3332.9204
 XXXZ=           7480.8777 YYYX=           -346.3045 YYYZ=            -26.9704 ZZZX=             68.2663
 ZZZY=             -8.3463 XXYY=         -25810.8073 XXZZ=         -25970.0138 YYZZ=           -986.6574
 XXYZ=            104.5548 YYXZ=            175.6357 ZZXY=             80.1880
 N-N= 4.459782368413D+03 E-N=-1.323070000341D+04  KE= 1.840756690861D+03
 1\1\GINC-RYZEN-SSD3\SP\RCAM-B3LYP TD-FC\6-31G(d,p)\C40H56O4\PADAWAN\31
 -Jul-2019\0\\# td=(NStates=1) CAM-B3LYP/6-31G(d,p)\\TD\\0,1\O,0,-11.68
 61152791,0.3465753059,-1.5489420578\O,0,-13.0503258684,-2.3736056686,1
 .2722729123\O,0,10.7259481147,-0.8943393218,-2.1598897153\O,0,14.47185
 05518,-1.0235310746,-0.2020846959\C,0,-11.0748256498,-0.1407980345,-0.
 3205314775\C,0,-11.6910953992,-1.0831194918,-1.2415829986\C,0,-11.7511
 871617,0.4243991227,0.9566053155\C,0,-13.180603264,-1.5859587538,-1.03
 69553295\C,0,-13.319460404,-0.0134687945,0.8974144293\C,0,-13.68097453
 1,-1.4366352013,0.4104998173\C,0,-10.9032159103,-1.9223676543,-2.15411
 77301\C,0,-9.6080302468,-0.0436272289,-0.319658924\C,0,-11.1815841358,
 -0.0360492009,2.1515002171\C,0,-11.8169520755,1.9497500781,0.851313223
 \C,0,-8.6108145032,-0.695097551,0.315860325\C,0,-7.2434123308,-0.59129
 09752,0.296067307\C,0,-6.5017241873,-1.8604347323,0.6895411904\C,0,-6.
 6610217639,0.604131243,-0.0142499802\C,0,-5.2098309247,0.9011221489,-0
 .037368067\C,0,11.9790471516,0.0343234618,1.3339929274\C,0,11.70867815
 79,-0.4567418294,-1.2029141711\C,0,12.7307403021,-1.2723314628,1.47860
 25937\C,0,13.3276974564,-1.7462791613,0.2115351179\C,0,12.3162965644,-
 1.8002745365,-0.9414581083\C,0,11.0661735053,0.0526400119,0.0470418845
 \C,0,11.1252039253,0.3141480568,2.6671090511\C,0,12.9107541921,1.29244
 2465,1.3045035014\C,0,12.612017508,0.4703759109,-1.9638403318\C,0,-4.6
 782543211,2.1016126673,-0.3826231112\C,0,9.8678179693,0.5688476876,0.0
 337922025\C,0,-3.3539505535,2.3546942231,-0.428303091\C,0,8.6380035864
 ,1.0055768915,-0.1200763476\C,0,-2.9516868538,3.8018116407,-0.61606133
 82\C,0,-2.2754544605,1.3214839971,-0.3413866734\C,0,7.4482143639,0.150
 1256006,0.0132021361\C,0,7.6392286594,-1.2951464667,0.2216220851\C,0,6
 .1963709851,0.7378507154,-0.1217661126\C,0,-0.8790720387,1.7315122749,
 -0.5790460797\C,0,4.9358851913,0.0606851846,0.0011614849\C,0,0.0795344
 324,0.7348767976,-0.2875878616\C,0,3.8297223799,0.7503553859,-0.059953
 4643\C,0,1.4658385247,1.1454162693,-0.1520875897\C,0,2.5788857891,0.23
 2482548,0.0480281607\C,0,2.3748973514,-1.2992641067,0.3118397776\H,0,-
 13.1811199128,-2.6960225801,-1.0871739414\H,0,-13.7564608698,-1.219085
 8928,-1.8968361383\H,0,-13.7343512373,0.1070277716,1.9909217749\H,0,-1
 3.7053399276,0.7334384709,0.1354912147\H,0,-14.9409714012,-1.526801393
 5,0.3120728116\H,0,-10.8647250894,-2.9117879616,-1.6287481702\H,0,-11.
 512521461,-1.9629610875,-3.0918574719\H,0,-9.8112133048,-1.5628254911,
 -2.2636279753\H,0,-9.1779564504,0.8243445655,-0.8420080109\H,0,-10.135
 2648541,0.2721884829,2.2771034531\H,0,-11.7456799289,0.4144481464,3.04
 06424143\H,0,-11.1427149652,-1.0624531218,2.124623252\H,0,-11.95792833
 53,2.4882049425,-0.0491516992\H,0,-12.6396602054,2.392334809,1.5072644
 382\H,0,-10.7725675389,2.4626768582,1.0996242559\H,0,-12.0646095335,-2
 .21456433,1.362800759\H,0,-8.9638972316,-1.6185002077,0.8067097699\H,0
 ,-5.9851279589,-2.3297963047,-0.3365416986\H,0,-5.7676691822,-1.709656
 1982,1.5650348997\H,0,-7.1645865693,-2.5958018532,1.0363797888\H,0,-7.
 2891502261,1.6204803771,-0.0229219687\H,0,-4.4442410688,0.1581244308,0
 .2984160659\H,0,13.432398917,-1.3612978172,2.1072856692\H,0,11.9920043
 774,-1.9922286029,1.8147474744\H,0,13.6728096379,-2.7080724722,0.15831
 27572\H,0,13.0064980883,-2.2780042789,-1.8618892836\H,0,11.4722472329,
 -2.519941118,-0.738409183\H,0,11.7131109193,0.2900293696,3.6086058993\
 H,0,10.556432621,1.2076663297,2.6577532995\H,0,10.5124188631,-0.601868
 5014,2.7853347747\H,0,13.7336302649,1.2159002142,0.5247865435\H,0,12.3
 305556688,2.2378132191,1.0710818139\H,0,13.2611019473,1.4808125604,2.2
 632528069\H,0,12.940924912,0.1510184922,-3.0531077627\H,0,12.008477916
 2,1.3403561265,-2.0069886338\H,0,13.4720480374,0.6032063735,-1.4611015
 956\H,0,-5.3543776617,2.9281972065,-0.2922906399\H,0,10.2074519958,-0.
 1122498826,-2.1586582016\H,0,15.154628308,-1.1290527197,0.5305416535\H
 ,0,8.2418760384,1.9383161588,-0.3831555928\H,0,-2.425507635,4.02948939
 86,0.27480331\H,0,-2.2265014144,4.0267498998,-1.463239433\H,0,-3.79838
 62237,4.6807962614,-0.747714573\H,0,-2.4686164817,0.378350047,-0.25547
 85025\H,0,6.7687396239,-1.8323027924,0.4260050852\H,0,8.1440996245,-1.
 5901137362,-0.6889796721\H,0,8.4286127829,-1.4920315316,1.0776515261\H
 ,0,6.1109262397,1.8657703824,-0.2956115809\H,0,-0.682859643,2.75935997
 95,-0.950194931\H,0,4.7428502714,-0.9704435411,0.1169543765\H,0,-0.168
 8858118,-0.2502568386,0.0161842295\H,0,4.0111002779,1.6854541816,-0.43
 48657116\H,0,1.6843453097,2.1754433362,-0.1714098394\H,0,1.4594847833,
 -1.5984964538,0.4950184974\H,0,2.9582771525,-1.6688331848,-0.505348304
 8\H,0,2.7178884852,-1.5457688059,1.3415774443\\Version=ES64L-G16RevA.0
 3\State=1-A\HF=-1857.3458646\RMSD=6.744e-09\PG=C01 [X(C40H56O4)]\\@


 NATURE REVEALS EVERY SECRET ONCE.
                    - RALPH WALDO EMERSON
 Job cpu time:       0 days  5 hours 38 minutes 38.8 seconds.
 Elapsed time:       0 days  1 hours 53 minutes  6.1 seconds.
 File lengths (MBytes):  RWF=   3379 Int=      0 D2E=      0 Chk=     90 Scr=      1
 Normal termination of Gaussian 16 at Wed Jul 31 21:56:36 2019.
