 Entering Gaussian System, Link 0=g16
 Input=Geometria-454-.com
 Output=Geometria-454-.log
 Initial command:
 /usr/local/g16/l1.exe "/home/padawan/israel-mol/neoxanthin/spectra/emi/Gau-5990.inp" -scrdir="/home/padawan/israel-mol/neoxanthin/spectra/emi/"
 Entering Link 1 = /usr/local/g16/l1.exe PID=      5992.
  
 Copyright (c) 1988,1990,1992,1993,1995,1998,2003,2009,2016,
            Gaussian, Inc.  All Rights Reserved.
  
 This is part of the Gaussian(R) 16 program.  It is based on
 the Gaussian(R) 09 system (copyright 2009, Gaussian, Inc.),
 the Gaussian(R) 03 system (copyright 2003, Gaussian, Inc.),
 the Gaussian(R) 98 system (copyright 1998, Gaussian, Inc.),
 the Gaussian(R) 94 system (copyright 1995, Gaussian, Inc.),
 the Gaussian 92(TM) system (copyright 1992, Gaussian, Inc.),
 the Gaussian 90(TM) system (copyright 1990, Gaussian, Inc.),
 the Gaussian 88(TM) system (copyright 1988, Gaussian, Inc.),
 the Gaussian 86(TM) system (copyright 1986, Carnegie Mellon
 University), and the Gaussian 82(TM) system (copyright 1983,
 Carnegie Mellon University). Gaussian is a federally registered
 trademark of Gaussian, Inc.
  
 This software contains proprietary and confidential information,
 including trade secrets, belonging to Gaussian, Inc.
  
 This software is provided under written license and may be
 used, copied, transmitted, or stored only in accord with that
 written license.
  
 The following legend is applicable only to US Government
 contracts under FAR:
  
                    RESTRICTED RIGHTS LEGEND
  
 Use, reproduction and disclosure by the US Government is
 subject to restrictions as set forth in subparagraphs (a)
 and (c) of the Commercial Computer Software - Restricted
 Rights clause in FAR 52.227-19.
  
 Gaussian, Inc.
 340 Quinnipiac St., Bldg. 40, Wallingford CT 06492
  
  
 ---------------------------------------------------------------
 Warning -- This program may not be used in any manner that
 competes with the business of Gaussian, Inc. or will provide
 assistance to any competitor of Gaussian, Inc.  The licensee
 of this program is prohibited from giving any competitor of
 Gaussian, Inc. access to this program.  By using this program,
 the user acknowledges that Gaussian, Inc. is engaged in the
 business of creating and licensing software in the field of
 computational chemistry and represents and warrants to the
 licensee that it is not a competitor of Gaussian, Inc. and that
 it will not use this program in any manner prohibited above.
 ---------------------------------------------------------------
  

 Cite this work as:
 Gaussian 16, Revision A.03,
 M. J. Frisch, G. W. Trucks, H. B. Schlegel, G. E. Scuseria, 
 M. A. Robb, J. R. Cheeseman, G. Scalmani, V. Barone, 
 G. A. Petersson, H. Nakatsuji, X. Li, M. Caricato, A. V. Marenich, 
 J. Bloino, B. G. Janesko, R. Gomperts, B. Mennucci, H. P. Hratchian, 
 J. V. Ortiz, A. F. Izmaylov, J. L. Sonnenberg, D. Williams-Young, 
 F. Ding, F. Lipparini, F. Egidi, J. Goings, B. Peng, A. Petrone, 
 T. Henderson, D. Ranasinghe, V. G. Zakrzewski, J. Gao, N. Rega, 
 G. Zheng, W. Liang, M. Hada, M. Ehara, K. Toyota, R. Fukuda, 
 J. Hasegawa, M. Ishida, T. Nakajima, Y. Honda, O. Kitao, H. Nakai, 
 T. Vreven, K. Throssell, J. A. Montgomery, Jr., J. E. Peralta, 
 F. Ogliaro, M. J. Bearpark, J. J. Heyd, E. N. Brothers, K. N. Kudin, 
 V. N. Staroverov, T. A. Keith, R. Kobayashi, J. Normand, 
 K. Raghavachari, A. P. Rendell, J. C. Burant, S. S. Iyengar, 
 J. Tomasi, M. Cossi, J. M. Millam, M. Klene, C. Adamo, R. Cammi, 
 J. W. Ochterski, R. L. Martin, K. Morokuma, O. Farkas, 
 J. B. Foresman, and D. J. Fox, Gaussian, Inc., Wallingford CT, 2016.
 
 ******************************************
 Gaussian 16:  ES64L-G16RevA.03 25-Dec-2016
                 2-Aug-2019 
 ******************************************
 %nproc=3
 Will use up to    3 processors via shared memory.
 %Mem=2GB
 -------------------------------------
 # td=(NStates=1) CAM-B3LYP/6-31G(d,p)
 -------------------------------------
 1/38=1,172=1/1;
 2/12=2,17=6,18=5,40=1/2;
 3/5=1,6=6,7=101,11=9,25=1,30=1,74=-40/1,2,3,8;
 4//1;
 5/5=2,38=5/2;
 8/6=1,10=2,108=1/1;
 9/41=1,42=1,70=2/14;
 6/7=2,8=2,9=2,10=2/1;
 99/5=1,9=1/99;
 --
 TD
 --
 Symbolic Z-matrix:
 Charge =  0 Multiplicity = 1
 8                    -11.62537   0.26112  -1.56861 
 8                    -13.03599  -2.56315   1.26883 
 8                     10.81302  -1.07325  -2.14578 
 8                     14.55417  -0.98967  -0.00185 
 6                    -10.98897  -0.0737   -0.28439 
 6                    -11.62214  -1.10807  -1.23782 
 6                    -11.69525   0.42719   1.05614 
 6                    -13.02948  -1.72586  -0.99829 
 6                    -13.23243  -0.03984   0.88125 
 6                    -13.48865  -1.50336   0.41488 
 6                    -10.7981  -2.02315  -2.00573 
 6                    -9.56534   0.01946  -0.30606 
 6                    -11.07161  -0.10863   2.32256 
 6                    -11.83553   2.01165   1.05521 
 6                    -8.63722  -0.78273   0.20562 
 6                    -7.19046  -0.56108   0.18749 
 6                    -6.35202  -1.78306   0.41669 
 6                    -6.57593   0.61988  -0.10446 
 6                    -5.14825   0.90323  -0.08472 
 6                     11.78932   0.09683   1.37707 
 6                     11.76575  -0.59937  -1.14891 
 6                     12.61395  -1.21555   1.54727 
 6                     13.38788  -1.75352   0.31831 
 6                     12.51081  -1.81947  -0.8705 
 6                     11.00348   0.00468   0.11239 
 6                     10.77424   0.17819   2.50492 
 6                     12.77062   1.26886   1.50393 
 6                     12.5892   0.37503  -1.93433 
 6                    -4.65107   2.05732  -0.32196 
 6                     9.84683   0.58996  -0.02548 
 6                    -3.33341   2.46368  -0.42742 
 6                     8.56761   0.78382  -0.20689 
 6                    -3.14475   4.04068  -0.74141 
 6                    -2.26371   1.71076  -0.22179 
 6                     7.33776  -0.01381  -0.1652 
 6                     7.61729  -1.47001  -0.04452 
 6                     6.14057   0.6381   -0.23885 
 6                    -0.95868   1.96834  -0.32589 
 6                     4.93184   0.12546  -0.08741 
 6                     0.1129    1.02624  -0.16641 
 6                     3.76473   0.85382  -0.23462 
 6                     1.41515   1.23761  -0.31398 
 6                     2.44716   0.33715  -0.18867 
 6                     2.18237  -1.10953   0.32161 
 1                    -12.91797  -2.74398  -1.21682 
 1                    -13.86875  -1.2165   -1.68594 
 1                    -13.82686   0.04311   1.82182 
 1                    -13.88661   0.73442   0.35067 
 1                    -14.37489  -1.73209   0.59052 
 1                    -10.77216  -3.02111  -1.48776 
 1                    -11.37741  -2.45531  -2.93363 
 1                    -9.78461  -1.50213  -2.24713 
 1                    -9.38487   0.97048  -0.90778 
 1                    -9.82267  -0.07637   2.2954 
 1                    -11.62501   0.44429   3.21817 
 1                    -11.44418  -1.28699   2.57733 
 1                    -12.37839   2.48791   0.25961 
 1                    -12.35799   2.4004    1.9734 
 1                    -10.66631   2.4051    1.00105 
 1                    -12.20497  -2.7808    1.01932 
 1                    -8.97711  -1.71615   0.85087 
 1                    -5.39434  -1.93157  -0.30547 
 1                    -5.68521  -1.64536   1.49337 
 1                    -6.93757  -2.60516   0.48495 
 1                    -7.21646   1.59466  -0.42251 
 1                    -4.4275    0.01827   0.17373 
 1                     13.29261  -1.15481   2.41273 
 1                     12.21724  -2.12291   1.92 
 1                     13.8261  -2.77084   0.5721 
 1                     13.17998  -1.99784  -1.99541 
 1                     11.81797  -2.64545  -0.73249 
 1                     11.16253   0.02069   3.5025 
 1                     10.52016   1.16856   2.41412 
 1                     10.07815  -0.49722   2.32657 
 1                     13.45558   1.27863   0.5991 
 1                     12.23505   2.28819   1.43527 
 1                     13.35501   1.17439   2.59469 
 1                     13.02811  -0.42452  -2.7318 
 1                     11.92425   1.25397  -2.35404 
 1                     13.44425   0.8163   -1.66704 
 1                    -5.45698   2.86555  -0.4402 
 1                     10.14801  -0.26171  -2.40198 
 1                     14.98289  -0.66931   0.95474 
 1                     8.35276   1.91576  -0.32146 
 1                    -2.36368   4.46818  -0.05994 
 1                    -2.89496   4.04082  -1.89815 
 1                    -4.13997   4.72853  -0.39688 
 1                    -2.39264   0.60126   0.08008 
 1                     6.71491  -2.0382   -0.27598 
 1                     8.6191   -1.53762  -0.53553 
 1                     7.77391  -1.93223   1.14406 
 1                     6.33551   1.81247  -0.30481 
 1                    -0.69784   2.97924  -0.35459 
 1                     4.94427  -1.04853   0.00916 
 1                    -0.14729   0.0442   -0.21623 
 1                     3.78722   1.96711  -0.28821 
 1                     1.89049   2.24862  -0.61909 
 1                     1.08239  -1.2404   -0.01032 
 1                     3.06582  -1.88162  -0.13375 
 1                     2.37843  -1.27041   1.36991 
 
 Stoichiometry    C40H56O4
 Framework group  C1[X(C40H56O4)]
 Deg. of freedom   294
 Full point group                 C1      NOp   1
 Largest Abelian subgroup         C1      NOp   1
 Largest concise Abelian subgroup C1      NOp   1
                         Standard orientation:                         
 ---------------------------------------------------------------------
 Center     Atomic      Atomic             Coordinates (Angstroms)
 Number     Number       Type             X           Y           Z
 ---------------------------------------------------------------------
      1          8           0      -11.622995    0.235503   -1.585110
      2          8           0      -13.035296   -2.553986    1.285714
      3          8           0       10.816720   -1.093822   -2.120753
      4          8           0       14.555435   -0.981537    0.026108
      5          6           0      -10.987849   -0.082957   -0.296111
      6          6           0      -11.619412   -1.129459   -1.237294
      7          6           0      -11.695891    0.434202    1.037289
      8          6           0      -13.026693   -1.744980   -0.991650
      9          6           0      -13.232629   -0.035800    0.866532
     10          6           0      -13.487552   -1.505151    0.418133
     11          6           0      -10.794032   -2.053579   -1.992839
     12          6           0       -9.564244    0.010696   -0.317361
     13          6           0      -11.073382   -0.085468    2.310974
     14          6           0      -11.837006    2.018449    1.016485
     15          6           0       -8.636274   -0.784556    0.205292
     16          6           0       -7.189611   -0.562369    0.186004
     17          6           0       -6.350786   -1.780947    0.431336
     18          6           0       -6.575384    0.615197   -0.119941
     19          6           0       -5.147878    0.899542   -0.102152
     20          6           0       11.788477    0.120550    1.388332
     21          6           0       11.768095   -0.607052   -1.128805
     22          6           0       12.613608   -1.189160    1.575774
     23          6           0       13.389196   -1.741974    0.354462
     24          6           0       12.513479   -1.823189   -0.834403
     25          6           0       11.004095    0.012233    0.124028
     26          6           0       10.772099    0.215401    2.513962
     27          6           0       12.769020    1.294599    1.501683
     28          6           0       12.591899    0.357931   -1.925381
     29          6           0       -4.651038    2.050853   -0.353186
     30          6           0        9.847291    0.595131   -0.022402
     31          6           0       -3.333472    2.456577   -0.462242
     32          6           0        8.568172    0.786031   -0.207620
     33          6           0       -3.145290    4.029648   -0.795634
     34          6           0       -2.263611    1.706861   -0.246071
     35          6           0        7.338703   -0.011687   -0.157366
     36          6           0        7.618858   -1.466124   -0.018264
     37          6           0        6.141245    0.638610   -0.240455
     38          6           0       -0.958598    1.963823   -0.351920
     39          6           0        4.932627    0.127243   -0.083984
     40          6           0        0.113297    1.024361   -0.179530
     41          6           0        3.765289    0.853077   -0.241547
     42          6           0        1.415605    1.234580   -0.328285
     43          6           0        2.447948    0.336315   -0.190623
     44          6           0        2.183346   -1.104041    0.337332
     45          1           0      -12.914409   -2.765676   -1.197359
     46          1           0      -13.865468   -1.244667   -1.686511
     47          1           0      -13.828149    0.058535    1.805339
     48          1           0      -13.886621    0.731441    0.325628
     49          1           0      -14.373876   -1.732155    0.595625
     50          1           0      -10.768145   -3.045000   -1.462457
     51          1           0      -11.372083   -2.497573   -2.915926
     52          1           0       -9.780553   -1.535059   -2.239577
     53          1           0       -9.383605    0.954248   -0.930681
     54          1           0       -9.824430   -0.052874    2.284797
     55          1           0      -11.628066    0.478257    3.199020
     56          1           0      -11.445608   -1.260766    2.579983
     57          1           0      -12.379226    2.484483    0.214412
     58          1           0      -12.360692    2.418317    1.929182
     59          1           0      -10.667926    2.411831    0.958727
     60          1           0      -12.203883   -2.774273    1.039848
     61          1           0       -8.976393   -1.710058    0.861741
     62          1           0       -5.392223   -1.937918   -0.287860
     63          1           0       -5.685251   -1.629496    1.506951
     64          1           0       -6.935984   -2.602455    0.509178
     65          1           0       -7.216072    1.585591   -0.450815
     66          1           0       -4.426945    0.018256    0.168101
     67          1           0       13.291277   -1.117284    2.441159
     68          1           0       12.216959   -2.092029    1.959331
     69          1           0       13.827669   -2.755817    0.621392
     70          1           0       13.183996   -2.015189   -1.956265
     71          1           0       11.820926   -2.647768   -0.686885
     72          1           0       11.159356    0.070540    3.513847
     73          1           0       10.517599    1.204424    2.410553
     74          1           0       10.076560   -0.462555    2.343259
     75          1           0       13.454986    1.293469    0.597562
     76          1           0       12.232987    2.312703    1.419739
     77          1           0       13.352245    1.214033    2.594174
     78          1           0       13.032127   -0.451243   -2.712346
     79          1           0       11.926959    1.231220   -2.356744
     80          1           0       13.446418    0.802958   -1.662664
     81          1           0       -5.457237    2.857116   -0.482370
     82          1           0       10.151568   -0.285901   -2.387777
     83          1           0       14.982922   -0.649060    0.979119
     84          1           0        8.352855    1.916340   -0.336516
     85          1           0       -2.365210    4.466029   -0.118670
     86          1           0       -2.894213    4.015528   -1.952007
     87          1           0       -4.141259    4.721202   -0.460793
     88          1           0       -2.392289    0.601135    0.069446
     89          1           0        6.717044   -2.037638   -0.243623
     90          1           0        8.621251   -1.539295   -0.507284
     91          1           0        7.774397   -1.913418    1.176154
     92          1           0        6.335644    1.812167   -0.320820
     93          1           0       -0.698259    2.974434   -0.392909
     94          1           0        4.945563   -1.045450    0.027210
     95          1           0       -0.146322    0.041643   -0.217411
     96          1           0        3.787255    1.965632   -0.308969
     97          1           0        1.890745    2.241975   -0.645433
     98          1           0        1.083805   -1.239633    0.005836
     99          1           0        3.067709   -1.881272   -0.107403
    100          1           0        2.378329   -1.251758    1.387770
 ---------------------------------------------------------------------
 Rotational constants (GHZ):           0.2617586           0.0088822           0.0088011
 Standard basis: 6-31G(d,p) (6D, 7F)
 There are   940 symmetry adapted cartesian basis functions of A   symmetry.
 There are   940 symmetry adapted basis functions of A   symmetry.
   940 basis functions,  1624 primitive gaussians,   940 cartesian basis functions
   164 alpha electrons      164 beta electrons
       nuclear repulsion energy      4448.0352022497 Hartrees.
 NAtoms=  100 NActive=  100 NUniq=  100 SFac= 1.00D+00 NAtFMM=   60 NAOKFM=T Big=T
 Integral buffers will be    131072 words long.
 Raffenetti 1 integral format.
 Two-electron integral symmetry is turned on.
 One-electron integrals computed using PRISM.
 NBasis=   940 RedAO= T EigKep=  4.39D-04  NBF=   940
 NBsUse=   940 1.00D-06 EigRej= -1.00D+00 NBFU=   940
 ExpMin= 1.61D-01 ExpMax= 5.48D+03 ExpMxC= 8.25D+02 IAcc=3 IRadAn=         5 AccDes= 0.00D+00
 Harris functional with IExCor=20419 and IRadAn=       5 diagonalized for initial guess.
 HarFok:  IExCor=20419 AccDes= 0.00D+00 IRadAn=         5 IDoV= 1 UseB2=F ITyADJ=14
 ICtDFT=  3500011 ScaDFX=  1.000000  1.000000  1.000000  1.000000
 FoFCou: FMM=F IPFlag=           0 FMFlag=      100000 FMFlg1=        2001
         NFxFlg=           0 DoJE=T BraDBF=F KetDBF=T FulRan=T
         wScrn=  0.000000 ICntrl=       500 IOpCl=  0 I1Cent=   200000004 NGrid=           0
         NMat0=    1 NMatS0=      1 NMatT0=    0 NMatD0=    1 NMtDS0=    0 NMtDT0=    0
 Petite list used in FoFCou.
 Requested convergence on RMS density matrix=1.00D-08 within 128 cycles.
 Requested convergence on MAX density matrix=1.00D-06.
 Requested convergence on             energy=1.00D-06.
 No special actions if energy rises.
 Integral accuracy reduced to 1.0D-05 until final iterations.
 Initial convergence to 1.0D-05 achieved.  Increase integral accuracy.
 SCF Done:  E(RCAM-B3LYP) =  -1857.20755267     A.U. after   15 cycles
            NFock= 15  Conv=0.64D-08     -V/T= 2.0099
 DoSCS=F DFT=T ScalE2(SS,OS)=  1.000000  1.000000
 ExpMin= 1.61D-01 ExpMax= 5.48D+03 ExpMxC= 8.25D+02 IAcc=3 IRadAn=         5 AccDes= 0.00D+00
 HarFok:  IExCor=  205 AccDes= 0.00D+00 IRadAn=         5 IDoV=-2 UseB2=F ITyADJ=14
 ICtDFT= 12500011 ScaDFX=  1.000000  1.000000  1.000000  1.000000
 GSVD:  LWork=       -2288 too small for GESVD, short by       10340 words or       10340 for optimal perf.
 Range of M.O.s used for correlation:    45   940
 NBasis=   940 NAE=   164 NBE=   164 NFC=    44 NFV=     0
 NROrb=    896 NOA=   120 NOB=   120 NVA=   776 NVB=   776
 Orbital symmetries:
       Occupied  (A) (A) (A) (A) (A) (A) (A) (A) (A) (A) (A) (A)
                 (A) (A) (A) (A) (A) (A) (A) (A) (A) (A) (A) (A)
                 (A) (A) (A) (A) (A) (A) (A) (A) (A) (A) (A) (A)
                 (A) (A) (A) (A) (A) (A) (A) (A) (A) (A) (A) (A)
                 (A) (A) (A) (A) (A) (A) (A) (A) (A) (A) (A) (A)
                 (A) (A) (A) (A) (A) (A) (A) (A) (A) (A) (A) (A)
                 (A) (A) (A) (A) (A) (A) (A) (A) (A) (A) (A) (A)
                 (A) (A) (A) (A) (A) (A) (A) (A) (A) (A) (A) (A)
                 (A) (A) (A) (A) (A) (A) (A) (A) (A) (A) (A) (A)
                 (A) (A) (A) (A) (A) (A) (A) (A) (A) (A) (A) (A)
                 (A) (A) (A) (A) (A) (A) (A) (A) (A) (A) (A) (A)
                 (A) (A) (A) (A) (A) (A) (A) (A) (A) (A) (A) (A)
                 (A) (A) (A) (A) (A) (A) (A) (A) (A) (A) (A) (A)
                 (A) (A) (A) (A) (A) (A) (A) (A)
       Virtual   (A) (A) (A) (A) (A) (A) (A) (A) (A) (A) (A) (A)
                 (A) (A) (A) (A) (A) (A) (A) (A) (A) (A) (A) (A)
                 (A) (A) (A) (A) (A) (A) (A) (A) (A) (A) (A) (A)
                 (A) (A) (A) (A) (A) (A) (A) (A) (A) (A) (A) (A)
                 (A) (A) (A) (A) (A) (A) (A) (A) (A) (A) (A) (A)
                 (A) (A) (A) (A) (A) (A) (A) (A) (A) (A) (A) (A)
                 (A) (A) (A) (A) (A) (A) (A) (A) (A) (A) (A) (A)
                 (A) (A) (A) (A) (A) (A) (A) (A) (A) (A) (A) (A)
                 (A) (A) (A) (A) (A) (A) (A) (A) (A) (A) (A) (A)
                 (A) (A) (A) (A) (A) (A) (A) (A) (A) (A) (A) (A)
                 (A) (A) (A) (A) (A) (A) (A) (A) (A) (A) (A) (A)
                 (A) (A) (A) (A) (A) (A) (A) (A) (A) (A) (A) (A)
                 (A) (A) (A) (A) (A) (A) (A) (A) (A) (A) (A) (A)
                 (A) (A) (A) (A) (A) (A) (A) (A) (A) (A) (A) (A)
                 (A) (A) (A) (A) (A) (A) (A) (A) (A) (A) (A) (A)
                 (A) (A) (A) (A) (A) (A) (A) (A) (A) (A) (A) (A)
                 (A) (A) (A) (A) (A) (A) (A) (A) (A) (A) (A) (A)
                 (A) (A) (A) (A) (A) (A) (A) (A) (A) (A) (A) (A)
                 (A) (A) (A) (A) (A) (A) (A) (A) (A) (A) (A) (A)
                 (A) (A) (A) (A) (A) (A) (A) (A) (A) (A) (A) (A)
                 (A) (A) (A) (A) (A) (A) (A) (A) (A) (A) (A) (A)
                 (A) (A) (A) (A) (A) (A) (A) (A) (A) (A) (A) (A)
                 (A) (A) (A) (A) (A) (A) (A) (A) (A) (A) (A) (A)
                 (A) (A) (A) (A) (A) (A) (A) (A) (A) (A) (A) (A)
                 (A) (A) (A) (A) (A) (A) (A) (A) (A) (A) (A) (A)
                 (A) (A) (A) (A) (A) (A) (A) (A) (A) (A) (A) (A)
                 (A) (A) (A) (A) (A) (A) (A) (A) (A) (A) (A) (A)
                 (A) (A) (A) (A) (A) (A) (A) (A) (A) (A) (A) (A)
                 (A) (A) (A) (A) (A) (A) (A) (A) (A) (A) (A) (A)
                 (A) (A) (A) (A) (A) (A) (A) (A) (A) (A) (A) (A)
                 (A) (A) (A) (A) (A) (A) (A) (A) (A) (A) (A) (A)
                 (A) (A) (A) (A) (A) (A) (A) (A) (A) (A) (A) (A)
                 (A) (A) (A) (A) (A) (A) (A) (A) (A) (A) (A) (A)
                 (A) (A) (A) (A) (A) (A) (A) (A) (A) (A) (A) (A)
                 (A) (A) (A) (A) (A) (A) (A) (A) (A) (A) (A) (A)
                 (A) (A) (A) (A) (A) (A) (A) (A) (A) (A) (A) (A)
                 (A) (A) (A) (A) (A) (A) (A) (A) (A) (A) (A) (A)
                 (A) (A) (A) (A) (A) (A) (A) (A) (A) (A) (A) (A)
                 (A) (A) (A) (A) (A) (A) (A) (A) (A) (A) (A) (A)
                 (A) (A) (A) (A) (A) (A) (A) (A) (A) (A) (A) (A)
                 (A) (A) (A) (A) (A) (A) (A) (A) (A) (A) (A) (A)
                 (A) (A) (A) (A) (A) (A) (A) (A) (A) (A) (A) (A)
                 (A) (A) (A) (A) (A) (A) (A) (A) (A) (A) (A) (A)
                 (A) (A) (A) (A) (A) (A) (A) (A) (A) (A) (A) (A)
                 (A) (A) (A) (A) (A) (A) (A) (A) (A) (A) (A) (A)
                 (A) (A) (A) (A) (A) (A) (A) (A) (A) (A) (A) (A)
                 (A) (A) (A) (A) (A) (A) (A) (A) (A) (A) (A) (A)
                 (A) (A) (A) (A) (A) (A) (A) (A) (A) (A) (A) (A)
                 (A) (A) (A) (A) (A) (A) (A) (A) (A) (A) (A) (A)
                 (A) (A) (A) (A) (A) (A) (A) (A) (A) (A) (A) (A)
                 (A) (A) (A) (A) (A) (A) (A) (A) (A) (A) (A) (A)
                 (A) (A) (A) (A) (A) (A) (A) (A) (A) (A) (A) (A)
                 (A) (A) (A) (A) (A) (A) (A) (A) (A) (A) (A) (A)
                 (A) (A) (A) (A) (A) (A) (A) (A) (A) (A) (A) (A)
                 (A) (A) (A) (A) (A) (A) (A) (A) (A) (A) (A) (A)
                 (A) (A) (A) (A) (A) (A) (A) (A) (A) (A) (A) (A)
                 (A) (A) (A) (A) (A) (A) (A) (A) (A) (A) (A) (A)
                 (A) (A) (A) (A) (A) (A) (A) (A) (A) (A) (A) (A)
                 (A) (A) (A) (A) (A) (A) (A) (A) (A) (A) (A) (A)
                 (A) (A) (A) (A) (A) (A) (A) (A) (A) (A) (A) (A)
                 (A) (A) (A) (A) (A) (A) (A) (A) (A) (A) (A) (A)
                 (A) (A) (A) (A) (A) (A) (A) (A) (A) (A) (A) (A)
                 (A) (A) (A) (A) (A) (A) (A) (A) (A) (A) (A) (A)
                 (A) (A) (A) (A) (A) (A) (A) (A) (A) (A) (A) (A)
                 (A) (A) (A) (A) (A) (A) (A) (A)
     4 initial guesses have been made.
 Convergence on wavefunction:    0.001000000000000
 Iteration     1 Dimension     4 NMult     0 NNew      4
 CISAX will form     4 AO SS matrices at one time.
 Iteration     2 Dimension     6 NMult     4 NNew      2
 Iteration     3 Dimension     8 NMult     6 NNew      2
 Iteration     4 Dimension    10 NMult     8 NNew      2
 Iteration     5 Dimension    12 NMult    10 NNew      2
 Iteration     6 Dimension    14 NMult    12 NNew      2
 ***********************************************************************
 Excited states from <AA,BB:AA,BB> singles matrix:
 ***********************************************************************
 
 Ground to excited state transition densities written to RWF  633
 Ground to excited state transition electric dipole moments (Au):
       state          X           Y           Z        Dip. S.      Osc.
         1         8.0083     -0.6057      0.1689     64.5285      3.3974
 Ground to excited state transition velocity dipole moments (Au):
       state          X           Y           Z        Dip. S.      Osc.
         1        -0.6135      0.0446     -0.0140      0.3785      3.1952
 Ground to excited state transition magnetic dipole moments (Au):
       state          X           Y           Z
         1         0.0364      0.5637      2.4274
 Ground to excited state transition velocity quadrupole moments (Au):
       state          XX          YY          ZZ          XY          XZ          YZ
         1        -1.3905      0.3081     -0.0174      0.2479     -0.0937     -0.0582
 <0|del|b> * <b|rxdel|0> + <0|del|b> * <b|delr+rdel|0>
 Rotatory Strengths (R) in cgs (10**-40 erg-esu-cm/Gauss)
       state          XX          YY          ZZ    R(velocity)    E-M Angle
         1       -36.4557    -76.9391   -166.0492    -93.1480       91.17
 1/2[<0|r|b>*<b|rxdel|0> + (<0|rxdel|b>*<b|r|0>)*]
 Rotatory Strengths (R) in cgs (10**-40 erg-esu-cm/Gauss)
       state          XX          YY          ZZ     R(length)
         1      -206.4031    241.4439   -289.8636    -84.9409
  1/2[<0|del|b>*<b|r|0> + (<0|r|b>*<b|del|0>)*] (Au)
       state          X           Y           Z        Dip. S.   Osc.(frdel)
         1        -4.9127     -0.0270     -0.0024      4.9421      3.2947

 Excitation energies and oscillator strengths:
 
 Excited State   1:      Singlet-A      2.1490 eV  576.94 nm  f=3.3974  <S**2>=0.000
     163 ->166        -0.12884
     164 ->165         0.69767
     164 <-165        -0.10064
 This state for optimization and/or second-order correction.
 Total Energy, E(TD-HF/TD-DFT) =  -1857.12857899    
 Copying the excited state density for this state as the 1-particle RhoCI density.
 SavETr:  write IOETrn=   770 NScale= 10 NData=  16 NLR=1 NState=    1 LETran=      28.

 **********************************************************************

            Population analysis using the SCF density.

 **********************************************************************

 Orbital symmetries:
       Occupied  (A) (A) (A) (A) (A) (A) (A) (A) (A) (A) (A) (A)
                 (A) (A) (A) (A) (A) (A) (A) (A) (A) (A) (A) (A)
                 (A) (A) (A) (A) (A) (A) (A) (A) (A) (A) (A) (A)
                 (A) (A) (A) (A) (A) (A) (A) (A) (A) (A) (A) (A)
                 (A) (A) (A) (A) (A) (A) (A) (A) (A) (A) (A) (A)
                 (A) (A) (A) (A) (A) (A) (A) (A) (A) (A) (A) (A)
                 (A) (A) (A) (A) (A) (A) (A) (A) (A) (A) (A) (A)
                 (A) (A) (A) (A) (A) (A) (A) (A) (A) (A) (A) (A)
                 (A) (A) (A) (A) (A) (A) (A) (A) (A) (A) (A) (A)
                 (A) (A) (A) (A) (A) (A) (A) (A) (A) (A) (A) (A)
                 (A) (A) (A) (A) (A) (A) (A) (A) (A) (A) (A) (A)
                 (A) (A) (A) (A) (A) (A) (A) (A) (A) (A) (A) (A)
                 (A) (A) (A) (A) (A) (A) (A) (A) (A) (A) (A) (A)
                 (A) (A) (A) (A) (A) (A) (A) (A)
       Virtual   (A) (A) (A) (A) (A) (A) (A) (A) (A) (A) (A) (A)
                 (A) (A) (A) (A) (A) (A) (A) (A) (A) (A) (A) (A)
                 (A) (A) (A) (A) (A) (A) (A) (A) (A) (A) (A) (A)
                 (A) (A) (A) (A) (A) (A) (A) (A) (A) (A) (A) (A)
                 (A) (A) (A) (A) (A) (A) (A) (A) (A) (A) (A) (A)
                 (A) (A) (A) (A) (A) (A) (A) (A) (A) (A) (A) (A)
                 (A) (A) (A) (A) (A) (A) (A) (A) (A) (A) (A) (A)
                 (A) (A) (A) (A) (A) (A) (A) (A) (A) (A) (A) (A)
                 (A) (A) (A) (A) (A) (A) (A) (A) (A) (A) (A) (A)
                 (A) (A) (A) (A) (A) (A) (A) (A) (A) (A) (A) (A)
                 (A) (A) (A) (A) (A) (A) (A) (A) (A) (A) (A) (A)
                 (A) (A) (A) (A) (A) (A) (A) (A) (A) (A) (A) (A)
                 (A) (A) (A) (A) (A) (A) (A) (A) (A) (A) (A) (A)
                 (A) (A) (A) (A) (A) (A) (A) (A) (A) (A) (A) (A)
                 (A) (A) (A) (A) (A) (A) (A) (A) (A) (A) (A) (A)
                 (A) (A) (A) (A) (A) (A) (A) (A) (A) (A) (A) (A)
                 (A) (A) (A) (A) (A) (A) (A) (A) (A) (A) (A) (A)
                 (A) (A) (A) (A) (A) (A) (A) (A) (A) (A) (A) (A)
                 (A) (A) (A) (A) (A) (A) (A) (A) (A) (A) (A) (A)
                 (A) (A) (A) (A) (A) (A) (A) (A) (A) (A) (A) (A)
                 (A) (A) (A) (A) (A) (A) (A) (A) (A) (A) (A) (A)
                 (A) (A) (A) (A) (A) (A) (A) (A) (A) (A) (A) (A)
                 (A) (A) (A) (A) (A) (A) (A) (A) (A) (A) (A) (A)
                 (A) (A) (A) (A) (A) (A) (A) (A) (A) (A) (A) (A)
                 (A) (A) (A) (A) (A) (A) (A) (A) (A) (A) (A) (A)
                 (A) (A) (A) (A) (A) (A) (A) (A) (A) (A) (A) (A)
                 (A) (A) (A) (A) (A) (A) (A) (A) (A) (A) (A) (A)
                 (A) (A) (A) (A) (A) (A) (A) (A) (A) (A) (A) (A)
                 (A) (A) (A) (A) (A) (A) (A) (A) (A) (A) (A) (A)
                 (A) (A) (A) (A) (A) (A) (A) (A) (A) (A) (A) (A)
                 (A) (A) (A) (A) (A) (A) (A) (A) (A) (A) (A) (A)
                 (A) (A) (A) (A) (A) (A) (A) (A) (A) (A) (A) (A)
                 (A) (A) (A) (A) (A) (A) (A) (A) (A) (A) (A) (A)
                 (A) (A) (A) (A) (A) (A) (A) (A) (A) (A) (A) (A)
                 (A) (A) (A) (A) (A) (A) (A) (A) (A) (A) (A) (A)
                 (A) (A) (A) (A) (A) (A) (A) (A) (A) (A) (A) (A)
                 (A) (A) (A) (A) (A) (A) (A) (A) (A) (A) (A) (A)
                 (A) (A) (A) (A) (A) (A) (A) (A) (A) (A) (A) (A)
                 (A) (A) (A) (A) (A) (A) (A) (A) (A) (A) (A) (A)
                 (A) (A) (A) (A) (A) (A) (A) (A) (A) (A) (A) (A)
                 (A) (A) (A) (A) (A) (A) (A) (A) (A) (A) (A) (A)
                 (A) (A) (A) (A) (A) (A) (A) (A) (A) (A) (A) (A)
                 (A) (A) (A) (A) (A) (A) (A) (A) (A) (A) (A) (A)
                 (A) (A) (A) (A) (A) (A) (A) (A) (A) (A) (A) (A)
                 (A) (A) (A) (A) (A) (A) (A) (A) (A) (A) (A) (A)
                 (A) (A) (A) (A) (A) (A) (A) (A) (A) (A) (A) (A)
                 (A) (A) (A) (A) (A) (A) (A) (A) (A) (A) (A) (A)
                 (A) (A) (A) (A) (A) (A) (A) (A) (A) (A) (A) (A)
                 (A) (A) (A) (A) (A) (A) (A) (A) (A) (A) (A) (A)
                 (A) (A) (A) (A) (A) (A) (A) (A) (A) (A) (A) (A)
                 (A) (A) (A) (A) (A) (A) (A) (A) (A) (A) (A) (A)
                 (A) (A) (A) (A) (A) (A) (A) (A) (A) (A) (A) (A)
                 (A) (A) (A) (A) (A) (A) (A) (A) (A) (A) (A) (A)
                 (A) (A) (A) (A) (A) (A) (A) (A) (A) (A) (A) (A)
                 (A) (A) (A) (A) (A) (A) (A) (A) (A) (A) (A) (A)
                 (A) (A) (A) (A) (A) (A) (A) (A) (A) (A) (A) (A)
                 (A) (A) (A) (A) (A) (A) (A) (A) (A) (A) (A) (A)
                 (A) (A) (A) (A) (A) (A) (A) (A) (A) (A) (A) (A)
                 (A) (A) (A) (A) (A) (A) (A) (A) (A) (A) (A) (A)
                 (A) (A) (A) (A) (A) (A) (A) (A) (A) (A) (A) (A)
                 (A) (A) (A) (A) (A) (A) (A) (A) (A) (A) (A) (A)
                 (A) (A) (A) (A) (A) (A) (A) (A) (A) (A) (A) (A)
                 (A) (A) (A) (A) (A) (A) (A) (A) (A) (A) (A) (A)
                 (A) (A) (A) (A) (A) (A) (A) (A) (A) (A) (A) (A)
                 (A) (A) (A) (A) (A) (A) (A) (A)
 The electronic state is 1-A.
 Alpha  occ. eigenvalues --  -19.22686 -19.21803 -19.21246 -19.20565 -10.32201
 Alpha  occ. eigenvalues --  -10.32035 -10.31836 -10.30888 -10.29421 -10.28914
 Alpha  occ. eigenvalues --  -10.28734 -10.28333 -10.28281 -10.28153 -10.28073
 Alpha  occ. eigenvalues --  -10.27922 -10.27816 -10.27662 -10.27655 -10.27652
 Alpha  occ. eigenvalues --  -10.27529 -10.27511 -10.27487 -10.27460 -10.27088
 Alpha  occ. eigenvalues --  -10.26983 -10.26978 -10.26861 -10.26785 -10.26758
 Alpha  occ. eigenvalues --  -10.26563 -10.26464 -10.26437 -10.26425 -10.26262
 Alpha  occ. eigenvalues --  -10.26160 -10.26121 -10.26035 -10.25978 -10.25800
 Alpha  occ. eigenvalues --  -10.25727 -10.25711 -10.24682 -10.22386  -1.14839
 Alpha  occ. eigenvalues --   -1.11043  -1.07776  -1.06954  -0.93885  -0.93517
 Alpha  occ. eigenvalues --   -0.92797  -0.91765  -0.91134  -0.89468  -0.88298
 Alpha  occ. eigenvalues --   -0.87286  -0.87003  -0.86506  -0.85071  -0.83934
 Alpha  occ. eigenvalues --   -0.82402  -0.81547  -0.80664  -0.78680  -0.77252
 Alpha  occ. eigenvalues --   -0.76785  -0.76354  -0.75678  -0.75633  -0.75332
 Alpha  occ. eigenvalues --   -0.74774  -0.74420  -0.73429  -0.70956  -0.70486
 Alpha  occ. eigenvalues --   -0.69129  -0.67271  -0.65784  -0.64872  -0.64180
 Alpha  occ. eigenvalues --   -0.63643  -0.61761  -0.61071  -0.59853  -0.59295
 Alpha  occ. eigenvalues --   -0.58868  -0.58102  -0.57707  -0.56714  -0.56419
 Alpha  occ. eigenvalues --   -0.56197  -0.55884  -0.54443  -0.54342  -0.54224
 Alpha  occ. eigenvalues --   -0.54143  -0.53081  -0.52854  -0.52644  -0.52363
 Alpha  occ. eigenvalues --   -0.51604  -0.51115  -0.50725  -0.50154  -0.49784
 Alpha  occ. eigenvalues --   -0.49273  -0.48933  -0.48605  -0.48371  -0.47670
 Alpha  occ. eigenvalues --   -0.47568  -0.47293  -0.47019  -0.46716  -0.46439
 Alpha  occ. eigenvalues --   -0.46348  -0.46076  -0.45571  -0.45300  -0.45093
 Alpha  occ. eigenvalues --   -0.44891  -0.44320  -0.44273  -0.43751  -0.43422
 Alpha  occ. eigenvalues --   -0.43262  -0.43190  -0.42888  -0.42424  -0.42239
 Alpha  occ. eigenvalues --   -0.42062  -0.42023  -0.41433  -0.41328  -0.41114
 Alpha  occ. eigenvalues --   -0.40954  -0.40719  -0.40672  -0.40320  -0.39909
 Alpha  occ. eigenvalues --   -0.39562  -0.39490  -0.39454  -0.38803  -0.38663
 Alpha  occ. eigenvalues --   -0.38586  -0.38363  -0.37923  -0.37557  -0.37499
 Alpha  occ. eigenvalues --   -0.36597  -0.36336  -0.35402  -0.34552  -0.33691
 Alpha  occ. eigenvalues --   -0.33217  -0.32528  -0.32415  -0.31417  -0.30759
 Alpha  occ. eigenvalues --   -0.29985  -0.28289  -0.25216  -0.19820
 Alpha virt. eigenvalues --   -0.06785  -0.00880   0.02619   0.05110   0.07506
 Alpha virt. eigenvalues --    0.09113   0.09712   0.09874   0.10535   0.11077
 Alpha virt. eigenvalues --    0.11199   0.11613   0.11940   0.12610   0.12922
 Alpha virt. eigenvalues --    0.13292   0.13420   0.14124   0.14298   0.14575
 Alpha virt. eigenvalues --    0.14689   0.14870   0.15059   0.15310   0.15431
 Alpha virt. eigenvalues --    0.15831   0.16105   0.16270   0.16505   0.17160
 Alpha virt. eigenvalues --    0.17261   0.17786   0.17958   0.18408   0.18623
 Alpha virt. eigenvalues --    0.19056   0.19305   0.19545   0.19769   0.20208
 Alpha virt. eigenvalues --    0.20308   0.20452   0.20493   0.21104   0.21384
 Alpha virt. eigenvalues --    0.21536   0.21858   0.22101   0.22261   0.22617
 Alpha virt. eigenvalues --    0.22665   0.22926   0.23138   0.23445   0.23754
 Alpha virt. eigenvalues --    0.24356   0.24612   0.24885   0.25149   0.25601
 Alpha virt. eigenvalues --    0.25820   0.25944   0.25952   0.26394   0.26490
 Alpha virt. eigenvalues --    0.26699   0.27084   0.27502   0.27684   0.27954
 Alpha virt. eigenvalues --    0.28500   0.28751   0.28902   0.29325   0.30027
 Alpha virt. eigenvalues --    0.30344   0.30606   0.30824   0.30840   0.31404
 Alpha virt. eigenvalues --    0.32139   0.32178   0.32802   0.33272   0.33632
 Alpha virt. eigenvalues --    0.34862   0.35436   0.35616   0.36097   0.37143
 Alpha virt. eigenvalues --    0.38241   0.38677   0.39252   0.39802   0.40201
 Alpha virt. eigenvalues --    0.41658   0.41967   0.42313   0.42929   0.43309
 Alpha virt. eigenvalues --    0.43916   0.44837   0.45497   0.46430   0.46948
 Alpha virt. eigenvalues --    0.47972   0.49242   0.50288   0.51669   0.53350
 Alpha virt. eigenvalues --    0.54183   0.55388   0.55477   0.55655   0.56206
 Alpha virt. eigenvalues --    0.56507   0.56672   0.56869   0.57253   0.57400
 Alpha virt. eigenvalues --    0.57727   0.58205   0.58820   0.59274   0.59491
 Alpha virt. eigenvalues --    0.59835   0.60183   0.60425   0.60739   0.60796
 Alpha virt. eigenvalues --    0.60925   0.61387   0.61969   0.62329   0.62681
 Alpha virt. eigenvalues --    0.63019   0.63164   0.63426   0.64240   0.64379
 Alpha virt. eigenvalues --    0.64852   0.64964   0.65061   0.65411   0.65441
 Alpha virt. eigenvalues --    0.65928   0.66002   0.66121   0.66232   0.66720
 Alpha virt. eigenvalues --    0.66998   0.67395   0.67732   0.67999   0.68400
 Alpha virt. eigenvalues --    0.68520   0.69155   0.69723   0.70047   0.70559
 Alpha virt. eigenvalues --    0.70910   0.71134   0.71302   0.71822   0.72193
 Alpha virt. eigenvalues --    0.72294   0.72443   0.73310   0.73321   0.73575
 Alpha virt. eigenvalues --    0.74275   0.74573   0.74716   0.75417   0.75706
 Alpha virt. eigenvalues --    0.76015   0.76394   0.76550   0.76703   0.77250
 Alpha virt. eigenvalues --    0.77836   0.77957   0.78502   0.79188   0.79329
 Alpha virt. eigenvalues --    0.79803   0.80067   0.80491   0.80806   0.81185
 Alpha virt. eigenvalues --    0.81643   0.81952   0.82379   0.82787   0.83108
 Alpha virt. eigenvalues --    0.83315   0.83452   0.83541   0.83946   0.84223
 Alpha virt. eigenvalues --    0.84333   0.84770   0.85247   0.85722   0.85988
 Alpha virt. eigenvalues --    0.86384   0.86516   0.86714   0.87008   0.87217
 Alpha virt. eigenvalues --    0.87439   0.87900   0.88059   0.88124   0.88685
 Alpha virt. eigenvalues --    0.89004   0.89381   0.90004   0.90103   0.90330
 Alpha virt. eigenvalues --    0.90523   0.90654   0.91051   0.91228   0.91691
 Alpha virt. eigenvalues --    0.91902   0.92062   0.92220   0.92405   0.92608
 Alpha virt. eigenvalues --    0.92979   0.93225   0.93477   0.93785   0.94312
 Alpha virt. eigenvalues --    0.94800   0.94963   0.95109   0.95363   0.95536
 Alpha virt. eigenvalues --    0.95767   0.95918   0.96639   0.96762   0.96982
 Alpha virt. eigenvalues --    0.97416   0.97989   0.98685   0.98746   0.99125
 Alpha virt. eigenvalues --    0.99613   1.00056   1.00420   1.00819   1.01274
 Alpha virt. eigenvalues --    1.01912   1.02016   1.02213   1.02489   1.02560
 Alpha virt. eigenvalues --    1.02943   1.03495   1.03823   1.03896   1.04574
 Alpha virt. eigenvalues --    1.04832   1.05825   1.06382   1.06728   1.07636
 Alpha virt. eigenvalues --    1.07847   1.08569   1.08767   1.09033   1.09213
 Alpha virt. eigenvalues --    1.09527   1.10216   1.10986   1.11535   1.12120
 Alpha virt. eigenvalues --    1.12367   1.13046   1.13560   1.14192   1.14444
 Alpha virt. eigenvalues --    1.14710   1.15249   1.15430   1.16372   1.16597
 Alpha virt. eigenvalues --    1.17728   1.18370   1.18863   1.19106   1.20688
 Alpha virt. eigenvalues --    1.21137   1.21369   1.21691   1.22902   1.23616
 Alpha virt. eigenvalues --    1.24966   1.25569   1.26452   1.27346   1.27454
 Alpha virt. eigenvalues --    1.27903   1.28868   1.29315   1.29743   1.30404
 Alpha virt. eigenvalues --    1.31396   1.32173   1.33151   1.33905   1.34528
 Alpha virt. eigenvalues --    1.35259   1.35956   1.36440   1.37308   1.37390
 Alpha virt. eigenvalues --    1.38386   1.39047   1.39802   1.40804   1.40944
 Alpha virt. eigenvalues --    1.41314   1.42404   1.42477   1.43574   1.43900
 Alpha virt. eigenvalues --    1.44065   1.44116   1.45011   1.46029   1.46599
 Alpha virt. eigenvalues --    1.46872   1.47760   1.48813   1.50211   1.50917
 Alpha virt. eigenvalues --    1.51569   1.53122   1.53740   1.54298   1.54451
 Alpha virt. eigenvalues --    1.55649   1.56081   1.57135   1.58517   1.58817
 Alpha virt. eigenvalues --    1.59117   1.60122   1.60845   1.61050   1.61553
 Alpha virt. eigenvalues --    1.62694   1.63080   1.64050   1.64059   1.64602
 Alpha virt. eigenvalues --    1.65000   1.65404   1.66409   1.67065   1.67300
 Alpha virt. eigenvalues --    1.67555   1.68304   1.69756   1.71005   1.71242
 Alpha virt. eigenvalues --    1.72021   1.72076   1.73089   1.75377   1.75521
 Alpha virt. eigenvalues --    1.76557   1.77017   1.77494   1.78027   1.78321
 Alpha virt. eigenvalues --    1.79746   1.80436   1.80672   1.81214   1.81562
 Alpha virt. eigenvalues --    1.81997   1.82212   1.82823   1.83207   1.83349
 Alpha virt. eigenvalues --    1.83500   1.84522   1.85987   1.86304   1.86502
 Alpha virt. eigenvalues --    1.86690   1.87188   1.87470   1.87854   1.88447
 Alpha virt. eigenvalues --    1.88735   1.89350   1.89419   1.89518   1.89881
 Alpha virt. eigenvalues --    1.90245   1.90858   1.91295   1.91551   1.91769
 Alpha virt. eigenvalues --    1.92792   1.92833   1.93032   1.93439   1.94066
 Alpha virt. eigenvalues --    1.94287   1.94465   1.94557   1.95106   1.96011
 Alpha virt. eigenvalues --    1.96088   1.96105   1.96248   1.97095   1.97303
 Alpha virt. eigenvalues --    1.97798   1.98073   1.98548   1.98630   1.98839
 Alpha virt. eigenvalues --    1.99145   1.99699   1.99979   2.00041   2.00499
 Alpha virt. eigenvalues --    2.01011   2.01269   2.01714   2.02240   2.02886
 Alpha virt. eigenvalues --    2.03238   2.03362   2.04188   2.04358   2.04802
 Alpha virt. eigenvalues --    2.05854   2.05928   2.06802   2.07139   2.07537
 Alpha virt. eigenvalues --    2.08145   2.08673   2.08881   2.09238   2.09787
 Alpha virt. eigenvalues --    2.10185   2.10551   2.11436   2.11604   2.12246
 Alpha virt. eigenvalues --    2.12482   2.12686   2.12952   2.13552   2.14413
 Alpha virt. eigenvalues --    2.14639   2.14978   2.15165   2.15916   2.16308
 Alpha virt. eigenvalues --    2.16714   2.17038   2.17248   2.17501   2.18196
 Alpha virt. eigenvalues --    2.18302   2.18659   2.19434   2.19637   2.20578
 Alpha virt. eigenvalues --    2.20938   2.21241   2.21652   2.21821   2.22429
 Alpha virt. eigenvalues --    2.22616   2.23044   2.23717   2.24117   2.24902
 Alpha virt. eigenvalues --    2.25506   2.25653   2.25949   2.26121   2.26541
 Alpha virt. eigenvalues --    2.26633   2.26724   2.27538   2.27581   2.28071
 Alpha virt. eigenvalues --    2.28499   2.28618   2.29597   2.30201   2.30699
 Alpha virt. eigenvalues --    2.31226   2.32043   2.32175   2.32428   2.32833
 Alpha virt. eigenvalues --    2.33603   2.33912   2.34163   2.34763   2.35755
 Alpha virt. eigenvalues --    2.36182   2.36400   2.36517   2.37222   2.37430
 Alpha virt. eigenvalues --    2.38095   2.38276   2.39112   2.39834   2.39987
 Alpha virt. eigenvalues --    2.40598   2.41177   2.41305   2.41694   2.42703
 Alpha virt. eigenvalues --    2.43266   2.43759   2.44232   2.44337   2.44867
 Alpha virt. eigenvalues --    2.45900   2.46417   2.46573   2.46798   2.46990
 Alpha virt. eigenvalues --    2.47486   2.47580   2.48476   2.48660   2.49022
 Alpha virt. eigenvalues --    2.49600   2.50802   2.51437   2.51594   2.52353
 Alpha virt. eigenvalues --    2.52683   2.53374   2.53915   2.54559   2.54921
 Alpha virt. eigenvalues --    2.54982   2.55948   2.56133   2.56463   2.56698
 Alpha virt. eigenvalues --    2.56870   2.57115   2.57725   2.57831   2.58221
 Alpha virt. eigenvalues --    2.58614   2.58866   2.59656   2.60182   2.60519
 Alpha virt. eigenvalues --    2.60781   2.61662   2.61944   2.62262   2.62943
 Alpha virt. eigenvalues --    2.63775   2.64261   2.64764   2.64824   2.65515
 Alpha virt. eigenvalues --    2.65897   2.66349   2.66478   2.66824   2.67378
 Alpha virt. eigenvalues --    2.67703   2.67988   2.68602   2.68899   2.69168
 Alpha virt. eigenvalues --    2.69738   2.69987   2.70412   2.70713   2.71472
 Alpha virt. eigenvalues --    2.71974   2.72286   2.72489   2.72785   2.73888
 Alpha virt. eigenvalues --    2.74140   2.74392   2.74677   2.74965   2.75702
 Alpha virt. eigenvalues --    2.76137   2.76649   2.76741   2.77229   2.77462
 Alpha virt. eigenvalues --    2.77644   2.78612   2.78820   2.79414   2.79780
 Alpha virt. eigenvalues --    2.80720   2.81232   2.81447   2.81877   2.82197
 Alpha virt. eigenvalues --    2.82887   2.83195   2.83334   2.83877   2.84674
 Alpha virt. eigenvalues --    2.84865   2.85256   2.85555   2.85890   2.86864
 Alpha virt. eigenvalues --    2.87329   2.87509   2.87893   2.88344   2.89765
 Alpha virt. eigenvalues --    2.90298   2.90380   2.91178   2.91532   2.92384
 Alpha virt. eigenvalues --    2.92931   2.94782   2.95121   2.96103   2.96735
 Alpha virt. eigenvalues --    2.97292   2.97845   2.98762   2.99627   2.99724
 Alpha virt. eigenvalues --    3.00294   3.01292   3.02100   3.02683   3.02718
 Alpha virt. eigenvalues --    3.04654   3.04876   3.06002   3.06155   3.06957
 Alpha virt. eigenvalues --    3.07965   3.08602   3.09535   3.10050   3.10459
 Alpha virt. eigenvalues --    3.11190   3.11921   3.12012   3.13501   3.14431
 Alpha virt. eigenvalues --    3.14752   3.15395   3.15697   3.16193   3.17184
 Alpha virt. eigenvalues --    3.18334   3.19815   3.20340   3.22164   3.23534
 Alpha virt. eigenvalues --    3.23783   3.24068   3.25258   3.26996   3.27421
 Alpha virt. eigenvalues --    3.29015   3.29598   3.29766   3.30324   3.30817
 Alpha virt. eigenvalues --    3.35079   3.35158   3.36451   3.36615   3.37292
 Alpha virt. eigenvalues --    3.38174   3.38425   3.38530   3.40215   3.40661
 Alpha virt. eigenvalues --    3.42311   3.42566   3.43262   3.43541   3.44090
 Alpha virt. eigenvalues --    3.44460   3.46988   3.47833   3.49054   3.50445
 Alpha virt. eigenvalues --    3.50564   3.51947   3.51956   3.53203   3.54702
 Alpha virt. eigenvalues --    3.56383   3.57970   3.58846   3.60655   3.61060
 Alpha virt. eigenvalues --    3.62251   3.64872   3.65429   3.67225   3.68808
 Alpha virt. eigenvalues --    3.70000   3.71855   3.75274   3.78251   3.79747
 Alpha virt. eigenvalues --    3.80621   3.95319   4.02448   4.07330   4.10375
 Alpha virt. eigenvalues --    4.13807   4.19941   4.20618   4.20828   4.21877
 Alpha virt. eigenvalues --    4.23564   4.26999   4.28177   4.31963   4.33942
 Alpha virt. eigenvalues --    4.34974   4.38046   4.39253   4.41152   4.43580
 Alpha virt. eigenvalues --    4.44653   4.48632   4.48934   4.51592   4.53023
 Alpha virt. eigenvalues --    4.53794   4.55300   4.58245   4.58690   4.60119
 Alpha virt. eigenvalues --    4.63513   4.64476   4.65381   4.70243   4.72053
 Alpha virt. eigenvalues --    4.73601   4.77337   4.80479   4.82186   4.85449
 Alpha virt. eigenvalues --    4.86491   4.87929   4.89998   4.92270   4.93931
 Alpha virt. eigenvalues --    4.94861
          Condensed to atoms (all electrons):
 Mulliken charges:
               1
     1  O   -0.508408
     2  O   -0.550029
     3  O   -0.571772
     4  O   -0.562706
     5  C    0.178738
     6  C    0.284231
     7  C    0.054205
     8  C   -0.224784
     9  C   -0.211845
    10  C    0.199944
    11  C   -0.345242
    12  C   -0.099019
    13  C   -0.312015
    14  C   -0.303289
    15  C   -0.109223
    16  C    0.106035
    17  C   -0.353996
    18  C   -0.130281
    19  C   -0.038069
    20  C    0.005871
    21  C    0.225755
    22  C   -0.216785
    23  C    0.168223
    24  C   -0.160448
    25  C   -0.000210
    26  C   -0.280801
    27  C   -0.299760
    28  C   -0.255104
    29  C   -0.108503
    30  C    0.029849
    31  C    0.080861
    32  C   -0.250714
    33  C   -0.355455
    34  C   -0.099470
    35  C    0.162526
    36  C   -0.364223
    37  C   -0.096721
    38  C   -0.076840
    39  C   -0.097217
    40  C   -0.112932
    41  C   -0.119193
    42  C   -0.088730
    43  C    0.100814
    44  C   -0.342403
    45  H    0.098975
    46  H    0.107774
    47  H    0.091469
    48  H    0.100523
    49  H    0.094113
    50  H    0.100574
    51  H    0.105567
    52  H    0.121938
    53  H    0.116444
    54  H    0.099962
    55  H    0.101288
    56  H    0.093979
    57  H    0.128871
    58  H    0.103155
    59  H    0.070486
    60  H    0.286165
    61  H    0.087466
    62  H    0.113640
    63  H    0.085904
    64  H    0.114318
    65  H    0.074384
    66  H    0.078260
    67  H    0.078734
    68  H    0.106763
    69  H    0.072707
    70  H    0.082342
    71  H    0.121677
    72  H    0.087347
    73  H    0.111775
    74  H    0.117070
    75  H    0.122510
    76  H    0.098038
    77  H    0.078654
    78  H    0.090377
    79  H    0.069563
    80  H    0.130247
    81  H    0.077509
    82  H    0.306312
    83  H    0.303802
    84  H    0.083038
    85  H    0.124157
    86  H    0.126010
    87  H    0.090637
    88  H    0.067897
    89  H    0.112324
    90  H    0.141709
    91  H    0.078180
    92  H    0.074254
    93  H    0.075750
    94  H    0.076673
    95  H    0.077440
    96  H    0.087964
    97  H    0.074187
    98  H    0.103497
    99  H    0.082902
   100  H    0.141835
 Sum of Mulliken charges =  -0.00000
 Mulliken charges with hydrogens summed into heavy atoms:
               1
     1  O   -0.508408
     2  O   -0.263864
     3  O   -0.265460
     4  O   -0.258904
     5  C    0.178738
     6  C    0.284231
     7  C    0.054205
     8  C   -0.018036
     9  C   -0.019852
    10  C    0.294057
    11  C   -0.017162
    12  C    0.017425
    13  C   -0.016786
    14  C   -0.000776
    15  C   -0.021757
    16  C    0.106035
    17  C   -0.040134
    18  C   -0.055897
    19  C    0.040192
    20  C    0.005871
    21  C    0.225755
    22  C   -0.031289
    23  C    0.240930
    24  C    0.043570
    25  C   -0.000210
    26  C    0.035391
    27  C   -0.000557
    28  C    0.035083
    29  C   -0.030995
    30  C    0.029849
    31  C    0.080861
    32  C   -0.167676
    33  C   -0.014651
    34  C   -0.031573
    35  C    0.162526
    36  C   -0.032010
    37  C   -0.022468
    38  C   -0.001090
    39  C   -0.020544
    40  C   -0.035492
    41  C   -0.031230
    42  C   -0.014543
    43  C    0.100814
    44  C   -0.014169
 Electronic spatial extent (au):  <R**2>=         114759.4463
 Charge=             -0.0000 electrons
 Dipole moment (field-independent basis, Debye):
    X=              0.5446    Y=              0.4176    Z=              2.5378  Tot=              2.6289
 Quadrupole moment (field-independent basis, Debye-Ang):
   XX=           -287.9573   YY=           -261.2998   ZZ=           -280.0318
   XY=              9.3286   XZ=             36.8421   YZ=             -2.8114
 Traceless Quadrupole moment (field-independent basis, Debye-Ang):
   XX=            -11.5277   YY=             15.1298   ZZ=             -3.6021
   XY=              9.3286   XZ=             36.8421   YZ=             -2.8114
 Octapole moment (field-independent basis, Debye-Ang**2):
  XXX=            179.3598  YYY=             -0.8750  ZZZ=              3.5994  XYY=             -5.9594
  XXY=            136.6162  XXZ=            407.4245  XZZ=             71.2375  YZZ=             -6.1335
  YYZ=             -9.7829  XYZ=           -139.7696
 Hexadecapole moment (field-independent basis, Debye-Ang**3):
 XXXX=        -152290.3727 YYYY=          -3735.9871 ZZZZ=          -2324.2271 XXXY=             33.1099
 XXXZ=           7373.2813 YYYX=            -34.2019 YYYZ=              6.5202 ZZZX=            108.3607
 ZZZY=            -15.8960 XXYY=         -25503.5647 XXZZ=         -25843.2524 YYZZ=          -1048.0669
 XXYZ=            184.2149 YYXZ=            240.0488 ZZXY=             14.3897
 N-N= 4.448035202250D+03 E-N=-1.320528153032D+04  KE= 1.839030326055D+03
 1\1\GINC-RYZEN-SSD3\SP\RCAM-B3LYP TD-FC\6-31G(d,p)\C40H56O4\PADAWAN\02
 -Aug-2019\0\\# td=(NStates=1) CAM-B3LYP/6-31G(d,p)\\TD\\0,1\O,0,-11.62
 53692045,0.2611167601,-1.568614025\O,0,-13.0359944352,-2.5631546235,1.
 2688325683\O,0,10.8130168216,-1.0732472126,-2.1457783041\O,0,14.554168
 7836,-0.9896676883,-0.0018546729\C,0,-10.9889670639,-0.0737013248,-0.2
 843878632\C,0,-11.6221385036,-1.1080719871,-1.2378226226\C,0,-11.69525
 15682,0.4271894017,1.0561352685\C,0,-13.0294781515,-1.7258627442,-0.99
 82914631\C,0,-13.2324317012,-0.0398414317,0.8812528132\C,0,-13.4886452
 98,-1.503361874,0.4148802553\C,0,-10.7980953982,-2.0231477323,-2.00573
 28916\C,0,-9.5653359774,0.0194590797,-0.3060575639\C,0,-11.0716131387,
 -0.1086264586,2.3225573228\C,0,-11.8355339337,2.0116462677,1.055213613
 1\C,0,-8.6372171434,-0.7827263138,0.2056193009\C,0,-7.1904570353,-0.56
 10779539,0.1874864489\C,0,-6.3520192168,-1.7830569945,0.4166939057\C,0
 ,-6.575933255,0.6198828182,-0.1044590011\C,0,-5.1482547671,0.903232359
 9,-0.0847228025\C,0,11.7893181787,0.0968297125,1.3770672348\C,0,11.765
 7538655,-0.5993660918,-1.1489087706\C,0,12.613948623,-1.2155457843,1.5
 472694603\C,0,13.387883475,-1.7535198854,0.318305795\C,0,12.5108060153
 ,-1.8194664556,-0.8705010126\C,0,11.0034772356,0.0046752154,0.11238841
 91\C,0,10.7742388288,0.1781944614,2.5049228325\C,0,12.7706201787,1.268
 8601068,1.5039334443\C,0,12.5891952257,0.3750263759,-1.9343273805\C,0,
 -4.6510716029,2.0573182378,-0.3219570446\C,0,9.8468258701,0.5899597988
 ,-0.0254837251\C,0,-3.3334084992,2.4636751212,-0.427423003\C,0,8.56760
 65467,0.7838247163,-0.2068850285\C,0,-3.1447461597,4.0406755271,-0.741
 4138735\C,0,-2.2637132864,1.710762925,-0.2217947142\C,0,7.3377633188,-
 0.0138107931,-0.1651957037\C,0,7.6172864651,-1.4700139535,-0.044524529
 6\C,0,6.1405654045,0.6381007404,-0.2388478208\C,0,-0.9586799995,1.9683
 359573,-0.3258907642\C,0,4.9318447873,0.1254616623,-0.0874073719\C,0,0
 .1128977688,1.0262359335,-0.1664057434\C,0,3.7647258803,0.853815732,-0
 .2346209311\C,0,1.4151534561,1.2376054882,-0.3139837793\C,0,2.44716261
 68,0.337153015,-0.1886655087\C,0,2.1823680985,-1.1095251328,0.32161075
 47\H,0,-12.9179735982,-2.7439773755,-1.2168169057\H,0,-13.8687520989,-
 1.2164956338,-1.6859350482\H,0,-13.8268604882,0.0431113799,1.821824865
 2\H,0,-13.8866080544,0.734418569,0.3506727329\H,0,-14.3748947936,-1.73
 20919226,0.5905206564\H,0,-10.7721558325,-3.0211088937,-1.4877640718\H
 ,0,-11.3774079497,-2.4553103224,-2.9336316494\H,0,-9.7846106446,-1.502
 1294215,-2.2471263251\H,0,-9.3848671415,0.9704791789,-0.9077845886\H,0
 ,-9.822673595,-0.0763663725,2.2953952823\H,0,-11.6250078617,0.44429113
 07,3.2181701671\H,0,-11.4441751112,-1.2869855751,2.5773285226\H,0,-12.
 3783903815,2.4879149135,0.2596091769\H,0,-12.3579920386,2.4003956151,1
 .9734010519\H,0,-10.6663069128,2.4051011006,1.0010543989\H,0,-12.20497
 35699,-2.7808009537,1.0193164105\H,0,-8.9771085528,-1.7161499727,0.850
 8741863\H,0,-5.39433888,-1.9315664817,-0.3054685913\H,0,-5.6852109364,
 -1.6453597686,1.493367733\H,0,-6.937573868,-2.6051627893,0.4849546463\
 H,0,-7.2164629574,1.5946577949,-0.4225119277\H,0,-4.4274993946,0.01827
 04454,0.1737335977\H,0,13.2926149386,-1.1548071681,2.4127262132\H,0,12
 .2172369007,-2.1229116712,1.9199979995\H,0,13.8261049674,-2.7708387489
 ,0.5721041363\H,0,13.179975436,-1.9978362621,-1.995412636\H,0,11.81797
 18054,-2.6454536693,-0.732488591\H,0,11.1625258608,0.0206924359,3.5024
 952882\H,0,10.5201589936,1.1685624193,2.4141189361\H,0,10.0781454357,-
 0.4972180363,2.3265688981\H,0,13.4555824601,1.2786264868,0.5991039752\
 H,0,12.2350461178,2.2881882566,1.4352682325\H,0,13.3550113382,1.174391
 9183,2.5946859502\H,0,13.0281136309,-0.4245190615,-2.7317956315\H,0,11
 .9242494933,1.2539674876,-2.3540433392\H,0,13.4442452571,0.8162976827,
 -1.6670421896\H,0,-5.4569779217,2.8655509419,-0.4401954303\H,0,10.1480
 060512,-0.2617148291,-2.4019825341\H,0,14.9828911343,-0.6693067451,0.9
 547440737\H,0,8.3527571265,1.9157639036,-0.3214594231\H,0,-2.363681452
 3,4.468183268,-0.0599401643\H,0,-2.8949582601,4.0408213069,-1.89815292
 44\H,0,-4.1399703821,4.7285310349,-0.3968794894\H,0,-2.392638884,0.601
 2623382,0.0800750529\H,0,6.7149142413,-2.0382033824,-0.2759751128\H,0,
 8.6190971242,-1.5376184866,-0.5355343275\H,0,7.7739073123,-1.932225551
 ,1.1440581667\H,0,6.335508698,1.8124650519,-0.304812501\H,0,-0.6978411
 411,2.9792419677,-0.35458537\H,0,4.9442704134,-1.0485313498,0.00916359
 75\H,0,-0.1472936526,0.0442026074,-0.2162290118\H,0,3.7872178897,1.967
 1123474,-0.2882110461\H,0,1.8904859238,2.248620654,-0.6190946079\H,0,1
 .0823870735,-1.2404006443,-0.0103220366\H,0,3.0658179066,-1.8816244639
 ,-0.1337511451\H,0,2.3784345399,-1.2704112701,1.3699102776\\Version=ES
 64L-G16RevA.03\State=1-A\HF=-1857.2075527\RMSD=6.392e-09\PG=C01 [X(C40
 H56O4)]\\@


            ARSENIC

 FOR SMELTER FUMES HAVE I BEEN NAMED,
    I AM AN EVIL POISONOUS SMOKE...
 BUT WHEN FROM POISON I AM FREED,
    THROUGH ART AND SLEIGHT OF HAND,
 THEN CAN I CURE BOTH MAN AND BEAST,
    FROM DIRE DISEASE OFTTIMES DIRECT THEM;
 BUT PREPARE ME CORRECTLY, AND TAKE GREAT CARE
    THAT YOU FAITHFULLY KEEP WATCHFUL GUARD OVER ME;
 FOR ELSE I AM POISON, AND POISON REMAIN,
    THAT PIERCES THE HEART OF MANY A ONE.

 ATTRIBUTED TO THE PROBABLY MYTHICAL 15TH
 CENTURY MONK, BASILIUS VALENTINUS
 Job cpu time:       0 days  6 hours 52 minutes 43.2 seconds.
 Elapsed time:       0 days  2 hours 17 minutes 48.5 seconds.
 File lengths (MBytes):  RWF=   3379 Int=      0 D2E=      0 Chk=     90 Scr=      1
 Normal termination of Gaussian 16 at Fri Aug  2 03:42:29 2019.
