 Entering Gaussian System, Link 0=g16
 Input=Geometria-160-.com
 Output=Geometria-160-.log
 Initial command:
 /usr/local/g16/l1.exe "/home/padawan/israel-mol/neoxanthin/spectra/emi/Gau-71591.inp" -scrdir="/home/padawan/israel-mol/neoxanthin/spectra/emi/"
 Entering Link 1 = /usr/local/g16/l1.exe PID=     71593.
  
 Copyright (c) 1988,1990,1992,1993,1995,1998,2003,2009,2016,
            Gaussian, Inc.  All Rights Reserved.
  
 This is part of the Gaussian(R) 16 program.  It is based on
 the Gaussian(R) 09 system (copyright 2009, Gaussian, Inc.),
 the Gaussian(R) 03 system (copyright 2003, Gaussian, Inc.),
 the Gaussian(R) 98 system (copyright 1998, Gaussian, Inc.),
 the Gaussian(R) 94 system (copyright 1995, Gaussian, Inc.),
 the Gaussian 92(TM) system (copyright 1992, Gaussian, Inc.),
 the Gaussian 90(TM) system (copyright 1990, Gaussian, Inc.),
 the Gaussian 88(TM) system (copyright 1988, Gaussian, Inc.),
 the Gaussian 86(TM) system (copyright 1986, Carnegie Mellon
 University), and the Gaussian 82(TM) system (copyright 1983,
 Carnegie Mellon University). Gaussian is a federally registered
 trademark of Gaussian, Inc.
  
 This software contains proprietary and confidential information,
 including trade secrets, belonging to Gaussian, Inc.
  
 This software is provided under written license and may be
 used, copied, transmitted, or stored only in accord with that
 written license.
  
 The following legend is applicable only to US Government
 contracts under FAR:
  
                    RESTRICTED RIGHTS LEGEND
  
 Use, reproduction and disclosure by the US Government is
 subject to restrictions as set forth in subparagraphs (a)
 and (c) of the Commercial Computer Software - Restricted
 Rights clause in FAR 52.227-19.
  
 Gaussian, Inc.
 340 Quinnipiac St., Bldg. 40, Wallingford CT 06492
  
  
 ---------------------------------------------------------------
 Warning -- This program may not be used in any manner that
 competes with the business of Gaussian, Inc. or will provide
 assistance to any competitor of Gaussian, Inc.  The licensee
 of this program is prohibited from giving any competitor of
 Gaussian, Inc. access to this program.  By using this program,
 the user acknowledges that Gaussian, Inc. is engaged in the
 business of creating and licensing software in the field of
 computational chemistry and represents and warrants to the
 licensee that it is not a competitor of Gaussian, Inc. and that
 it will not use this program in any manner prohibited above.
 ---------------------------------------------------------------
  

 Cite this work as:
 Gaussian 16, Revision A.03,
 M. J. Frisch, G. W. Trucks, H. B. Schlegel, G. E. Scuseria, 
 M. A. Robb, J. R. Cheeseman, G. Scalmani, V. Barone, 
 G. A. Petersson, H. Nakatsuji, X. Li, M. Caricato, A. V. Marenich, 
 J. Bloino, B. G. Janesko, R. Gomperts, B. Mennucci, H. P. Hratchian, 
 J. V. Ortiz, A. F. Izmaylov, J. L. Sonnenberg, D. Williams-Young, 
 F. Ding, F. Lipparini, F. Egidi, J. Goings, B. Peng, A. Petrone, 
 T. Henderson, D. Ranasinghe, V. G. Zakrzewski, J. Gao, N. Rega, 
 G. Zheng, W. Liang, M. Hada, M. Ehara, K. Toyota, R. Fukuda, 
 J. Hasegawa, M. Ishida, T. Nakajima, Y. Honda, O. Kitao, H. Nakai, 
 T. Vreven, K. Throssell, J. A. Montgomery, Jr., J. E. Peralta, 
 F. Ogliaro, M. J. Bearpark, J. J. Heyd, E. N. Brothers, K. N. Kudin, 
 V. N. Staroverov, T. A. Keith, R. Kobayashi, J. Normand, 
 K. Raghavachari, A. P. Rendell, J. C. Burant, S. S. Iyengar, 
 J. Tomasi, M. Cossi, J. M. Millam, M. Klene, C. Adamo, R. Cammi, 
 J. W. Ochterski, R. L. Martin, K. Morokuma, O. Farkas, 
 J. B. Foresman, and D. J. Fox, Gaussian, Inc., Wallingford CT, 2016.
 
 ******************************************
 Gaussian 16:  ES64L-G16RevA.03 25-Dec-2016
                30-Jul-2019 
 ******************************************
 %nproc=3
 Will use up to    3 processors via shared memory.
 %Mem=2GB
 -------------------------------------
 # td=(NStates=1) CAM-B3LYP/6-31G(d,p)
 -------------------------------------
 1/38=1,172=1/1;
 2/12=2,17=6,18=5,40=1/2;
 3/5=1,6=6,7=101,11=9,25=1,30=1,74=-40/1,2,3,8;
 4//1;
 5/5=2,38=5/2;
 8/6=1,10=2,108=1/1;
 9/41=1,42=1,70=2/14;
 6/7=2,8=2,9=2,10=2/1;
 99/5=1,9=1/99;
 --
 TD
 --
 Symbolic Z-matrix:
 Charge =  0 Multiplicity = 1
 8                    -11.89771   0.36124  -1.38223 
 8                    -12.9394  -2.4213    1.48372 
 8                     10.7717  -0.94631  -2.0286 
 8                     14.53921  -0.80228  -0.0619 
 6                    -11.14404  -0.07924  -0.25658 
 6                    -11.84962  -1.00627  -1.13258 
 6                    -11.70451   0.40039   1.08974 
 6                    -13.14472  -1.67672  -0.8445 
 6                    -13.26393  -0.00594   1.11531 
 6                    -13.50848  -1.44916   0.67935 
 6                    -11.00942  -1.73501  -2.24162 
 6                    -9.75378   0.12289  -0.33971 
 6                    -11.01736  -0.16491   2.34593 
 6                    -11.8306   1.98403   1.10191 
 6                    -8.76517  -0.78894   0.03438 
 6                    -7.30091  -0.55716   0.03995 
 6                    -6.50127  -1.88323   0.0863 
 6                    -6.68669   0.65007  -0.06554 
 6                    -5.28719   0.91612  -0.14794 
 6                     11.96291   0.14537   1.51167 
 6                     11.84916  -0.51895  -1.06009 
 6                     12.73064  -1.2139    1.68216 
 6                     13.45959  -1.69534   0.37388 
 6                     12.47456  -1.88494  -0.71879 
 6                     11.13735   0.08917   0.11908 
 6                     10.87942   0.30592   2.70915 
 6                     12.81526   1.34567   1.55023 
 6                     12.72611   0.42138  -1.77193 
 6                    -4.66726   2.12217  -0.42525 
 6                     9.93344   0.58563   0.04812 
 6                    -3.29951   2.47988  -0.37326 
 6                     8.66136   1.03737  -0.23178 
 6                    -2.93517   3.89419  -0.726 
 6                    -2.37207   1.52223  -0.27464 
 6                     7.50111   0.09599  -0.17983 
 6                     7.76504  -1.34321   0.0164 
 6                     6.26397   0.6058   -0.31276 
 6                    -0.96917   1.711    -0.34698 
 6                     4.98964  -0.01741  -0.28075 
 6                     0.08145   0.74092  -0.3371 
 6                     3.80612   0.58939  -0.45446 
 6                     1.38944   1.00594  -0.44485 
 6                     2.49237   0.07799  -0.34002 
 6                     2.33153  -1.41489  -0.09486 
 1                    -13.04537  -2.67981  -0.86854 
 1                    -14.07036  -1.34764  -1.58385 
 1                    -13.35662   0.0689    2.31208 
 1                    -13.89929   0.63391   0.41334 
 1                    -14.6298  -1.69449   0.79262 
 1                    -10.55177  -2.57776  -1.87733 
 1                    -11.4803  -1.94344  -3.25852 
 1                    -10.03642  -1.03504  -2.35087 
 1                    -9.52049   0.94494  -0.81256 
 1                    -10.13136   0.36365   2.43895 
 1                    -11.67652  -0.10587   3.26965 
 1                    -10.60245  -1.27543   2.16537 
 1                    -12.32121   2.1794    0.14086 
 1                    -12.41773   2.33232   1.98465 
 1                    -10.90593   2.48372   1.08718 
 1                    -11.99218  -2.37512   1.2095 
 1                    -8.88636  -1.78296   0.2946 
 1                    -5.74244  -2.21758  -0.7595 
 1                    -5.95929  -2.07147   1.04789 
 1                    -7.10193  -2.79987   0.09682 
 1                    -7.37856   1.51648  -0.17834 
 1                    -4.7441    0.11494   0.07928 
 1                     13.38266  -1.04562   2.71191 
 1                     12.14355  -2.06423   2.02896 
 1                     13.75409  -2.44927   0.90321 
 1                     12.92702  -2.26929  -1.61794 
 1                     11.7758  -2.63945  -0.36727 
 1                     11.32983   0.16089   3.73458 
 1                     10.40677   1.10023   2.47463 
 1                     10.06417  -0.23832   2.49566 
 1                     13.79666   0.89455   0.8168 
 1                     12.32507   2.29165   1.12561 
 1                     13.15606   1.43371   2.48322 
 1                     13.03954  -0.26088  -2.79788 
 1                     11.77354   1.16852  -2.05447 
 1                     13.58371   0.9026   -1.24933 
 1                    -5.37826   2.85963  -0.48283 
 1                     10.08465  -0.30856  -2.11921 
 1                     15.05689  -0.80416   0.77069 
 1                     8.58236   2.01135  -0.36908 
 1                    -2.16773   4.16528   0.05532 
 1                    -2.39736   4.08368  -1.62425 
 1                    -3.72763   4.37032  -0.5077 
 1                    -2.62626   0.60229   0.15438 
 1                     6.73175  -1.80867  -0.00832 
 1                     8.31922  -2.09474  -0.67887 
 1                     8.12605  -1.64135   1.06376 
 1                     6.34469   1.66701  -0.63071 
 1                    -0.50412   2.54992  -0.45261 
 1                     5.00192  -1.03584  -0.14632 
 1                    -0.29848  -0.22073  -0.08386 
 1                     3.88855   1.73224  -0.54683 
 1                     1.63891   2.04882  -0.57682 
 1                     1.25679  -1.58701  -0.42249 
 1                     2.9385   -1.96896  -0.76022 
 1                     2.45666  -1.59506   1.11497 
 
 Stoichiometry    C40H56O4
 Framework group  C1[X(C40H56O4)]
 Deg. of freedom   294
 Full point group                 C1      NOp   1
 Largest Abelian subgroup         C1      NOp   1
 Largest concise Abelian subgroup C1      NOp   1
                         Standard orientation:                         
 ---------------------------------------------------------------------
 Center     Atomic      Atomic             Coordinates (Angstroms)
 Number     Number       Type             X           Y           Z
 ---------------------------------------------------------------------
      1          8           0      -11.896500    0.370975   -1.381931
      2          8           0      -12.938536   -2.416299    1.479288
      3          8           0       10.772411   -0.942135   -2.034459
      4          8           0       14.540292   -0.802678   -0.068153
      5          6           0      -11.142776   -0.071708   -0.257187
      6          6           0      -11.848777   -0.996985   -1.134706
      7          6           0      -11.702876    0.405713    1.090065
      8          6           0      -13.144025   -1.667555   -0.847581
      9          6           0      -13.262414   -0.000195    1.115182
     10          6           0      -13.507457   -1.442571    0.676722
     11          6           0      -11.008976   -1.724015   -2.245165
     12          6           0       -9.752473    0.130158   -0.340203
     13          6           0      -11.015675   -0.162001    2.345141
     14          6           0      -11.828496    1.989373    1.105046
     15          6           0       -8.764064   -0.782618    0.032115
     16          6           0       -7.299733   -0.551282    0.037844
     17          6           0       -6.500483   -1.877667    0.081721
     18          6           0       -6.685180    0.655944   -0.065620
     19          6           0       -5.285609    0.921733   -0.147793
     20          6           0       11.964537    0.142963    1.507523
     21          6           0       11.850161   -0.516794   -1.065384
     22          6           0       12.731898   -1.216832    1.675490
     23          6           0       13.460485   -1.696190    0.366239
     24          6           0       12.475215   -1.883573   -0.726594
     25          6           0       11.138729    0.089460    0.114975
     26          6           0       10.881301    0.301716    2.705471
     27          6           0       12.817258    1.342935    1.548050
     28          6           0       12.727265    0.424529   -1.775717
     29          6           0       -4.665374    2.128088   -0.423082
     30          6           0        9.934958    0.586396    0.045099
     31          6           0       -3.297502    2.485293   -0.370694
     32          6           0        8.662956    1.039005   -0.233789
     33          6           0       -2.932803    3.900119   -0.721009
     34          6           0       -2.370337    1.527204   -0.273922
     35          6           0        7.502440    0.097878   -0.183300
     36          6           0        7.765979   -1.341745    0.010348
     37          6           0        6.265427    0.608284   -0.315120
     38          6           0       -0.967391    1.715683   -0.346171
     39          6           0        4.990920   -0.014605   -0.283993
     40          6           0        0.082950    0.745274   -0.338178
     41          6           0        3.807550    0.592852   -0.456438
     42          6           0        1.390996    1.010102   -0.445677
     43          6           0        2.493665    0.081637   -0.342674
     44          6           0        2.332431   -1.411618   -0.100117
     45          1           0      -13.044973   -2.670633   -0.873411
     46          1           0      -14.069696   -1.336900   -1.586202
     47          1           0      -13.354878    0.072566    2.312105
     48          1           0      -13.897698    0.641075    0.414451
     49          1           0      -14.628833   -1.687770    0.789754
     50          1           0      -10.551521   -2.567547   -1.882445
     51          1           0      -11.480092   -1.930515   -3.262359
     52          1           0      -10.035787   -1.024145   -2.353348
     53          1           0       -9.519015    0.952968   -0.811638
     54          1           0      -10.129510    0.366132    2.438942
     55          1           0      -11.674667   -0.104396    3.269071
     56          1           0      -10.601128   -1.272326    2.162552
     57          1           0      -12.319212    2.186582    0.144424
     58          1           0      -12.415368    2.336276    1.988502
     59          1           0      -10.903678    2.488810    1.091044
     60          1           0      -11.991346   -2.369916    1.204981
     61          1           0       -8.885504   -1.777059    0.290600
     62          1           0       -5.741895   -2.210749   -0.764801
     63          1           0       -5.958390   -2.067766    1.042888
     64          1           0       -7.101409   -2.794152    0.090723
     65          1           0       -7.376807    1.522760   -0.176779
     66          1           0       -4.742720    0.119990    0.077926
     67          1           0       13.384146   -1.050560    2.705417
     68          1           0       12.144615   -2.067598    2.020887
     69          1           0       13.754848   -2.451131    0.894185
     70          1           0       12.927407   -2.266472   -1.626505
     71          1           0       11.776287   -2.638494   -0.376291
     72          1           0       11.331845    0.154746    3.730563
     73          1           0       10.408845    1.096576    2.472433
     74          1           0       10.065859   -0.241905    2.491154
     75          1           0       13.798392    0.892818    0.813658
     76          1           0       12.327266    2.289807    1.125180
     77          1           0       13.158239    1.429230    2.481143
     78          1           0       13.040326   -0.256019   -2.802922
     79          1           0       11.774874    1.172445   -2.056780
     80          1           0       13.585097    0.904569   -1.252415
     81          1           0       -5.376163    2.865854   -0.479244
     82          1           0       10.085532   -0.304018   -2.123836
     83          1           0       15.058113   -0.806179    0.764341
     84          1           0        8.584225    2.013252   -0.369366
     85          1           0       -2.165157    4.169607    0.060661
     86          1           0       -2.395093    4.091027   -1.619008
     87          1           0       -3.725089    4.376092   -0.501734
     88          1           0       -2.624725    0.606583    0.153522
     89          1           0        6.732542   -1.806855   -0.015016
     90          1           0        8.319815   -2.092216   -0.686340
     91          1           0        8.127080   -1.641832    1.057118
     92          1           0        6.346408    1.670032   -0.631213
     93          1           0       -0.502111    2.554649   -0.450394
     94          1           0        5.002918   -1.033271   -0.151364
     95          1           0       -0.297225   -0.216710   -0.086561
     96          1           0        3.890301    1.735838   -0.546803
     97          1           0        1.640752    2.053137   -0.575856
     98          1           0        1.257586   -1.582842   -0.427869
     99          1           0        2.939117   -1.964701   -0.766558
    100          1           0        2.457712   -1.593964    1.109378
 ---------------------------------------------------------------------
 Rotational constants (GHZ):           0.2695134           0.0087604           0.0086982
 Standard basis: 6-31G(d,p) (6D, 7F)
 There are   940 symmetry adapted cartesian basis functions of A   symmetry.
 There are   940 symmetry adapted basis functions of A   symmetry.
   940 basis functions,  1624 primitive gaussians,   940 cartesian basis functions
   164 alpha electrons      164 beta electrons
       nuclear repulsion energy      4453.6487887726 Hartrees.
 NAtoms=  100 NActive=  100 NUniq=  100 SFac= 1.00D+00 NAtFMM=   60 NAOKFM=T Big=T
 Integral buffers will be    131072 words long.
 Raffenetti 1 integral format.
 Two-electron integral symmetry is turned on.
 One-electron integrals computed using PRISM.
 NBasis=   940 RedAO= T EigKep=  4.93D-04  NBF=   940
 NBsUse=   940 1.00D-06 EigRej= -1.00D+00 NBFU=   940
 ExpMin= 1.61D-01 ExpMax= 5.48D+03 ExpMxC= 8.25D+02 IAcc=3 IRadAn=         5 AccDes= 0.00D+00
 Harris functional with IExCor=20419 and IRadAn=       5 diagonalized for initial guess.
 HarFok:  IExCor=20419 AccDes= 0.00D+00 IRadAn=         5 IDoV= 1 UseB2=F ITyADJ=14
 ICtDFT=  3500011 ScaDFX=  1.000000  1.000000  1.000000  1.000000
 FoFCou: FMM=F IPFlag=           0 FMFlag=      100000 FMFlg1=        2001
         NFxFlg=           0 DoJE=T BraDBF=F KetDBF=T FulRan=T
         wScrn=  0.000000 ICntrl=       500 IOpCl=  0 I1Cent=   200000004 NGrid=           0
         NMat0=    1 NMatS0=      1 NMatT0=    0 NMatD0=    1 NMtDS0=    0 NMtDT0=    0
 Petite list used in FoFCou.
 Requested convergence on RMS density matrix=1.00D-08 within 128 cycles.
 Requested convergence on MAX density matrix=1.00D-06.
 Requested convergence on             energy=1.00D-06.
 No special actions if energy rises.
 Integral accuracy reduced to 1.0D-05 until final iterations.
 Initial convergence to 1.0D-05 achieved.  Increase integral accuracy.
 SCF Done:  E(RCAM-B3LYP) =  -1857.26296090     A.U. after   15 cycles
            NFock= 15  Conv=0.53D-08     -V/T= 2.0089
 DoSCS=F DFT=T ScalE2(SS,OS)=  1.000000  1.000000
 ExpMin= 1.61D-01 ExpMax= 5.48D+03 ExpMxC= 8.25D+02 IAcc=3 IRadAn=         5 AccDes= 0.00D+00
 HarFok:  IExCor=  205 AccDes= 0.00D+00 IRadAn=         5 IDoV=-2 UseB2=F ITyADJ=14
 ICtDFT= 12500011 ScaDFX=  1.000000  1.000000  1.000000  1.000000
 GSVD:  LWork=       -2288 too small for GESVD, short by       10340 words or       10340 for optimal perf.
 Range of M.O.s used for correlation:    45   940
 NBasis=   940 NAE=   164 NBE=   164 NFC=    44 NFV=     0
 NROrb=    896 NOA=   120 NOB=   120 NVA=   776 NVB=   776
 Orbital symmetries:
       Occupied  (A) (A) (A) (A) (A) (A) (A) (A) (A) (A) (A) (A)
                 (A) (A) (A) (A) (A) (A) (A) (A) (A) (A) (A) (A)
                 (A) (A) (A) (A) (A) (A) (A) (A) (A) (A) (A) (A)
                 (A) (A) (A) (A) (A) (A) (A) (A) (A) (A) (A) (A)
                 (A) (A) (A) (A) (A) (A) (A) (A) (A) (A) (A) (A)
                 (A) (A) (A) (A) (A) (A) (A) (A) (A) (A) (A) (A)
                 (A) (A) (A) (A) (A) (A) (A) (A) (A) (A) (A) (A)
                 (A) (A) (A) (A) (A) (A) (A) (A) (A) (A) (A) (A)
                 (A) (A) (A) (A) (A) (A) (A) (A) (A) (A) (A) (A)
                 (A) (A) (A) (A) (A) (A) (A) (A) (A) (A) (A) (A)
                 (A) (A) (A) (A) (A) (A) (A) (A) (A) (A) (A) (A)
                 (A) (A) (A) (A) (A) (A) (A) (A) (A) (A) (A) (A)
                 (A) (A) (A) (A) (A) (A) (A) (A) (A) (A) (A) (A)
                 (A) (A) (A) (A) (A) (A) (A) (A)
       Virtual   (A) (A) (A) (A) (A) (A) (A) (A) (A) (A) (A) (A)
                 (A) (A) (A) (A) (A) (A) (A) (A) (A) (A) (A) (A)
                 (A) (A) (A) (A) (A) (A) (A) (A) (A) (A) (A) (A)
                 (A) (A) (A) (A) (A) (A) (A) (A) (A) (A) (A) (A)
                 (A) (A) (A) (A) (A) (A) (A) (A) (A) (A) (A) (A)
                 (A) (A) (A) (A) (A) (A) (A) (A) (A) (A) (A) (A)
                 (A) (A) (A) (A) (A) (A) (A) (A) (A) (A) (A) (A)
                 (A) (A) (A) (A) (A) (A) (A) (A) (A) (A) (A) (A)
                 (A) (A) (A) (A) (A) (A) (A) (A) (A) (A) (A) (A)
                 (A) (A) (A) (A) (A) (A) (A) (A) (A) (A) (A) (A)
                 (A) (A) (A) (A) (A) (A) (A) (A) (A) (A) (A) (A)
                 (A) (A) (A) (A) (A) (A) (A) (A) (A) (A) (A) (A)
                 (A) (A) (A) (A) (A) (A) (A) (A) (A) (A) (A) (A)
                 (A) (A) (A) (A) (A) (A) (A) (A) (A) (A) (A) (A)
                 (A) (A) (A) (A) (A) (A) (A) (A) (A) (A) (A) (A)
                 (A) (A) (A) (A) (A) (A) (A) (A) (A) (A) (A) (A)
                 (A) (A) (A) (A) (A) (A) (A) (A) (A) (A) (A) (A)
                 (A) (A) (A) (A) (A) (A) (A) (A) (A) (A) (A) (A)
                 (A) (A) (A) (A) (A) (A) (A) (A) (A) (A) (A) (A)
                 (A) (A) (A) (A) (A) (A) (A) (A) (A) (A) (A) (A)
                 (A) (A) (A) (A) (A) (A) (A) (A) (A) (A) (A) (A)
                 (A) (A) (A) (A) (A) (A) (A) (A) (A) (A) (A) (A)
                 (A) (A) (A) (A) (A) (A) (A) (A) (A) (A) (A) (A)
                 (A) (A) (A) (A) (A) (A) (A) (A) (A) (A) (A) (A)
                 (A) (A) (A) (A) (A) (A) (A) (A) (A) (A) (A) (A)
                 (A) (A) (A) (A) (A) (A) (A) (A) (A) (A) (A) (A)
                 (A) (A) (A) (A) (A) (A) (A) (A) (A) (A) (A) (A)
                 (A) (A) (A) (A) (A) (A) (A) (A) (A) (A) (A) (A)
                 (A) (A) (A) (A) (A) (A) (A) (A) (A) (A) (A) (A)
                 (A) (A) (A) (A) (A) (A) (A) (A) (A) (A) (A) (A)
                 (A) (A) (A) (A) (A) (A) (A) (A) (A) (A) (A) (A)
                 (A) (A) (A) (A) (A) (A) (A) (A) (A) (A) (A) (A)
                 (A) (A) (A) (A) (A) (A) (A) (A) (A) (A) (A) (A)
                 (A) (A) (A) (A) (A) (A) (A) (A) (A) (A) (A) (A)
                 (A) (A) (A) (A) (A) (A) (A) (A) (A) (A) (A) (A)
                 (A) (A) (A) (A) (A) (A) (A) (A) (A) (A) (A) (A)
                 (A) (A) (A) (A) (A) (A) (A) (A) (A) (A) (A) (A)
                 (A) (A) (A) (A) (A) (A) (A) (A) (A) (A) (A) (A)
                 (A) (A) (A) (A) (A) (A) (A) (A) (A) (A) (A) (A)
                 (A) (A) (A) (A) (A) (A) (A) (A) (A) (A) (A) (A)
                 (A) (A) (A) (A) (A) (A) (A) (A) (A) (A) (A) (A)
                 (A) (A) (A) (A) (A) (A) (A) (A) (A) (A) (A) (A)
                 (A) (A) (A) (A) (A) (A) (A) (A) (A) (A) (A) (A)
                 (A) (A) (A) (A) (A) (A) (A) (A) (A) (A) (A) (A)
                 (A) (A) (A) (A) (A) (A) (A) (A) (A) (A) (A) (A)
                 (A) (A) (A) (A) (A) (A) (A) (A) (A) (A) (A) (A)
                 (A) (A) (A) (A) (A) (A) (A) (A) (A) (A) (A) (A)
                 (A) (A) (A) (A) (A) (A) (A) (A) (A) (A) (A) (A)
                 (A) (A) (A) (A) (A) (A) (A) (A) (A) (A) (A) (A)
                 (A) (A) (A) (A) (A) (A) (A) (A) (A) (A) (A) (A)
                 (A) (A) (A) (A) (A) (A) (A) (A) (A) (A) (A) (A)
                 (A) (A) (A) (A) (A) (A) (A) (A) (A) (A) (A) (A)
                 (A) (A) (A) (A) (A) (A) (A) (A) (A) (A) (A) (A)
                 (A) (A) (A) (A) (A) (A) (A) (A) (A) (A) (A) (A)
                 (A) (A) (A) (A) (A) (A) (A) (A) (A) (A) (A) (A)
                 (A) (A) (A) (A) (A) (A) (A) (A) (A) (A) (A) (A)
                 (A) (A) (A) (A) (A) (A) (A) (A) (A) (A) (A) (A)
                 (A) (A) (A) (A) (A) (A) (A) (A) (A) (A) (A) (A)
                 (A) (A) (A) (A) (A) (A) (A) (A) (A) (A) (A) (A)
                 (A) (A) (A) (A) (A) (A) (A) (A) (A) (A) (A) (A)
                 (A) (A) (A) (A) (A) (A) (A) (A) (A) (A) (A) (A)
                 (A) (A) (A) (A) (A) (A) (A) (A) (A) (A) (A) (A)
                 (A) (A) (A) (A) (A) (A) (A) (A) (A) (A) (A) (A)
                 (A) (A) (A) (A) (A) (A) (A) (A) (A) (A) (A) (A)
                 (A) (A) (A) (A) (A) (A) (A) (A)
     4 initial guesses have been made.
 Convergence on wavefunction:    0.001000000000000
 Iteration     1 Dimension     4 NMult     0 NNew      4
 CISAX will form     4 AO SS matrices at one time.
 Iteration     2 Dimension     6 NMult     4 NNew      2
 Iteration     3 Dimension     8 NMult     6 NNew      2
 Iteration     4 Dimension    10 NMult     8 NNew      2
 Iteration     5 Dimension    12 NMult    10 NNew      2
 Iteration     6 Dimension    14 NMult    12 NNew      2
 ***********************************************************************
 Excited states from <AA,BB:AA,BB> singles matrix:
 ***********************************************************************
 
 Ground to excited state transition densities written to RWF  633
 Ground to excited state transition electric dipole moments (Au):
       state          X           Y           Z        Dip. S.      Osc.
         1        -7.8073      0.4237     -0.0824     61.1405      3.2174
 Ground to excited state transition velocity dipole moments (Au):
       state          X           Y           Z        Dip. S.      Osc.
         1         0.5984     -0.0326      0.0085      0.3592      3.0336
 Ground to excited state transition magnetic dipole moments (Au):
       state          X           Y           Z
         1        -0.0677     -0.6245     -2.1659
 Ground to excited state transition velocity quadrupole moments (Au):
       state          XX          YY          ZZ          XY          XZ          YZ
         1        -0.2192     -0.2618      0.0065     -0.2871      0.0386      0.0161
 <0|del|b> * <b|rxdel|0> + <0|del|b> * <b|delr+rdel|0>
 Rotatory Strengths (R) in cgs (10**-40 erg-esu-cm/Gauss)
       state          XX          YY          ZZ    R(velocity)    E-M Angle
         1         4.1173   -209.2930   -139.0115   -114.7291       91.63
 1/2[<0|r|b>*<b|rxdel|0> + (<0|rxdel|b>*<b|r|0>)*]
 Rotatory Strengths (R) in cgs (10**-40 erg-esu-cm/Gauss)
       state          XX          YY          ZZ     R(length)
         1      -373.7181    187.1347   -126.2380   -104.2738
  1/2[<0|del|b>*<b|r|0> + (<0|r|b>*<b|del|0>)*] (Au)
       state          X           Y           Z        Dip. S.   Osc.(frdel)
         1        -4.6716     -0.0138     -0.0007      4.6862      3.1241

 Excitation energies and oscillator strengths:
 
 Excited State   1:      Singlet-A      2.1479 eV  577.23 nm  f=3.2174  <S**2>=0.000
     163 ->166         0.13401
     164 ->165         0.69539
 This state for optimization and/or second-order correction.
 Total Energy, E(TD-HF/TD-DFT) =  -1857.18402596    
 Copying the excited state density for this state as the 1-particle RhoCI density.
 SavETr:  write IOETrn=   770 NScale= 10 NData=  16 NLR=1 NState=    1 LETran=      28.

 **********************************************************************

            Population analysis using the SCF density.

 **********************************************************************

 Orbital symmetries:
       Occupied  (A) (A) (A) (A) (A) (A) (A) (A) (A) (A) (A) (A)
                 (A) (A) (A) (A) (A) (A) (A) (A) (A) (A) (A) (A)
                 (A) (A) (A) (A) (A) (A) (A) (A) (A) (A) (A) (A)
                 (A) (A) (A) (A) (A) (A) (A) (A) (A) (A) (A) (A)
                 (A) (A) (A) (A) (A) (A) (A) (A) (A) (A) (A) (A)
                 (A) (A) (A) (A) (A) (A) (A) (A) (A) (A) (A) (A)
                 (A) (A) (A) (A) (A) (A) (A) (A) (A) (A) (A) (A)
                 (A) (A) (A) (A) (A) (A) (A) (A) (A) (A) (A) (A)
                 (A) (A) (A) (A) (A) (A) (A) (A) (A) (A) (A) (A)
                 (A) (A) (A) (A) (A) (A) (A) (A) (A) (A) (A) (A)
                 (A) (A) (A) (A) (A) (A) (A) (A) (A) (A) (A) (A)
                 (A) (A) (A) (A) (A) (A) (A) (A) (A) (A) (A) (A)
                 (A) (A) (A) (A) (A) (A) (A) (A) (A) (A) (A) (A)
                 (A) (A) (A) (A) (A) (A) (A) (A)
       Virtual   (A) (A) (A) (A) (A) (A) (A) (A) (A) (A) (A) (A)
                 (A) (A) (A) (A) (A) (A) (A) (A) (A) (A) (A) (A)
                 (A) (A) (A) (A) (A) (A) (A) (A) (A) (A) (A) (A)
                 (A) (A) (A) (A) (A) (A) (A) (A) (A) (A) (A) (A)
                 (A) (A) (A) (A) (A) (A) (A) (A) (A) (A) (A) (A)
                 (A) (A) (A) (A) (A) (A) (A) (A) (A) (A) (A) (A)
                 (A) (A) (A) (A) (A) (A) (A) (A) (A) (A) (A) (A)
                 (A) (A) (A) (A) (A) (A) (A) (A) (A) (A) (A) (A)
                 (A) (A) (A) (A) (A) (A) (A) (A) (A) (A) (A) (A)
                 (A) (A) (A) (A) (A) (A) (A) (A) (A) (A) (A) (A)
                 (A) (A) (A) (A) (A) (A) (A) (A) (A) (A) (A) (A)
                 (A) (A) (A) (A) (A) (A) (A) (A) (A) (A) (A) (A)
                 (A) (A) (A) (A) (A) (A) (A) (A) (A) (A) (A) (A)
                 (A) (A) (A) (A) (A) (A) (A) (A) (A) (A) (A) (A)
                 (A) (A) (A) (A) (A) (A) (A) (A) (A) (A) (A) (A)
                 (A) (A) (A) (A) (A) (A) (A) (A) (A) (A) (A) (A)
                 (A) (A) (A) (A) (A) (A) (A) (A) (A) (A) (A) (A)
                 (A) (A) (A) (A) (A) (A) (A) (A) (A) (A) (A) (A)
                 (A) (A) (A) (A) (A) (A) (A) (A) (A) (A) (A) (A)
                 (A) (A) (A) (A) (A) (A) (A) (A) (A) (A) (A) (A)
                 (A) (A) (A) (A) (A) (A) (A) (A) (A) (A) (A) (A)
                 (A) (A) (A) (A) (A) (A) (A) (A) (A) (A) (A) (A)
                 (A) (A) (A) (A) (A) (A) (A) (A) (A) (A) (A) (A)
                 (A) (A) (A) (A) (A) (A) (A) (A) (A) (A) (A) (A)
                 (A) (A) (A) (A) (A) (A) (A) (A) (A) (A) (A) (A)
                 (A) (A) (A) (A) (A) (A) (A) (A) (A) (A) (A) (A)
                 (A) (A) (A) (A) (A) (A) (A) (A) (A) (A) (A) (A)
                 (A) (A) (A) (A) (A) (A) (A) (A) (A) (A) (A) (A)
                 (A) (A) (A) (A) (A) (A) (A) (A) (A) (A) (A) (A)
                 (A) (A) (A) (A) (A) (A) (A) (A) (A) (A) (A) (A)
                 (A) (A) (A) (A) (A) (A) (A) (A) (A) (A) (A) (A)
                 (A) (A) (A) (A) (A) (A) (A) (A) (A) (A) (A) (A)
                 (A) (A) (A) (A) (A) (A) (A) (A) (A) (A) (A) (A)
                 (A) (A) (A) (A) (A) (A) (A) (A) (A) (A) (A) (A)
                 (A) (A) (A) (A) (A) (A) (A) (A) (A) (A) (A) (A)
                 (A) (A) (A) (A) (A) (A) (A) (A) (A) (A) (A) (A)
                 (A) (A) (A) (A) (A) (A) (A) (A) (A) (A) (A) (A)
                 (A) (A) (A) (A) (A) (A) (A) (A) (A) (A) (A) (A)
                 (A) (A) (A) (A) (A) (A) (A) (A) (A) (A) (A) (A)
                 (A) (A) (A) (A) (A) (A) (A) (A) (A) (A) (A) (A)
                 (A) (A) (A) (A) (A) (A) (A) (A) (A) (A) (A) (A)
                 (A) (A) (A) (A) (A) (A) (A) (A) (A) (A) (A) (A)
                 (A) (A) (A) (A) (A) (A) (A) (A) (A) (A) (A) (A)
                 (A) (A) (A) (A) (A) (A) (A) (A) (A) (A) (A) (A)
                 (A) (A) (A) (A) (A) (A) (A) (A) (A) (A) (A) (A)
                 (A) (A) (A) (A) (A) (A) (A) (A) (A) (A) (A) (A)
                 (A) (A) (A) (A) (A) (A) (A) (A) (A) (A) (A) (A)
                 (A) (A) (A) (A) (A) (A) (A) (A) (A) (A) (A) (A)
                 (A) (A) (A) (A) (A) (A) (A) (A) (A) (A) (A) (A)
                 (A) (A) (A) (A) (A) (A) (A) (A) (A) (A) (A) (A)
                 (A) (A) (A) (A) (A) (A) (A) (A) (A) (A) (A) (A)
                 (A) (A) (A) (A) (A) (A) (A) (A) (A) (A) (A) (A)
                 (A) (A) (A) (A) (A) (A) (A) (A) (A) (A) (A) (A)
                 (A) (A) (A) (A) (A) (A) (A) (A) (A) (A) (A) (A)
                 (A) (A) (A) (A) (A) (A) (A) (A) (A) (A) (A) (A)
                 (A) (A) (A) (A) (A) (A) (A) (A) (A) (A) (A) (A)
                 (A) (A) (A) (A) (A) (A) (A) (A) (A) (A) (A) (A)
                 (A) (A) (A) (A) (A) (A) (A) (A) (A) (A) (A) (A)
                 (A) (A) (A) (A) (A) (A) (A) (A) (A) (A) (A) (A)
                 (A) (A) (A) (A) (A) (A) (A) (A) (A) (A) (A) (A)
                 (A) (A) (A) (A) (A) (A) (A) (A) (A) (A) (A) (A)
                 (A) (A) (A) (A) (A) (A) (A) (A) (A) (A) (A) (A)
                 (A) (A) (A) (A) (A) (A) (A) (A) (A) (A) (A) (A)
                 (A) (A) (A) (A) (A) (A) (A) (A) (A) (A) (A) (A)
                 (A) (A) (A) (A) (A) (A) (A) (A)
 The electronic state is 1-A.
 Alpha  occ. eigenvalues --  -19.23326 -19.22676 -19.21812 -19.18928 -10.32341
 Alpha  occ. eigenvalues --  -10.31881 -10.31805 -10.30526 -10.30494 -10.28422
 Alpha  occ. eigenvalues --  -10.28302 -10.28239 -10.28125 -10.27945 -10.27637
 Alpha  occ. eigenvalues --  -10.27604 -10.27341 -10.27282 -10.27268 -10.27212
 Alpha  occ. eigenvalues --  -10.27087 -10.26950 -10.26712 -10.26562 -10.26511
 Alpha  occ. eigenvalues --  -10.26384 -10.26244 -10.26194 -10.26121 -10.26108
 Alpha  occ. eigenvalues --  -10.26043 -10.26035 -10.25998 -10.25977 -10.25774
 Alpha  occ. eigenvalues --  -10.25591 -10.25588 -10.25553 -10.25354 -10.25324
 Alpha  occ. eigenvalues --  -10.24930 -10.24605 -10.24203 -10.22336  -1.17858
 Alpha  occ. eigenvalues --   -1.11036  -1.10425  -1.06776  -0.93027  -0.92669
 Alpha  occ. eigenvalues --   -0.92131  -0.91641  -0.90703  -0.89891  -0.87887
 Alpha  occ. eigenvalues --   -0.87073  -0.86562  -0.85765  -0.85365  -0.83676
 Alpha  occ. eigenvalues --   -0.82835  -0.81150  -0.79637  -0.79585  -0.77565
 Alpha  occ. eigenvalues --   -0.77323  -0.77011  -0.76630  -0.75971  -0.75640
 Alpha  occ. eigenvalues --   -0.75533  -0.75448  -0.73831  -0.70985  -0.70263
 Alpha  occ. eigenvalues --   -0.69295  -0.67780  -0.66036  -0.65184  -0.64271
 Alpha  occ. eigenvalues --   -0.64099  -0.62936  -0.62099  -0.60486  -0.60440
 Alpha  occ. eigenvalues --   -0.59352  -0.59090  -0.58885  -0.57965  -0.57557
 Alpha  occ. eigenvalues --   -0.56659  -0.56380  -0.55833  -0.54548  -0.54219
 Alpha  occ. eigenvalues --   -0.53799  -0.53446  -0.53045  -0.52487  -0.52345
 Alpha  occ. eigenvalues --   -0.51330  -0.50998  -0.50502  -0.50326  -0.49945
 Alpha  occ. eigenvalues --   -0.49369  -0.49024  -0.48962  -0.48864  -0.48392
 Alpha  occ. eigenvalues --   -0.47961  -0.47718  -0.47515  -0.47389  -0.47178
 Alpha  occ. eigenvalues --   -0.47083  -0.46614  -0.46540  -0.46155  -0.46035
 Alpha  occ. eigenvalues --   -0.45879  -0.45712  -0.44853  -0.44593  -0.43890
 Alpha  occ. eigenvalues --   -0.43287  -0.43180  -0.42767  -0.42638  -0.42241
 Alpha  occ. eigenvalues --   -0.42037  -0.41953  -0.41827  -0.41720  -0.41455
 Alpha  occ. eigenvalues --   -0.41149  -0.40984  -0.40760  -0.40693  -0.40515
 Alpha  occ. eigenvalues --   -0.40067  -0.39559  -0.39243  -0.39150  -0.39084
 Alpha  occ. eigenvalues --   -0.38805  -0.38585  -0.38196  -0.37893  -0.37371
 Alpha  occ. eigenvalues --   -0.36523  -0.36320  -0.35504  -0.34306  -0.33659
 Alpha  occ. eigenvalues --   -0.32525  -0.32291  -0.31724  -0.31195  -0.30529
 Alpha  occ. eigenvalues --   -0.30347  -0.27897  -0.24907  -0.19808
 Alpha virt. eigenvalues --   -0.06512  -0.01246   0.02495   0.05853   0.07579
 Alpha virt. eigenvalues --    0.09555   0.09590   0.10237   0.11438   0.12121
 Alpha virt. eigenvalues --    0.12798   0.13276   0.13605   0.13813   0.14234
 Alpha virt. eigenvalues --    0.14625   0.15012   0.15092   0.15167   0.15645
 Alpha virt. eigenvalues --    0.15819   0.16025   0.16512   0.16756   0.17022
 Alpha virt. eigenvalues --    0.17267   0.17425   0.17756   0.17909   0.18265
 Alpha virt. eigenvalues --    0.18618   0.18745   0.18974   0.19255   0.19331
 Alpha virt. eigenvalues --    0.19755   0.20001   0.20128   0.20391   0.20518
 Alpha virt. eigenvalues --    0.21157   0.21663   0.21789   0.21922   0.22440
 Alpha virt. eigenvalues --    0.22539   0.22741   0.22760   0.22961   0.23142
 Alpha virt. eigenvalues --    0.23209   0.23411   0.23497   0.23864   0.24039
 Alpha virt. eigenvalues --    0.24547   0.24740   0.25213   0.25287   0.25400
 Alpha virt. eigenvalues --    0.25596   0.25907   0.26817   0.26954   0.27034
 Alpha virt. eigenvalues --    0.27451   0.27719   0.27907   0.28259   0.28596
 Alpha virt. eigenvalues --    0.28919   0.28968   0.29323   0.29529   0.29861
 Alpha virt. eigenvalues --    0.29933   0.30521   0.31237   0.31544   0.31858
 Alpha virt. eigenvalues --    0.32243   0.32537   0.32787   0.33347   0.33559
 Alpha virt. eigenvalues --    0.34394   0.34755   0.35408   0.36051   0.36567
 Alpha virt. eigenvalues --    0.36663   0.37162   0.37788   0.38863   0.39402
 Alpha virt. eigenvalues --    0.40575   0.40942   0.41584   0.42556   0.43346
 Alpha virt. eigenvalues --    0.43766   0.44291   0.45324   0.45800   0.46597
 Alpha virt. eigenvalues --    0.47560   0.48110   0.49531   0.50682   0.52109
 Alpha virt. eigenvalues --    0.53726   0.55130   0.55940   0.56170   0.56515
 Alpha virt. eigenvalues --    0.56731   0.56848   0.57182   0.57682   0.57730
 Alpha virt. eigenvalues --    0.58078   0.58503   0.58857   0.59189   0.59536
 Alpha virt. eigenvalues --    0.59704   0.60239   0.60527   0.60570   0.60785
 Alpha virt. eigenvalues --    0.61101   0.61453   0.61841   0.61953   0.62117
 Alpha virt. eigenvalues --    0.62483   0.62733   0.63288   0.63463   0.63579
 Alpha virt. eigenvalues --    0.64187   0.64526   0.64625   0.64894   0.65259
 Alpha virt. eigenvalues --    0.65566   0.65796   0.65956   0.66598   0.66608
 Alpha virt. eigenvalues --    0.67041   0.67089   0.67145   0.67763   0.67920
 Alpha virt. eigenvalues --    0.68167   0.68655   0.69253   0.69782   0.69990
 Alpha virt. eigenvalues --    0.70185   0.70504   0.70659   0.70870   0.71152
 Alpha virt. eigenvalues --    0.71308   0.72306   0.72810   0.73236   0.73684
 Alpha virt. eigenvalues --    0.74644   0.75029   0.75719   0.76254   0.76577
 Alpha virt. eigenvalues --    0.76902   0.77134   0.77744   0.78063   0.78396
 Alpha virt. eigenvalues --    0.79066   0.79425   0.79717   0.79939   0.80111
 Alpha virt. eigenvalues --    0.80390   0.80696   0.80756   0.81718   0.82218
 Alpha virt. eigenvalues --    0.82407   0.82413   0.82667   0.82911   0.83073
 Alpha virt. eigenvalues --    0.83800   0.84381   0.84661   0.85050   0.85218
 Alpha virt. eigenvalues --    0.85645   0.85738   0.85772   0.86225   0.86275
 Alpha virt. eigenvalues --    0.87082   0.87307   0.87615   0.88284   0.88540
 Alpha virt. eigenvalues --    0.88715   0.88803   0.88933   0.89218   0.89437
 Alpha virt. eigenvalues --    0.90048   0.90307   0.90668   0.90895   0.91039
 Alpha virt. eigenvalues --    0.91303   0.91417   0.91522   0.91927   0.92969
 Alpha virt. eigenvalues --    0.93312   0.93377   0.93451   0.93608   0.93763
 Alpha virt. eigenvalues --    0.94170   0.94352   0.94760   0.94875   0.94999
 Alpha virt. eigenvalues --    0.95310   0.95732   0.96350   0.96456   0.96685
 Alpha virt. eigenvalues --    0.97426   0.97555   0.98027   0.98490   0.98682
 Alpha virt. eigenvalues --    0.98968   0.99238   0.99310   1.00057   1.00249
 Alpha virt. eigenvalues --    1.00632   1.00992   1.01124   1.01284   1.01633
 Alpha virt. eigenvalues --    1.01682   1.02038   1.02318   1.02744   1.03336
 Alpha virt. eigenvalues --    1.03915   1.04477   1.04982   1.05179   1.05349
 Alpha virt. eigenvalues --    1.06173   1.06404   1.06482   1.07023   1.07087
 Alpha virt. eigenvalues --    1.07767   1.08272   1.08603   1.08873   1.09485
 Alpha virt. eigenvalues --    1.10324   1.11227   1.11299   1.11686   1.12529
 Alpha virt. eigenvalues --    1.12868   1.13221   1.14439   1.15232   1.15342
 Alpha virt. eigenvalues --    1.15891   1.16731   1.17642   1.17960   1.18508
 Alpha virt. eigenvalues --    1.19024   1.19734   1.19909   1.20465   1.20991
 Alpha virt. eigenvalues --    1.21815   1.22276   1.22647   1.23286   1.24456
 Alpha virt. eigenvalues --    1.25592   1.26557   1.26979   1.27886   1.28171
 Alpha virt. eigenvalues --    1.28404   1.28836   1.29652   1.29996   1.30341
 Alpha virt. eigenvalues --    1.31726   1.31876   1.32314   1.33851   1.34090
 Alpha virt. eigenvalues --    1.34812   1.34972   1.35720   1.36624   1.37099
 Alpha virt. eigenvalues --    1.37121   1.38439   1.39193   1.40155   1.40706
 Alpha virt. eigenvalues --    1.41355   1.41678   1.42936   1.43028   1.43314
 Alpha virt. eigenvalues --    1.43715   1.44529   1.45058   1.45402   1.46038
 Alpha virt. eigenvalues --    1.47138   1.48740   1.49420   1.49639   1.50201
 Alpha virt. eigenvalues --    1.52833   1.53076   1.53702   1.54110   1.54483
 Alpha virt. eigenvalues --    1.55227   1.56329   1.56897   1.57558   1.57850
 Alpha virt. eigenvalues --    1.58446   1.60059   1.60315   1.60801   1.60977
 Alpha virt. eigenvalues --    1.61531   1.62315   1.62624   1.63001   1.63256
 Alpha virt. eigenvalues --    1.63911   1.64675   1.66108   1.67607   1.68121
 Alpha virt. eigenvalues --    1.68665   1.69752   1.69941   1.71793   1.72040
 Alpha virt. eigenvalues --    1.72314   1.72892   1.74175   1.75133   1.75840
 Alpha virt. eigenvalues --    1.76009   1.76860   1.77112   1.77380   1.78896
 Alpha virt. eigenvalues --    1.79733   1.79943   1.80723   1.81015   1.81087
 Alpha virt. eigenvalues --    1.82023   1.82423   1.82824   1.82895   1.83357
 Alpha virt. eigenvalues --    1.84705   1.85123   1.85608   1.86225   1.86801
 Alpha virt. eigenvalues --    1.87282   1.87342   1.88084   1.88623   1.89037
 Alpha virt. eigenvalues --    1.89327   1.89428   1.89753   1.90017   1.90237
 Alpha virt. eigenvalues --    1.90618   1.90976   1.91109   1.91718   1.92292
 Alpha virt. eigenvalues --    1.92589   1.92663   1.93291   1.93518   1.93813
 Alpha virt. eigenvalues --    1.94905   1.95027   1.95563   1.95736   1.96121
 Alpha virt. eigenvalues --    1.96965   1.97666   1.98067   1.98407   1.98903
 Alpha virt. eigenvalues --    1.99266   1.99559   2.00025   2.00156   2.00299
 Alpha virt. eigenvalues --    2.00452   2.00664   2.01395   2.02152   2.02352
 Alpha virt. eigenvalues --    2.03306   2.04402   2.04655   2.04968   2.05412
 Alpha virt. eigenvalues --    2.05779   2.05950   2.06827   2.07008   2.07959
 Alpha virt. eigenvalues --    2.08033   2.08777   2.09114   2.09353   2.09602
 Alpha virt. eigenvalues --    2.10665   2.10713   2.10884   2.11711   2.12087
 Alpha virt. eigenvalues --    2.12331   2.12712   2.13195   2.13328   2.13579
 Alpha virt. eigenvalues --    2.13655   2.14132   2.14646   2.14922   2.15473
 Alpha virt. eigenvalues --    2.15588   2.15678   2.16589   2.16899   2.17726
 Alpha virt. eigenvalues --    2.18041   2.18485   2.18709   2.19467   2.19740
 Alpha virt. eigenvalues --    2.19813   2.20433   2.20832   2.21172   2.21578
 Alpha virt. eigenvalues --    2.21708   2.22716   2.22943   2.23392   2.23633
 Alpha virt. eigenvalues --    2.23812   2.24152   2.24412   2.24534   2.25266
 Alpha virt. eigenvalues --    2.26128   2.26770   2.26913   2.27649   2.28261
 Alpha virt. eigenvalues --    2.28732   2.29134   2.29238   2.30273   2.30959
 Alpha virt. eigenvalues --    2.31111   2.31705   2.31965   2.32300   2.32765
 Alpha virt. eigenvalues --    2.33340   2.34079   2.34138   2.34501   2.35035
 Alpha virt. eigenvalues --    2.35561   2.36491   2.36796   2.37305   2.38055
 Alpha virt. eigenvalues --    2.38348   2.38636   2.39392   2.40310   2.40768
 Alpha virt. eigenvalues --    2.41086   2.41464   2.41527   2.41907   2.42934
 Alpha virt. eigenvalues --    2.43228   2.43397   2.43973   2.44218   2.44721
 Alpha virt. eigenvalues --    2.45421   2.46102   2.46125   2.47453   2.47823
 Alpha virt. eigenvalues --    2.48598   2.48732   2.49442   2.49835   2.50310
 Alpha virt. eigenvalues --    2.51216   2.51309   2.51772   2.52142   2.52771
 Alpha virt. eigenvalues --    2.53224   2.53689   2.53990   2.54469   2.54808
 Alpha virt. eigenvalues --    2.55361   2.55752   2.56057   2.56339   2.56957
 Alpha virt. eigenvalues --    2.57092   2.57589   2.58113   2.58809   2.59389
 Alpha virt. eigenvalues --    2.59911   2.59991   2.60154   2.60763   2.61332
 Alpha virt. eigenvalues --    2.62054   2.62409   2.62463   2.62720   2.63513
 Alpha virt. eigenvalues --    2.63882   2.64285   2.65005   2.65392   2.65640
 Alpha virt. eigenvalues --    2.65913   2.66568   2.67232   2.67502   2.67916
 Alpha virt. eigenvalues --    2.68144   2.68898   2.69159   2.69346   2.70300
 Alpha virt. eigenvalues --    2.70674   2.70904   2.71317   2.71482   2.71726
 Alpha virt. eigenvalues --    2.72223   2.73006   2.73131   2.73362   2.73893
 Alpha virt. eigenvalues --    2.74040   2.74692   2.74924   2.76137   2.76248
 Alpha virt. eigenvalues --    2.76311   2.77184   2.78102   2.78437   2.78878
 Alpha virt. eigenvalues --    2.79161   2.79394   2.80654   2.81032   2.81446
 Alpha virt. eigenvalues --    2.82509   2.82584   2.82964   2.83082   2.83672
 Alpha virt. eigenvalues --    2.83942   2.84460   2.85015   2.85688   2.86040
 Alpha virt. eigenvalues --    2.86356   2.86909   2.87089   2.88115   2.88635
 Alpha virt. eigenvalues --    2.89008   2.89482   2.89941   2.90574   2.90747
 Alpha virt. eigenvalues --    2.91307   2.92023   2.93884   2.94401   2.94833
 Alpha virt. eigenvalues --    2.95138   2.95535   2.96650   2.97717   2.97956
 Alpha virt. eigenvalues --    2.98136   2.98536   2.98606   2.99555   3.00576
 Alpha virt. eigenvalues --    3.01469   3.01912   3.02110   3.02767   3.03004
 Alpha virt. eigenvalues --    3.03935   3.04300   3.05904   3.07069   3.07670
 Alpha virt. eigenvalues --    3.08386   3.08724   3.09039   3.09873   3.10763
 Alpha virt. eigenvalues --    3.10995   3.11894   3.12359   3.12467   3.12954
 Alpha virt. eigenvalues --    3.13678   3.14366   3.15155   3.15394   3.16082
 Alpha virt. eigenvalues --    3.16450   3.18300   3.18682   3.20942   3.22282
 Alpha virt. eigenvalues --    3.23087   3.23571   3.23871   3.27256   3.27808
 Alpha virt. eigenvalues --    3.28655   3.28921   3.31037   3.32114   3.33381
 Alpha virt. eigenvalues --    3.34068   3.35284   3.36661   3.37307   3.38256
 Alpha virt. eigenvalues --    3.39657   3.40279   3.40976   3.42688   3.42958
 Alpha virt. eigenvalues --    3.43194   3.45459   3.45858   3.46080   3.47367
 Alpha virt. eigenvalues --    3.48435   3.49284   3.50514   3.52932   3.54143
 Alpha virt. eigenvalues --    3.55138   3.55230   3.55876   3.58254   3.58365
 Alpha virt. eigenvalues --    3.59060   3.61577   3.61834   3.62639   3.63849
 Alpha virt. eigenvalues --    3.65093   3.65679   3.66629   3.67718   3.70460
 Alpha virt. eigenvalues --    3.71357   3.71947   3.73841   3.73892   3.78667
 Alpha virt. eigenvalues --    3.80512   3.81979   3.83160   3.87005   3.90553
 Alpha virt. eigenvalues --    3.91540   3.94654   4.05270   4.08706   4.12349
 Alpha virt. eigenvalues --    4.17486   4.18267   4.18639   4.20001   4.20650
 Alpha virt. eigenvalues --    4.22042   4.24824   4.27777   4.30947   4.34137
 Alpha virt. eigenvalues --    4.37110   4.38301   4.41170   4.41813   4.44032
 Alpha virt. eigenvalues --    4.46305   4.48191   4.49645   4.53698   4.54031
 Alpha virt. eigenvalues --    4.56560   4.56800   4.57186   4.61716   4.63076
 Alpha virt. eigenvalues --    4.64539   4.65175   4.66791   4.70649   4.74057
 Alpha virt. eigenvalues --    4.74828   4.78339   4.79722   4.81818   4.83809
 Alpha virt. eigenvalues --    4.88703   4.88926   4.89749   4.91979   4.95438
 Alpha virt. eigenvalues --    4.99075
          Condensed to atoms (all electrons):
 Mulliken charges:
               1
     1  O   -0.494386
     2  O   -0.524675
     3  O   -0.591732
     4  O   -0.536917
     5  C    0.199655
     6  C    0.241811
     7  C   -0.006383
     8  C   -0.214593
     9  C   -0.165598
    10  C    0.134169
    11  C   -0.333775
    12  C   -0.100302
    13  C   -0.297092
    14  C   -0.312993
    15  C   -0.070745
    16  C    0.089115
    17  C   -0.398793
    18  C   -0.126175
    19  C   -0.051467
    20  C    0.016991
    21  C    0.218309
    22  C   -0.242654
    23  C    0.152291
    24  C   -0.163188
    25  C   -0.062618
    26  C   -0.302308
    27  C   -0.273980
    28  C   -0.228913
    29  C   -0.110476
    30  C    0.084476
    31  C    0.083511
    32  C   -0.236350
    33  C   -0.342871
    34  C   -0.101319
    35  C    0.123290
    36  C   -0.388257
    37  C   -0.102170
    38  C   -0.080448
    39  C   -0.084704
    40  C   -0.080925
    41  C   -0.099453
    42  C   -0.113916
    43  C    0.080208
    44  C   -0.358499
    45  H    0.120491
    46  H    0.101216
    47  H    0.081455
    48  H    0.106343
    49  H    0.081095
    50  H    0.110157
    51  H    0.113811
    52  H    0.099449
    53  H    0.108267
    54  H    0.123563
    55  H    0.114932
    56  H    0.067383
    57  H    0.130772
    58  H    0.104796
    59  H    0.098179
    60  H    0.297110
    61  H    0.075102
    62  H    0.114814
    63  H    0.121506
    64  H    0.108391
    65  H    0.075251
    66  H    0.071721
    67  H    0.061392
    68  H    0.113772
    69  H    0.100532
    70  H    0.121875
    71  H    0.113854
    72  H    0.091250
    73  H    0.108596
    74  H    0.105500
    75  H    0.074059
    76  H    0.104892
    77  H    0.105787
    78  H    0.088669
    79  H    0.060473
    80  H    0.140045
    81  H    0.068260
    82  H    0.297241
    83  H    0.311081
    84  H    0.103272
    85  H    0.109796
    86  H    0.137998
    87  H    0.111790
    88  H    0.084759
    89  H    0.093842
    90  H    0.137325
    91  H    0.114385
    92  H    0.077041
    93  H    0.049688
    94  H    0.079533
    95  H    0.071464
    96  H    0.070103
    97  H    0.083679
    98  H    0.110082
    99  H    0.132383
   100  H    0.114628
 Sum of Mulliken charges =  -0.00000
 Mulliken charges with hydrogens summed into heavy atoms:
               1
     1  O   -0.494386
     2  O   -0.227565
     3  O   -0.294492
     4  O   -0.225835
     5  C    0.199655
     6  C    0.241811
     7  C   -0.006383
     8  C    0.007114
     9  C    0.022200
    10  C    0.215264
    11  C   -0.010357
    12  C    0.007965
    13  C    0.008786
    14  C    0.020753
    15  C    0.004357
    16  C    0.089115
    17  C   -0.054082
    18  C   -0.050924
    19  C    0.020254
    20  C    0.016991
    21  C    0.218309
    22  C   -0.067490
    23  C    0.252823
    24  C    0.072541
    25  C   -0.062618
    26  C    0.003037
    27  C    0.010757
    28  C    0.060275
    29  C   -0.042216
    30  C    0.084476
    31  C    0.083511
    32  C   -0.133078
    33  C    0.016714
    34  C   -0.016559
    35  C    0.123290
    36  C   -0.042705
    37  C   -0.025128
    38  C   -0.030760
    39  C   -0.005171
    40  C   -0.009461
    41  C   -0.029351
    42  C   -0.030238
    43  C    0.080208
    44  C   -0.001407
 Electronic spatial extent (au):  <R**2>=         116013.3547
 Charge=              0.0000 electrons
 Dipole moment (field-independent basis, Debye):
    X=              2.1431    Y=             -0.6739    Z=              2.6154  Tot=              3.4478
 Quadrupole moment (field-independent basis, Debye-Ang):
   XX=           -290.3920   YY=           -258.6424   ZZ=           -278.8526
   XY=            -10.7763   XZ=             39.5679   YZ=             -0.9062
 Traceless Quadrupole moment (field-independent basis, Debye-Ang):
   XX=            -14.4297   YY=             17.3199   ZZ=             -2.8903
   XY=            -10.7763   XZ=             39.5679   YZ=             -0.9062
 Octapole moment (field-independent basis, Debye-Ang**2):
  XXX=            879.8753  YYY=              3.9622  ZZZ=             10.5293  XYY=             50.5824
  XXY=            -93.0537  XXZ=            396.7481  XZZ=             26.5226  YZZ=             -5.7468
  YYZ=            -17.1968  XYZ=           -134.5395
 Hexadecapole moment (field-independent basis, Debye-Ang**3):
 XXXX=        -153705.6679 YYYY=          -3463.4403 ZZZZ=          -2360.4352 XXXY=          -3513.4287
 XXXZ=           8413.5134 YYYX=           -256.4646 YYYZ=             -6.2869 ZZZX=            110.7136
 ZZZY=             10.3035 XXYY=         -25829.7516 XXZZ=         -26204.6116 YYZZ=          -1009.2321
 XXYZ=            313.7526 YYXZ=            197.6318 ZZXY=            -74.2618
 N-N= 4.453648788773D+03 E-N=-1.321785347904D+04  KE= 1.840915575473D+03
 1\1\GINC-RYZEN-SSD3\SP\RCAM-B3LYP TD-FC\6-31G(d,p)\C40H56O4\PADAWAN\30
 -Jul-2019\0\\# td=(NStates=1) CAM-B3LYP/6-31G(d,p)\\TD\\0,1\O,0,-11.89
 77064382,0.3612367721,-1.3822253861\O,0,-12.9394047763,-2.421300438,1.
 4837240574\O,0,10.7717026902,-0.9463145194,-2.028596586\O,0,14.5392072
 874,-0.8022789494,-0.0619006775\C,0,-11.1440425715,-0.0792418789,-0.25
 65750819\C,0,-11.8496212518,-1.0062718071,-1.1325820985\C,0,-11.704512
 4942,0.4003867215,1.0897386289\C,0,-13.1447196757,-1.6767178297,-0.844
 4960836\C,0,-13.2639348515,-0.0059380414,1.1153062185\C,0,-13.50847728
 12,-1.4491564534,0.679346702\C,0,-11.0094165304,-1.7350089184,-2.24161
 64799\C,0,-9.7537848223,0.1228894227,-0.3397109292\C,0,-11.0173577132,
 -0.1649120872,2.3459296601\C,0,-11.8306034406,1.9840335065,1.101908282
 5\C,0,-8.7651699387,-0.7889369349,0.0343821772\C,0,-7.3009080804,-0.55
 71575619,0.0399516955\C,0,-6.5012741423,-1.8832270115,0.0863008664\C,0
 ,-6.6866943311,0.6500658365,-0.0655351087\C,0,-5.2871886605,0.91612364
 91,-0.1479391241\C,0,11.9629055375,0.145374567,1.5116706952\C,0,11.849
 1622063,-0.51894805,-1.0600898887\C,0,12.7306402921,-1.2138956193,1.68
 21629497\C,0,13.4595906458,-1.6953440678,0.3738813525\C,0,12.474562390
 9,-1.8849430033,-0.7187858411\C,0,11.137350623,0.0891736653,0.11907908
 82\C,0,10.8794193468,0.3059172337,2.7091532555\C,0,12.8152646432,1.345
 6677876,1.5502280738\C,0,12.7261089171,0.4213810114,-1.7719311409\C,0,
 -4.667263222,2.1221747235,-0.4252473736\C,0,9.933444532,0.5856293657,0
 .0481236357\C,0,-3.2995051089,2.4798767414,-0.3732575865\C,0,8.6613559
 216,1.0373700708,-0.2317775178\C,0,-2.9351652016,3.8941908786,-0.72600
 23323\C,0,-2.3720741225,1.5222340721,-0.2746399987\C,0,7.5011096535,0.
 095990187,-0.1798271668\C,0,7.7650412406,-1.3432112732,0.0164015631\C,
 0,6.2639677448,0.6057975101,-0.3127552115\C,0,-0.9691710486,1.71100022
 37,-0.3469828734\C,0,4.9896405669,-0.0174126252,-0.2807467059\C,0,0.08
 14546245,0.7409174016,-0.3371028131\C,0,3.8061200197,0.5893892893,-0.4
 544629153\C,0,1.3894408849,1.0059423219,-0.4448468656\C,0,2.4923671372
 ,0.0779870984,-0.3400206442\C,0,2.331533015,-1.4148856689,-0.094860892
 5\H,0,-13.0453663374,-2.6798109589,-0.8685420782\H,0,-14.0703622599,-1
 .3476387481,-1.5838548402\H,0,-13.3566234645,0.0689039592,2.3120838911
 \H,0,-13.8992893225,0.633908518,0.4133389995\H,0,-14.6298002841,-1.694
 4881622,0.7926208664\H,0,-10.5517737943,-2.5777645593,-1.8773330287\H,
 0,-11.4802982387,-1.9434391353,-3.2585241386\H,0,-10.0364158251,-1.035
 0427129,-2.3508666992\H,0,-9.5204907039,0.9449366247,-0.8125550656\H,0
 ,-10.131364464,0.3636476289,2.4389496378\H,0,-11.6765230132,-0.1058738
 858,3.2696453146\H,0,-10.6024509388,-1.2754344199,2.1653673264\H,0,-12
 .321214664,2.1794040624,0.1408573017\H,0,-12.4177280122,2.3323188074,1
 .984652177\H,0,-10.9059308752,2.4837189624,1.0871830118\H,0,-11.992182
 2907,-2.3751203856,1.2094954284\H,0,-8.8863594778,-1.7829566534,0.2945
 985588\H,0,-5.7424436905,-2.2175750826,-0.7595039948\H,0,-5.9592883441
 ,-2.0714723798,1.0478931855\H,0,-7.1019303036,-2.7998722602,0.09681583
 24\H,0,-7.378559167,1.5164799771,-0.1783375103\H,0,-4.7441010548,0.114
 9401124,0.0792841527\H,0,13.3826639435,-1.045616249,2.7119061312\H,0,1
 2.143549532,-2.0642258026,2.0289588956\H,0,13.7540877657,-2.4492665917
 ,0.9032072466\H,0,12.9270201405,-2.2692934078,-1.6179448892\H,0,11.775
 797588,-2.6394530692,-0.3672720693\H,0,11.3298325915,0.1608864553,3.73
 45784965\H,0,10.4067676545,1.1002255857,2.4746349877\H,0,10.0641740386
 ,-0.2383221467,2.4956558068\H,0,13.7966565676,0.894548079,0.8167957444
 \H,0,12.3250651197,2.2916486027,1.1256072664\H,0,13.1560614432,1.43370
 78499,2.4832248041\H,0,13.039544774,-0.2608826979,-2.7978822401\H,0,11
 .7735444228,1.1685189428,-2.0544733822\H,0,13.5837092035,0.9025963125,
 -1.2493304184\H,0,-5.3782600499,2.8596303498,-0.4828296938\H,0,10.0846
 497156,-0.3085595136,-2.1192142572\H,0,15.0568885341,-0.8041602304,0.7
 706856679\H,0,8.5823600868,2.0113534625,-0.3690841856\H,0,-2.167731857
 4,4.165282978,0.0553213618\H,0,-2.3973585002,4.0836755924,-1.624245533
 7\H,0,-3.727629148,4.3703152133,-0.5077005716\H,0,-2.6262622463,0.6022
 924412,0.1543824836\H,0,6.7317459245,-1.8086704291,-0.0083183471\H,0,8
 .3192171362,-2.0947441992,-0.678868661\H,0,8.1260525269,-1.641346463,1
 .0637601369\H,0,6.3446896161,1.6670105065,-0.6307050902\H,0,-0.5041217
 692,2.5499190354,-0.452605172\H,0,5.001916178,-1.0358400807,-0.1463219
 511\H,0,-0.2984787711,-0.2207338863,-0.0838557745\H,0,3.8885480227,1.7
 322388601,-0.5468269077\H,0,1.6389107663,2.048820674,-0.5768203804\H,0
 ,1.2567945143,-1.5870053047,-0.4224932537\H,0,2.9384951743,-1.96896319
 78,-0.7602237924\H,0,2.4566623626,-1.5950637354,1.1149747841\\Version=
 ES64L-G16RevA.03\State=1-A\HF=-1857.2629609\RMSD=5.320e-09\PG=C01 [X(C
 40H56O4)]\\@


 Any fool can criticize, condemn, and complain -- and most do.
 -- Dale Carnegie
 Job cpu time:       0 days  6 hours 49 minutes 13.7 seconds.
 Elapsed time:       0 days  2 hours 16 minutes 36.6 seconds.
 File lengths (MBytes):  RWF=   3379 Int=      0 D2E=      0 Chk=     90 Scr=      1
 Normal termination of Gaussian 16 at Tue Jul 30 09:18:00 2019.
