 Entering Gaussian System, Link 0=g16
 Input=Geometria-271-.com
 Output=Geometria-271-.log
 Initial command:
 /usr/local/g16/l1.exe "/home/padawan/israel-mol/neoxanthin/spectra/emi/Gau-95787.inp" -scrdir="/home/padawan/israel-mol/neoxanthin/spectra/emi/"
 Entering Link 1 = /usr/local/g16/l1.exe PID=     95789.
  
 Copyright (c) 1988,1990,1992,1993,1995,1998,2003,2009,2016,
            Gaussian, Inc.  All Rights Reserved.
  
 This is part of the Gaussian(R) 16 program.  It is based on
 the Gaussian(R) 09 system (copyright 2009, Gaussian, Inc.),
 the Gaussian(R) 03 system (copyright 2003, Gaussian, Inc.),
 the Gaussian(R) 98 system (copyright 1998, Gaussian, Inc.),
 the Gaussian(R) 94 system (copyright 1995, Gaussian, Inc.),
 the Gaussian 92(TM) system (copyright 1992, Gaussian, Inc.),
 the Gaussian 90(TM) system (copyright 1990, Gaussian, Inc.),
 the Gaussian 88(TM) system (copyright 1988, Gaussian, Inc.),
 the Gaussian 86(TM) system (copyright 1986, Carnegie Mellon
 University), and the Gaussian 82(TM) system (copyright 1983,
 Carnegie Mellon University). Gaussian is a federally registered
 trademark of Gaussian, Inc.
  
 This software contains proprietary and confidential information,
 including trade secrets, belonging to Gaussian, Inc.
  
 This software is provided under written license and may be
 used, copied, transmitted, or stored only in accord with that
 written license.
  
 The following legend is applicable only to US Government
 contracts under FAR:
  
                    RESTRICTED RIGHTS LEGEND
  
 Use, reproduction and disclosure by the US Government is
 subject to restrictions as set forth in subparagraphs (a)
 and (c) of the Commercial Computer Software - Restricted
 Rights clause in FAR 52.227-19.
  
 Gaussian, Inc.
 340 Quinnipiac St., Bldg. 40, Wallingford CT 06492
  
  
 ---------------------------------------------------------------
 Warning -- This program may not be used in any manner that
 competes with the business of Gaussian, Inc. or will provide
 assistance to any competitor of Gaussian, Inc.  The licensee
 of this program is prohibited from giving any competitor of
 Gaussian, Inc. access to this program.  By using this program,
 the user acknowledges that Gaussian, Inc. is engaged in the
 business of creating and licensing software in the field of
 computational chemistry and represents and warrants to the
 licensee that it is not a competitor of Gaussian, Inc. and that
 it will not use this program in any manner prohibited above.
 ---------------------------------------------------------------
  

 Cite this work as:
 Gaussian 16, Revision A.03,
 M. J. Frisch, G. W. Trucks, H. B. Schlegel, G. E. Scuseria, 
 M. A. Robb, J. R. Cheeseman, G. Scalmani, V. Barone, 
 G. A. Petersson, H. Nakatsuji, X. Li, M. Caricato, A. V. Marenich, 
 J. Bloino, B. G. Janesko, R. Gomperts, B. Mennucci, H. P. Hratchian, 
 J. V. Ortiz, A. F. Izmaylov, J. L. Sonnenberg, D. Williams-Young, 
 F. Ding, F. Lipparini, F. Egidi, J. Goings, B. Peng, A. Petrone, 
 T. Henderson, D. Ranasinghe, V. G. Zakrzewski, J. Gao, N. Rega, 
 G. Zheng, W. Liang, M. Hada, M. Ehara, K. Toyota, R. Fukuda, 
 J. Hasegawa, M. Ishida, T. Nakajima, Y. Honda, O. Kitao, H. Nakai, 
 T. Vreven, K. Throssell, J. A. Montgomery, Jr., J. E. Peralta, 
 F. Ogliaro, M. J. Bearpark, J. J. Heyd, E. N. Brothers, K. N. Kudin, 
 V. N. Staroverov, T. A. Keith, R. Kobayashi, J. Normand, 
 K. Raghavachari, A. P. Rendell, J. C. Burant, S. S. Iyengar, 
 J. Tomasi, M. Cossi, J. M. Millam, M. Klene, C. Adamo, R. Cammi, 
 J. W. Ochterski, R. L. Martin, K. Morokuma, O. Farkas, 
 J. B. Foresman, and D. J. Fox, Gaussian, Inc., Wallingford CT, 2016.
 
 ******************************************
 Gaussian 16:  ES64L-G16RevA.03 25-Dec-2016
                31-Jul-2019 
 ******************************************
 %nproc=3
 Will use up to    3 processors via shared memory.
 %Mem=2GB
 -------------------------------------
 # td=(NStates=1) CAM-B3LYP/6-31G(d,p)
 -------------------------------------
 1/38=1,172=1/1;
 2/12=2,17=6,18=5,40=1/2;
 3/5=1,6=6,7=101,11=9,25=1,30=1,74=-40/1,2,3,8;
 4//1;
 5/5=2,38=5/2;
 8/6=1,10=2,108=1/1;
 9/41=1,42=1,70=2/14;
 6/7=2,8=2,9=2,10=2/1;
 99/5=1,9=1/99;
 --
 TD
 --
 Symbolic Z-matrix:
 Charge =  0 Multiplicity = 1
 8                    -11.7197   0.46451  -1.49536 
 8                    -13.0207  -2.46631   1.37379 
 8                     10.6658  -1.19453  -1.9596 
 8                     14.60256  -0.8226    0.02953 
 6                    -11.05069  -0.08281  -0.28015 
 6                    -11.82329  -0.94467  -1.23371 
 6                    -11.70757   0.35761   1.10501 
 6                    -13.15113  -1.49651  -0.85107 
 6                    -13.25542   0.01157   1.08311 
 6                    -13.54182  -1.38876   0.56036 
 6                    -11.22063  -1.77051  -2.29732 
 6                    -9.5897   -0.02242  -0.34606 
 6                    -11.00465  -0.22207   2.29215 
 6                    -11.55567   1.97248   1.14044 
 6                    -8.68541  -0.8719    0.10394 
 6                    -7.31009  -0.67193   0.12594 
 6                    -6.44834  -1.97053   0.22343 
 6                    -6.72068   0.58289  -0.14927 
 6                    -5.34916   0.77944  -0.20719 
 6                     11.99051   0.06058   1.40522 
 6                     11.71936  -0.66466  -1.16987 
 6                     12.78683  -1.22032   1.63103 
 6                     13.60804  -1.79256   0.30021 
 6                     12.60724  -1.84978  -0.84838 
 6                     11.16334  -0.01942   0.14841 
 6                     11.01567   0.19471   2.52439 
 6                     12.84475   1.35754   1.40036 
 6                     12.4548   0.48824  -2.03073 
 6                    -4.73298   2.05599  -0.31425 
 6                     9.88829   0.40275  -0.015 
 6                    -3.38468   2.4206   -0.52032 
 6                     8.688     0.90691  -0.19508 
 6                    -3.10101   3.77922  -0.81888 
 6                    -2.33806   1.43302  -0.38822 
 6                     7.4586    0.17703  -0.06022 
 6                     7.55139  -1.27883   0.0701 
 6                     6.26625   0.82056  -0.17111 
 6                    -0.97128   1.71657  -0.49137 
 6                     4.91829   0.20531  -0.02647 
 6                     0.07328   0.91304  -0.07507 
 6                     3.74223   0.92738  -0.16684 
 6                     1.36756   1.19676  -0.17197 
 6                     2.52787   0.32544  -0.01349 
 6                     2.30956  -1.18571   0.06922 
 1                    -13.22011  -2.61197  -1.23271 
 1                    -13.8533  -0.93988  -1.58915 
 1                    -13.71917   0.17352   1.98817 
 1                    -13.66121   0.60871   0.33603 
 1                    -14.61707  -1.56322   0.6779 
 1                    -10.82151  -2.59452  -1.99909 
 1                    -11.61616  -1.9423   -3.28109 
 1                    -10.26697  -1.41183  -2.66048 
 1                    -9.35356   0.85153  -0.99909 
 1                    -9.89876  -0.05206   2.22586 
 1                    -11.42672   0.08358   3.29509 
 1                    -11.07212  -1.11979   2.41838 
 1                    -11.97031   2.40497   0.28052 
 1                    -12.02084   2.45668   2.04364 
 1                    -10.31895   2.03364   1.15165 
 1                    -12.17098  -2.44043   1.28285 
 1                    -9.14302  -1.76923   0.67176 
 1                    -6.43708  -2.59141  -0.79474 
 1                    -5.14422  -1.93318   0.76555 
 1                    -6.91296  -2.82639   1.02994 
 1                    -7.44866   1.46527  -0.27093 
 1                    -4.58442  -0.12648  -0.35805 
 1                     13.55788  -1.33845   2.42094 
 1                     12.05286  -2.0514    1.76403 
 1                     13.99277  -2.65091   0.68324 
 1                     13.26397  -2.02261  -1.80544 
 1                     12.04724  -2.53077  -0.6462 
 1                     11.56295   0.37246   3.43271 
 1                     10.48657   1.12411   2.40212 
 1                     10.36457  -0.75731   2.67158 
 1                     13.84332   1.46295   0.78391 
 1                     12.19189   2.30378   1.11925 
 1                     13.07945   1.6748    2.47034 
 1                     12.50541   0.08121  -3.11732 
 1                     11.81186   1.34067  -2.26659 
 1                     13.53708   0.91134  -1.70628 
 1                    -5.5865    2.69082  -0.41198 
 1                     10.03498  -0.51367  -2.05798 
 1                     15.06954  -0.55259   1.01735 
 1                     8.54142   1.91689  -0.5304 
 1                    -2.20348   4.20006  -0.30487 
 1                    -2.72596   3.97797  -1.96104 
 1                    -4.04114   4.49074  -0.81248 
 1                    -2.58235   0.4164   -0.00457 
 1                     6.75802  -2.07965   0.15922 
 1                     8.46063  -1.53895  -0.59802 
 1                     8.02674  -1.74021   1.16653 
 1                     6.46522   1.88669  -0.23105 
 1                    -0.55853   2.69416  -0.89752 
 1                     5.0225   -0.8191    0.23192 
 1                    -0.13493  -0.29745   0.22131 
 1                     3.79547   1.89727  -0.5453 
 1                     1.51713   2.14996  -0.66402 
 1                     1.43205  -1.56636  -0.44723 
 1                     3.34759  -1.75118  -0.52711 
 1                     2.34523  -1.35917   1.21144 
 
 Stoichiometry    C40H56O4
 Framework group  C1[X(C40H56O4)]
 Deg. of freedom   294
 Full point group                 C1      NOp   1
 Largest Abelian subgroup         C1      NOp   1
 Largest concise Abelian subgroup C1      NOp   1
                         Standard orientation:                         
 ---------------------------------------------------------------------
 Center     Atomic      Atomic             Coordinates (Angstroms)
 Number     Number       Type             X           Y           Z
 ---------------------------------------------------------------------
      1          8           0      -11.721326    0.533568   -1.457242
      2          8           0      -13.020145   -2.521347    1.280442
      3          8           0       10.663201   -1.108560   -2.018444
      4          8           0       14.602159   -0.826180   -0.018964
      5          6           0      -11.051198   -0.067284   -0.268223
      6          6           0      -11.825042   -0.885800   -1.258262
      7          6           0      -11.706494    0.311412    1.135808
      8          6           0      -13.152637   -1.453761   -0.899063
      9          6           0      -13.254466   -0.032947    1.100227
     10          6           0      -13.541811   -1.408643    0.516174
     11          6           0      -11.223735   -1.663791   -2.358103
     12          6           0       -9.590256   -0.004369   -0.332947
     13          6           0      -11.002484   -0.320532    2.295318
     14          6           0      -11.554091    1.923084    1.242686
     15          6           0       -8.685739   -0.873192    0.077962
     16          6           0       -7.310337   -0.674725    0.107349
     17          6           0       -6.448854   -1.976574    0.146220
     18          6           0       -6.720858    0.590927   -0.112551
     19          6           0       -5.349351    0.789527   -0.163145
     20          6           0       11.991804   -0.004284    1.397333
     21          6           0       11.717739   -0.614501   -1.207107
     22          6           0       12.787994   -1.294122    1.565245
     23          6           0       13.607640   -1.806960    0.209482
     24          6           0       12.605616   -1.812925   -0.939453
     25          6           0       11.163294   -0.028244    0.139094
     26          6           0       11.018185    0.080294    2.522393
     27          6           0       12.846407    1.291415    1.449111
     28          6           0       12.452603    0.575280   -2.016750
     29          6           0       -4.732915    2.069422   -0.214123
     30          6           0        9.888190    0.401061   -0.004074
     31          6           0       -3.384733    2.442498   -0.405255
     32          6           0        8.687853    0.912996   -0.160334
     33          6           0       -3.100989    3.812956   -0.643548
     34          6           0       -2.338253    1.449775   -0.318211
     35          6           0        7.458385    0.178144   -0.056671
     36          6           0        7.550902   -1.282089    0.008826
     37          6           0        6.266105    0.826245   -0.137639
     38          6           0       -0.971502    1.737303   -0.410130
     39          6           0        4.918128    0.205505   -0.019003
     40          6           0        0.073272    0.915850   -0.030998
     41          6           0        3.742127    0.933374   -0.125952
     42          6           0        1.367525    1.203279   -0.116596
     43          6           0        2.527755    0.325511    0.001840
     44          6           0        2.309102   -1.187773    0.017653
     45          1           0      -13.222340   -2.551180   -1.329742
     46          1           0      -13.855425   -0.864766   -1.610973
     47          1           0      -13.717213    0.088802    2.012072
     48          1           0      -13.660864    0.596838    0.380804
     49          1           0      -14.616985   -1.587884    0.626997
     50          1           0      -10.824540   -2.500309   -2.097141
     51          1           0      -11.620353   -1.791670   -3.348099
     52          1           0      -10.270357   -1.289577   -2.706003
     53          1           0       -9.354560    0.897628   -0.946815
     54          1           0       -9.896621   -0.148017    2.235453
     55          1           0      -11.423413   -0.059584    3.311272
     56          1           0      -11.070078   -1.222953    2.381667
     57          1           0      -11.969516    2.393391    0.403240
     58          1           0      -12.018175    2.366846    2.166968
     59          1           0      -10.317348    1.983394    1.255280
     60          1           0      -12.170511   -2.491652    1.189835
     61          1           0       -9.143000   -1.794720    0.605897
     62          1           0       -6.438846   -2.551681   -0.898507
     63          1           0       -5.144152   -1.963624    0.688075
     64          1           0       -6.912871   -2.867270    0.914454
     65          1           0       -7.448713    1.478014   -0.194164
     66          1           0       -4.585018   -0.108993   -0.354865
     67          1           0       13.559847   -1.447362    2.348315
     68          1           0       12.053932   -2.130118    1.662029
     69          1           0       13.992535   -2.681542    0.553637
     70          1           0       13.261297   -1.943281   -1.903941
     71          1           0       12.045644   -2.502084   -0.767090
     72          1           0       11.566464    0.217444    3.437115
     73          1           0       10.489214    1.014332    2.442031
     74          1           0       10.366970   -0.877164    2.627894
     75          1           0       13.844361    1.423838    0.836882
     76          1           0       12.193525    2.249350    1.210945
     77          1           0       13.082329    1.560840    2.531863
     78          1           0       12.501954    0.216849   -3.120388
     79          1           0       11.809655    1.437487   -2.213884
     80          1           0       13.535347    0.983312   -1.675000
     81          1           0       -5.586358    2.708171   -0.282691
     82          1           0       10.032474   -0.423857   -2.085849
     83          1           0       15.070251   -0.600365    0.979367
     84          1           0        8.541205    1.936899   -0.450357
     85          1           0       -2.202792    4.210362   -0.112332
     86          1           0       -2.727084    4.062089   -1.776162
     87          1           0       -4.040908    4.523713   -0.604587
     88          1           0       -2.582426    0.417202    0.020218
     89          1           0        6.757397   -2.085878    0.063176
     90          1           0        8.459366   -1.512522   -0.671141
     91          1           0        8.027277   -1.791762    1.083205
     92          1           0        6.465319    1.893940   -0.150428
     93          1           0       -0.558897    2.731853   -0.772951
     94          1           0        5.022313   -0.829383    0.193572
     95          1           0       -0.134977   -0.306553    0.211610
     96          1           0        3.795240    1.919079   -0.461061
     97          1           0        1.516848    2.177334   -0.566032
     98          1           0        1.430942   -1.544929   -0.514233
     99          1           0        3.346338   -1.726476   -0.604276
    100          1           0        2.345925   -1.411743    1.151023
 ---------------------------------------------------------------------
 Rotational constants (GHZ):           0.2701732           0.0087786           0.0087152
 Standard basis: 6-31G(d,p) (6D, 7F)
 There are   940 symmetry adapted cartesian basis functions of A   symmetry.
 There are   940 symmetry adapted basis functions of A   symmetry.
   940 basis functions,  1624 primitive gaussians,   940 cartesian basis functions
   164 alpha electrons      164 beta electrons
       nuclear repulsion energy      4442.0103337597 Hartrees.
 NAtoms=  100 NActive=  100 NUniq=  100 SFac= 1.00D+00 NAtFMM=   60 NAOKFM=T Big=T
 Integral buffers will be    131072 words long.
 Raffenetti 1 integral format.
 Two-electron integral symmetry is turned on.
 One-electron integrals computed using PRISM.
 NBasis=   940 RedAO= T EigKep=  3.91D-04  NBF=   940
 NBsUse=   940 1.00D-06 EigRej= -1.00D+00 NBFU=   940
 ExpMin= 1.61D-01 ExpMax= 5.48D+03 ExpMxC= 8.25D+02 IAcc=3 IRadAn=         5 AccDes= 0.00D+00
 Harris functional with IExCor=20419 and IRadAn=       5 diagonalized for initial guess.
 HarFok:  IExCor=20419 AccDes= 0.00D+00 IRadAn=         5 IDoV= 1 UseB2=F ITyADJ=14
 ICtDFT=  3500011 ScaDFX=  1.000000  1.000000  1.000000  1.000000
 FoFCou: FMM=F IPFlag=           0 FMFlag=      100000 FMFlg1=        2001
         NFxFlg=           0 DoJE=T BraDBF=F KetDBF=T FulRan=T
         wScrn=  0.000000 ICntrl=       500 IOpCl=  0 I1Cent=   200000004 NGrid=           0
         NMat0=    1 NMatS0=      1 NMatT0=    0 NMatD0=    1 NMtDS0=    0 NMtDT0=    0
 Petite list used in FoFCou.
 Requested convergence on RMS density matrix=1.00D-08 within 128 cycles.
 Requested convergence on MAX density matrix=1.00D-06.
 Requested convergence on             energy=1.00D-06.
 No special actions if energy rises.
 Integral accuracy reduced to 1.0D-05 until final iterations.
 Initial convergence to 1.0D-05 achieved.  Increase integral accuracy.
 SCF Done:  E(RCAM-B3LYP) =  -1857.20722690     A.U. after   16 cycles
            NFock= 16  Conv=0.33D-08     -V/T= 2.0098
 DoSCS=F DFT=T ScalE2(SS,OS)=  1.000000  1.000000
 ExpMin= 1.61D-01 ExpMax= 5.48D+03 ExpMxC= 8.25D+02 IAcc=3 IRadAn=         5 AccDes= 0.00D+00
 HarFok:  IExCor=  205 AccDes= 0.00D+00 IRadAn=         5 IDoV=-2 UseB2=F ITyADJ=14
 ICtDFT= 12500011 ScaDFX=  1.000000  1.000000  1.000000  1.000000
 GSVD:  LWork=       -2288 too small for GESVD, short by       10340 words or       10340 for optimal perf.
 Range of M.O.s used for correlation:    45   940
 NBasis=   940 NAE=   164 NBE=   164 NFC=    44 NFV=     0
 NROrb=    896 NOA=   120 NOB=   120 NVA=   776 NVB=   776
 Orbital symmetries:
       Occupied  (A) (A) (A) (A) (A) (A) (A) (A) (A) (A) (A) (A)
                 (A) (A) (A) (A) (A) (A) (A) (A) (A) (A) (A) (A)
                 (A) (A) (A) (A) (A) (A) (A) (A) (A) (A) (A) (A)
                 (A) (A) (A) (A) (A) (A) (A) (A) (A) (A) (A) (A)
                 (A) (A) (A) (A) (A) (A) (A) (A) (A) (A) (A) (A)
                 (A) (A) (A) (A) (A) (A) (A) (A) (A) (A) (A) (A)
                 (A) (A) (A) (A) (A) (A) (A) (A) (A) (A) (A) (A)
                 (A) (A) (A) (A) (A) (A) (A) (A) (A) (A) (A) (A)
                 (A) (A) (A) (A) (A) (A) (A) (A) (A) (A) (A) (A)
                 (A) (A) (A) (A) (A) (A) (A) (A) (A) (A) (A) (A)
                 (A) (A) (A) (A) (A) (A) (A) (A) (A) (A) (A) (A)
                 (A) (A) (A) (A) (A) (A) (A) (A) (A) (A) (A) (A)
                 (A) (A) (A) (A) (A) (A) (A) (A) (A) (A) (A) (A)
                 (A) (A) (A) (A) (A) (A) (A) (A)
       Virtual   (A) (A) (A) (A) (A) (A) (A) (A) (A) (A) (A) (A)
                 (A) (A) (A) (A) (A) (A) (A) (A) (A) (A) (A) (A)
                 (A) (A) (A) (A) (A) (A) (A) (A) (A) (A) (A) (A)
                 (A) (A) (A) (A) (A) (A) (A) (A) (A) (A) (A) (A)
                 (A) (A) (A) (A) (A) (A) (A) (A) (A) (A) (A) (A)
                 (A) (A) (A) (A) (A) (A) (A) (A) (A) (A) (A) (A)
                 (A) (A) (A) (A) (A) (A) (A) (A) (A) (A) (A) (A)
                 (A) (A) (A) (A) (A) (A) (A) (A) (A) (A) (A) (A)
                 (A) (A) (A) (A) (A) (A) (A) (A) (A) (A) (A) (A)
                 (A) (A) (A) (A) (A) (A) (A) (A) (A) (A) (A) (A)
                 (A) (A) (A) (A) (A) (A) (A) (A) (A) (A) (A) (A)
                 (A) (A) (A) (A) (A) (A) (A) (A) (A) (A) (A) (A)
                 (A) (A) (A) (A) (A) (A) (A) (A) (A) (A) (A) (A)
                 (A) (A) (A) (A) (A) (A) (A) (A) (A) (A) (A) (A)
                 (A) (A) (A) (A) (A) (A) (A) (A) (A) (A) (A) (A)
                 (A) (A) (A) (A) (A) (A) (A) (A) (A) (A) (A) (A)
                 (A) (A) (A) (A) (A) (A) (A) (A) (A) (A) (A) (A)
                 (A) (A) (A) (A) (A) (A) (A) (A) (A) (A) (A) (A)
                 (A) (A) (A) (A) (A) (A) (A) (A) (A) (A) (A) (A)
                 (A) (A) (A) (A) (A) (A) (A) (A) (A) (A) (A) (A)
                 (A) (A) (A) (A) (A) (A) (A) (A) (A) (A) (A) (A)
                 (A) (A) (A) (A) (A) (A) (A) (A) (A) (A) (A) (A)
                 (A) (A) (A) (A) (A) (A) (A) (A) (A) (A) (A) (A)
                 (A) (A) (A) (A) (A) (A) (A) (A) (A) (A) (A) (A)
                 (A) (A) (A) (A) (A) (A) (A) (A) (A) (A) (A) (A)
                 (A) (A) (A) (A) (A) (A) (A) (A) (A) (A) (A) (A)
                 (A) (A) (A) (A) (A) (A) (A) (A) (A) (A) (A) (A)
                 (A) (A) (A) (A) (A) (A) (A) (A) (A) (A) (A) (A)
                 (A) (A) (A) (A) (A) (A) (A) (A) (A) (A) (A) (A)
                 (A) (A) (A) (A) (A) (A) (A) (A) (A) (A) (A) (A)
                 (A) (A) (A) (A) (A) (A) (A) (A) (A) (A) (A) (A)
                 (A) (A) (A) (A) (A) (A) (A) (A) (A) (A) (A) (A)
                 (A) (A) (A) (A) (A) (A) (A) (A) (A) (A) (A) (A)
                 (A) (A) (A) (A) (A) (A) (A) (A) (A) (A) (A) (A)
                 (A) (A) (A) (A) (A) (A) (A) (A) (A) (A) (A) (A)
                 (A) (A) (A) (A) (A) (A) (A) (A) (A) (A) (A) (A)
                 (A) (A) (A) (A) (A) (A) (A) (A) (A) (A) (A) (A)
                 (A) (A) (A) (A) (A) (A) (A) (A) (A) (A) (A) (A)
                 (A) (A) (A) (A) (A) (A) (A) (A) (A) (A) (A) (A)
                 (A) (A) (A) (A) (A) (A) (A) (A) (A) (A) (A) (A)
                 (A) (A) (A) (A) (A) (A) (A) (A) (A) (A) (A) (A)
                 (A) (A) (A) (A) (A) (A) (A) (A) (A) (A) (A) (A)
                 (A) (A) (A) (A) (A) (A) (A) (A) (A) (A) (A) (A)
                 (A) (A) (A) (A) (A) (A) (A) (A) (A) (A) (A) (A)
                 (A) (A) (A) (A) (A) (A) (A) (A) (A) (A) (A) (A)
                 (A) (A) (A) (A) (A) (A) (A) (A) (A) (A) (A) (A)
                 (A) (A) (A) (A) (A) (A) (A) (A) (A) (A) (A) (A)
                 (A) (A) (A) (A) (A) (A) (A) (A) (A) (A) (A) (A)
                 (A) (A) (A) (A) (A) (A) (A) (A) (A) (A) (A) (A)
                 (A) (A) (A) (A) (A) (A) (A) (A) (A) (A) (A) (A)
                 (A) (A) (A) (A) (A) (A) (A) (A) (A) (A) (A) (A)
                 (A) (A) (A) (A) (A) (A) (A) (A) (A) (A) (A) (A)
                 (A) (A) (A) (A) (A) (A) (A) (A) (A) (A) (A) (A)
                 (A) (A) (A) (A) (A) (A) (A) (A) (A) (A) (A) (A)
                 (A) (A) (A) (A) (A) (A) (A) (A) (A) (A) (A) (A)
                 (A) (A) (A) (A) (A) (A) (A) (A) (A) (A) (A) (A)
                 (A) (A) (A) (A) (A) (A) (A) (A) (A) (A) (A) (A)
                 (A) (A) (A) (A) (A) (A) (A) (A) (A) (A) (A) (A)
                 (A) (A) (A) (A) (A) (A) (A) (A) (A) (A) (A) (A)
                 (A) (A) (A) (A) (A) (A) (A) (A) (A) (A) (A) (A)
                 (A) (A) (A) (A) (A) (A) (A) (A) (A) (A) (A) (A)
                 (A) (A) (A) (A) (A) (A) (A) (A) (A) (A) (A) (A)
                 (A) (A) (A) (A) (A) (A) (A) (A) (A) (A) (A) (A)
                 (A) (A) (A) (A) (A) (A) (A) (A) (A) (A) (A) (A)
                 (A) (A) (A) (A) (A) (A) (A) (A)
     4 initial guesses have been made.
 Convergence on wavefunction:    0.001000000000000
 Iteration     1 Dimension     4 NMult     0 NNew      4
 CISAX will form     4 AO SS matrices at one time.
 Iteration     2 Dimension     6 NMult     4 NNew      2
 Iteration     3 Dimension     8 NMult     6 NNew      2
 Iteration     4 Dimension    10 NMult     8 NNew      2
 Iteration     5 Dimension    12 NMult    10 NNew      2
 Iteration     6 Dimension    14 NMult    12 NNew      2
 ***********************************************************************
 Excited states from <AA,BB:AA,BB> singles matrix:
 ***********************************************************************
 
 Ground to excited state transition densities written to RWF  633
 Ground to excited state transition electric dipole moments (Au):
       state          X           Y           Z        Dip. S.      Osc.
         1        -8.2053      0.2453     -0.1511     67.4101      2.9806
 Ground to excited state transition velocity dipole moments (Au):
       state          X           Y           Z        Dip. S.      Osc.
         1         0.5283     -0.0175      0.0119      0.2795      2.8095
 Ground to excited state transition magnetic dipole moments (Au):
       state          X           Y           Z
         1        -0.0238     -0.2679     -2.0967
 Ground to excited state transition velocity quadrupole moments (Au):
       state          XX          YY          ZZ          XY          XZ          YZ
         1        -0.6712     -0.2578     -0.0197     -0.2568      0.0013      0.0400
 <0|del|b> * <b|rxdel|0> + <0|del|b> * <b|delr+rdel|0>
 Rotatory Strengths (R) in cgs (10**-40 erg-esu-cm/Gauss)
       state          XX          YY          ZZ    R(velocity)    E-M Angle
         1      -124.1352    -71.1325   -154.7880   -116.6853       91.68
 1/2[<0|r|b>*<b|rxdel|0> + (<0|rxdel|b>*<b|r|0>)*]
 Rotatory Strengths (R) in cgs (10**-40 erg-esu-cm/Gauss)
       state          XX          YY          ZZ     R(length)
         1      -138.1618     46.4691   -223.9747   -105.2225
  1/2[<0|del|b>*<b|r|0> + (<0|r|b>*<b|del|0>)*] (Au)
       state          X           Y           Z        Dip. S.   Osc.(frdel)
         1        -4.3345     -0.0043     -0.0018      4.3406      2.8937

 Excitation energies and oscillator strengths:
 
 Excited State   1:      Singlet-A      1.8047 eV  686.99 nm  f=2.9806  <S**2>=0.000
     163 ->166         0.11755
     164 ->165         0.70623
     164 <-165        -0.13333
 This state for optimization and/or second-order correction.
 Total Energy, E(TD-HF/TD-DFT) =  -1857.14090369    
 Copying the excited state density for this state as the 1-particle RhoCI density.
 SavETr:  write IOETrn=   770 NScale= 10 NData=  16 NLR=1 NState=    1 LETran=      28.

 **********************************************************************

            Population analysis using the SCF density.

 **********************************************************************

 Orbital symmetries:
       Occupied  (A) (A) (A) (A) (A) (A) (A) (A) (A) (A) (A) (A)
                 (A) (A) (A) (A) (A) (A) (A) (A) (A) (A) (A) (A)
                 (A) (A) (A) (A) (A) (A) (A) (A) (A) (A) (A) (A)
                 (A) (A) (A) (A) (A) (A) (A) (A) (A) (A) (A) (A)
                 (A) (A) (A) (A) (A) (A) (A) (A) (A) (A) (A) (A)
                 (A) (A) (A) (A) (A) (A) (A) (A) (A) (A) (A) (A)
                 (A) (A) (A) (A) (A) (A) (A) (A) (A) (A) (A) (A)
                 (A) (A) (A) (A) (A) (A) (A) (A) (A) (A) (A) (A)
                 (A) (A) (A) (A) (A) (A) (A) (A) (A) (A) (A) (A)
                 (A) (A) (A) (A) (A) (A) (A) (A) (A) (A) (A) (A)
                 (A) (A) (A) (A) (A) (A) (A) (A) (A) (A) (A) (A)
                 (A) (A) (A) (A) (A) (A) (A) (A) (A) (A) (A) (A)
                 (A) (A) (A) (A) (A) (A) (A) (A) (A) (A) (A) (A)
                 (A) (A) (A) (A) (A) (A) (A) (A)
       Virtual   (A) (A) (A) (A) (A) (A) (A) (A) (A) (A) (A) (A)
                 (A) (A) (A) (A) (A) (A) (A) (A) (A) (A) (A) (A)
                 (A) (A) (A) (A) (A) (A) (A) (A) (A) (A) (A) (A)
                 (A) (A) (A) (A) (A) (A) (A) (A) (A) (A) (A) (A)
                 (A) (A) (A) (A) (A) (A) (A) (A) (A) (A) (A) (A)
                 (A) (A) (A) (A) (A) (A) (A) (A) (A) (A) (A) (A)
                 (A) (A) (A) (A) (A) (A) (A) (A) (A) (A) (A) (A)
                 (A) (A) (A) (A) (A) (A) (A) (A) (A) (A) (A) (A)
                 (A) (A) (A) (A) (A) (A) (A) (A) (A) (A) (A) (A)
                 (A) (A) (A) (A) (A) (A) (A) (A) (A) (A) (A) (A)
                 (A) (A) (A) (A) (A) (A) (A) (A) (A) (A) (A) (A)
                 (A) (A) (A) (A) (A) (A) (A) (A) (A) (A) (A) (A)
                 (A) (A) (A) (A) (A) (A) (A) (A) (A) (A) (A) (A)
                 (A) (A) (A) (A) (A) (A) (A) (A) (A) (A) (A) (A)
                 (A) (A) (A) (A) (A) (A) (A) (A) (A) (A) (A) (A)
                 (A) (A) (A) (A) (A) (A) (A) (A) (A) (A) (A) (A)
                 (A) (A) (A) (A) (A) (A) (A) (A) (A) (A) (A) (A)
                 (A) (A) (A) (A) (A) (A) (A) (A) (A) (A) (A) (A)
                 (A) (A) (A) (A) (A) (A) (A) (A) (A) (A) (A) (A)
                 (A) (A) (A) (A) (A) (A) (A) (A) (A) (A) (A) (A)
                 (A) (A) (A) (A) (A) (A) (A) (A) (A) (A) (A) (A)
                 (A) (A) (A) (A) (A) (A) (A) (A) (A) (A) (A) (A)
                 (A) (A) (A) (A) (A) (A) (A) (A) (A) (A) (A) (A)
                 (A) (A) (A) (A) (A) (A) (A) (A) (A) (A) (A) (A)
                 (A) (A) (A) (A) (A) (A) (A) (A) (A) (A) (A) (A)
                 (A) (A) (A) (A) (A) (A) (A) (A) (A) (A) (A) (A)
                 (A) (A) (A) (A) (A) (A) (A) (A) (A) (A) (A) (A)
                 (A) (A) (A) (A) (A) (A) (A) (A) (A) (A) (A) (A)
                 (A) (A) (A) (A) (A) (A) (A) (A) (A) (A) (A) (A)
                 (A) (A) (A) (A) (A) (A) (A) (A) (A) (A) (A) (A)
                 (A) (A) (A) (A) (A) (A) (A) (A) (A) (A) (A) (A)
                 (A) (A) (A) (A) (A) (A) (A) (A) (A) (A) (A) (A)
                 (A) (A) (A) (A) (A) (A) (A) (A) (A) (A) (A) (A)
                 (A) (A) (A) (A) (A) (A) (A) (A) (A) (A) (A) (A)
                 (A) (A) (A) (A) (A) (A) (A) (A) (A) (A) (A) (A)
                 (A) (A) (A) (A) (A) (A) (A) (A) (A) (A) (A) (A)
                 (A) (A) (A) (A) (A) (A) (A) (A) (A) (A) (A) (A)
                 (A) (A) (A) (A) (A) (A) (A) (A) (A) (A) (A) (A)
                 (A) (A) (A) (A) (A) (A) (A) (A) (A) (A) (A) (A)
                 (A) (A) (A) (A) (A) (A) (A) (A) (A) (A) (A) (A)
                 (A) (A) (A) (A) (A) (A) (A) (A) (A) (A) (A) (A)
                 (A) (A) (A) (A) (A) (A) (A) (A) (A) (A) (A) (A)
                 (A) (A) (A) (A) (A) (A) (A) (A) (A) (A) (A) (A)
                 (A) (A) (A) (A) (A) (A) (A) (A) (A) (A) (A) (A)
                 (A) (A) (A) (A) (A) (A) (A) (A) (A) (A) (A) (A)
                 (A) (A) (A) (A) (A) (A) (A) (A) (A) (A) (A) (A)
                 (A) (A) (A) (A) (A) (A) (A) (A) (A) (A) (A) (A)
                 (A) (A) (A) (A) (A) (A) (A) (A) (A) (A) (A) (A)
                 (A) (A) (A) (A) (A) (A) (A) (A) (A) (A) (A) (A)
                 (A) (A) (A) (A) (A) (A) (A) (A) (A) (A) (A) (A)
                 (A) (A) (A) (A) (A) (A) (A) (A) (A) (A) (A) (A)
                 (A) (A) (A) (A) (A) (A) (A) (A) (A) (A) (A) (A)
                 (A) (A) (A) (A) (A) (A) (A) (A) (A) (A) (A) (A)
                 (A) (A) (A) (A) (A) (A) (A) (A) (A) (A) (A) (A)
                 (A) (A) (A) (A) (A) (A) (A) (A) (A) (A) (A) (A)
                 (A) (A) (A) (A) (A) (A) (A) (A) (A) (A) (A) (A)
                 (A) (A) (A) (A) (A) (A) (A) (A) (A) (A) (A) (A)
                 (A) (A) (A) (A) (A) (A) (A) (A) (A) (A) (A) (A)
                 (A) (A) (A) (A) (A) (A) (A) (A) (A) (A) (A) (A)
                 (A) (A) (A) (A) (A) (A) (A) (A) (A) (A) (A) (A)
                 (A) (A) (A) (A) (A) (A) (A) (A) (A) (A) (A) (A)
                 (A) (A) (A) (A) (A) (A) (A) (A) (A) (A) (A) (A)
                 (A) (A) (A) (A) (A) (A) (A) (A) (A) (A) (A) (A)
                 (A) (A) (A) (A) (A) (A) (A) (A) (A) (A) (A) (A)
                 (A) (A) (A) (A) (A) (A) (A) (A)
 The electronic state is 1-A.
 Alpha  occ. eigenvalues --  -19.22709 -19.22269 -19.21432 -19.20133 -10.32897
 Alpha  occ. eigenvalues --  -10.32436 -10.32029 -10.31091 -10.30751 -10.30099
 Alpha  occ. eigenvalues --  -10.28773 -10.28707 -10.28645 -10.28499 -10.28221
 Alpha  occ. eigenvalues --  -10.28119 -10.27967 -10.27646 -10.27529 -10.27475
 Alpha  occ. eigenvalues --  -10.27354 -10.27318 -10.27294 -10.27288 -10.27231
 Alpha  occ. eigenvalues --  -10.27230 -10.27178 -10.27153 -10.27062 -10.27053
 Alpha  occ. eigenvalues --  -10.26546 -10.26519 -10.26411 -10.26335 -10.26210
 Alpha  occ. eigenvalues --  -10.26006 -10.25943 -10.25904 -10.25763 -10.24629
 Alpha  occ. eigenvalues --  -10.24203 -10.23978 -10.23336 -10.23039  -1.13724
 Alpha  occ. eigenvalues --   -1.11396  -1.11164  -1.08004  -0.93486  -0.92658
 Alpha  occ. eigenvalues --   -0.92356  -0.91706  -0.91037  -0.90351  -0.88149
 Alpha  occ. eigenvalues --   -0.87645  -0.86611  -0.85830  -0.84697  -0.83380
 Alpha  occ. eigenvalues --   -0.82108  -0.81077  -0.79866  -0.78431  -0.77784
 Alpha  occ. eigenvalues --   -0.76714  -0.76375  -0.76199  -0.75744  -0.75245
 Alpha  occ. eigenvalues --   -0.75031  -0.73889  -0.72819  -0.71060  -0.70395
 Alpha  occ. eigenvalues --   -0.69128  -0.67002  -0.65645  -0.65075  -0.64736
 Alpha  occ. eigenvalues --   -0.63163  -0.61738  -0.60622  -0.60585  -0.60205
 Alpha  occ. eigenvalues --   -0.59129  -0.59027  -0.58937  -0.57980  -0.56704
 Alpha  occ. eigenvalues --   -0.56074  -0.55369  -0.54519  -0.54452  -0.54157
 Alpha  occ. eigenvalues --   -0.53815  -0.53597  -0.53306  -0.52926  -0.51832
 Alpha  occ. eigenvalues --   -0.51664  -0.51627  -0.50730  -0.50501  -0.49761
 Alpha  occ. eigenvalues --   -0.49312  -0.49207  -0.49049  -0.48502  -0.48363
 Alpha  occ. eigenvalues --   -0.47896  -0.47091  -0.46966  -0.46890  -0.46551
 Alpha  occ. eigenvalues --   -0.46294  -0.45981  -0.45903  -0.45331  -0.45046
 Alpha  occ. eigenvalues --   -0.44423  -0.44323  -0.44110  -0.43952  -0.43550
 Alpha  occ. eigenvalues --   -0.43349  -0.42932  -0.42903  -0.42677  -0.42145
 Alpha  occ. eigenvalues --   -0.42009  -0.41905  -0.41752  -0.41436  -0.41388
 Alpha  occ. eigenvalues --   -0.40960  -0.40856  -0.40649  -0.40385  -0.40156
 Alpha  occ. eigenvalues --   -0.39784  -0.39623  -0.39303  -0.39242  -0.38975
 Alpha  occ. eigenvalues --   -0.38154  -0.38134  -0.37951  -0.37160  -0.36865
 Alpha  occ. eigenvalues --   -0.36637  -0.36532  -0.35439  -0.34926  -0.34319
 Alpha  occ. eigenvalues --   -0.32922  -0.32772  -0.31998  -0.31116  -0.30585
 Alpha  occ. eigenvalues --   -0.29587  -0.28180  -0.24647  -0.18703
 Alpha virt. eigenvalues --   -0.07528  -0.01243   0.02853   0.05173   0.06194
 Alpha virt. eigenvalues --    0.07948   0.09740   0.09901   0.10592   0.10938
 Alpha virt. eigenvalues --    0.11359   0.11572   0.11965   0.12702   0.13248
 Alpha virt. eigenvalues --    0.13887   0.13966   0.14600   0.14760   0.14826
 Alpha virt. eigenvalues --    0.15613   0.15826   0.16171   0.16243   0.16332
 Alpha virt. eigenvalues --    0.16738   0.17079   0.17229   0.17522   0.17681
 Alpha virt. eigenvalues --    0.17833   0.17838   0.18436   0.18831   0.18928
 Alpha virt. eigenvalues --    0.19046   0.19542   0.20148   0.20270   0.20578
 Alpha virt. eigenvalues --    0.20841   0.21152   0.21353   0.21490   0.21647
 Alpha virt. eigenvalues --    0.21994   0.22117   0.22148   0.22201   0.22380
 Alpha virt. eigenvalues --    0.22403   0.22854   0.22988   0.23027   0.23477
 Alpha virt. eigenvalues --    0.24007   0.24202   0.24471   0.24685   0.24953
 Alpha virt. eigenvalues --    0.25511   0.25891   0.26132   0.26501   0.26576
 Alpha virt. eigenvalues --    0.27098   0.27188   0.27820   0.27999   0.28123
 Alpha virt. eigenvalues --    0.28656   0.28754   0.29077   0.29312   0.29430
 Alpha virt. eigenvalues --    0.29603   0.29942   0.30754   0.30931   0.31246
 Alpha virt. eigenvalues --    0.31491   0.31793   0.31980   0.32938   0.33357
 Alpha virt. eigenvalues --    0.33535   0.33642   0.35758   0.36679   0.37101
 Alpha virt. eigenvalues --    0.37338   0.37649   0.38417   0.38735   0.39176
 Alpha virt. eigenvalues --    0.40723   0.40925   0.41287   0.42363   0.42791
 Alpha virt. eigenvalues --    0.43945   0.44175   0.44733   0.45165   0.46164
 Alpha virt. eigenvalues --    0.46846   0.48186   0.49520   0.50639   0.50909
 Alpha virt. eigenvalues --    0.53274   0.53852   0.54679   0.55088   0.55249
 Alpha virt. eigenvalues --    0.55718   0.56326   0.57090   0.57491   0.57774
 Alpha virt. eigenvalues --    0.58529   0.58726   0.59057   0.59308   0.59553
 Alpha virt. eigenvalues --    0.59744   0.60086   0.60207   0.60692   0.60766
 Alpha virt. eigenvalues --    0.61263   0.61440   0.62357   0.62547   0.62899
 Alpha virt. eigenvalues --    0.63085   0.63164   0.63384   0.63747   0.64143
 Alpha virt. eigenvalues --    0.64347   0.64853   0.64946   0.65317   0.65455
 Alpha virt. eigenvalues --    0.65756   0.66232   0.66328   0.66738   0.66853
 Alpha virt. eigenvalues --    0.67115   0.67303   0.67627   0.67950   0.68889
 Alpha virt. eigenvalues --    0.69202   0.69507   0.69787   0.70041   0.70518
 Alpha virt. eigenvalues --    0.70611   0.70836   0.71345   0.71386   0.72091
 Alpha virt. eigenvalues --    0.72215   0.72390   0.73246   0.74052   0.74583
 Alpha virt. eigenvalues --    0.74747   0.74951   0.75001   0.75498   0.75672
 Alpha virt. eigenvalues --    0.76341   0.76896   0.77392   0.77539   0.77606
 Alpha virt. eigenvalues --    0.77708   0.78155   0.79389   0.79717   0.79826
 Alpha virt. eigenvalues --    0.80020   0.80436   0.80633   0.80813   0.80983
 Alpha virt. eigenvalues --    0.81580   0.82137   0.82367   0.82512   0.83353
 Alpha virt. eigenvalues --    0.83443   0.83531   0.83790   0.83972   0.84255
 Alpha virt. eigenvalues --    0.84771   0.85413   0.85434   0.85767   0.86168
 Alpha virt. eigenvalues --    0.86343   0.87089   0.87173   0.87241   0.87544
 Alpha virt. eigenvalues --    0.88023   0.88339   0.88544   0.88777   0.89018
 Alpha virt. eigenvalues --    0.89619   0.89890   0.90214   0.90446   0.90552
 Alpha virt. eigenvalues --    0.91012   0.91172   0.91424   0.91567   0.91708
 Alpha virt. eigenvalues --    0.91976   0.92234   0.92903   0.93328   0.93410
 Alpha virt. eigenvalues --    0.93573   0.94257   0.94409   0.94431   0.94627
 Alpha virt. eigenvalues --    0.94899   0.95054   0.95541   0.95905   0.96148
 Alpha virt. eigenvalues --    0.96228   0.96697   0.96919   0.96944   0.97303
 Alpha virt. eigenvalues --    0.97671   0.98527   0.98751   0.98884   0.99041
 Alpha virt. eigenvalues --    0.99098   0.99446   0.99910   1.00368   1.00622
 Alpha virt. eigenvalues --    1.01508   1.01725   1.02074   1.02328   1.02697
 Alpha virt. eigenvalues --    1.02811   1.03669   1.04544   1.04617   1.04887
 Alpha virt. eigenvalues --    1.06046   1.06117   1.06899   1.06976   1.07447
 Alpha virt. eigenvalues --    1.08407   1.08660   1.08916   1.09190   1.10273
 Alpha virt. eigenvalues --    1.10344   1.10643   1.11320   1.11634   1.11734
 Alpha virt. eigenvalues --    1.12673   1.12957   1.13505   1.14271   1.14938
 Alpha virt. eigenvalues --    1.15817   1.16361   1.16942   1.17991   1.18242
 Alpha virt. eigenvalues --    1.18512   1.18697   1.19493   1.20402   1.21413
 Alpha virt. eigenvalues --    1.21582   1.21820   1.22306   1.22805   1.23250
 Alpha virt. eigenvalues --    1.24244   1.24726   1.25088   1.25876   1.26583
 Alpha virt. eigenvalues --    1.27271   1.28166   1.28484   1.28711   1.29117
 Alpha virt. eigenvalues --    1.30062   1.31007   1.31517   1.32512   1.32820
 Alpha virt. eigenvalues --    1.32911   1.33683   1.35417   1.36557   1.36877
 Alpha virt. eigenvalues --    1.38004   1.38185   1.38683   1.38842   1.40066
 Alpha virt. eigenvalues --    1.40499   1.40901   1.41882   1.43177   1.43533
 Alpha virt. eigenvalues --    1.44077   1.44133   1.46154   1.46321   1.46956
 Alpha virt. eigenvalues --    1.47977   1.48964   1.49629   1.50039   1.50580
 Alpha virt. eigenvalues --    1.52225   1.52692   1.53729   1.54225   1.54335
 Alpha virt. eigenvalues --    1.54750   1.56211   1.56848   1.57735   1.58185
 Alpha virt. eigenvalues --    1.58498   1.58979   1.59637   1.59758   1.59891
 Alpha virt. eigenvalues --    1.61349   1.61827   1.62489   1.63009   1.63470
 Alpha virt. eigenvalues --    1.64591   1.66422   1.66608   1.67872   1.68494
 Alpha virt. eigenvalues --    1.69024   1.69081   1.70033   1.70395   1.70828
 Alpha virt. eigenvalues --    1.70929   1.72231   1.72806   1.73166   1.74800
 Alpha virt. eigenvalues --    1.76046   1.76621   1.76989   1.77558   1.78184
 Alpha virt. eigenvalues --    1.78976   1.79105   1.79819   1.80056   1.80250
 Alpha virt. eigenvalues --    1.80462   1.80787   1.81167   1.81614   1.81882
 Alpha virt. eigenvalues --    1.82594   1.83530   1.83647   1.84155   1.85186
 Alpha virt. eigenvalues --    1.85555   1.85903   1.86103   1.86319   1.87081
 Alpha virt. eigenvalues --    1.87377   1.87782   1.89119   1.89584   1.89908
 Alpha virt. eigenvalues --    1.90404   1.90561   1.91143   1.91266   1.91661
 Alpha virt. eigenvalues --    1.92359   1.92554   1.93064   1.93484   1.93645
 Alpha virt. eigenvalues --    1.94019   1.94630   1.95268   1.95515   1.95664
 Alpha virt. eigenvalues --    1.96365   1.96858   1.97000   1.97734   1.97989
 Alpha virt. eigenvalues --    1.98243   1.98827   1.99000   1.99853   2.00007
 Alpha virt. eigenvalues --    2.00448   2.00823   2.01145   2.01291   2.01990
 Alpha virt. eigenvalues --    2.02363   2.03063   2.03404   2.03468   2.03592
 Alpha virt. eigenvalues --    2.03851   2.04255   2.04322   2.04835   2.05143
 Alpha virt. eigenvalues --    2.06212   2.06448   2.07026   2.07564   2.07931
 Alpha virt. eigenvalues --    2.08415   2.08560   2.09027   2.09835   2.10016
 Alpha virt. eigenvalues --    2.10829   2.11165   2.11532   2.12000   2.12497
 Alpha virt. eigenvalues --    2.12718   2.13547   2.13979   2.14415   2.14663
 Alpha virt. eigenvalues --    2.14821   2.15421   2.15524   2.16164   2.16467
 Alpha virt. eigenvalues --    2.16637   2.17476   2.17785   2.17973   2.18371
 Alpha virt. eigenvalues --    2.18791   2.18824   2.18879   2.19222   2.19469
 Alpha virt. eigenvalues --    2.20363   2.20675   2.20782   2.21367   2.22104
 Alpha virt. eigenvalues --    2.22724   2.23003   2.23898   2.24179   2.24887
 Alpha virt. eigenvalues --    2.25020   2.25172   2.25300   2.26178   2.26297
 Alpha virt. eigenvalues --    2.26837   2.27025   2.27149   2.28698   2.28901
 Alpha virt. eigenvalues --    2.29131   2.29616   2.30045   2.30336   2.31198
 Alpha virt. eigenvalues --    2.31773   2.32048   2.32976   2.33302   2.34178
 Alpha virt. eigenvalues --    2.34253   2.34709   2.35655   2.35795   2.36679
 Alpha virt. eigenvalues --    2.36720   2.37578   2.37994   2.38567   2.38689
 Alpha virt. eigenvalues --    2.39322   2.39604   2.39861   2.40462   2.40747
 Alpha virt. eigenvalues --    2.41029   2.41832   2.41982   2.42588   2.43352
 Alpha virt. eigenvalues --    2.43711   2.44095   2.44395   2.44867   2.45536
 Alpha virt. eigenvalues --    2.45982   2.46247   2.46551   2.46657   2.47243
 Alpha virt. eigenvalues --    2.47850   2.48467   2.48664   2.48880   2.49260
 Alpha virt. eigenvalues --    2.49786   2.50113   2.51305   2.51988   2.52116
 Alpha virt. eigenvalues --    2.53051   2.53525   2.53677   2.53956   2.54717
 Alpha virt. eigenvalues --    2.55393   2.55501   2.56406   2.56838   2.57234
 Alpha virt. eigenvalues --    2.57558   2.57860   2.58516   2.58857   2.59102
 Alpha virt. eigenvalues --    2.59678   2.59817   2.60519   2.60936   2.61290
 Alpha virt. eigenvalues --    2.62042   2.62581   2.62748   2.63233   2.63445
 Alpha virt. eigenvalues --    2.63794   2.64335   2.64678   2.65220   2.65418
 Alpha virt. eigenvalues --    2.65968   2.66440   2.66852   2.67272   2.67616
 Alpha virt. eigenvalues --    2.68427   2.68704   2.69234   2.69371   2.69558
 Alpha virt. eigenvalues --    2.69985   2.70462   2.70954   2.71804   2.72153
 Alpha virt. eigenvalues --    2.72584   2.73472   2.73991   2.74028   2.74262
 Alpha virt. eigenvalues --    2.74321   2.75020   2.75073   2.75679   2.76138
 Alpha virt. eigenvalues --    2.77084   2.77959   2.78249   2.78570   2.78995
 Alpha virt. eigenvalues --    2.79461   2.80090   2.80370   2.80747   2.80778
 Alpha virt. eigenvalues --    2.81359   2.82304   2.82483   2.82763   2.82978
 Alpha virt. eigenvalues --    2.83455   2.84109   2.84341   2.85206   2.85529
 Alpha virt. eigenvalues --    2.86197   2.86452   2.87350   2.87978   2.88172
 Alpha virt. eigenvalues --    2.88960   2.89289   2.89339   2.89832   2.90921
 Alpha virt. eigenvalues --    2.91108   2.92804   2.93176   2.93582   2.94898
 Alpha virt. eigenvalues --    2.95125   2.95835   2.97198   2.97314   2.97952
 Alpha virt. eigenvalues --    2.98388   2.99450   2.99665   3.00160   3.01178
 Alpha virt. eigenvalues --    3.01263   3.02505   3.02997   3.04030   3.04082
 Alpha virt. eigenvalues --    3.04274   3.04823   3.05198   3.05974   3.07196
 Alpha virt. eigenvalues --    3.07960   3.09062   3.09684   3.09976   3.11109
 Alpha virt. eigenvalues --    3.11558   3.11605   3.12419   3.12670   3.13946
 Alpha virt. eigenvalues --    3.14379   3.14416   3.14875   3.17424   3.19112
 Alpha virt. eigenvalues --    3.19693   3.19948   3.20347   3.20932   3.21679
 Alpha virt. eigenvalues --    3.22556   3.24597   3.24815   3.28796   3.30458
 Alpha virt. eigenvalues --    3.30765   3.32552   3.32954   3.33730   3.36026
 Alpha virt. eigenvalues --    3.36586   3.38066   3.39125   3.39869   3.40561
 Alpha virt. eigenvalues --    3.41430   3.41504   3.42207   3.42898   3.45710
 Alpha virt. eigenvalues --    3.45998   3.46937   3.47145   3.47416   3.47967
 Alpha virt. eigenvalues --    3.48631   3.49562   3.50602   3.50988   3.51039
 Alpha virt. eigenvalues --    3.52910   3.53603   3.54867   3.56937   3.57395
 Alpha virt. eigenvalues --    3.57835   3.60718   3.61071   3.62217   3.62769
 Alpha virt. eigenvalues --    3.64969   3.66290   3.66382   3.67979   3.69384
 Alpha virt. eigenvalues --    3.70577   3.71245   3.78312   3.81776   3.88546
 Alpha virt. eigenvalues --    3.97744   4.02851   4.09450   4.12166   4.13958
 Alpha virt. eigenvalues --    4.16509   4.18267   4.19659   4.20179   4.20873
 Alpha virt. eigenvalues --    4.24158   4.25426   4.28083   4.30391   4.33365
 Alpha virt. eigenvalues --    4.34384   4.37329   4.40222   4.42249   4.43234
 Alpha virt. eigenvalues --    4.44825   4.46950   4.47736   4.49602   4.50747
 Alpha virt. eigenvalues --    4.53155   4.54963   4.55988   4.60393   4.61862
 Alpha virt. eigenvalues --    4.63183   4.64016   4.68635   4.70351   4.70781
 Alpha virt. eigenvalues --    4.72099   4.77057   4.79277   4.81943   4.83521
 Alpha virt. eigenvalues --    4.85118   4.87001   4.89965   4.91595   4.95140
 Alpha virt. eigenvalues --    4.96798
          Condensed to atoms (all electrons):
 Mulliken charges:
               1
     1  O   -0.518438
     2  O   -0.530338
     3  O   -0.547754
     4  O   -0.545089
     5  C    0.159605
     6  C    0.280319
     7  C    0.002435
     8  C   -0.226190
     9  C   -0.186963
    10  C    0.139245
    11  C   -0.360999
    12  C   -0.100274
    13  C   -0.296945
    14  C   -0.295764
    15  C   -0.085041
    16  C    0.091194
    17  C   -0.329419
    18  C   -0.117797
    19  C   -0.065223
    20  C    0.055737
    21  C    0.247608
    22  C   -0.243206
    23  C    0.165648
    24  C   -0.144829
    25  C   -0.045294
    26  C   -0.297247
    27  C   -0.317694
    28  C   -0.321596
    29  C   -0.135393
    30  C    0.133373
    31  C    0.150160
    32  C   -0.310494
    33  C   -0.396399
    34  C   -0.121744
    35  C    0.178624
    36  C   -0.390860
    37  C   -0.135309
    38  C   -0.103005
    39  C   -0.102377
    40  C   -0.052402
    41  C   -0.078472
    42  C   -0.128593
    43  C    0.093127
    44  C   -0.343668
    45  H    0.106178
    46  H    0.116528
    47  H    0.103849
    48  H    0.116480
    49  H    0.100217
    50  H    0.120545
    51  H    0.123170
    52  H    0.108272
    53  H    0.115142
    54  H    0.107418
    55  H    0.099233
    56  H    0.094096
    57  H    0.130936
    58  H    0.100955
    59  H    0.073592
    60  H    0.283191
    61  H    0.078015
    62  H    0.122199
    63  H    0.063065
    64  H    0.082887
    65  H    0.096406
    66  H    0.085200
    67  H    0.084006
    68  H    0.091538
    69  H    0.091042
    70  H    0.103656
    71  H    0.107583
    72  H    0.094610
    73  H    0.112547
    74  H    0.100850
    75  H    0.114672
    76  H    0.094213
    77  H    0.091374
    78  H    0.098459
    79  H    0.095194
    80  H    0.119610
    81  H    0.078097
    82  H    0.302398
    83  H    0.302424
    84  H    0.115164
    85  H    0.127540
    86  H    0.101643
    87  H    0.112087
    88  H    0.091152
    89  H    0.121758
    90  H    0.123639
    91  H    0.069781
    92  H    0.069444
    93  H    0.082151
    94  H    0.089730
    95  H    0.052186
    96  H    0.093976
    97  H    0.075485
    98  H    0.133639
    99  H    0.080826
   100  H    0.127686
 Sum of Mulliken charges =  -0.00000
 Mulliken charges with hydrogens summed into heavy atoms:
               1
     1  O   -0.518438
     2  O   -0.247147
     3  O   -0.245355
     4  O   -0.242666
     5  C    0.159605
     6  C    0.280319
     7  C    0.002435
     8  C   -0.003483
     9  C    0.033365
    10  C    0.239462
    11  C   -0.009012
    12  C    0.014868
    13  C    0.003803
    14  C    0.009720
    15  C   -0.007027
    16  C    0.091194
    17  C   -0.061268
    18  C   -0.021391
    19  C    0.019977
    20  C    0.055737
    21  C    0.247608
    22  C   -0.067661
    23  C    0.256690
    24  C    0.066410
    25  C   -0.045294
    26  C    0.010760
    27  C   -0.017436
    28  C   -0.008334
    29  C   -0.057296
    30  C    0.133373
    31  C    0.150160
    32  C   -0.195329
    33  C   -0.055129
    34  C   -0.030592
    35  C    0.178624
    36  C   -0.075682
    37  C   -0.065864
    38  C   -0.020854
    39  C   -0.012646
    40  C   -0.000216
    41  C    0.015505
    42  C   -0.053108
    43  C    0.093127
    44  C   -0.001517
 Electronic spatial extent (au):  <R**2>=         115833.9707
 Charge=             -0.0000 electrons
 Dipole moment (field-independent basis, Debye):
    X=              2.9678    Y=              0.1604    Z=              1.5501  Tot=              3.3521
 Quadrupole moment (field-independent basis, Debye-Ang):
   XX=           -275.6874   YY=           -262.4436   ZZ=           -276.3079
   XY=              1.1920   XZ=             35.9975   YZ=             -2.7786
 Traceless Quadrupole moment (field-independent basis, Debye-Ang):
   XX=             -4.2077   YY=              9.0360   ZZ=             -4.8283
   XY=              1.1920   XZ=             35.9975   YZ=             -2.7786
 Octapole moment (field-independent basis, Debye-Ang**2):
  XXX=            720.8948  YYY=             12.1475  ZZZ=             -7.6412  XYY=             75.6251
  XXY=             84.9904  XXZ=            397.4458  XZZ=             11.1674  YZZ=             -9.5891
  YYZ=            -17.8151  XYZ=           -133.3731
 Hexadecapole moment (field-independent basis, Debye-Ang**3):
 XXXX=        -150071.8019 YYYY=          -3514.9353 ZZZZ=          -2336.2149 XXXY=          -1838.0321
 XXXZ=           7423.5069 YYYX=           -270.0751 YYYZ=            -27.5453 ZZZX=             16.7458
 ZZZY=             10.2314 XXYY=         -26041.5252 XXZZ=         -25608.0864 YYZZ=          -1006.4108
 XXYZ=            283.2190 YYXZ=            237.0989 ZZXY=            118.9895
 N-N= 4.442010333760D+03 E-N=-1.319316867256D+04  KE= 1.839123556449D+03
 1\1\GINC-RYZEN-SSD3\SP\RCAM-B3LYP TD-FC\6-31G(d,p)\C40H56O4\PADAWAN\31
 -Jul-2019\0\\# td=(NStates=1) CAM-B3LYP/6-31G(d,p)\\TD\\0,1\O,0,-11.71
 96986375,0.4645070991,-1.4953566993\O,0,-13.0207029061,-2.4663149395,1
 .3737930643\O,0,10.6658021001,-1.1945293408,-1.9595996863\O,0,14.60256
 36231,-0.8226009816,0.0295284654\C,0,-11.0506932365,-0.0828122359,-0.2
 801474391\C,0,-11.8232886186,-0.9446656465,-1.2337122115\C,0,-11.70757
 28003,0.357612444,1.105010156\C,0,-13.1511303167,-1.4965098089,-0.8510
 667407\C,0,-13.2554240004,0.0115737098,1.0831129992\C,0,-13.5418206156
 ,-1.3887604138,0.5603648038\C,0,-11.2206276515,-1.7705124687,-2.297322
 0505\C,0,-9.5896984136,-0.0224151077,-0.3460615643\C,0,-11.004646442,-
 0.2220678028,2.2921542825\C,0,-11.5556659469,1.9724823513,1.1404421359
 \C,0,-8.6854119629,-0.8718952307,0.1039391329\C,0,-7.3100889985,-0.671
 929039,0.1259402943\C,0,-6.4483388488,-1.9705257414,0.2234345798\C,0,-
 6.7206777295,0.5828891188,-0.1492734825\C,0,-5.3491648581,0.7794399807
 ,-0.2071850487\C,0,11.9905082977,0.0605760871,1.4052200501\C,0,11.7193
 59226,-0.6646626215,-1.1698708668\C,0,12.7868259107,-1.2203162613,1.63
 10278362\C,0,13.6080354902,-1.7925637898,0.3002139858\C,0,12.607235658
 3,-1.8497794869,-0.8483788004\C,0,11.1633432222,-0.0194171938,0.148412
 0215\C,0,11.0156729722,0.1947061126,2.5243947797\C,0,12.8447475915,1.3
 575389747,1.4003630873\C,0,12.4548017864,0.4882376971,-2.0307270205\C,
 0,-4.7329797937,2.0559881048,-0.3142462735\C,0,9.8882900165,0.40275107
 79,-0.015002677\C,0,-3.3846836268,2.4206008138,-0.5203222929\C,0,8.687
 9985859,0.9069070245,-0.1950838484\C,0,-3.1010117863,3.7792193814,-0.8
 188816203\C,0,-2.3380607212,1.4330151502,-0.3882213568\C,0,7.458595402
 ,0.1770282908,-0.0602152056\C,0,7.5513898755,-1.2788348356,0.070096932
 6\C,0,6.2662479728,0.8205589862,-0.1711110471\C,0,-0.9712812596,1.7165
 707808,-0.4913673118\C,0,4.9182934321,0.2053096471,-0.0264712783\C,0,0
 .0732838074,0.9130446144,-0.0750666095\C,0,3.7422336311,0.9273830887,-
 0.1668441534\C,0,1.3675586967,1.1967614038,-0.1719695779\C,0,2.5278706
 876,0.3254418439,-0.0134879909\C,0,2.3095608178,-1.1857127516,0.069215
 5152\H,0,-13.2201138122,-2.6119741752,-1.2327084948\H,0,-13.8533005538
 ,-0.939877972,-1.5891453692\H,0,-13.7191697192,0.1735244212,1.98817149
 98\H,0,-13.6612055142,0.6087059977,0.3360312687\H,0,-14.617069011,-1.5
 632150349,0.6778993942\H,0,-10.821510768,-2.5945162344,-1.9990852039\H
 ,0,-11.6161618251,-1.9422990213,-3.2810863948\H,0,-10.2669688804,-1.41
 18303916,-2.6604776603\H,0,-9.3535640112,0.8515272837,-0.9990937195\H,
 0,-9.8987612037,-0.0520639423,2.2258583286\H,0,-11.4267180327,0.083575
 0591,3.2950878589\H,0,-11.0721179055,-1.1197888554,2.418382628\H,0,-11
 .9703095735,2.4049666187,0.2805212681\H,0,-12.0208383232,2.4566812436,
 2.0436380756\H,0,-10.3189521773,2.0336439549,1.1516494584\H,0,-12.1709
 801705,-2.4404269163,1.2828527642\H,0,-9.1430151434,-1.7692252802,0.67
 17562745\H,0,-6.4370831544,-2.5914124663,-0.7947375182\H,0,-5.14421683
 7,-1.9331785505,0.7655549517\H,0,-6.9129614067,-2.8263949125,1.0299391
 447\H,0,-7.4486561767,1.4652748566,-0.2709267692\H,0,-4.5844150862,-0.
 12648403,-0.3580495807\H,0,13.5578814652,-1.338445532,2.4209370343\H,0
 ,12.052860463,-2.0514045205,1.7640324029\H,0,13.9927716341,-2.65090675
 57,0.6832352494\H,0,13.2639738359,-2.0226087394,-1.8054436391\H,0,12.0
 472447327,-2.5307722011,-0.6461999621\H,0,11.5629459028,0.3724576125,3
 .4327083095\H,0,10.4865656343,1.1241079739,2.402117736\H,0,10.36457407
 86,-0.7573140459,2.6715833995\H,0,13.843321234,1.4629549197,0.78391245
 6\H,0,12.1918918024,2.3037798158,1.1192466304\H,0,13.0794537825,1.6748
 019593,2.470343516\H,0,12.5054113606,0.0812115116,-3.1173241843\H,0,11
 .8118582542,1.3406661575,-2.2665945944\H,0,13.5370845411,0.9113371866,
 -1.706276113\H,0,-5.586500874,2.6908234691,-0.4119826091\H,0,10.034984
 7491,-0.5136700246,-2.0579781336\H,0,15.0695397992,-0.5525850729,1.017
 3503343\H,0,8.5414159924,1.9168940166,-0.5304003172\H,0,-2.2034754317,
 4.2000564553,-0.3048746578\H,0,-2.7259613604,3.9779650213,-1.961039213
 \H,0,-4.0411404991,4.4907372555,-0.8124810496\H,0,-2.5823478549,0.4164
 038524,-0.0045734119\H,0,6.7580185518,-2.0796475269,0.1592184065\H,0,8
 .4606312776,-1.5389486197,-0.5980205762\H,0,8.0267425959,-1.740206349,
 1.1665304139\H,0,6.4652216693,1.8866924746,-0.2310451242\H,0,-0.558527
 2097,2.6941634598,-0.8975196635\H,0,5.0224982362,-0.8190984065,0.23191
 58727\H,0,-0.1349324164,-0.2974515581,0.2213147426\H,0,3.7954687148,1.
 8972653627,-0.5452967547\H,0,1.5171285881,2.149960788,-0.6640191003\H,
 0,1.43205204,-1.5663632405,-0.447225727\H,0,3.3475860834,-1.7511814196
 ,-0.527110481\H,0,2.3452312195,-1.359170146,1.211444431\\Version=ES64L
 -G16RevA.03\State=1-A\HF=-1857.2072269\RMSD=3.298e-09\PG=C01 [X(C40H56
 O4)]\\@


 EXPERIENCE IS THE FRUIT OF THE TREE OF ERRORS.
 Job cpu time:       0 days  7 hours 21 minutes  8.0 seconds.
 Elapsed time:       0 days  2 hours 27 minutes 21.6 seconds.
 File lengths (MBytes):  RWF=   3379 Int=      0 D2E=      0 Chk=     90 Scr=      1
 Normal termination of Gaussian 16 at Wed Jul 31 10:40:00 2019.
