 Entering Gaussian System, Link 0=g16
 Input=Geometria-432-.com
 Output=Geometria-432-.log
 Initial command:
 /usr/local/g16/l1.exe "/home/padawan/israel-mol/neoxanthin/spectra/emi/Gau-953.inp" -scrdir="/home/padawan/israel-mol/neoxanthin/spectra/emi/"
 Entering Link 1 = /usr/local/g16/l1.exe PID=       955.
  
 Copyright (c) 1988,1990,1992,1993,1995,1998,2003,2009,2016,
            Gaussian, Inc.  All Rights Reserved.
  
 This is part of the Gaussian(R) 16 program.  It is based on
 the Gaussian(R) 09 system (copyright 2009, Gaussian, Inc.),
 the Gaussian(R) 03 system (copyright 2003, Gaussian, Inc.),
 the Gaussian(R) 98 system (copyright 1998, Gaussian, Inc.),
 the Gaussian(R) 94 system (copyright 1995, Gaussian, Inc.),
 the Gaussian 92(TM) system (copyright 1992, Gaussian, Inc.),
 the Gaussian 90(TM) system (copyright 1990, Gaussian, Inc.),
 the Gaussian 88(TM) system (copyright 1988, Gaussian, Inc.),
 the Gaussian 86(TM) system (copyright 1986, Carnegie Mellon
 University), and the Gaussian 82(TM) system (copyright 1983,
 Carnegie Mellon University). Gaussian is a federally registered
 trademark of Gaussian, Inc.
  
 This software contains proprietary and confidential information,
 including trade secrets, belonging to Gaussian, Inc.
  
 This software is provided under written license and may be
 used, copied, transmitted, or stored only in accord with that
 written license.
  
 The following legend is applicable only to US Government
 contracts under FAR:
  
                    RESTRICTED RIGHTS LEGEND
  
 Use, reproduction and disclosure by the US Government is
 subject to restrictions as set forth in subparagraphs (a)
 and (c) of the Commercial Computer Software - Restricted
 Rights clause in FAR 52.227-19.
  
 Gaussian, Inc.
 340 Quinnipiac St., Bldg. 40, Wallingford CT 06492
  
  
 ---------------------------------------------------------------
 Warning -- This program may not be used in any manner that
 competes with the business of Gaussian, Inc. or will provide
 assistance to any competitor of Gaussian, Inc.  The licensee
 of this program is prohibited from giving any competitor of
 Gaussian, Inc. access to this program.  By using this program,
 the user acknowledges that Gaussian, Inc. is engaged in the
 business of creating and licensing software in the field of
 computational chemistry and represents and warrants to the
 licensee that it is not a competitor of Gaussian, Inc. and that
 it will not use this program in any manner prohibited above.
 ---------------------------------------------------------------
  

 Cite this work as:
 Gaussian 16, Revision A.03,
 M. J. Frisch, G. W. Trucks, H. B. Schlegel, G. E. Scuseria, 
 M. A. Robb, J. R. Cheeseman, G. Scalmani, V. Barone, 
 G. A. Petersson, H. Nakatsuji, X. Li, M. Caricato, A. V. Marenich, 
 J. Bloino, B. G. Janesko, R. Gomperts, B. Mennucci, H. P. Hratchian, 
 J. V. Ortiz, A. F. Izmaylov, J. L. Sonnenberg, D. Williams-Young, 
 F. Ding, F. Lipparini, F. Egidi, J. Goings, B. Peng, A. Petrone, 
 T. Henderson, D. Ranasinghe, V. G. Zakrzewski, J. Gao, N. Rega, 
 G. Zheng, W. Liang, M. Hada, M. Ehara, K. Toyota, R. Fukuda, 
 J. Hasegawa, M. Ishida, T. Nakajima, Y. Honda, O. Kitao, H. Nakai, 
 T. Vreven, K. Throssell, J. A. Montgomery, Jr., J. E. Peralta, 
 F. Ogliaro, M. J. Bearpark, J. J. Heyd, E. N. Brothers, K. N. Kudin, 
 V. N. Staroverov, T. A. Keith, R. Kobayashi, J. Normand, 
 K. Raghavachari, A. P. Rendell, J. C. Burant, S. S. Iyengar, 
 J. Tomasi, M. Cossi, J. M. Millam, M. Klene, C. Adamo, R. Cammi, 
 J. W. Ochterski, R. L. Martin, K. Morokuma, O. Farkas, 
 J. B. Foresman, and D. J. Fox, Gaussian, Inc., Wallingford CT, 2016.
 
 ******************************************
 Gaussian 16:  ES64L-G16RevA.03 25-Dec-2016
                 1-Aug-2019 
 ******************************************
 %nproc=3
 Will use up to    3 processors via shared memory.
 %Mem=2GB
 -------------------------------------
 # td=(NStates=1) CAM-B3LYP/6-31G(d,p)
 -------------------------------------
 1/38=1,172=1/1;
 2/12=2,17=6,18=5,40=1/2;
 3/5=1,6=6,7=101,11=9,25=1,30=1,74=-40/1,2,3,8;
 4//1;
 5/5=2,38=5/2;
 8/6=1,10=2,108=1/1;
 9/41=1,42=1,70=2/14;
 6/7=2,8=2,9=2,10=2/1;
 99/5=1,9=1/99;
 --
 TD
 --
 Symbolic Z-matrix:
 Charge =  0 Multiplicity = 1
 8                    -11.70556   0.23631  -1.62155 
 8                    -12.9934  -2.39655   1.49996 
 8                     10.71536  -0.96876  -2.1035 
 8                     14.66782  -1.08188   0.14662 
 6                    -11.04063  -0.11258  -0.29478 
 6                    -11.74197  -1.13024  -1.20021 
 6                    -11.90785   0.43574   0.91627 
 6                    -13.1574  -1.73153  -0.86216 
 6                    -13.2944   0.00863   0.8858 
 6                    -13.62715  -1.48553   0.6186 
 6                    -11.01638  -2.01618  -2.10202 
 6                    -9.57129   0.09673  -0.32878 
 6                    -11.1571   0.07203   2.25861 
 6                    -11.77746   2.00097   0.76446 
 6                    -8.7402   -0.78798   0.20805 
 6                    -7.28893  -0.65516   0.17836 
 6                    -6.36365  -1.91033   0.49253 
 6                    -6.60736   0.61701   0.02569 
 6                    -5.29192   0.83512  -0.02719 
 6                     11.92261   0.15484   1.40182 
 6                     11.67418  -0.53072  -1.23597 
 6                     12.61285  -1.3354    1.58219 
 6                     13.42405  -1.81898   0.3717 
 6                     12.38802  -1.83892  -0.89477 
 6                     11.12717   0.09959   0.04726 
 6                     10.95961   0.22643   2.57712 
 6                     12.92261   1.31985   1.34871 
 6                     12.65664   0.37834  -1.97793 
 6                    -4.6569    2.15944  -0.2605 
 6                     9.90073   0.4971    0.00606 
 6                    -3.32939   2.48657  -0.26028 
 6                     8.66646   1.11929  -0.13082 
 6                    -3.01502   4.02597  -0.38077 
 6                    -2.3195    1.50287  -0.27358 
 6                     7.52357   0.21871   0.01473 
 6                     7.7063   -1.249     0.00935 
 6                     6.25331   0.78439  -0.19112 
 6                    -1.04031   1.76585  -0.32851 
 6                     5.04308   0.14322  -0.20131 
 6                     0.04197   0.79735  -0.24441 
 6                     3.87036   0.77776  -0.30122 
 6                     1.45046   1.09571  -0.32431 
 6                     2.50574   0.19345  -0.3216 
 6                     2.29583  -1.28647  -0.12942 
 1                    -13.09186  -2.91991  -1.06583 
 1                    -13.73322  -1.21934  -1.71977 
 1                    -13.82651   0.28476   1.63732 
 1                    -13.81205   0.34499   0.10793 
 1                    -14.74826  -1.69311   0.6558 
 1                    -10.58997  -2.93763  -1.84453 
 1                    -11.58583  -2.16004  -3.16275 
 1                    -10.23525  -1.46164  -2.54061 
 1                    -8.98071   0.92442  -0.95356 
 1                    -10.15716   0.71085   2.10703 
 1                    -11.57998   0.62594   3.04808 
 1                    -11.01419  -0.93084   2.41623 
 1                    -12.29707   2.23899  -0.36493 
 1                    -12.44119   2.22558   1.5047 
 1                    -10.64245   2.43805   0.78603 
 1                    -12.23941  -2.60851   0.82972 
 1                    -9.16512  -1.6521    0.60212 
 1                    -6.08658  -2.21609  -0.54907 
 1                    -5.46213  -1.82314   0.99177 
 1                    -6.95997  -2.77471   0.64679 
 1                    -7.30053   1.35784   0.05945 
 1                    -4.5313   -0.22704  -0.29092 
 1                     13.07581  -1.43499   2.51913 
 1                     11.60637  -2.00756   1.71557 
 1                     13.70607  -2.84496   0.65264 
 1                     12.93818  -2.07268  -1.8178 
 1                     11.65206  -2.6486   -0.70151 
 1                     11.37934   0.16713   3.57038 
 1                     10.29879   1.10655   2.34806 
 1                     10.42373  -0.82937   2.71955 
 1                     13.70641   1.29594   0.53213 
 1                     12.24548   2.25206   1.43893 
 1                     13.5595   1.18452   2.26496 
 1                     12.98618  -0.06992  -2.97424 
 1                     12.13266   1.30943  -2.33423 
 1                     13.66326   0.65289  -1.48507 
 1                    -5.32548   3.11089  -0.3927 
 1                     10.33801  -0.15892  -2.39902 
 1                     14.83035  -0.8227    1.1714 
 1                     8.48298   2.13118  -0.45364 
 1                    -2.23879   4.07544   0.40039 
 1                    -2.41433   4.08636  -1.37857 
 1                    -3.81657   4.71942  -0.39633 
 1                    -2.52107   0.28775  -0.1299 
 1                     6.77835  -1.84485   0.23876 
 1                     8.50992  -1.69518  -0.80852 
 1                     8.22515  -1.59984   0.95708 
 1                     6.20697   1.85133  -0.15056 
 1                    -0.72669   2.95873  -0.05936 
 1                     5.16115  -1.03485  -0.052 
 1                    -0.19496  -0.26241  -0.22455 
 1                     3.89972   1.90586  -0.49416 
 1                     1.7553    1.94391  -0.48803 
 1                     1.29741  -1.47368  -0.76695 
 1                     3.28531  -1.88817  -0.66447 
 1                     2.0505   -1.2979    1.17714 
 
 Stoichiometry    C40H56O4
 Framework group  C1[X(C40H56O4)]
 Deg. of freedom   294
 Full point group                 C1      NOp   1
 Largest Abelian subgroup         C1      NOp   1
 Largest concise Abelian subgroup C1      NOp   1
                         Standard orientation:                         
 ---------------------------------------------------------------------
 Center     Atomic      Atomic             Coordinates (Angstroms)
 Number     Number       Type             X           Y           Z
 ---------------------------------------------------------------------
      1          8           0      -11.705271    0.162465   -1.627128
      2          8           0      -12.994303   -2.311909    1.620973
      3          8           0       10.715152   -1.074321   -2.047650
      4          8           0       14.667503   -1.077416    0.205511
      5          6           0      -11.040530   -0.120510   -0.284663
      6          6           0      -11.742267   -1.181515   -1.138575
      7          6           0      -11.907557    0.487517    0.897678
      8          6           0      -13.157958   -1.764722   -0.771206
      9          6           0      -13.294279    0.060000    0.888349
     10          6           0      -13.627646   -1.445432    0.695516
     11          6           0      -11.017017   -2.111358   -1.995333
     12          6           0       -9.571096    0.086239   -0.328923
     13          6           0      -11.156997    0.190476    2.256433
     14          6           0      -11.776505    2.043239    0.668485
     15          6           0       -8.740392   -0.771114    0.251137
     16          6           0       -7.289065   -0.640532    0.214969
     17          6           0       -6.364321   -1.878974    0.591017
     18          6           0       -6.606960    0.622224   -0.000526
     19          6           0       -5.291430    0.836892   -0.064087
     20          6           0       11.922774    0.221130    1.397735
     21          6           0       11.674138   -0.594221   -1.202844
     22          6           0       12.612384   -1.258618    1.651783
     23          6           0       13.423416   -1.801937    0.466788
     24          6           0       12.387421   -1.884197   -0.797193
     25          6           0       11.127348    0.099149    0.047540
     26          6           0       10.959766    0.351289    2.567994
     27          6           0       12.923255    1.381660    1.286994
     28          6           0       12.656995    0.276535   -1.988904
     29          6           0       -4.655854    2.147759   -0.362723
     30          6           0        9.901077    0.494633   -0.013375
     31          6           0       -3.328204    2.473946   -0.378647
     32          6           0        8.667066    1.109784   -0.180983
     33          6           0       -3.013193    4.005358   -0.575275
     34          6           0       -2.318724    1.490381   -0.343127
     35          6           0        7.523801    0.218004    0.008968
     36          6           0        7.705913   -1.248249    0.076349
     37          6           0        6.253778    0.773306   -0.224735
     38          6           0       -1.039423    1.749778   -0.410962
     39          6           0        5.043280    0.132929   -0.203189
     40          6           0        0.042450    0.786195   -0.278911
     41          6           0        3.870829    0.762219   -0.334484
     42          6           0        1.451063    1.079641   -0.373432
     43          6           0        2.505968    0.178184   -0.325946
     44          6           0        2.295436   -1.290306   -0.060667
     45          1           0      -13.092908   -2.961765   -0.915725
     46          1           0      -13.733537   -1.295422   -1.653178
     47          1           0      -13.826298    0.373253    1.625226
     48          1           0      -13.811769    0.357603    0.094733
     49          1           0      -14.748847   -1.650446    0.742899
     50          1           0      -10.590999   -3.019093   -1.692464
     51          1           0      -11.586498   -2.307383   -3.047659
     52          1           0      -10.235642   -1.579560   -2.460824
     53          1           0       -8.980153    0.881707   -0.993930
     54          1           0      -10.156781    0.820583    2.073421
     55          1           0      -11.579670    0.783009    3.017459
     56          1           0      -11.014510   -0.803409    2.463574
     57          1           0      -12.295987    2.225209   -0.471348
     58          1           0      -12.440165    2.304542    1.396649
     59          1           0      -10.641320    2.480389    0.668419
     60          1           0      -12.240379   -2.557148    0.962102
     61          1           0       -9.165684   -1.614470    0.687532
     62          1           0       -6.087347   -2.236105   -0.434139
     63          1           0       -5.462778   -1.767519    1.085362
     64          1           0       -6.961002   -2.734398    0.787900
     65          1           0       -7.299827    1.364106   -0.003569
     66          1           0       -4.531246   -0.237350   -0.274816
     67          1           0       13.075280   -1.311837    2.592525
     68          1           0       11.605617   -1.922926    1.818260
     69          1           0       13.705006   -2.812848    0.798250
     70          1           0       12.937508   -2.163653   -1.707476
     71          1           0       11.651109   -2.683002   -0.564067
     72          1           0       11.379442    0.341116    3.562995
     73          1           0       10.299319    1.219245    2.295562
     74          1           0       10.423444   -0.695932    2.762551
     75          1           0       13.707071    1.316983    0.472641
     76          1           0       12.246513    2.317486    1.330865
     77          1           0       13.560069    1.291653    2.208862
     78          1           0       12.986375   -0.220693   -2.961754
     79          1           0       12.133412    1.189044   -2.390942
     80          1           0       13.663711    0.574762   -1.510211
     81          1           0       -5.324036    3.091762   -0.541951
     82          1           0       10.338147   -0.279975   -2.382963
     83          1           0       14.830107   -0.767835    1.216189
     84          1           0        8.484021    2.104503   -0.553575
     85          1           0       -2.236961    4.093163    0.202505
     86          1           0       -2.412446    4.015960   -1.574815
     87          1           0       -3.814448    4.697513   -0.625228
     88          1           0       -2.520808    0.283959   -0.139403
     89          1           0        6.777713   -1.831613    0.334960
     90          1           0        8.509371   -1.734754   -0.718363
     91          1           0        8.224596   -1.551900    1.040328
     92          1           0        6.207881    1.840968   -0.237104
     93          1           0       -0.725319    2.954406   -0.201247
     94          1           0        5.160861   -1.036345    0.004330
     95          1           0       -0.194922   -0.271181   -0.206556
     96          1           0        3.900667    1.879355   -0.583103
     97          1           0        1.756267    1.918556   -0.578973
     98          1           0        1.296955   -1.508471   -0.688177
     99          1           0        3.284681   -1.918189   -0.565187
    100          1           0        2.050066   -1.236862    1.244847
 ---------------------------------------------------------------------
 Rotational constants (GHZ):           0.2648221           0.0087814           0.0087048
 Standard basis: 6-31G(d,p) (6D, 7F)
 There are   940 symmetry adapted cartesian basis functions of A   symmetry.
 There are   940 symmetry adapted basis functions of A   symmetry.
   940 basis functions,  1624 primitive gaussians,   940 cartesian basis functions
   164 alpha electrons      164 beta electrons
       nuclear repulsion energy      4430.4569980230 Hartrees.
 NAtoms=  100 NActive=  100 NUniq=  100 SFac= 1.00D+00 NAtFMM=   60 NAOKFM=T Big=T
 Integral buffers will be    131072 words long.
 Raffenetti 1 integral format.
 Two-electron integral symmetry is turned on.
 One-electron integrals computed using PRISM.
 NBasis=   940 RedAO= T EigKep=  4.40D-04  NBF=   940
 NBsUse=   940 1.00D-06 EigRej= -1.00D+00 NBFU=   940
 ExpMin= 1.61D-01 ExpMax= 5.48D+03 ExpMxC= 8.25D+02 IAcc=3 IRadAn=         5 AccDes= 0.00D+00
 Harris functional with IExCor=20419 and IRadAn=       5 diagonalized for initial guess.
 HarFok:  IExCor=20419 AccDes= 0.00D+00 IRadAn=         5 IDoV= 1 UseB2=F ITyADJ=14
 ICtDFT=  3500011 ScaDFX=  1.000000  1.000000  1.000000  1.000000
 FoFCou: FMM=F IPFlag=           0 FMFlag=      100000 FMFlg1=        2001
         NFxFlg=           0 DoJE=T BraDBF=F KetDBF=T FulRan=T
         wScrn=  0.000000 ICntrl=       500 IOpCl=  0 I1Cent=   200000004 NGrid=           0
         NMat0=    1 NMatS0=      1 NMatT0=    0 NMatD0=    1 NMtDS0=    0 NMtDT0=    0
 Petite list used in FoFCou.
 Requested convergence on RMS density matrix=1.00D-08 within 128 cycles.
 Requested convergence on MAX density matrix=1.00D-06.
 Requested convergence on             energy=1.00D-06.
 No special actions if energy rises.
 Integral accuracy reduced to 1.0D-05 until final iterations.
 Initial convergence to 1.0D-05 achieved.  Increase integral accuracy.
 SCF Done:  E(RCAM-B3LYP) =  -1857.18291538     A.U. after   18 cycles
            NFock= 18  Conv=0.38D-08     -V/T= 2.0104
 DoSCS=F DFT=T ScalE2(SS,OS)=  1.000000  1.000000
 ExpMin= 1.61D-01 ExpMax= 5.48D+03 ExpMxC= 8.25D+02 IAcc=3 IRadAn=         5 AccDes= 0.00D+00
 HarFok:  IExCor=  205 AccDes= 0.00D+00 IRadAn=         5 IDoV=-2 UseB2=F ITyADJ=14
 ICtDFT= 12500011 ScaDFX=  1.000000  1.000000  1.000000  1.000000
 GSVD:  LWork=       -2288 too small for GESVD, short by       10340 words or       10340 for optimal perf.
 Range of M.O.s used for correlation:    45   940
 NBasis=   940 NAE=   164 NBE=   164 NFC=    44 NFV=     0
 NROrb=    896 NOA=   120 NOB=   120 NVA=   776 NVB=   776
 Orbital symmetries:
       Occupied  (A) (A) (A) (A) (A) (A) (A) (A) (A) (A) (A) (A)
                 (A) (A) (A) (A) (A) (A) (A) (A) (A) (A) (A) (A)
                 (A) (A) (A) (A) (A) (A) (A) (A) (A) (A) (A) (A)
                 (A) (A) (A) (A) (A) (A) (A) (A) (A) (A) (A) (A)
                 (A) (A) (A) (A) (A) (A) (A) (A) (A) (A) (A) (A)
                 (A) (A) (A) (A) (A) (A) (A) (A) (A) (A) (A) (A)
                 (A) (A) (A) (A) (A) (A) (A) (A) (A) (A) (A) (A)
                 (A) (A) (A) (A) (A) (A) (A) (A) (A) (A) (A) (A)
                 (A) (A) (A) (A) (A) (A) (A) (A) (A) (A) (A) (A)
                 (A) (A) (A) (A) (A) (A) (A) (A) (A) (A) (A) (A)
                 (A) (A) (A) (A) (A) (A) (A) (A) (A) (A) (A) (A)
                 (A) (A) (A) (A) (A) (A) (A) (A) (A) (A) (A) (A)
                 (A) (A) (A) (A) (A) (A) (A) (A) (A) (A) (A) (A)
                 (A) (A) (A) (A) (A) (A) (A) (A)
       Virtual   (A) (A) (A) (A) (A) (A) (A) (A) (A) (A) (A) (A)
                 (A) (A) (A) (A) (A) (A) (A) (A) (A) (A) (A) (A)
                 (A) (A) (A) (A) (A) (A) (A) (A) (A) (A) (A) (A)
                 (A) (A) (A) (A) (A) (A) (A) (A) (A) (A) (A) (A)
                 (A) (A) (A) (A) (A) (A) (A) (A) (A) (A) (A) (A)
                 (A) (A) (A) (A) (A) (A) (A) (A) (A) (A) (A) (A)
                 (A) (A) (A) (A) (A) (A) (A) (A) (A) (A) (A) (A)
                 (A) (A) (A) (A) (A) (A) (A) (A) (A) (A) (A) (A)
                 (A) (A) (A) (A) (A) (A) (A) (A) (A) (A) (A) (A)
                 (A) (A) (A) (A) (A) (A) (A) (A) (A) (A) (A) (A)
                 (A) (A) (A) (A) (A) (A) (A) (A) (A) (A) (A) (A)
                 (A) (A) (A) (A) (A) (A) (A) (A) (A) (A) (A) (A)
                 (A) (A) (A) (A) (A) (A) (A) (A) (A) (A) (A) (A)
                 (A) (A) (A) (A) (A) (A) (A) (A) (A) (A) (A) (A)
                 (A) (A) (A) (A) (A) (A) (A) (A) (A) (A) (A) (A)
                 (A) (A) (A) (A) (A) (A) (A) (A) (A) (A) (A) (A)
                 (A) (A) (A) (A) (A) (A) (A) (A) (A) (A) (A) (A)
                 (A) (A) (A) (A) (A) (A) (A) (A) (A) (A) (A) (A)
                 (A) (A) (A) (A) (A) (A) (A) (A) (A) (A) (A) (A)
                 (A) (A) (A) (A) (A) (A) (A) (A) (A) (A) (A) (A)
                 (A) (A) (A) (A) (A) (A) (A) (A) (A) (A) (A) (A)
                 (A) (A) (A) (A) (A) (A) (A) (A) (A) (A) (A) (A)
                 (A) (A) (A) (A) (A) (A) (A) (A) (A) (A) (A) (A)
                 (A) (A) (A) (A) (A) (A) (A) (A) (A) (A) (A) (A)
                 (A) (A) (A) (A) (A) (A) (A) (A) (A) (A) (A) (A)
                 (A) (A) (A) (A) (A) (A) (A) (A) (A) (A) (A) (A)
                 (A) (A) (A) (A) (A) (A) (A) (A) (A) (A) (A) (A)
                 (A) (A) (A) (A) (A) (A) (A) (A) (A) (A) (A) (A)
                 (A) (A) (A) (A) (A) (A) (A) (A) (A) (A) (A) (A)
                 (A) (A) (A) (A) (A) (A) (A) (A) (A) (A) (A) (A)
                 (A) (A) (A) (A) (A) (A) (A) (A) (A) (A) (A) (A)
                 (A) (A) (A) (A) (A) (A) (A) (A) (A) (A) (A) (A)
                 (A) (A) (A) (A) (A) (A) (A) (A) (A) (A) (A) (A)
                 (A) (A) (A) (A) (A) (A) (A) (A) (A) (A) (A) (A)
                 (A) (A) (A) (A) (A) (A) (A) (A) (A) (A) (A) (A)
                 (A) (A) (A) (A) (A) (A) (A) (A) (A) (A) (A) (A)
                 (A) (A) (A) (A) (A) (A) (A) (A) (A) (A) (A) (A)
                 (A) (A) (A) (A) (A) (A) (A) (A) (A) (A) (A) (A)
                 (A) (A) (A) (A) (A) (A) (A) (A) (A) (A) (A) (A)
                 (A) (A) (A) (A) (A) (A) (A) (A) (A) (A) (A) (A)
                 (A) (A) (A) (A) (A) (A) (A) (A) (A) (A) (A) (A)
                 (A) (A) (A) (A) (A) (A) (A) (A) (A) (A) (A) (A)
                 (A) (A) (A) (A) (A) (A) (A) (A) (A) (A) (A) (A)
                 (A) (A) (A) (A) (A) (A) (A) (A) (A) (A) (A) (A)
                 (A) (A) (A) (A) (A) (A) (A) (A) (A) (A) (A) (A)
                 (A) (A) (A) (A) (A) (A) (A) (A) (A) (A) (A) (A)
                 (A) (A) (A) (A) (A) (A) (A) (A) (A) (A) (A) (A)
                 (A) (A) (A) (A) (A) (A) (A) (A) (A) (A) (A) (A)
                 (A) (A) (A) (A) (A) (A) (A) (A) (A) (A) (A) (A)
                 (A) (A) (A) (A) (A) (A) (A) (A) (A) (A) (A) (A)
                 (A) (A) (A) (A) (A) (A) (A) (A) (A) (A) (A) (A)
                 (A) (A) (A) (A) (A) (A) (A) (A) (A) (A) (A) (A)
                 (A) (A) (A) (A) (A) (A) (A) (A) (A) (A) (A) (A)
                 (A) (A) (A) (A) (A) (A) (A) (A) (A) (A) (A) (A)
                 (A) (A) (A) (A) (A) (A) (A) (A) (A) (A) (A) (A)
                 (A) (A) (A) (A) (A) (A) (A) (A) (A) (A) (A) (A)
                 (A) (A) (A) (A) (A) (A) (A) (A) (A) (A) (A) (A)
                 (A) (A) (A) (A) (A) (A) (A) (A) (A) (A) (A) (A)
                 (A) (A) (A) (A) (A) (A) (A) (A) (A) (A) (A) (A)
                 (A) (A) (A) (A) (A) (A) (A) (A) (A) (A) (A) (A)
                 (A) (A) (A) (A) (A) (A) (A) (A) (A) (A) (A) (A)
                 (A) (A) (A) (A) (A) (A) (A) (A) (A) (A) (A) (A)
                 (A) (A) (A) (A) (A) (A) (A) (A) (A) (A) (A) (A)
                 (A) (A) (A) (A) (A) (A) (A) (A) (A) (A) (A) (A)
                 (A) (A) (A) (A) (A) (A) (A) (A)
     4 initial guesses have been made.
 Convergence on wavefunction:    0.001000000000000
 Iteration     1 Dimension     4 NMult     0 NNew      4
 CISAX will form     4 AO SS matrices at one time.
 Iteration     2 Dimension     6 NMult     4 NNew      2
 Iteration     3 Dimension     8 NMult     6 NNew      2
 Iteration     4 Dimension    10 NMult     8 NNew      2
 Iteration     5 Dimension    12 NMult    10 NNew      2
 Iteration     6 Dimension    14 NMult    12 NNew      2
 ***********************************************************************
 Excited states from <AA,BB:AA,BB> singles matrix:
 ***********************************************************************
 
 Ground to excited state transition densities written to RWF  633
 Ground to excited state transition electric dipole moments (Au):
       state          X           Y           Z        Dip. S.      Osc.
         1         8.1692      0.0795      0.0082     66.7422      2.7484
 Ground to excited state transition velocity dipole moments (Au):
       state          X           Y           Z        Dip. S.      Osc.
         1        -0.4909     -0.0039     -0.0020      0.2410      2.6007
 Ground to excited state transition magnetic dipole moments (Au):
       state          X           Y           Z
         1         0.0881      0.4266      2.0548
 Ground to excited state transition velocity quadrupole moments (Au):
       state          XX          YY          ZZ          XY          XZ          YZ
         1         1.5862      0.1305      0.0029      0.3554     -0.0188      0.0003
 <0|del|b> * <b|rxdel|0> + <0|del|b> * <b|delr+rdel|0>
 Rotatory Strengths (R) in cgs (10**-40 erg-esu-cm/Gauss)
       state          XX          YY          ZZ    R(velocity)    E-M Angle
         1       -37.8656   -268.0472   -255.6841   -187.1989       92.73
 1/2[<0|r|b>*<b|rxdel|0> + (<0|rxdel|b>*<b|r|0>)*]
 Rotatory Strengths (R) in cgs (10**-40 erg-esu-cm/Gauss)
       state          XX          YY          ZZ     R(length)
         1      -508.7798    -23.9739    -11.8663   -181.5400
  1/2[<0|del|b>*<b|r|0> + (<0|r|b>*<b|del|0>)*] (Au)
       state          X           Y           Z        Dip. S.   Osc.(frdel)
         1        -4.0100     -0.0003     -0.0000      4.0103      2.6735

 Excitation energies and oscillator strengths:
 
 Excited State   1:      Singlet-A      1.6808 eV  737.64 nm  f=2.7484  <S**2>=0.000
     163 ->166         0.10654
     164 ->165         0.71581
     164 <-165        -0.16535
 This state for optimization and/or second-order correction.
 Total Energy, E(TD-HF/TD-DFT) =  -1857.12114636    
 Copying the excited state density for this state as the 1-particle RhoCI density.
 SavETr:  write IOETrn=   770 NScale= 10 NData=  16 NLR=1 NState=    1 LETran=      28.

 **********************************************************************

            Population analysis using the SCF density.

 **********************************************************************

 Orbital symmetries:
       Occupied  (A) (A) (A) (A) (A) (A) (A) (A) (A) (A) (A) (A)
                 (A) (A) (A) (A) (A) (A) (A) (A) (A) (A) (A) (A)
                 (A) (A) (A) (A) (A) (A) (A) (A) (A) (A) (A) (A)
                 (A) (A) (A) (A) (A) (A) (A) (A) (A) (A) (A) (A)
                 (A) (A) (A) (A) (A) (A) (A) (A) (A) (A) (A) (A)
                 (A) (A) (A) (A) (A) (A) (A) (A) (A) (A) (A) (A)
                 (A) (A) (A) (A) (A) (A) (A) (A) (A) (A) (A) (A)
                 (A) (A) (A) (A) (A) (A) (A) (A) (A) (A) (A) (A)
                 (A) (A) (A) (A) (A) (A) (A) (A) (A) (A) (A) (A)
                 (A) (A) (A) (A) (A) (A) (A) (A) (A) (A) (A) (A)
                 (A) (A) (A) (A) (A) (A) (A) (A) (A) (A) (A) (A)
                 (A) (A) (A) (A) (A) (A) (A) (A) (A) (A) (A) (A)
                 (A) (A) (A) (A) (A) (A) (A) (A) (A) (A) (A) (A)
                 (A) (A) (A) (A) (A) (A) (A) (A)
       Virtual   (A) (A) (A) (A) (A) (A) (A) (A) (A) (A) (A) (A)
                 (A) (A) (A) (A) (A) (A) (A) (A) (A) (A) (A) (A)
                 (A) (A) (A) (A) (A) (A) (A) (A) (A) (A) (A) (A)
                 (A) (A) (A) (A) (A) (A) (A) (A) (A) (A) (A) (A)
                 (A) (A) (A) (A) (A) (A) (A) (A) (A) (A) (A) (A)
                 (A) (A) (A) (A) (A) (A) (A) (A) (A) (A) (A) (A)
                 (A) (A) (A) (A) (A) (A) (A) (A) (A) (A) (A) (A)
                 (A) (A) (A) (A) (A) (A) (A) (A) (A) (A) (A) (A)
                 (A) (A) (A) (A) (A) (A) (A) (A) (A) (A) (A) (A)
                 (A) (A) (A) (A) (A) (A) (A) (A) (A) (A) (A) (A)
                 (A) (A) (A) (A) (A) (A) (A) (A) (A) (A) (A) (A)
                 (A) (A) (A) (A) (A) (A) (A) (A) (A) (A) (A) (A)
                 (A) (A) (A) (A) (A) (A) (A) (A) (A) (A) (A) (A)
                 (A) (A) (A) (A) (A) (A) (A) (A) (A) (A) (A) (A)
                 (A) (A) (A) (A) (A) (A) (A) (A) (A) (A) (A) (A)
                 (A) (A) (A) (A) (A) (A) (A) (A) (A) (A) (A) (A)
                 (A) (A) (A) (A) (A) (A) (A) (A) (A) (A) (A) (A)
                 (A) (A) (A) (A) (A) (A) (A) (A) (A) (A) (A) (A)
                 (A) (A) (A) (A) (A) (A) (A) (A) (A) (A) (A) (A)
                 (A) (A) (A) (A) (A) (A) (A) (A) (A) (A) (A) (A)
                 (A) (A) (A) (A) (A) (A) (A) (A) (A) (A) (A) (A)
                 (A) (A) (A) (A) (A) (A) (A) (A) (A) (A) (A) (A)
                 (A) (A) (A) (A) (A) (A) (A) (A) (A) (A) (A) (A)
                 (A) (A) (A) (A) (A) (A) (A) (A) (A) (A) (A) (A)
                 (A) (A) (A) (A) (A) (A) (A) (A) (A) (A) (A) (A)
                 (A) (A) (A) (A) (A) (A) (A) (A) (A) (A) (A) (A)
                 (A) (A) (A) (A) (A) (A) (A) (A) (A) (A) (A) (A)
                 (A) (A) (A) (A) (A) (A) (A) (A) (A) (A) (A) (A)
                 (A) (A) (A) (A) (A) (A) (A) (A) (A) (A) (A) (A)
                 (A) (A) (A) (A) (A) (A) (A) (A) (A) (A) (A) (A)
                 (A) (A) (A) (A) (A) (A) (A) (A) (A) (A) (A) (A)
                 (A) (A) (A) (A) (A) (A) (A) (A) (A) (A) (A) (A)
                 (A) (A) (A) (A) (A) (A) (A) (A) (A) (A) (A) (A)
                 (A) (A) (A) (A) (A) (A) (A) (A) (A) (A) (A) (A)
                 (A) (A) (A) (A) (A) (A) (A) (A) (A) (A) (A) (A)
                 (A) (A) (A) (A) (A) (A) (A) (A) (A) (A) (A) (A)
                 (A) (A) (A) (A) (A) (A) (A) (A) (A) (A) (A) (A)
                 (A) (A) (A) (A) (A) (A) (A) (A) (A) (A) (A) (A)
                 (A) (A) (A) (A) (A) (A) (A) (A) (A) (A) (A) (A)
                 (A) (A) (A) (A) (A) (A) (A) (A) (A) (A) (A) (A)
                 (A) (A) (A) (A) (A) (A) (A) (A) (A) (A) (A) (A)
                 (A) (A) (A) (A) (A) (A) (A) (A) (A) (A) (A) (A)
                 (A) (A) (A) (A) (A) (A) (A) (A) (A) (A) (A) (A)
                 (A) (A) (A) (A) (A) (A) (A) (A) (A) (A) (A) (A)
                 (A) (A) (A) (A) (A) (A) (A) (A) (A) (A) (A) (A)
                 (A) (A) (A) (A) (A) (A) (A) (A) (A) (A) (A) (A)
                 (A) (A) (A) (A) (A) (A) (A) (A) (A) (A) (A) (A)
                 (A) (A) (A) (A) (A) (A) (A) (A) (A) (A) (A) (A)
                 (A) (A) (A) (A) (A) (A) (A) (A) (A) (A) (A) (A)
                 (A) (A) (A) (A) (A) (A) (A) (A) (A) (A) (A) (A)
                 (A) (A) (A) (A) (A) (A) (A) (A) (A) (A) (A) (A)
                 (A) (A) (A) (A) (A) (A) (A) (A) (A) (A) (A) (A)
                 (A) (A) (A) (A) (A) (A) (A) (A) (A) (A) (A) (A)
                 (A) (A) (A) (A) (A) (A) (A) (A) (A) (A) (A) (A)
                 (A) (A) (A) (A) (A) (A) (A) (A) (A) (A) (A) (A)
                 (A) (A) (A) (A) (A) (A) (A) (A) (A) (A) (A) (A)
                 (A) (A) (A) (A) (A) (A) (A) (A) (A) (A) (A) (A)
                 (A) (A) (A) (A) (A) (A) (A) (A) (A) (A) (A) (A)
                 (A) (A) (A) (A) (A) (A) (A) (A) (A) (A) (A) (A)
                 (A) (A) (A) (A) (A) (A) (A) (A) (A) (A) (A) (A)
                 (A) (A) (A) (A) (A) (A) (A) (A) (A) (A) (A) (A)
                 (A) (A) (A) (A) (A) (A) (A) (A) (A) (A) (A) (A)
                 (A) (A) (A) (A) (A) (A) (A) (A) (A) (A) (A) (A)
                 (A) (A) (A) (A) (A) (A) (A) (A) (A) (A) (A) (A)
                 (A) (A) (A) (A) (A) (A) (A) (A)
 The electronic state is 1-A.
 Alpha  occ. eigenvalues --  -19.23440 -19.22472 -19.22402 -19.22129 -10.32649
 Alpha  occ. eigenvalues --  -10.32615 -10.32464 -10.32027 -10.31736 -10.30125
 Alpha  occ. eigenvalues --  -10.29546 -10.28776 -10.28684 -10.28208 -10.28068
 Alpha  occ. eigenvalues --  -10.27829 -10.27685 -10.27671 -10.27668 -10.27614
 Alpha  occ. eigenvalues --  -10.27542 -10.27507 -10.27491 -10.27407 -10.27296
 Alpha  occ. eigenvalues --  -10.27200 -10.26797 -10.26770 -10.26696 -10.26690
 Alpha  occ. eigenvalues --  -10.26660 -10.26415 -10.26276 -10.26164 -10.26164
 Alpha  occ. eigenvalues --  -10.25907 -10.25901 -10.25389 -10.25384 -10.25215
 Alpha  occ. eigenvalues --  -10.25000 -10.24216 -10.24013 -10.22379  -1.14048
 Alpha  occ. eigenvalues --   -1.12770  -1.09907  -1.08141  -0.92825  -0.91998
 Alpha  occ. eigenvalues --   -0.91672  -0.91385  -0.90501  -0.89821  -0.86974
 Alpha  occ. eigenvalues --   -0.86236  -0.85899  -0.85712  -0.84382  -0.83133
 Alpha  occ. eigenvalues --   -0.81993  -0.80736  -0.80265  -0.78146  -0.76892
 Alpha  occ. eigenvalues --   -0.76856  -0.76461  -0.76415  -0.75687  -0.75026
 Alpha  occ. eigenvalues --   -0.74878  -0.74567  -0.72427  -0.70099  -0.69354
 Alpha  occ. eigenvalues --   -0.68055  -0.66384  -0.65079  -0.64729  -0.63774
 Alpha  occ. eigenvalues --   -0.63000  -0.61633  -0.59719  -0.59626  -0.59464
 Alpha  occ. eigenvalues --   -0.59260  -0.58303  -0.57398  -0.56812  -0.56252
 Alpha  occ. eigenvalues --   -0.55791  -0.55426  -0.55334  -0.54472  -0.54129
 Alpha  occ. eigenvalues --   -0.53322  -0.53030  -0.52805  -0.52262  -0.51714
 Alpha  occ. eigenvalues --   -0.51524  -0.51009  -0.50953  -0.50129  -0.50089
 Alpha  occ. eigenvalues --   -0.49645  -0.49334  -0.48995  -0.48691  -0.47964
 Alpha  occ. eigenvalues --   -0.47732  -0.47391  -0.47302  -0.47112  -0.46941
 Alpha  occ. eigenvalues --   -0.46521  -0.46154  -0.45928  -0.45640  -0.45047
 Alpha  occ. eigenvalues --   -0.44825  -0.44726  -0.44561  -0.44484  -0.44145
 Alpha  occ. eigenvalues --   -0.43879  -0.43175  -0.42787  -0.42391  -0.42234
 Alpha  occ. eigenvalues --   -0.42115  -0.41916  -0.41743  -0.41146  -0.40601
 Alpha  occ. eigenvalues --   -0.40406  -0.40149  -0.40058  -0.39955  -0.39655
 Alpha  occ. eigenvalues --   -0.39352  -0.39244  -0.38943  -0.38750  -0.38651
 Alpha  occ. eigenvalues --   -0.38343  -0.38234  -0.38032  -0.37172  -0.37152
 Alpha  occ. eigenvalues --   -0.36460  -0.35725  -0.35236  -0.34919  -0.33983
 Alpha  occ. eigenvalues --   -0.33463  -0.33017  -0.32838  -0.31839  -0.30644
 Alpha  occ. eigenvalues --   -0.30505  -0.27726  -0.23665  -0.17857
 Alpha virt. eigenvalues --   -0.07568  -0.00888   0.02989   0.06759   0.06882
 Alpha virt. eigenvalues --    0.07761   0.09046   0.09224   0.09518   0.10151
 Alpha virt. eigenvalues --    0.11047   0.12008   0.12301   0.12741   0.12893
 Alpha virt. eigenvalues --    0.13633   0.13658   0.14619   0.15271   0.15519
 Alpha virt. eigenvalues --    0.15585   0.15738   0.15859   0.15973   0.16152
 Alpha virt. eigenvalues --    0.16735   0.16889   0.17202   0.17252   0.17461
 Alpha virt. eigenvalues --    0.18284   0.18313   0.18556   0.18821   0.18971
 Alpha virt. eigenvalues --    0.19109   0.19300   0.19537   0.19796   0.20067
 Alpha virt. eigenvalues --    0.20370   0.20447   0.20553   0.20612   0.20809
 Alpha virt. eigenvalues --    0.21244   0.21350   0.21732   0.21932   0.22253
 Alpha virt. eigenvalues --    0.22332   0.22878   0.23067   0.23240   0.23655
 Alpha virt. eigenvalues --    0.23844   0.24000   0.24301   0.24758   0.24817
 Alpha virt. eigenvalues --    0.24908   0.25437   0.26229   0.26272   0.26558
 Alpha virt. eigenvalues --    0.26779   0.27033   0.27265   0.27751   0.27889
 Alpha virt. eigenvalues --    0.28244   0.28469   0.28929   0.29118   0.29200
 Alpha virt. eigenvalues --    0.29376   0.29699   0.29813   0.30302   0.31097
 Alpha virt. eigenvalues --    0.31394   0.31847   0.32080   0.32154   0.32343
 Alpha virt. eigenvalues --    0.32744   0.33935   0.33979   0.35526   0.35810
 Alpha virt. eigenvalues --    0.36010   0.36964   0.37266   0.37905   0.39058
 Alpha virt. eigenvalues --    0.39398   0.39981   0.40786   0.41292   0.42254
 Alpha virt. eigenvalues --    0.42802   0.43057   0.43440   0.45318   0.46258
 Alpha virt. eigenvalues --    0.46538   0.47779   0.48283   0.49362   0.50151
 Alpha virt. eigenvalues --    0.52419   0.53871   0.54478   0.54981   0.55446
 Alpha virt. eigenvalues --    0.55899   0.56311   0.57385   0.57555   0.57949
 Alpha virt. eigenvalues --    0.58015   0.58361   0.58466   0.59199   0.59609
 Alpha virt. eigenvalues --    0.59783   0.60091   0.60236   0.60503   0.60650
 Alpha virt. eigenvalues --    0.61013   0.61712   0.62131   0.62155   0.62366
 Alpha virt. eigenvalues --    0.62738   0.62960   0.63261   0.63557   0.63994
 Alpha virt. eigenvalues --    0.64187   0.64561   0.64951   0.65117   0.65245
 Alpha virt. eigenvalues --    0.65732   0.65873   0.65995   0.66730   0.66770
 Alpha virt. eigenvalues --    0.67069   0.67154   0.67652   0.67712   0.68002
 Alpha virt. eigenvalues --    0.68189   0.68675   0.68785   0.69527   0.69611
 Alpha virt. eigenvalues --    0.70232   0.70579   0.70925   0.70967   0.71241
 Alpha virt. eigenvalues --    0.71373   0.72320   0.72612   0.72817   0.72988
 Alpha virt. eigenvalues --    0.73598   0.74251   0.74608   0.75005   0.75778
 Alpha virt. eigenvalues --    0.76069   0.76094   0.76418   0.76777   0.77274
 Alpha virt. eigenvalues --    0.77681   0.77777   0.78150   0.78326   0.78795
 Alpha virt. eigenvalues --    0.79133   0.79578   0.80275   0.80412   0.80955
 Alpha virt. eigenvalues --    0.81100   0.81236   0.81608   0.82249   0.82693
 Alpha virt. eigenvalues --    0.82806   0.83094   0.83632   0.83771   0.83849
 Alpha virt. eigenvalues --    0.84401   0.84726   0.85089   0.85380   0.85559
 Alpha virt. eigenvalues --    0.86361   0.86606   0.87143   0.87354   0.87509
 Alpha virt. eigenvalues --    0.88019   0.88186   0.88461   0.88604   0.88696
 Alpha virt. eigenvalues --    0.89034   0.89250   0.89583   0.90070   0.90306
 Alpha virt. eigenvalues --    0.90448   0.90928   0.91381   0.91630   0.92083
 Alpha virt. eigenvalues --    0.92177   0.92700   0.93057   0.93402   0.93855
 Alpha virt. eigenvalues --    0.93896   0.94096   0.94189   0.94345   0.95125
 Alpha virt. eigenvalues --    0.95151   0.95680   0.95896   0.96446   0.96626
 Alpha virt. eigenvalues --    0.97092   0.97605   0.97658   0.97975   0.98025
 Alpha virt. eigenvalues --    0.98412   0.98608   0.99342   0.99437   1.00003
 Alpha virt. eigenvalues --    1.00191   1.00530   1.00859   1.01065   1.01252
 Alpha virt. eigenvalues --    1.01714   1.02130   1.02194   1.02358   1.02880
 Alpha virt. eigenvalues --    1.03145   1.03359   1.03915   1.04308   1.04578
 Alpha virt. eigenvalues --    1.05056   1.05662   1.06056   1.06150   1.06827
 Alpha virt. eigenvalues --    1.07179   1.07524   1.07897   1.08522   1.08589
 Alpha virt. eigenvalues --    1.09018   1.09824   1.10323   1.10962   1.11498
 Alpha virt. eigenvalues --    1.12516   1.13250   1.13479   1.14161   1.14935
 Alpha virt. eigenvalues --    1.15616   1.15964   1.16649   1.17131   1.18162
 Alpha virt. eigenvalues --    1.18337   1.18705   1.18932   1.20159   1.20649
 Alpha virt. eigenvalues --    1.21069   1.21649   1.21758   1.22692   1.22758
 Alpha virt. eigenvalues --    1.23860   1.24568   1.25363   1.26022   1.26753
 Alpha virt. eigenvalues --    1.28089   1.28358   1.28776   1.29271   1.29542
 Alpha virt. eigenvalues --    1.29785   1.30479   1.31488   1.32681   1.32906
 Alpha virt. eigenvalues --    1.33238   1.34858   1.35479   1.35734   1.36947
 Alpha virt. eigenvalues --    1.37844   1.38393   1.38920   1.39374   1.40443
 Alpha virt. eigenvalues --    1.40818   1.41266   1.41565   1.41855   1.42367
 Alpha virt. eigenvalues --    1.43526   1.44626   1.45160   1.45786   1.46002
 Alpha virt. eigenvalues --    1.47329   1.47494   1.48036   1.49263   1.50075
 Alpha virt. eigenvalues --    1.50823   1.52470   1.52726   1.53922   1.54418
 Alpha virt. eigenvalues --    1.55053   1.55958   1.56421   1.57362   1.58088
 Alpha virt. eigenvalues --    1.58286   1.59059   1.59671   1.59821   1.60515
 Alpha virt. eigenvalues --    1.61781   1.62207   1.63103   1.63285   1.63828
 Alpha virt. eigenvalues --    1.64228   1.64426   1.66050   1.66434   1.66546
 Alpha virt. eigenvalues --    1.66758   1.67932   1.69720   1.69875   1.71790
 Alpha virt. eigenvalues --    1.72119   1.72487   1.72561   1.72887   1.73074
 Alpha virt. eigenvalues --    1.74222   1.74786   1.74954   1.75594   1.77413
 Alpha virt. eigenvalues --    1.77923   1.78996   1.79244   1.79601   1.80234
 Alpha virt. eigenvalues --    1.80670   1.80932   1.81792   1.82263   1.83242
 Alpha virt. eigenvalues --    1.83278   1.83789   1.83868   1.83931   1.84763
 Alpha virt. eigenvalues --    1.85188   1.85242   1.85807   1.86041   1.86486
 Alpha virt. eigenvalues --    1.86950   1.87597   1.88161   1.88539   1.88557
 Alpha virt. eigenvalues --    1.88857   1.89185   1.89544   1.90128   1.90593
 Alpha virt. eigenvalues --    1.91050   1.91466   1.92245   1.92693   1.92918
 Alpha virt. eigenvalues --    1.93048   1.93345   1.94034   1.94437   1.94697
 Alpha virt. eigenvalues --    1.94986   1.96014   1.96042   1.96887   1.97216
 Alpha virt. eigenvalues --    1.97659   1.98032   1.98504   1.99124   1.99185
 Alpha virt. eigenvalues --    1.99768   1.99940   2.00298   2.00675   2.01210
 Alpha virt. eigenvalues --    2.02073   2.02180   2.02515   2.02769   2.03063
 Alpha virt. eigenvalues --    2.03880   2.04119   2.04364   2.04871   2.05604
 Alpha virt. eigenvalues --    2.05896   2.06210   2.06911   2.07089   2.07369
 Alpha virt. eigenvalues --    2.08406   2.09068   2.09222   2.09936   2.10126
 Alpha virt. eigenvalues --    2.10275   2.10375   2.11671   2.11701   2.11865
 Alpha virt. eigenvalues --    2.12250   2.13123   2.13411   2.13639   2.14223
 Alpha virt. eigenvalues --    2.14323   2.14431   2.14790   2.15179   2.15664
 Alpha virt. eigenvalues --    2.16393   2.16553   2.16984   2.17017   2.18100
 Alpha virt. eigenvalues --    2.18321   2.18749   2.19540   2.19938   2.20037
 Alpha virt. eigenvalues --    2.20527   2.21364   2.21478   2.21647   2.22132
 Alpha virt. eigenvalues --    2.22575   2.22746   2.22950   2.23653   2.24148
 Alpha virt. eigenvalues --    2.24390   2.24789   2.24938   2.25326   2.25770
 Alpha virt. eigenvalues --    2.25936   2.26208   2.27010   2.27601   2.28121
 Alpha virt. eigenvalues --    2.28365   2.29063   2.29577   2.30370   2.30593
 Alpha virt. eigenvalues --    2.31325   2.32151   2.32471   2.32913   2.33731
 Alpha virt. eigenvalues --    2.33962   2.34985   2.35035   2.35204   2.36432
 Alpha virt. eigenvalues --    2.36975   2.37369   2.37660   2.37969   2.38672
 Alpha virt. eigenvalues --    2.38937   2.39040   2.39711   2.39727   2.40291
 Alpha virt. eigenvalues --    2.40498   2.41483   2.42060   2.42305   2.42619
 Alpha virt. eigenvalues --    2.42996   2.43393   2.43623   2.44360   2.44428
 Alpha virt. eigenvalues --    2.44849   2.44995   2.45069   2.45733   2.46237
 Alpha virt. eigenvalues --    2.46571   2.46817   2.47378   2.47904   2.48028
 Alpha virt. eigenvalues --    2.48994   2.49104   2.49533   2.50434   2.51162
 Alpha virt. eigenvalues --    2.51427   2.51683   2.52090   2.52616   2.53938
 Alpha virt. eigenvalues --    2.54114   2.54438   2.54866   2.55495   2.56384
 Alpha virt. eigenvalues --    2.57023   2.57289   2.57823   2.58704   2.58786
 Alpha virt. eigenvalues --    2.59192   2.59690   2.60046   2.60304   2.60893
 Alpha virt. eigenvalues --    2.61288   2.61550   2.61763   2.62498   2.62664
 Alpha virt. eigenvalues --    2.62838   2.63748   2.64317   2.64740   2.64886
 Alpha virt. eigenvalues --    2.65368   2.65506   2.66213   2.66549   2.67075
 Alpha virt. eigenvalues --    2.67563   2.67951   2.68697   2.69146   2.69567
 Alpha virt. eigenvalues --    2.69811   2.70541   2.70645   2.70940   2.71759
 Alpha virt. eigenvalues --    2.72408   2.73038   2.73662   2.73963   2.74151
 Alpha virt. eigenvalues --    2.74598   2.74961   2.75330   2.76028   2.76356
 Alpha virt. eigenvalues --    2.76656   2.76698   2.77390   2.77957   2.79324
 Alpha virt. eigenvalues --    2.79544   2.80164   2.80477   2.80840   2.80973
 Alpha virt. eigenvalues --    2.81226   2.81292   2.81583   2.82612   2.83260
 Alpha virt. eigenvalues --    2.83683   2.83800   2.84251   2.84356   2.84404
 Alpha virt. eigenvalues --    2.85189   2.85944   2.86187   2.86466   2.86749
 Alpha virt. eigenvalues --    2.86895   2.87658   2.88678   2.88858   2.90170
 Alpha virt. eigenvalues --    2.90862   2.90942   2.91786   2.92084   2.92471
 Alpha virt. eigenvalues --    2.92807   2.93762   2.94207   2.95934   2.96536
 Alpha virt. eigenvalues --    2.96855   2.97458   2.97516   2.97922   2.98478
 Alpha virt. eigenvalues --    2.99936   3.00151   3.00683   3.02645   3.03020
 Alpha virt. eigenvalues --    3.03101   3.03441   3.04234   3.04549   3.05353
 Alpha virt. eigenvalues --    3.06355   3.07343   3.08055   3.09634   3.09846
 Alpha virt. eigenvalues --    3.10468   3.11248   3.12163   3.12460   3.13146
 Alpha virt. eigenvalues --    3.14114   3.15202   3.15925   3.16796   3.17083
 Alpha virt. eigenvalues --    3.18977   3.19240   3.21161   3.21964   3.23180
 Alpha virt. eigenvalues --    3.23213   3.24037   3.25238   3.26892   3.27849
 Alpha virt. eigenvalues --    3.29103   3.29641   3.30810   3.32267   3.33387
 Alpha virt. eigenvalues --    3.36151   3.36467   3.36914   3.38189   3.40170
 Alpha virt. eigenvalues --    3.40429   3.40746   3.42142   3.42688   3.42997
 Alpha virt. eigenvalues --    3.44089   3.44348   3.45562   3.47595   3.47879
 Alpha virt. eigenvalues --    3.49124   3.49370   3.51523   3.51754   3.53207
 Alpha virt. eigenvalues --    3.54359   3.54506   3.55591   3.56583   3.57604
 Alpha virt. eigenvalues --    3.57693   3.59427   3.60052   3.60865   3.62763
 Alpha virt. eigenvalues --    3.63114   3.63503   3.64122   3.65794   3.67333
 Alpha virt. eigenvalues --    3.67419   3.69120   3.69865   3.75103   3.75438
 Alpha virt. eigenvalues --    3.90111   3.97170   4.00439   4.03969   4.06369
 Alpha virt. eigenvalues --    4.18011   4.18379   4.19780   4.20826   4.21780
 Alpha virt. eigenvalues --    4.23783   4.25980   4.27622   4.30948   4.32269
 Alpha virt. eigenvalues --    4.34071   4.36164   4.38805   4.42664   4.44041
 Alpha virt. eigenvalues --    4.46228   4.47152   4.47287   4.52370   4.53595
 Alpha virt. eigenvalues --    4.53802   4.55228   4.56242   4.59608   4.60454
 Alpha virt. eigenvalues --    4.61731   4.62327   4.67220   4.68758   4.70515
 Alpha virt. eigenvalues --    4.71384   4.75723   4.78866   4.80389   4.81690
 Alpha virt. eigenvalues --    4.83018   4.84509   4.86674   4.91918   4.93428
 Alpha virt. eigenvalues --    4.94198
          Condensed to atoms (all electrons):
 Mulliken charges:
               1
     1  O   -0.521021
     2  O   -0.532308
     3  O   -0.527320
     4  O   -0.550375
     5  C    0.185062
     6  C    0.260029
     7  C    0.001268
     8  C   -0.276130
     9  C   -0.156929
    10  C    0.143359
    11  C   -0.347748
    12  C   -0.125516
    13  C   -0.291256
    14  C   -0.290513
    15  C   -0.051518
    16  C    0.038280
    17  C   -0.375127
    18  C   -0.072281
    19  C   -0.082774
    20  C    0.018958
    21  C    0.251618
    22  C   -0.243170
    23  C    0.161904
    24  C   -0.187480
    25  C   -0.067252
    26  C   -0.298837
    27  C   -0.299921
    28  C   -0.333142
    29  C   -0.140891
    30  C    0.113243
    31  C    0.072244
    32  C   -0.229590
    33  C   -0.359663
    34  C   -0.068389
    35  C    0.112915
    36  C   -0.387549
    37  C   -0.109223
    38  C   -0.082595
    39  C   -0.057647
    40  C   -0.126855
    41  C   -0.132485
    42  C   -0.044528
    43  C    0.080535
    44  C   -0.335709
    45  H    0.092101
    46  H    0.133054
    47  H    0.100022
    48  H    0.112641
    49  H    0.089977
    50  H    0.115131
    51  H    0.089567
    52  H    0.131955
    53  H    0.111475
    54  H    0.085601
    55  H    0.104933
    56  H    0.117325
    57  H    0.099830
    58  H    0.110495
    59  H    0.096008
    60  H    0.311434
    61  H    0.079880
    62  H    0.119385
    63  H    0.135893
    64  H    0.109597
    65  H    0.078580
    66  H    0.063426
    67  H    0.096016
    68  H    0.090047
    69  H    0.090099
    70  H    0.110188
    71  H    0.111384
    72  H    0.106105
    73  H    0.113045
    74  H    0.087586
    75  H    0.127041
    76  H    0.103244
    77  H    0.084830
    78  H    0.109260
    79  H    0.084676
    80  H    0.135311
    81  H    0.075535
    82  H    0.300267
    83  H    0.311752
    84  H    0.116836
    85  H    0.130369
    86  H    0.121209
    87  H    0.121968
    88  H    0.078908
    89  H    0.103965
    90  H    0.135417
    91  H    0.109513
    92  H    0.071315
    93  H    0.062636
    94  H    0.072298
    95  H    0.077435
    96  H    0.080020
    97  H    0.040487
    98  H    0.110601
    99  H    0.101598
   100  H    0.107055
 Sum of Mulliken charges =  -0.00000
 Mulliken charges with hydrogens summed into heavy atoms:
               1
     1  O   -0.521021
     2  O   -0.220874
     3  O   -0.227053
     4  O   -0.238623
     5  C    0.185062
     6  C    0.260029
     7  C    0.001268
     8  C   -0.050974
     9  C    0.055734
    10  C    0.233336
    11  C   -0.011095
    12  C   -0.014041
    13  C    0.016602
    14  C    0.015820
    15  C    0.028363
    16  C    0.038280
    17  C   -0.010252
    18  C    0.006299
    19  C   -0.019348
    20  C    0.018958
    21  C    0.251618
    22  C   -0.057107
    23  C    0.252003
    24  C    0.034092
    25  C   -0.067252
    26  C    0.007899
    27  C    0.015194
    28  C   -0.003896
    29  C   -0.065356
    30  C    0.113243
    31  C    0.072244
    32  C   -0.112754
    33  C    0.013883
    34  C    0.010518
    35  C    0.112915
    36  C   -0.038654
    37  C   -0.037907
    38  C   -0.019959
    39  C    0.014651
    40  C   -0.049420
    41  C   -0.052465
    42  C   -0.004041
    43  C    0.080535
    44  C   -0.016456
 Electronic spatial extent (au):  <R**2>=         115894.3399
 Charge=             -0.0000 electrons
 Dipole moment (field-independent basis, Debye):
    X=              3.1154    Y=              0.0844    Z=              1.2126  Tot=              3.3441
 Quadrupole moment (field-independent basis, Debye-Ang):
   XX=           -273.6371   YY=           -260.4744   ZZ=           -277.2281
   XY=             12.5994   XZ=             32.8999   YZ=             -1.1920
 Traceless Quadrupole moment (field-independent basis, Debye-Ang):
   XX=             -3.1906   YY=              9.9721   ZZ=             -6.7815
   XY=             12.5994   XZ=             32.8999   YZ=             -1.1920
 Octapole moment (field-independent basis, Debye-Ang**2):
  XXX=            349.7751  YYY=              2.8697  ZZZ=             -6.2503  XYY=            -12.0968
  XXY=             70.6702  XXZ=            248.2187  XZZ=            138.1247  YZZ=             -5.0342
  YYZ=            -17.3577  XYZ=           -150.4912
 Hexadecapole moment (field-independent basis, Debye-Ang**3):
 XXXX=        -154146.1489 YYYY=          -3658.0338 ZZZZ=          -2233.6917 XXXY=           1166.6989
 XXXZ=           6509.0071 YYYX=            -43.5519 YYYZ=            -19.6058 ZZZX=             53.7326
 ZZZY=              0.5944 XXYY=         -25975.9401 XXZZ=         -25665.6279 YYZZ=          -1041.0484
 XXYZ=            260.5254 YYXZ=            198.1514 ZZXY=           -103.4891
 N-N= 4.430456998023D+03 E-N=-1.316949051943D+04  KE= 1.838119614604D+03
 1\1\GINC-RYZEN-SSD3\SP\RCAM-B3LYP TD-FC\6-31G(d,p)\C40H56O4\PADAWAN\01
 -Aug-2019\0\\# td=(NStates=1) CAM-B3LYP/6-31G(d,p)\\TD\\0,1\O,0,-11.70
 55572233,0.2363142798,-1.6215493185\O,0,-12.9934001758,-2.3965479628,1
 .4999556806\O,0,10.7153570556,-0.9687567636,-2.1035040767\O,0,14.66782
 01487,-1.0818769092,0.1466201746\C,0,-11.0406322304,-0.1125752122,-0.2
 947789023\C,0,-11.7419704867,-1.1302442043,-1.2002088612\C,0,-11.90785
 28283,0.4357402568,0.9162712821\C,0,-13.1574009438,-1.7315333112,-0.86
 21578498\C,0,-13.2943978978,0.0086334157,0.8858032682\C,0,-13.62714914
 84,-1.4855300908,0.6186006274\C,0,-11.0163772264,-2.0161770352,-2.1020
 225206\C,0,-9.5712865725,0.0967268065,-0.3287798361\C,0,-11.1571016876
 ,0.0720316072,2.2586109282\C,0,-11.7774581261,2.0009651996,0.764464538
 2\C,0,-8.7401974414,-0.7879768389,0.208049544\C,0,-7.2889268823,-0.655
 1573618,0.1783555359\C,0,-6.3636503799,-1.9103297218,0.4925314894\C,0,
 -6.6073563973,0.6170125312,0.0256940142\C,0,-5.2919191335,0.8351155483
 ,-0.0271870489\C,0,11.9226115081,0.1548355131,1.4018197101\C,0,11.6741
 847086,-0.5307192271,-1.2359674764\C,0,12.612848513,-1.3353977695,1.58
 21929527\C,0,13.4240470914,-1.818976431,0.3717011345\C,0,12.3880237371
 ,-1.8389184008,-0.8947734398\C,0,11.1271696049,0.0995947074,0.04726190
 65\C,0,10.9596073656,0.2264292849,2.5771200522\C,0,12.9226053772,1.319
 8452053,1.3487079218\C,0,12.6566419704,0.378336707,-1.977931741\C,0,-4
 .6569021859,2.1594384498,-0.260500899\C,0,9.9007312606,0.4971005129,0.
 0060594292\C,0,-3.3293880972,2.4865674104,-0.2602762883\C,0,8.66645643
 16,1.1192882626,-0.1308174217\C,0,-3.0150231874,4.0259740569,-0.380767
 8089\C,0,-2.319498865,1.5028721359,-0.2735798927\C,0,7.5235718997,0.21
 87124592,0.0147322891\C,0,7.706295366,-1.2490018523,0.009350858\C,0,6.
 2533066787,0.7843853688,-0.1911230483\C,0,-1.0403081623,1.7658457083,-
 0.3285110262\C,0,5.0430759104,0.1432234384,-0.2013087621\C,0,0.0419706
 761,0.7973530452,-0.2444135442\C,0,3.8703564433,0.7777581262,-0.301217
 5908\C,0,1.4504569865,1.0957112988,-0.3243148124\C,0,2.5057384743,0.19
 34486446,-0.321598802\C,0,2.2958294446,-1.2864728276,-0.1294243488\H,0
 ,-13.0918609869,-2.9199149693,-1.0658318072\H,0,-13.7332185456,-1.2193
 359178,-1.7197684315\H,0,-13.8265104532,0.2847555444,1.6373164143\H,0,
 -13.8120505987,0.3449896261,0.1079284584\H,0,-14.7482621303,-1.6931080
 242,0.655797184\H,0,-10.5899676137,-2.9376305459,-1.8445297484\H,0,-11
 .5858287918,-2.1600407955,-3.1627545617\H,0,-10.2352457081,-1.46163537
 21,-2.5406056731\H,0,-8.9807067255,0.9244245735,-0.953559166\H,0,-10.1
 571570433,0.7108523493,2.1070264454\H,0,-11.5799833592,0.6259392955,3.
 0480831584\H,0,-11.0141921129,-0.9308399605,2.4162324129\H,0,-12.29707
 22497,2.238990021,-0.3649332773\H,0,-12.4411903584,2.2255781333,1.5047
 041822\H,0,-10.6424545276,2.4380543959,0.7860328968\H,0,-12.2394070132
 ,-2.608513725,0.8297174506\H,0,-9.1651173536,-1.6521035681,0.602119310
 8\H,0,-6.0865781039,-2.2160949346,-0.5490729517\H,0,-5.4621286282,-1.8
 231375464,0.991767573\H,0,-6.9599661072,-2.774709744,0.6467908299\H,0,
 -7.3005313642,1.3578441135,0.0594462681\H,0,-4.5312997747,-0.227044086
 ,-0.290922868\H,0,13.0758132584,-1.4349851859,2.5191268533\H,0,11.6063
 658136,-2.007560136,1.7155675565\H,0,13.7060729642,-2.8449561606,0.652
 6421901\H,0,12.9381812566,-2.0726837469,-1.8178048752\H,0,11.652055213
 7,-2.6486039843,-0.7015054926\H,0,11.379337542,0.1671270794,3.57038207
 69\H,0,10.2987868564,1.1065462177,2.3480623304\H,0,10.4237299942,-0.82
 93712516,2.719548196\H,0,13.7064075427,1.295938218,0.5321272775\H,0,12
 .2454771609,2.2520646443,1.4389285986\H,0,13.5595017873,1.1845229314,2
 .2649629779\H,0,12.9861794374,-0.069923602,-2.9742398759\H,0,12.132660
 3344,1.3094330342,-2.334231358\H,0,13.6632571583,0.652891342,-1.485073
 9928\H,0,-5.3254847724,3.1108854753,-0.3927006809\H,0,10.3380050511,-0
 .1589245501,-2.399022238\H,0,14.8303458798,-0.8227020846,1.1713957389\
 H,0,8.4829801488,2.1311754447,-0.4536426415\H,0,-2.2387889631,4.075443
 9941,0.4003858683\H,0,-2.4143301973,4.0863558604,-1.3785709662\H,0,-3.
 8165680419,4.7194201238,-0.3963294344\H,0,-2.5210717273,0.2877509871,-
 0.1298959442\H,0,6.778350585,-1.8448540475,0.2387563603\H,0,8.50991620
 61,-1.6951842432,-0.8085216263\H,0,8.2251524368,-1.5998423126,0.957079
 4688\H,0,6.2069658437,1.8513289383,-0.1505570754\H,0,-0.7266940264,2.9
 587299165,-0.0593558471\H,0,5.1611521016,-1.0348499817,-0.0520025192\H
 ,0,-0.194958419,-0.2624080537,-0.2245498439\H,0,3.8997191398,1.9058562
 218,-0.4941616412\H,0,1.7553024054,1.9439101829,-0.4880315016\H,0,1.29
 74085757,-1.4736839726,-0.7669476992\H,0,3.2853098558,-1.888165118,-0.
 6644742174\H,0,2.0505017466,-1.2979040194,1.1771410007\\Version=ES64L-
 G16RevA.03\State=1-A\HF=-1857.1829154\RMSD=3.816e-09\PG=C01 [X(C40H56O
 4)]\\@


 DEPRESSION IS WAITING FOR YOUR SHIP TO COME IN,
 AND FINDING OUT IT'S THE TITANIC.
 Job cpu time:       0 days  6 hours 53 minutes 45.8 seconds.
 Elapsed time:       0 days  2 hours 18 minutes  9.8 seconds.
 File lengths (MBytes):  RWF=   3379 Int=      0 D2E=      0 Chk=     90 Scr=      1
 Normal termination of Gaussian 16 at Thu Aug  1 22:58:27 2019.
