 Entering Gaussian System, Link 0=g16
 Input=Geometria-460-.com
 Output=Geometria-460-.log
 Initial command:
 /usr/local/g16/l1.exe "/home/padawan/israel-mol/neoxanthin/spectra/emi/Gau-8120.inp" -scrdir="/home/padawan/israel-mol/neoxanthin/spectra/emi/"
 Entering Link 1 = /usr/local/g16/l1.exe PID=      8122.
  
 Copyright (c) 1988,1990,1992,1993,1995,1998,2003,2009,2016,
            Gaussian, Inc.  All Rights Reserved.
  
 This is part of the Gaussian(R) 16 program.  It is based on
 the Gaussian(R) 09 system (copyright 2009, Gaussian, Inc.),
 the Gaussian(R) 03 system (copyright 2003, Gaussian, Inc.),
 the Gaussian(R) 98 system (copyright 1998, Gaussian, Inc.),
 the Gaussian(R) 94 system (copyright 1995, Gaussian, Inc.),
 the Gaussian 92(TM) system (copyright 1992, Gaussian, Inc.),
 the Gaussian 90(TM) system (copyright 1990, Gaussian, Inc.),
 the Gaussian 88(TM) system (copyright 1988, Gaussian, Inc.),
 the Gaussian 86(TM) system (copyright 1986, Carnegie Mellon
 University), and the Gaussian 82(TM) system (copyright 1983,
 Carnegie Mellon University). Gaussian is a federally registered
 trademark of Gaussian, Inc.
  
 This software contains proprietary and confidential information,
 including trade secrets, belonging to Gaussian, Inc.
  
 This software is provided under written license and may be
 used, copied, transmitted, or stored only in accord with that
 written license.
  
 The following legend is applicable only to US Government
 contracts under FAR:
  
                    RESTRICTED RIGHTS LEGEND
  
 Use, reproduction and disclosure by the US Government is
 subject to restrictions as set forth in subparagraphs (a)
 and (c) of the Commercial Computer Software - Restricted
 Rights clause in FAR 52.227-19.
  
 Gaussian, Inc.
 340 Quinnipiac St., Bldg. 40, Wallingford CT 06492
  
  
 ---------------------------------------------------------------
 Warning -- This program may not be used in any manner that
 competes with the business of Gaussian, Inc. or will provide
 assistance to any competitor of Gaussian, Inc.  The licensee
 of this program is prohibited from giving any competitor of
 Gaussian, Inc. access to this program.  By using this program,
 the user acknowledges that Gaussian, Inc. is engaged in the
 business of creating and licensing software in the field of
 computational chemistry and represents and warrants to the
 licensee that it is not a competitor of Gaussian, Inc. and that
 it will not use this program in any manner prohibited above.
 ---------------------------------------------------------------
  

 Cite this work as:
 Gaussian 16, Revision A.03,
 M. J. Frisch, G. W. Trucks, H. B. Schlegel, G. E. Scuseria, 
 M. A. Robb, J. R. Cheeseman, G. Scalmani, V. Barone, 
 G. A. Petersson, H. Nakatsuji, X. Li, M. Caricato, A. V. Marenich, 
 J. Bloino, B. G. Janesko, R. Gomperts, B. Mennucci, H. P. Hratchian, 
 J. V. Ortiz, A. F. Izmaylov, J. L. Sonnenberg, D. Williams-Young, 
 F. Ding, F. Lipparini, F. Egidi, J. Goings, B. Peng, A. Petrone, 
 T. Henderson, D. Ranasinghe, V. G. Zakrzewski, J. Gao, N. Rega, 
 G. Zheng, W. Liang, M. Hada, M. Ehara, K. Toyota, R. Fukuda, 
 J. Hasegawa, M. Ishida, T. Nakajima, Y. Honda, O. Kitao, H. Nakai, 
 T. Vreven, K. Throssell, J. A. Montgomery, Jr., J. E. Peralta, 
 F. Ogliaro, M. J. Bearpark, J. J. Heyd, E. N. Brothers, K. N. Kudin, 
 V. N. Staroverov, T. A. Keith, R. Kobayashi, J. Normand, 
 K. Raghavachari, A. P. Rendell, J. C. Burant, S. S. Iyengar, 
 J. Tomasi, M. Cossi, J. M. Millam, M. Klene, C. Adamo, R. Cammi, 
 J. W. Ochterski, R. L. Martin, K. Morokuma, O. Farkas, 
 J. B. Foresman, and D. J. Fox, Gaussian, Inc., Wallingford CT, 2016.
 
 ******************************************
 Gaussian 16:  ES64L-G16RevA.03 25-Dec-2016
                 2-Aug-2019 
 ******************************************
 %nproc=3
 Will use up to    3 processors via shared memory.
 %Mem=2GB
 -------------------------------------
 # td=(NStates=1) CAM-B3LYP/6-31G(d,p)
 -------------------------------------
 1/38=1,172=1/1;
 2/12=2,17=6,18=5,40=1/2;
 3/5=1,6=6,7=101,11=9,25=1,30=1,74=-40/1,2,3,8;
 4//1;
 5/5=2,38=5/2;
 8/6=1,10=2,108=1/1;
 9/41=1,42=1,70=2/14;
 6/7=2,8=2,9=2,10=2/1;
 99/5=1,9=1/99;
 --
 TD
 --
 Symbolic Z-matrix:
 Charge =  0 Multiplicity = 1
 8                    -11.72102   0.27254  -1.60769 
 8                    -13.24389  -2.28357   1.39568 
 8                     10.70512  -1.04472  -2.13701 
 8                     14.5168  -0.97702   0.0664 
 6                    -11.0624  -0.09626  -0.33377 
 6                    -11.69562  -1.1578   -1.244 
 6                    -11.78673   0.41602   0.84282 
 6                    -13.06605  -1.75121  -0.88501 
 6                    -13.20862   0.09733   0.85638 
 6                    -13.52749  -1.34941   0.45912 
 6                    -10.78412  -2.09352  -2.11031 
 6                    -9.52551   0.12654  -0.33231 
 6                    -10.99687  -0.21301   2.1127 
 6                    -11.71161   1.89625   0.9455 
 6                    -8.67504  -0.76246   0.25589 
 6                    -7.21433  -0.61985   0.28481 
 6                    -6.30139  -1.8587    0.5081 
 6                    -6.66673   0.61906   0.08819 
 6                    -5.23816   0.75039  -0.00958 
 6                     11.79186   0.04353   1.33456 
 6                     11.65532  -0.57162  -1.26255 
 6                     12.57281  -1.27022   1.53487 
 6                     13.37849  -1.76309   0.37551 
 6                     12.52402  -1.83187  -0.91594 
 6                     11.01289   0.02357   0.02754 
 6                     10.72862   0.10744   2.5193 
 6                     12.79606   1.21772   1.54377 
 6                     12.69883   0.41748  -1.9959 
 6                    -4.77947   2.08631  -0.27821 
 6                     9.90543   0.47845  -0.19186 
 6                    -3.38723   2.44519  -0.40267 
 6                     8.71244   1.022    -0.24134 
 6                    -3.02276   3.86059  -0.73275 
 6                    -2.30574   1.59755  -0.08834 
 6                     7.4885    0.05987  -0.1703 
 6                     7.69221  -1.40075   0.12769 
 6                     6.33797   0.83991  -0.17171 
 6                    -0.97096   1.80975  -0.1798 
 6                     5.04226   0.23806  -0.23941 
 6                     0.11172   0.9198   -0.12274 
 6                     3.82397   0.8273   -0.17265 
 6                     1.50511   1.34969  -0.25131 
 6                     2.49976   0.32211  -0.14115 
 6                     2.31387  -1.17252   0.04824 
 1                    -13.04333  -2.80831  -0.89331 
 1                    -13.75644  -1.49757  -1.59057 
 1                    -13.94022   0.09652   1.94818 
 1                    -13.69984   0.78636   0.22605 
 1                    -14.64476  -1.48441   0.49435 
 1                    -10.49497  -3.09137  -1.50194 
 1                    -11.34982  -2.45691  -2.90839 
 1                    -10.01428  -1.49098  -2.52523 
 1                    -9.2651    0.8385   -1.1012 
 1                    -10.09052   0.34812   2.0924 
 1                    -11.71649  -0.20061   3.0147 
 1                    -10.72327  -1.35921   2.00753 
 1                    -12.07869   2.05321  -0.06185 
 1                    -12.35442   2.28175   1.76 
 1                    -10.64819   2.34343   1.04012 
 1                    -12.27779  -2.40006   1.62719 
 1                    -9.20635  -1.57858   0.86331 
 1                    -5.71725  -2.03843  -0.32431 
 1                    -5.63807  -1.72743   1.21031 
 1                    -7.01764  -2.64615   0.57467 
 1                    -7.4392    1.48657  -0.03572 
 1                    -4.62131  -0.17592   0.05033 
 1                     13.15808  -0.99573   2.52313 
 1                     11.80997  -2.01039   1.75716 
 1                     13.61228  -2.80777   0.56213 
 1                     13.12975  -2.16972  -1.68217 
 1                     11.72928  -2.55353  -0.77186 
 1                     11.28916   0.19924   3.5327 
 1                     10.09702   1.06055   2.29897 
 1                     10.02364  -0.89974   2.6667 
 1                     13.5594   1.19911   0.84048 
 1                     12.11449   2.15867   1.4647 
 1                     13.22431   1.17994   2.61733 
 1                     12.97006   0.02959  -2.78948 
 1                     12.08173   1.56296  -2.36142 
 1                     13.57526   0.71811  -1.29056 
 1                    -5.44018   2.84602  -0.37763 
 1                     10.16416  -0.26644  -2.42285 
 1                     14.99201  -0.36806   0.90382 
 1                     8.40978   2.06088  -0.42609 
 1                    -2.50257   4.30405   0.05459 
 1                    -2.42267   3.95902  -1.67598 
 1                    -3.84365   4.56869  -0.94915 
 1                    -2.70974   0.5584    0.2817 
 1                     6.64901  -1.75064  -0.04521 
 1                     8.25783  -2.02015  -0.5671 
 1                     8.11061  -1.32657   0.98153 
 1                     6.34435   1.83822  -0.03795 
 1                    -0.3906    2.71005  -0.39484 
 1                     4.84966  -0.87666  -0.30355 
 1                    -0.2032   -0.14151   0.04371 
 1                     3.80957   1.97305  -0.09539 
 1                     1.59691   2.43968  -0.40362 
 1                     1.30856  -1.45583  -0.27451 
 1                     3.22597  -1.87996  -0.63698 
 1                     2.5668   -1.37336   1.10547 
 
 Stoichiometry    C40H56O4
 Framework group  C1[X(C40H56O4)]
 Deg. of freedom   294
 Full point group                 C1      NOp   1
 Largest Abelian subgroup         C1      NOp   1
 Largest concise Abelian subgroup C1      NOp   1
                         Standard orientation:                         
 ---------------------------------------------------------------------
 Center     Atomic      Atomic             Coordinates (Angstroms)
 Number     Number       Type             X           Y           Z
 ---------------------------------------------------------------------
      1          8           0      -11.717678    0.264706   -1.622054
      2          8           0      -13.245009   -2.258454    1.406792
      3          8           0       10.708076   -1.072498   -2.116343
      4          8           0       14.517744   -0.983897    0.089802
      5          6           0      -11.060492   -0.091000   -0.343686
      6          6           0      -11.693547   -1.161711   -1.243212
      7          6           0      -11.785579    0.434185    0.826737
      8          6           0      -13.064704   -1.750402   -0.879238
      9          6           0      -13.207688    0.116574    0.842335
     10          6           0      -13.527131   -1.334088    0.460131
     11          6           0      -10.781859   -2.107151   -2.098704
     12          6           0       -9.523456    0.130819   -0.343141
     13          6           0      -10.997308   -0.181857    2.103944
     14          6           0      -11.709590    1.915378    0.913798
     15          6           0       -8.674114   -0.752449    0.255247
     16          6           0       -7.213337   -0.610479    0.284017
     17          6           0       -6.301419   -1.847480    0.521283
     18          6           0       -6.664749    0.625933    0.074800
     19          6           0       -5.236005    0.755296   -0.023011
     20          6           0       11.792293    0.051784    1.344521
     21          6           0       11.657776   -0.590769   -1.246056
     22          6           0       12.572205   -1.260277    1.559467
     23          6           0       13.378641   -1.765920    0.406154
     24          6           0       12.525325   -1.847828   -0.885293
     25          6           0       11.014528    0.018470    0.037053
     26          6           0       10.727998    0.128919    2.527521
     27          6           0       12.797068    1.227480    1.542216
     28          6           0       12.702607    0.389839   -1.988868
     29          6           0       -4.776194    2.088004   -0.305357
     30          6           0        9.907574    0.471713   -0.188194
     31          6           0       -3.383604    2.444653   -0.432303
     32          6           0        8.714984    1.015474   -0.244548
     33          6           0       -3.017904    3.856236   -0.777021
     34          6           0       -2.302954    1.599694   -0.107996
     35          6           0        7.490349    0.054935   -0.164464
     36          6           0        7.692834   -1.402570    0.149174
     37          6           0        6.340326    0.835660   -0.175223
     38          6           0       -0.967955    1.810054   -0.200442
     39          6           0        5.044288    0.233961   -0.237760
     40          6           0        0.114089    0.920059   -0.132945
     41          6           0        3.826327    0.824658   -0.178392
     42          6           0        1.507883    1.347668   -0.264751
     43          6           0        2.501755    0.320679   -0.142780
     44          6           0        2.314717   -1.171743    0.062264
     45          1           0      -13.042660   -2.807554   -0.876321
     46          1           0      -13.754270   -1.503817   -1.588089
     47          1           0      -13.940307    0.127797    1.933393
     48          1           0      -13.697871    0.799204    0.204280
     49          1           0      -14.644524   -1.467990    0.495737
     50          1           0      -10.493921   -3.098676   -1.479517
     51          1           0      -11.347044   -2.478609   -2.893415
     52          1           0      -10.011240   -1.509529   -2.519263
     53          1           0       -9.261859    0.834421   -1.119290
     54          1           0      -10.090579    0.378437    2.078559
     55          1           0      -11.717761   -0.159445    3.005089
     56          1           0      -10.724365   -1.329289    2.011185
     57          1           0      -12.075628    2.061888   -0.095508
     58          1           0      -12.352907    2.309898    1.723561
     59          1           0      -10.645961    2.362852    1.004668
     60          1           0      -12.279207   -2.373111    1.640431
     61          1           0       -9.206522   -1.561738    0.870772
     62          1           0       -5.716618   -2.036388   -0.308631
     63          1           0       -5.638660   -1.709197    1.222682
     64          1           0       -7.018241   -2.633713    0.595521
     65          1           0       -7.436530    1.492572   -0.059023
     66          1           0       -4.619810   -0.170719    0.047285
     67          1           0       13.156730   -0.975707    2.545311
     68          1           0       11.808668   -1.997559    1.788874
     69          1           0       13.611577   -2.808716    0.604053
     70          1           0       13.131551   -2.194172   -1.647338
     71          1           0       11.729986   -2.567417   -0.734328
     72          1           0       11.287648    0.231094    3.540411
     73          1           0       10.097218    1.080051    2.296505
     74          1           0       10.022220   -0.876185    2.684920
     75          1           0       13.561051    1.200922    0.839880
     76          1           0       12.116187    2.167967    1.452545
     77          1           0       13.224289    1.200799    2.616518
     78          1           0       12.974325   -0.006616   -2.778036
     79          1           0       12.086594    1.531775   -2.367083
     80          1           0       13.578578    0.697359   -1.285931
     81          1           0       -5.436307    2.847040   -0.413437
     82          1           0       10.167892   -0.296934   -2.410927
     83          1           0       14.992578   -0.366404    0.921165
     84          1           0        8.413176    2.052532   -0.440579
     85          1           0       -2.498149    4.307678    0.006068
     86          1           0       -2.416868    3.944286   -1.720675
     87          1           0       -3.838126    4.562528   -1.001683
     88          1           0       -2.707980    0.564780    0.272650
     89          1           0        6.649561   -1.753609   -0.020993
     90          1           0        8.258693   -2.029659   -0.538484
     91          1           0        8.110483   -1.319624    1.002572
     92          1           0        6.347237    1.835324   -0.052036
     93          1           0       -0.386807    2.707647   -0.424467
     94          1           0        4.851026   -0.881259   -0.290262
     95          1           0       -0.201675   -0.139217    0.044443
     96          1           0        3.812601    1.971171   -0.113286
     97          1           0        1.600530    2.435927   -0.428520
     98          1           0        1.309522   -1.457812   -0.258411
     99          1           0        3.226996   -1.886993   -0.614571
    100          1           0        2.566533   -1.361533    1.121800
 ---------------------------------------------------------------------
 Rotational constants (GHZ):           0.2704985           0.0088471           0.0087740
 Standard basis: 6-31G(d,p) (6D, 7F)
 There are   940 symmetry adapted cartesian basis functions of A   symmetry.
 There are   940 symmetry adapted basis functions of A   symmetry.
   940 basis functions,  1624 primitive gaussians,   940 cartesian basis functions
   164 alpha electrons      164 beta electrons
       nuclear repulsion energy      4457.2597266323 Hartrees.
 NAtoms=  100 NActive=  100 NUniq=  100 SFac= 1.00D+00 NAtFMM=   60 NAOKFM=T Big=T
 Integral buffers will be    131072 words long.
 Raffenetti 1 integral format.
 Two-electron integral symmetry is turned on.
 One-electron integrals computed using PRISM.
 NBasis=   940 RedAO= T EigKep=  2.63D-04  NBF=   940
 NBsUse=   940 1.00D-06 EigRej= -1.00D+00 NBFU=   940
 ExpMin= 1.61D-01 ExpMax= 5.48D+03 ExpMxC= 8.25D+02 IAcc=3 IRadAn=         5 AccDes= 0.00D+00
 Harris functional with IExCor=20419 and IRadAn=       5 diagonalized for initial guess.
 HarFok:  IExCor=20419 AccDes= 0.00D+00 IRadAn=         5 IDoV= 1 UseB2=F ITyADJ=14
 ICtDFT=  3500011 ScaDFX=  1.000000  1.000000  1.000000  1.000000
 FoFCou: FMM=F IPFlag=           0 FMFlag=      100000 FMFlg1=        2001
         NFxFlg=           0 DoJE=T BraDBF=F KetDBF=T FulRan=T
         wScrn=  0.000000 ICntrl=       500 IOpCl=  0 I1Cent=   200000004 NGrid=           0
         NMat0=    1 NMatS0=      1 NMatT0=    0 NMatD0=    1 NMtDS0=    0 NMtDT0=    0
 Petite list used in FoFCou.
 Requested convergence on RMS density matrix=1.00D-08 within 128 cycles.
 Requested convergence on MAX density matrix=1.00D-06.
 Requested convergence on             energy=1.00D-06.
 No special actions if energy rises.
 Integral accuracy reduced to 1.0D-05 until final iterations.
 Initial convergence to 1.0D-05 achieved.  Increase integral accuracy.
 SCF Done:  E(RCAM-B3LYP) =  -1857.27997100     A.U. after   15 cycles
            NFock= 15  Conv=0.66D-08     -V/T= 2.0096
 DoSCS=F DFT=T ScalE2(SS,OS)=  1.000000  1.000000
 ExpMin= 1.61D-01 ExpMax= 5.48D+03 ExpMxC= 8.25D+02 IAcc=3 IRadAn=         5 AccDes= 0.00D+00
 HarFok:  IExCor=  205 AccDes= 0.00D+00 IRadAn=         5 IDoV=-2 UseB2=F ITyADJ=14
 ICtDFT= 12500011 ScaDFX=  1.000000  1.000000  1.000000  1.000000
 GSVD:  LWork=       -2288 too small for GESVD, short by       10340 words or       10340 for optimal perf.
 Range of M.O.s used for correlation:    45   940
 NBasis=   940 NAE=   164 NBE=   164 NFC=    44 NFV=     0
 NROrb=    896 NOA=   120 NOB=   120 NVA=   776 NVB=   776
 Orbital symmetries:
       Occupied  (A) (A) (A) (A) (A) (A) (A) (A) (A) (A) (A) (A)
                 (A) (A) (A) (A) (A) (A) (A) (A) (A) (A) (A) (A)
                 (A) (A) (A) (A) (A) (A) (A) (A) (A) (A) (A) (A)
                 (A) (A) (A) (A) (A) (A) (A) (A) (A) (A) (A) (A)
                 (A) (A) (A) (A) (A) (A) (A) (A) (A) (A) (A) (A)
                 (A) (A) (A) (A) (A) (A) (A) (A) (A) (A) (A) (A)
                 (A) (A) (A) (A) (A) (A) (A) (A) (A) (A) (A) (A)
                 (A) (A) (A) (A) (A) (A) (A) (A) (A) (A) (A) (A)
                 (A) (A) (A) (A) (A) (A) (A) (A) (A) (A) (A) (A)
                 (A) (A) (A) (A) (A) (A) (A) (A) (A) (A) (A) (A)
                 (A) (A) (A) (A) (A) (A) (A) (A) (A) (A) (A) (A)
                 (A) (A) (A) (A) (A) (A) (A) (A) (A) (A) (A) (A)
                 (A) (A) (A) (A) (A) (A) (A) (A) (A) (A) (A) (A)
                 (A) (A) (A) (A) (A) (A) (A) (A)
       Virtual   (A) (A) (A) (A) (A) (A) (A) (A) (A) (A) (A) (A)
                 (A) (A) (A) (A) (A) (A) (A) (A) (A) (A) (A) (A)
                 (A) (A) (A) (A) (A) (A) (A) (A) (A) (A) (A) (A)
                 (A) (A) (A) (A) (A) (A) (A) (A) (A) (A) (A) (A)
                 (A) (A) (A) (A) (A) (A) (A) (A) (A) (A) (A) (A)
                 (A) (A) (A) (A) (A) (A) (A) (A) (A) (A) (A) (A)
                 (A) (A) (A) (A) (A) (A) (A) (A) (A) (A) (A) (A)
                 (A) (A) (A) (A) (A) (A) (A) (A) (A) (A) (A) (A)
                 (A) (A) (A) (A) (A) (A) (A) (A) (A) (A) (A) (A)
                 (A) (A) (A) (A) (A) (A) (A) (A) (A) (A) (A) (A)
                 (A) (A) (A) (A) (A) (A) (A) (A) (A) (A) (A) (A)
                 (A) (A) (A) (A) (A) (A) (A) (A) (A) (A) (A) (A)
                 (A) (A) (A) (A) (A) (A) (A) (A) (A) (A) (A) (A)
                 (A) (A) (A) (A) (A) (A) (A) (A) (A) (A) (A) (A)
                 (A) (A) (A) (A) (A) (A) (A) (A) (A) (A) (A) (A)
                 (A) (A) (A) (A) (A) (A) (A) (A) (A) (A) (A) (A)
                 (A) (A) (A) (A) (A) (A) (A) (A) (A) (A) (A) (A)
                 (A) (A) (A) (A) (A) (A) (A) (A) (A) (A) (A) (A)
                 (A) (A) (A) (A) (A) (A) (A) (A) (A) (A) (A) (A)
                 (A) (A) (A) (A) (A) (A) (A) (A) (A) (A) (A) (A)
                 (A) (A) (A) (A) (A) (A) (A) (A) (A) (A) (A) (A)
                 (A) (A) (A) (A) (A) (A) (A) (A) (A) (A) (A) (A)
                 (A) (A) (A) (A) (A) (A) (A) (A) (A) (A) (A) (A)
                 (A) (A) (A) (A) (A) (A) (A) (A) (A) (A) (A) (A)
                 (A) (A) (A) (A) (A) (A) (A) (A) (A) (A) (A) (A)
                 (A) (A) (A) (A) (A) (A) (A) (A) (A) (A) (A) (A)
                 (A) (A) (A) (A) (A) (A) (A) (A) (A) (A) (A) (A)
                 (A) (A) (A) (A) (A) (A) (A) (A) (A) (A) (A) (A)
                 (A) (A) (A) (A) (A) (A) (A) (A) (A) (A) (A) (A)
                 (A) (A) (A) (A) (A) (A) (A) (A) (A) (A) (A) (A)
                 (A) (A) (A) (A) (A) (A) (A) (A) (A) (A) (A) (A)
                 (A) (A) (A) (A) (A) (A) (A) (A) (A) (A) (A) (A)
                 (A) (A) (A) (A) (A) (A) (A) (A) (A) (A) (A) (A)
                 (A) (A) (A) (A) (A) (A) (A) (A) (A) (A) (A) (A)
                 (A) (A) (A) (A) (A) (A) (A) (A) (A) (A) (A) (A)
                 (A) (A) (A) (A) (A) (A) (A) (A) (A) (A) (A) (A)
                 (A) (A) (A) (A) (A) (A) (A) (A) (A) (A) (A) (A)
                 (A) (A) (A) (A) (A) (A) (A) (A) (A) (A) (A) (A)
                 (A) (A) (A) (A) (A) (A) (A) (A) (A) (A) (A) (A)
                 (A) (A) (A) (A) (A) (A) (A) (A) (A) (A) (A) (A)
                 (A) (A) (A) (A) (A) (A) (A) (A) (A) (A) (A) (A)
                 (A) (A) (A) (A) (A) (A) (A) (A) (A) (A) (A) (A)
                 (A) (A) (A) (A) (A) (A) (A) (A) (A) (A) (A) (A)
                 (A) (A) (A) (A) (A) (A) (A) (A) (A) (A) (A) (A)
                 (A) (A) (A) (A) (A) (A) (A) (A) (A) (A) (A) (A)
                 (A) (A) (A) (A) (A) (A) (A) (A) (A) (A) (A) (A)
                 (A) (A) (A) (A) (A) (A) (A) (A) (A) (A) (A) (A)
                 (A) (A) (A) (A) (A) (A) (A) (A) (A) (A) (A) (A)
                 (A) (A) (A) (A) (A) (A) (A) (A) (A) (A) (A) (A)
                 (A) (A) (A) (A) (A) (A) (A) (A) (A) (A) (A) (A)
                 (A) (A) (A) (A) (A) (A) (A) (A) (A) (A) (A) (A)
                 (A) (A) (A) (A) (A) (A) (A) (A) (A) (A) (A) (A)
                 (A) (A) (A) (A) (A) (A) (A) (A) (A) (A) (A) (A)
                 (A) (A) (A) (A) (A) (A) (A) (A) (A) (A) (A) (A)
                 (A) (A) (A) (A) (A) (A) (A) (A) (A) (A) (A) (A)
                 (A) (A) (A) (A) (A) (A) (A) (A) (A) (A) (A) (A)
                 (A) (A) (A) (A) (A) (A) (A) (A) (A) (A) (A) (A)
                 (A) (A) (A) (A) (A) (A) (A) (A) (A) (A) (A) (A)
                 (A) (A) (A) (A) (A) (A) (A) (A) (A) (A) (A) (A)
                 (A) (A) (A) (A) (A) (A) (A) (A) (A) (A) (A) (A)
                 (A) (A) (A) (A) (A) (A) (A) (A) (A) (A) (A) (A)
                 (A) (A) (A) (A) (A) (A) (A) (A) (A) (A) (A) (A)
                 (A) (A) (A) (A) (A) (A) (A) (A) (A) (A) (A) (A)
                 (A) (A) (A) (A) (A) (A) (A) (A) (A) (A) (A) (A)
                 (A) (A) (A) (A) (A) (A) (A) (A)
     4 initial guesses have been made.
 Convergence on wavefunction:    0.001000000000000
 Iteration     1 Dimension     4 NMult     0 NNew      4
 CISAX will form     4 AO SS matrices at one time.
 Iteration     2 Dimension     6 NMult     4 NNew      2
 Iteration     3 Dimension     8 NMult     6 NNew      2
 Iteration     4 Dimension    10 NMult     8 NNew      2
 Iteration     5 Dimension    12 NMult    10 NNew      2
 Iteration     6 Dimension    14 NMult    12 NNew      2
 ***********************************************************************
 Excited states from <AA,BB:AA,BB> singles matrix:
 ***********************************************************************
 
 Ground to excited state transition densities written to RWF  633
 Ground to excited state transition electric dipole moments (Au):
       state          X           Y           Z        Dip. S.      Osc.
         1        -7.3755      0.2084     -0.0287     54.4428      2.9005
 Ground to excited state transition velocity dipole moments (Au):
       state          X           Y           Z        Dip. S.      Osc.
         1         0.5703     -0.0157      0.0052      0.3255      2.7157
 Ground to excited state transition magnetic dipole moments (Au):
       state          X           Y           Z
         1        -0.0619     -0.3145     -2.3588
 Ground to excited state transition velocity quadrupole moments (Au):
       state          XX          YY          ZZ          XY          XZ          YZ
         1        -0.9970     -0.2330     -0.0120     -0.2844      0.0071      0.0476
 <0|del|b> * <b|rxdel|0> + <0|del|b> * <b|delr+rdel|0>
 Rotatory Strengths (R) in cgs (10**-40 erg-esu-cm/Gauss)
       state          XX          YY          ZZ    R(velocity)    E-M Angle
         1       -38.1202    -83.4464   -254.9583   -125.5083       91.80
 1/2[<0|r|b>*<b|rxdel|0> + (<0|rxdel|b>*<b|r|0>)*]
 Rotatory Strengths (R) in cgs (10**-40 erg-esu-cm/Gauss)
       state          XX          YY          ZZ     R(length)
         1      -322.7754     46.3436    -47.8771   -108.1030
  1/2[<0|del|b>*<b|r|0> + (<0|r|b>*<b|del|0>)*] (Au)
       state          X           Y           Z        Dip. S.   Osc.(frdel)
         1        -4.2064     -0.0033     -0.0001      4.2098      2.8065

 Excitation energies and oscillator strengths:
 
 Excited State   1:      Singlet-A      2.1746 eV  570.16 nm  f=2.9005  <S**2>=0.000
     163 ->166         0.13356
     164 ->165         0.69591
 This state for optimization and/or second-order correction.
 Total Energy, E(TD-HF/TD-DFT) =  -1857.20005706    
 Copying the excited state density for this state as the 1-particle RhoCI density.
 SavETr:  write IOETrn=   770 NScale= 10 NData=  16 NLR=1 NState=    1 LETran=      28.

 **********************************************************************

            Population analysis using the SCF density.

 **********************************************************************

 Orbital symmetries:
       Occupied  (A) (A) (A) (A) (A) (A) (A) (A) (A) (A) (A) (A)
                 (A) (A) (A) (A) (A) (A) (A) (A) (A) (A) (A) (A)
                 (A) (A) (A) (A) (A) (A) (A) (A) (A) (A) (A) (A)
                 (A) (A) (A) (A) (A) (A) (A) (A) (A) (A) (A) (A)
                 (A) (A) (A) (A) (A) (A) (A) (A) (A) (A) (A) (A)
                 (A) (A) (A) (A) (A) (A) (A) (A) (A) (A) (A) (A)
                 (A) (A) (A) (A) (A) (A) (A) (A) (A) (A) (A) (A)
                 (A) (A) (A) (A) (A) (A) (A) (A) (A) (A) (A) (A)
                 (A) (A) (A) (A) (A) (A) (A) (A) (A) (A) (A) (A)
                 (A) (A) (A) (A) (A) (A) (A) (A) (A) (A) (A) (A)
                 (A) (A) (A) (A) (A) (A) (A) (A) (A) (A) (A) (A)
                 (A) (A) (A) (A) (A) (A) (A) (A) (A) (A) (A) (A)
                 (A) (A) (A) (A) (A) (A) (A) (A) (A) (A) (A) (A)
                 (A) (A) (A) (A) (A) (A) (A) (A)
       Virtual   (A) (A) (A) (A) (A) (A) (A) (A) (A) (A) (A) (A)
                 (A) (A) (A) (A) (A) (A) (A) (A) (A) (A) (A) (A)
                 (A) (A) (A) (A) (A) (A) (A) (A) (A) (A) (A) (A)
                 (A) (A) (A) (A) (A) (A) (A) (A) (A) (A) (A) (A)
                 (A) (A) (A) (A) (A) (A) (A) (A) (A) (A) (A) (A)
                 (A) (A) (A) (A) (A) (A) (A) (A) (A) (A) (A) (A)
                 (A) (A) (A) (A) (A) (A) (A) (A) (A) (A) (A) (A)
                 (A) (A) (A) (A) (A) (A) (A) (A) (A) (A) (A) (A)
                 (A) (A) (A) (A) (A) (A) (A) (A) (A) (A) (A) (A)
                 (A) (A) (A) (A) (A) (A) (A) (A) (A) (A) (A) (A)
                 (A) (A) (A) (A) (A) (A) (A) (A) (A) (A) (A) (A)
                 (A) (A) (A) (A) (A) (A) (A) (A) (A) (A) (A) (A)
                 (A) (A) (A) (A) (A) (A) (A) (A) (A) (A) (A) (A)
                 (A) (A) (A) (A) (A) (A) (A) (A) (A) (A) (A) (A)
                 (A) (A) (A) (A) (A) (A) (A) (A) (A) (A) (A) (A)
                 (A) (A) (A) (A) (A) (A) (A) (A) (A) (A) (A) (A)
                 (A) (A) (A) (A) (A) (A) (A) (A) (A) (A) (A) (A)
                 (A) (A) (A) (A) (A) (A) (A) (A) (A) (A) (A) (A)
                 (A) (A) (A) (A) (A) (A) (A) (A) (A) (A) (A) (A)
                 (A) (A) (A) (A) (A) (A) (A) (A) (A) (A) (A) (A)
                 (A) (A) (A) (A) (A) (A) (A) (A) (A) (A) (A) (A)
                 (A) (A) (A) (A) (A) (A) (A) (A) (A) (A) (A) (A)
                 (A) (A) (A) (A) (A) (A) (A) (A) (A) (A) (A) (A)
                 (A) (A) (A) (A) (A) (A) (A) (A) (A) (A) (A) (A)
                 (A) (A) (A) (A) (A) (A) (A) (A) (A) (A) (A) (A)
                 (A) (A) (A) (A) (A) (A) (A) (A) (A) (A) (A) (A)
                 (A) (A) (A) (A) (A) (A) (A) (A) (A) (A) (A) (A)
                 (A) (A) (A) (A) (A) (A) (A) (A) (A) (A) (A) (A)
                 (A) (A) (A) (A) (A) (A) (A) (A) (A) (A) (A) (A)
                 (A) (A) (A) (A) (A) (A) (A) (A) (A) (A) (A) (A)
                 (A) (A) (A) (A) (A) (A) (A) (A) (A) (A) (A) (A)
                 (A) (A) (A) (A) (A) (A) (A) (A) (A) (A) (A) (A)
                 (A) (A) (A) (A) (A) (A) (A) (A) (A) (A) (A) (A)
                 (A) (A) (A) (A) (A) (A) (A) (A) (A) (A) (A) (A)
                 (A) (A) (A) (A) (A) (A) (A) (A) (A) (A) (A) (A)
                 (A) (A) (A) (A) (A) (A) (A) (A) (A) (A) (A) (A)
                 (A) (A) (A) (A) (A) (A) (A) (A) (A) (A) (A) (A)
                 (A) (A) (A) (A) (A) (A) (A) (A) (A) (A) (A) (A)
                 (A) (A) (A) (A) (A) (A) (A) (A) (A) (A) (A) (A)
                 (A) (A) (A) (A) (A) (A) (A) (A) (A) (A) (A) (A)
                 (A) (A) (A) (A) (A) (A) (A) (A) (A) (A) (A) (A)
                 (A) (A) (A) (A) (A) (A) (A) (A) (A) (A) (A) (A)
                 (A) (A) (A) (A) (A) (A) (A) (A) (A) (A) (A) (A)
                 (A) (A) (A) (A) (A) (A) (A) (A) (A) (A) (A) (A)
                 (A) (A) (A) (A) (A) (A) (A) (A) (A) (A) (A) (A)
                 (A) (A) (A) (A) (A) (A) (A) (A) (A) (A) (A) (A)
                 (A) (A) (A) (A) (A) (A) (A) (A) (A) (A) (A) (A)
                 (A) (A) (A) (A) (A) (A) (A) (A) (A) (A) (A) (A)
                 (A) (A) (A) (A) (A) (A) (A) (A) (A) (A) (A) (A)
                 (A) (A) (A) (A) (A) (A) (A) (A) (A) (A) (A) (A)
                 (A) (A) (A) (A) (A) (A) (A) (A) (A) (A) (A) (A)
                 (A) (A) (A) (A) (A) (A) (A) (A) (A) (A) (A) (A)
                 (A) (A) (A) (A) (A) (A) (A) (A) (A) (A) (A) (A)
                 (A) (A) (A) (A) (A) (A) (A) (A) (A) (A) (A) (A)
                 (A) (A) (A) (A) (A) (A) (A) (A) (A) (A) (A) (A)
                 (A) (A) (A) (A) (A) (A) (A) (A) (A) (A) (A) (A)
                 (A) (A) (A) (A) (A) (A) (A) (A) (A) (A) (A) (A)
                 (A) (A) (A) (A) (A) (A) (A) (A) (A) (A) (A) (A)
                 (A) (A) (A) (A) (A) (A) (A) (A) (A) (A) (A) (A)
                 (A) (A) (A) (A) (A) (A) (A) (A) (A) (A) (A) (A)
                 (A) (A) (A) (A) (A) (A) (A) (A) (A) (A) (A) (A)
                 (A) (A) (A) (A) (A) (A) (A) (A) (A) (A) (A) (A)
                 (A) (A) (A) (A) (A) (A) (A) (A) (A) (A) (A) (A)
                 (A) (A) (A) (A) (A) (A) (A) (A) (A) (A) (A) (A)
                 (A) (A) (A) (A) (A) (A) (A) (A)
 The electronic state is 1-A.
 Alpha  occ. eigenvalues --  -19.22969 -19.22093 -19.21924 -19.20692 -10.32485
 Alpha  occ. eigenvalues --  -10.32243 -10.31778 -10.31001 -10.29336 -10.28828
 Alpha  occ. eigenvalues --  -10.28782 -10.28689 -10.28619 -10.27943 -10.27862
 Alpha  occ. eigenvalues --  -10.27813 -10.27794 -10.27415 -10.27328 -10.27280
 Alpha  occ. eigenvalues --  -10.26955 -10.26806 -10.26691 -10.26676 -10.26646
 Alpha  occ. eigenvalues --  -10.26615 -10.26542 -10.26275 -10.26193 -10.26119
 Alpha  occ. eigenvalues --  -10.25887 -10.25863 -10.25793 -10.25775 -10.25681
 Alpha  occ. eigenvalues --  -10.25469 -10.25455 -10.25335 -10.24889 -10.24774
 Alpha  occ. eigenvalues --  -10.24520 -10.24343 -10.24254 -10.23599  -1.12348
 Alpha  occ. eigenvalues --   -1.11456  -1.10543  -1.07756  -0.93312  -0.92427
 Alpha  occ. eigenvalues --   -0.91819  -0.91437  -0.90576  -0.89796  -0.87101
 Alpha  occ. eigenvalues --   -0.86528  -0.86052  -0.85283  -0.84672  -0.82987
 Alpha  occ. eigenvalues --   -0.81859  -0.80499  -0.80444  -0.78670  -0.78055
 Alpha  occ. eigenvalues --   -0.77198  -0.76411  -0.76278  -0.75776  -0.75492
 Alpha  occ. eigenvalues --   -0.74934  -0.74172  -0.73056  -0.70721  -0.69799
 Alpha  occ. eigenvalues --   -0.68446  -0.67145  -0.65204  -0.65049  -0.64241
 Alpha  occ. eigenvalues --   -0.63265  -0.61898  -0.61312  -0.60756  -0.59047
 Alpha  occ. eigenvalues --   -0.58740  -0.58308  -0.57986  -0.57398  -0.56218
 Alpha  occ. eigenvalues --   -0.56088  -0.55514  -0.54974  -0.54723  -0.54179
 Alpha  occ. eigenvalues --   -0.53704  -0.53323  -0.53109  -0.52353  -0.51928
 Alpha  occ. eigenvalues --   -0.51590  -0.51052  -0.50832  -0.50354  -0.50033
 Alpha  occ. eigenvalues --   -0.49864  -0.49573  -0.49095  -0.48865  -0.48708
 Alpha  occ. eigenvalues --   -0.48480  -0.48278  -0.47733  -0.47550  -0.47149
 Alpha  occ. eigenvalues --   -0.46688  -0.46386  -0.46187  -0.45931  -0.45667
 Alpha  occ. eigenvalues --   -0.45454  -0.45126  -0.44751  -0.44476  -0.44276
 Alpha  occ. eigenvalues --   -0.44057  -0.43597  -0.43574  -0.42918  -0.42739
 Alpha  occ. eigenvalues --   -0.42453  -0.42392  -0.41259  -0.41189  -0.40937
 Alpha  occ. eigenvalues --   -0.40826  -0.40614  -0.40310  -0.40116  -0.39714
 Alpha  occ. eigenvalues --   -0.39672  -0.39115  -0.38869  -0.38479  -0.38265
 Alpha  occ. eigenvalues --   -0.37901  -0.37763  -0.37574  -0.36696  -0.36568
 Alpha  occ. eigenvalues --   -0.36466  -0.35142  -0.34964  -0.34164  -0.33545
 Alpha  occ. eigenvalues --   -0.32980  -0.32466  -0.31925  -0.31610  -0.30837
 Alpha  occ. eigenvalues --   -0.30421  -0.27875  -0.24401  -0.19475
 Alpha virt. eigenvalues --   -0.05801  -0.00475   0.03295   0.06057   0.07051
 Alpha virt. eigenvalues --    0.07848   0.09760   0.09857   0.09951   0.11528
 Alpha virt. eigenvalues --    0.12128   0.12243   0.12388   0.13336   0.13725
 Alpha virt. eigenvalues --    0.13950   0.14099   0.14607   0.14815   0.15318
 Alpha virt. eigenvalues --    0.15620   0.16310   0.16503   0.16588   0.16843
 Alpha virt. eigenvalues --    0.16856   0.17000   0.17107   0.17467   0.17677
 Alpha virt. eigenvalues --    0.18158   0.18309   0.18665   0.19065   0.19462
 Alpha virt. eigenvalues --    0.19511   0.19868   0.19973   0.20168   0.20441
 Alpha virt. eigenvalues --    0.20990   0.21214   0.21290   0.21641   0.21868
 Alpha virt. eigenvalues --    0.22231   0.22436   0.22605   0.22671   0.23413
 Alpha virt. eigenvalues --    0.23668   0.24035   0.24123   0.24497   0.24573
 Alpha virt. eigenvalues --    0.24676   0.24930   0.25211   0.25696   0.25931
 Alpha virt. eigenvalues --    0.26075   0.26286   0.26596   0.26750   0.26853
 Alpha virt. eigenvalues --    0.27126   0.27139   0.27635   0.27749   0.28409
 Alpha virt. eigenvalues --    0.28561   0.28854   0.29001   0.29481   0.29893
 Alpha virt. eigenvalues --    0.30313   0.30754   0.31233   0.31463   0.31625
 Alpha virt. eigenvalues --    0.32299   0.32465   0.33140   0.33259   0.33813
 Alpha virt. eigenvalues --    0.34502   0.35475   0.36220   0.36512   0.36961
 Alpha virt. eigenvalues --    0.37339   0.37760   0.38573   0.39033   0.39216
 Alpha virt. eigenvalues --    0.39891   0.40837   0.41211   0.42315   0.42744
 Alpha virt. eigenvalues --    0.43547   0.43857   0.44166   0.45136   0.45904
 Alpha virt. eigenvalues --    0.46560   0.47785   0.48406   0.48880   0.51162
 Alpha virt. eigenvalues --    0.52849   0.53194   0.53928   0.54931   0.55434
 Alpha virt. eigenvalues --    0.56428   0.57153   0.57178   0.57677   0.58287
 Alpha virt. eigenvalues --    0.58398   0.58714   0.58771   0.59247   0.59351
 Alpha virt. eigenvalues --    0.59719   0.59985   0.60242   0.60598   0.60932
 Alpha virt. eigenvalues --    0.61039   0.61512   0.61903   0.62220   0.62401
 Alpha virt. eigenvalues --    0.62670   0.63076   0.63391   0.63509   0.63817
 Alpha virt. eigenvalues --    0.64166   0.64309   0.64432   0.65086   0.65229
 Alpha virt. eigenvalues --    0.65503   0.65786   0.66139   0.66345   0.66790
 Alpha virt. eigenvalues --    0.66857   0.67030   0.67474   0.67636   0.68000
 Alpha virt. eigenvalues --    0.68170   0.68460   0.68722   0.69135   0.69669
 Alpha virt. eigenvalues --    0.70440   0.70560   0.71120   0.71289   0.71557
 Alpha virt. eigenvalues --    0.72303   0.72634   0.72910   0.73078   0.73794
 Alpha virt. eigenvalues --    0.74096   0.74319   0.74513   0.75362   0.75925
 Alpha virt. eigenvalues --    0.76426   0.76829   0.77345   0.77497   0.77867
 Alpha virt. eigenvalues --    0.78091   0.78901   0.79097   0.79595   0.79649
 Alpha virt. eigenvalues --    0.79779   0.80169   0.80496   0.81014   0.81357
 Alpha virt. eigenvalues --    0.81827   0.82100   0.82481   0.82979   0.83023
 Alpha virt. eigenvalues --    0.83448   0.83839   0.84087   0.84167   0.84411
 Alpha virt. eigenvalues --    0.84920   0.85310   0.85392   0.85927   0.86125
 Alpha virt. eigenvalues --    0.86399   0.86679   0.86989   0.87490   0.87741
 Alpha virt. eigenvalues --    0.88161   0.88389   0.88394   0.88988   0.89476
 Alpha virt. eigenvalues --    0.89830   0.90089   0.90820   0.91037   0.91130
 Alpha virt. eigenvalues --    0.91384   0.91950   0.92224   0.92555   0.93271
 Alpha virt. eigenvalues --    0.93327   0.93582   0.93936   0.93990   0.94141
 Alpha virt. eigenvalues --    0.94205   0.94599   0.94846   0.95051   0.95526
 Alpha virt. eigenvalues --    0.95762   0.96371   0.96558   0.96738   0.96912
 Alpha virt. eigenvalues --    0.97279   0.97398   0.97852   0.98089   0.98873
 Alpha virt. eigenvalues --    0.99199   0.99280   0.99659   1.00120   1.00299
 Alpha virt. eigenvalues --    1.00543   1.00590   1.00726   1.01436   1.01554
 Alpha virt. eigenvalues --    1.02147   1.02187   1.02885   1.03062   1.03275
 Alpha virt. eigenvalues --    1.03529   1.04518   1.05027   1.05468   1.06099
 Alpha virt. eigenvalues --    1.06259   1.06839   1.06940   1.07526   1.07870
 Alpha virt. eigenvalues --    1.07999   1.09013   1.09230   1.09620   1.10390
 Alpha virt. eigenvalues --    1.11104   1.11484   1.11741   1.12004   1.12240
 Alpha virt. eigenvalues --    1.13049   1.13686   1.14341   1.14825   1.14966
 Alpha virt. eigenvalues --    1.15246   1.16395   1.16889   1.17220   1.17630
 Alpha virt. eigenvalues --    1.19349   1.19964   1.20086   1.20383   1.21160
 Alpha virt. eigenvalues --    1.21366   1.22067   1.22953   1.23462   1.23770
 Alpha virt. eigenvalues --    1.23868   1.24533   1.26030   1.27265   1.27772
 Alpha virt. eigenvalues --    1.27794   1.28519   1.29258   1.29532   1.30428
 Alpha virt. eigenvalues --    1.32446   1.32699   1.33107   1.33565   1.34053
 Alpha virt. eigenvalues --    1.34620   1.35116   1.35856   1.37230   1.38119
 Alpha virt. eigenvalues --    1.38349   1.38595   1.40208   1.40536   1.41573
 Alpha virt. eigenvalues --    1.42179   1.42377   1.42693   1.43341   1.43555
 Alpha virt. eigenvalues --    1.43921   1.44801   1.45177   1.47114   1.47401
 Alpha virt. eigenvalues --    1.47874   1.48630   1.49045   1.50053   1.51057
 Alpha virt. eigenvalues --    1.52128   1.52681   1.52918   1.53166   1.54414
 Alpha virt. eigenvalues --    1.54965   1.55636   1.56930   1.57324   1.58240
 Alpha virt. eigenvalues --    1.58356   1.59066   1.59420   1.60099   1.60423
 Alpha virt. eigenvalues --    1.60803   1.61732   1.61913   1.62875   1.63112
 Alpha virt. eigenvalues --    1.63146   1.63883   1.64399   1.65691   1.66097
 Alpha virt. eigenvalues --    1.67924   1.68630   1.69111   1.71113   1.72752
 Alpha virt. eigenvalues --    1.73106   1.74307   1.74534   1.75498   1.77458
 Alpha virt. eigenvalues --    1.77489   1.78196   1.78999   1.79438   1.80153
 Alpha virt. eigenvalues --    1.80550   1.80837   1.81271   1.81546   1.81707
 Alpha virt. eigenvalues --    1.82013   1.82731   1.83086   1.83815   1.84054
 Alpha virt. eigenvalues --    1.84390   1.84589   1.84879   1.85339   1.85602
 Alpha virt. eigenvalues --    1.86305   1.87003   1.87048   1.87680   1.87839
 Alpha virt. eigenvalues --    1.88380   1.88964   1.89359   1.89867   1.90132
 Alpha virt. eigenvalues --    1.90700   1.90771   1.91401   1.91466   1.91771
 Alpha virt. eigenvalues --    1.92042   1.92805   1.93181   1.93442   1.94234
 Alpha virt. eigenvalues --    1.94993   1.95263   1.95742   1.96095   1.96628
 Alpha virt. eigenvalues --    1.96942   1.97463   1.98070   1.98145   1.98365
 Alpha virt. eigenvalues --    1.98556   1.99162   1.99369   1.99872   2.00150
 Alpha virt. eigenvalues --    2.00904   2.00998   2.01425   2.02064   2.02635
 Alpha virt. eigenvalues --    2.03539   2.04042   2.04582   2.04938   2.05351
 Alpha virt. eigenvalues --    2.06056   2.06758   2.07041   2.07527   2.08048
 Alpha virt. eigenvalues --    2.08098   2.08300   2.08614   2.09138   2.09962
 Alpha virt. eigenvalues --    2.10429   2.10774   2.11217   2.11361   2.11712
 Alpha virt. eigenvalues --    2.12077   2.12266   2.12398   2.13050   2.13211
 Alpha virt. eigenvalues --    2.14042   2.14326   2.14604   2.14623   2.14804
 Alpha virt. eigenvalues --    2.15386   2.16186   2.16864   2.16911   2.17122
 Alpha virt. eigenvalues --    2.17398   2.17958   2.18408   2.18621   2.19289
 Alpha virt. eigenvalues --    2.19376   2.19762   2.20064   2.20353   2.20687
 Alpha virt. eigenvalues --    2.20859   2.21133   2.21861   2.22038   2.22897
 Alpha virt. eigenvalues --    2.23046   2.23421   2.24118   2.24409   2.24536
 Alpha virt. eigenvalues --    2.25709   2.25924   2.26455   2.26827   2.27499
 Alpha virt. eigenvalues --    2.27604   2.28100   2.28308   2.28533   2.28815
 Alpha virt. eigenvalues --    2.28916   2.29549   2.30077   2.30463   2.31014
 Alpha virt. eigenvalues --    2.31988   2.32420   2.32900   2.33051   2.34017
 Alpha virt. eigenvalues --    2.34087   2.34717   2.34950   2.35550   2.35855
 Alpha virt. eigenvalues --    2.36043   2.36712   2.37405   2.37552   2.37886
 Alpha virt. eigenvalues --    2.38220   2.38602   2.39126   2.39883   2.40092
 Alpha virt. eigenvalues --    2.40808   2.41843   2.42185   2.42772   2.43667
 Alpha virt. eigenvalues --    2.43772   2.44607   2.44720   2.45523   2.45581
 Alpha virt. eigenvalues --    2.46365   2.46628   2.47310   2.47620   2.47870
 Alpha virt. eigenvalues --    2.48051   2.48529   2.49105   2.49722   2.50038
 Alpha virt. eigenvalues --    2.51017   2.51877   2.52392   2.52724   2.52957
 Alpha virt. eigenvalues --    2.53103   2.53863   2.54753   2.54960   2.55248
 Alpha virt. eigenvalues --    2.55860   2.56763   2.57080   2.57525   2.57945
 Alpha virt. eigenvalues --    2.58385   2.58803   2.59616   2.59728   2.60569
 Alpha virt. eigenvalues --    2.60767   2.61156   2.61523   2.61719   2.61957
 Alpha virt. eigenvalues --    2.62983   2.63171   2.63358   2.63507   2.64453
 Alpha virt. eigenvalues --    2.64678   2.64719   2.65359   2.65730   2.66396
 Alpha virt. eigenvalues --    2.66645   2.66823   2.67108   2.67857   2.68094
 Alpha virt. eigenvalues --    2.68196   2.68790   2.69574   2.69882   2.70528
 Alpha virt. eigenvalues --    2.70656   2.71885   2.72103   2.72306   2.72733
 Alpha virt. eigenvalues --    2.73080   2.73212   2.75054   2.75292   2.75356
 Alpha virt. eigenvalues --    2.76041   2.76215   2.76859   2.77802   2.77962
 Alpha virt. eigenvalues --    2.78249   2.78768   2.78933   2.79608   2.79936
 Alpha virt. eigenvalues --    2.80318   2.80487   2.80992   2.81407   2.82107
 Alpha virt. eigenvalues --    2.83478   2.84244   2.84700   2.85127   2.85700
 Alpha virt. eigenvalues --    2.85924   2.86381   2.86676   2.87313   2.88111
 Alpha virt. eigenvalues --    2.88521   2.89141   2.89296   2.89654   2.90301
 Alpha virt. eigenvalues --    2.90382   2.91051   2.92575   2.92642   2.93325
 Alpha virt. eigenvalues --    2.93496   2.94111   2.94945   2.95956   2.96055
 Alpha virt. eigenvalues --    2.96359   2.96935   2.97601   2.97796   2.98190
 Alpha virt. eigenvalues --    2.98571   2.98643   2.99193   2.99608   3.00019
 Alpha virt. eigenvalues --    3.00470   3.00854   3.01426   3.01915   3.02380
 Alpha virt. eigenvalues --    3.04306   3.04340   3.04828   3.05496   3.07012
 Alpha virt. eigenvalues --    3.08702   3.08768   3.10173   3.10487   3.10719
 Alpha virt. eigenvalues --    3.11306   3.12295   3.14420   3.14800   3.15387
 Alpha virt. eigenvalues --    3.15752   3.17310   3.18357   3.20566   3.20723
 Alpha virt. eigenvalues --    3.22601   3.23216   3.23486   3.24409   3.24949
 Alpha virt. eigenvalues --    3.25008   3.26291   3.28735   3.29562   3.29687
 Alpha virt. eigenvalues --    3.35744   3.35861   3.37418   3.37922   3.39074
 Alpha virt. eigenvalues --    3.39686   3.40844   3.42222   3.42638   3.43448
 Alpha virt. eigenvalues --    3.43701   3.44937   3.46665   3.46884   3.48800
 Alpha virt. eigenvalues --    3.49040   3.49556   3.50067   3.51147   3.51460
 Alpha virt. eigenvalues --    3.53034   3.53420   3.53672   3.54627   3.55050
 Alpha virt. eigenvalues --    3.55941   3.56680   3.57054   3.57570   3.58849
 Alpha virt. eigenvalues --    3.59668   3.60116   3.60577   3.62149   3.63009
 Alpha virt. eigenvalues --    3.63183   3.64332   3.64727   3.64878   3.69027
 Alpha virt. eigenvalues --    3.71080   3.74719   3.78118   3.78681   3.79126
 Alpha virt. eigenvalues --    3.88254   4.00999   4.02311   4.04753   4.13003
 Alpha virt. eigenvalues --    4.17778   4.18707   4.19085   4.21638   4.22014
 Alpha virt. eigenvalues --    4.24086   4.25754   4.28477   4.31861   4.33135
 Alpha virt. eigenvalues --    4.34795   4.37667   4.41045   4.43956   4.44799
 Alpha virt. eigenvalues --    4.46774   4.47741   4.49294   4.53119   4.56005
 Alpha virt. eigenvalues --    4.56520   4.56554   4.57837   4.60595   4.61508
 Alpha virt. eigenvalues --    4.63318   4.64463   4.68386   4.69946   4.71949
 Alpha virt. eigenvalues --    4.74489   4.76659   4.79112   4.81038   4.83776
 Alpha virt. eigenvalues --    4.85758   4.86532   4.89644   4.91570   4.98872
 Alpha virt. eigenvalues --    4.99980
          Condensed to atoms (all electrons):
 Mulliken charges:
               1
     1  O   -0.530495
     2  O   -0.546064
     3  O   -0.555252
     4  O   -0.571061
     5  C    0.188109
     6  C    0.227359
     7  C    0.026541
     8  C   -0.193610
     9  C   -0.173396
    10  C    0.154615
    11  C   -0.324585
    12  C   -0.131573
    13  C   -0.310834
    14  C   -0.310848
    15  C   -0.076769
    16  C    0.037148
    17  C   -0.364784
    18  C   -0.090587
    19  C   -0.088643
    20  C   -0.004834
    21  C    0.235300
    22  C   -0.188075
    23  C    0.194045
    24  C   -0.197023
    25  C   -0.076471
    26  C   -0.292712
    27  C   -0.292378
    28  C   -0.267130
    29  C   -0.111062
    30  C    0.219763
    31  C    0.096715
    32  C   -0.302467
    33  C   -0.386580
    34  C   -0.128588
    35  C    0.054312
    36  C   -0.342905
    37  C   -0.079103
    38  C   -0.063885
    39  C   -0.088175
    40  C   -0.094431
    41  C   -0.120238
    42  C   -0.138875
    43  C    0.111447
    44  C   -0.352026
    45  H    0.109903
    46  H    0.121314
    47  H    0.065528
    48  H    0.110030
    49  H    0.083328
    50  H    0.090850
    51  H    0.121620
    52  H    0.127665
    53  H    0.116507
    54  H    0.131877
    55  H    0.108262
    56  H    0.046132
    57  H    0.129770
    58  H    0.111671
    59  H    0.085322
    60  H    0.299739
    61  H    0.081762
    62  H    0.133029
    63  H    0.135554
    64  H    0.108579
    65  H    0.090951
    66  H    0.101160
    67  H    0.070212
    68  H    0.099233
    69  H    0.087138
    70  H    0.118188
    71  H    0.107798
    72  H    0.087094
    73  H    0.108155
    74  H    0.083958
    75  H    0.110157
    76  H    0.098788
    77  H    0.092074
    78  H    0.124780
    79  H    0.013595
    80  H    0.118198
    81  H    0.087436
    82  H    0.310928
    83  H    0.312146
    84  H    0.110694
    85  H    0.135472
    86  H    0.118107
    87  H    0.099412
    88  H    0.064742
    89  H    0.110774
    90  H    0.136805
    91  H    0.143211
    92  H    0.082664
    93  H    0.066294
    94  H    0.057777
    95  H    0.070133
    96  H    0.057570
    97  H    0.107992
    98  H    0.125075
    99  H    0.078342
   100  H    0.144606
 Sum of Mulliken charges =  -0.00000
 Mulliken charges with hydrogens summed into heavy atoms:
               1
     1  O   -0.530495
     2  O   -0.246325
     3  O   -0.244324
     4  O   -0.258915
     5  C    0.188109
     6  C    0.227359
     7  C    0.026541
     8  C    0.037606
     9  C    0.002162
    10  C    0.237943
    11  C    0.015550
    12  C   -0.015066
    13  C   -0.024563
    14  C    0.015915
    15  C    0.004993
    16  C    0.037148
    17  C    0.012378
    18  C    0.000364
    19  C    0.012517
    20  C   -0.004834
    21  C    0.235300
    22  C   -0.018630
    23  C    0.281183
    24  C    0.028964
    25  C   -0.076471
    26  C   -0.013505
    27  C    0.008641
    28  C   -0.010557
    29  C   -0.023625
    30  C    0.219763
    31  C    0.096715
    32  C   -0.191772
    33  C   -0.033589
    34  C   -0.063846
    35  C    0.054312
    36  C    0.047885
    37  C    0.003561
    38  C    0.002409
    39  C   -0.030398
    40  C   -0.024297
    41  C   -0.062668
    42  C   -0.030882
    43  C    0.111447
    44  C   -0.004003
 Electronic spatial extent (au):  <R**2>=         114989.4976
 Charge=             -0.0000 electrons
 Dipole moment (field-independent basis, Debye):
    X=              3.7166    Y=             -0.1934    Z=              2.1626  Tot=              4.3043
 Quadrupole moment (field-independent basis, Debye-Ang):
   XX=           -295.0969   YY=           -260.0690   ZZ=           -277.2987
   XY=             12.9938   XZ=             28.8657   YZ=             -0.6951
 Traceless Quadrupole moment (field-independent basis, Debye-Ang):
   XX=            -17.6087   YY=             17.4192   ZZ=              0.1895
   XY=             12.9938   XZ=             28.8657   YZ=             -0.6951
 Octapole moment (field-independent basis, Debye-Ang**2):
  XXX=            950.5560  YYY=              1.9534  ZZZ=             -9.0102  XYY=             -3.9390
  XXY=            107.7078  XXZ=            342.0581  XZZ=             54.7096  YZZ=            -12.3526
  YYZ=            -15.6677  XYZ=            -78.4007
 Hexadecapole moment (field-independent basis, Debye-Ang**3):
 XXXX=        -155948.0837 YYYY=          -3529.2831 ZZZZ=          -2256.8205 XXXY=           1140.8129
 XXXZ=           6398.9894 YYYX=           -100.5642 YYYZ=            -13.3919 ZZZX=            -20.7528
 ZZZY=             -0.6687 XXYY=         -25793.0913 XXZZ=         -25631.2379 YYZZ=          -1000.1052
 XXYZ=            549.6692 YYXZ=            127.4554 ZZXY=             64.5175
 N-N= 4.457259726632D+03 E-N=-1.322462930202D+04  KE= 1.839608508131D+03
 1\1\GINC-RYZEN-SSD3\SP\RCAM-B3LYP TD-FC\6-31G(d,p)\C40H56O4\PADAWAN\02
 -Aug-2019\0\\# td=(NStates=1) CAM-B3LYP/6-31G(d,p)\\TD\\0,1\O,0,-11.72
 10187695,0.2725379022,-1.6076879324\O,0,-13.2438852243,-2.2835666647,1
 .3956752525\O,0,10.7051160315,-1.0447243603,-2.137007427\O,0,14.516795
 0462,-0.9770164231,0.0664021528\C,0,-11.0624044076,-0.0962635811,-0.33
 37728017\C,0,-11.6956158513,-1.1577969596,-1.2440032406\C,0,-11.786730
 7161,0.4160182846,0.8428239374\C,0,-13.0660518089,-1.7512052784,-0.885
 010135\C,0,-13.2086193199,0.0973322856,0.8563803259\C,0,-13.5274891824
 ,-1.3494064784,0.4591246798\C,0,-10.7841240011,-2.09352477,-2.11031334
 96\C,0,-9.525511995,0.1265397878,-0.3323101891\C,0,-10.996865664,-0.21
 30068967,2.1126963367\C,0,-11.7116115415,1.8962547286,0.945502642\C,0,
 -8.6750409258,-0.7624642876,0.2558943284\C,0,-7.2143294225,-0.61985383
 15,0.2848061809\C,0,-6.3013941543,-1.8587045593,0.5081030466\C,0,-6.66
 67323349,0.6190627362,0.0881902638\C,0,-5.238163758,0.7503870754,-0.00
 95752877\C,0,11.7918584327,0.0435343829,1.3345629844\C,0,11.6553228224
 ,-0.5716233175,-1.2625501347\C,0,12.5728145096,-1.2702212518,1.5348682
 202\C,0,13.378492536,-1.7630908425,0.3755115156\C,0,12.5240173364,-1.8
 318676958,-0.9159355561\C,0,11.0128881767,0.0235671046,0.0275399343\C,
 0,10.7286242673,0.1074373857,2.5193042706\C,0,12.796062723,1.217724993
 3,1.5437674277\C,0,12.6988261888,0.4174806214,-1.9959035382\C,0,-4.779
 4744431,2.0863111371,-0.2782126702\C,0,9.9054317307,0.4784486477,-0.19
 18603627\C,0,-3.3872338818,2.445193273,-0.4026705278\C,0,8.7124410301,
 1.0219985337,-0.2413384738\C,0,-3.0227639615,3.8605875183,-0.732753007
 4\C,0,-2.3057374888,1.5975516039,-0.0883413688\C,0,7.4884983923,0.0598
 665747,-0.1702962137\C,0,7.6922139579,-1.4007470268,0.1276926922\C,0,6
 .3379651445,0.8399109214,-0.1717111071\C,0,-0.9709612276,1.8097500987,
 -0.1797961547\C,0,5.0422558284,0.2380629224,-0.2394125725\C,0,0.111717
 6508,0.9197952894,-0.1227413769\C,0,3.8239718049,0.8273030807,-0.17265
 47345\C,0,1.505112452,1.3496866964,-0.2513075117\C,0,2.4997578763,0.32
 21115109,-0.1411507572\C,0,2.3138712488,-1.1725214324,0.0482434179\H,0
 ,-13.0433261334,-2.8083138092,-0.8933145555\H,0,-13.7564408678,-1.4975
 737416,-1.5905655113\H,0,-13.9402218244,0.0965167205,1.9481775005\H,0,
 -13.6998393775,0.7863637635,0.2260502706\H,0,-14.6447617803,-1.4844071
 541,0.4943510394\H,0,-10.4949681137,-3.0913659194,-1.5019354889\H,0,-1
 1.3498151904,-2.4569104824,-2.9083891251\H,0,-10.0142836119,-1.4909783
 064,-2.5252341359\H,0,-9.2650951643,0.8384959806,-1.1012039305\H,0,-10
 .0905203796,0.3481160757,2.0924049833\H,0,-11.7164870096,-0.2006133597
 ,3.0146998201\H,0,-10.723273021,-1.3592127978,2.0075315429\H,0,-12.078
 6904115,2.0532114431,-0.0618529693\H,0,-12.3544216816,2.2817537509,1.7
 599997118\H,0,-10.6481851006,2.343434934,1.0401183053\H,0,-12.27779085
 16,-2.4000628799,1.6271871976\H,0,-9.206351477,-1.5785762153,0.8633054
 294\H,0,-5.7172511712,-2.0384271678,-0.3243104754\H,0,-5.6380662219,-1
 .7274279754,1.2103094271\H,0,-7.0176418748,-2.6461468877,0.5746736182\
 H,0,-7.4391952306,1.4865669858,-0.0357232488\H,0,-4.6213087756,-0.1759
 189735,0.0503312574\H,0,13.1580814852,-0.9957312605,2.5231272533\H,0,1
 1.8099661736,-2.010390419,1.7571617159\H,0,13.6122835853,-2.8077724422
 ,0.5621331392\H,0,13.1297504135,-2.1697234508,-1.6821713118\H,0,11.729
 2829365,-2.5535344773,-0.7718625284\H,0,11.2891585241,0.1992402907,3.5
 326983085\H,0,10.0970166794,1.0605516183,2.2989674209\H,0,10.023639985
 2,-0.8997382883,2.6667029115\H,0,13.5594028422,1.1991085351,0.84047811
 26\H,0,12.1144940626,2.1586653043,1.4647011758\H,0,13.2243082679,1.179
 9424733,2.6173282144\H,0,12.9700578253,0.029586349,-2.7894814\H,0,12.0
 817252409,1.5629583867,-2.3614240773\H,0,13.5752583584,0.7181078637,-1
 .2905645419\H,0,-5.4401762415,2.8460189887,-0.3776291737\H,0,10.164157
 6664,-0.2664353011,-2.4228546213\H,0,14.9920120464,-0.3680566201,0.903
 8189812\H,0,8.4097828291,2.060878415,-0.4260898862\H,0,-2.5025653407,4
 .3040468544,0.0545912888\H,0,-2.4226710314,3.9590231271,-1.6759807072\
 H,0,-3.8436507502,4.5686850503,-0.949154717\H,0,-2.7097405942,0.558398
 0518,0.2816952149\H,0,6.6490076507,-1.7506446266,-0.0452120365\H,0,8.2
 578309976,-2.0201467395,-0.5670974838\H,0,8.1106109827,-1.3265749859,0
 .9815319141\H,0,6.3443495821,1.8382176272,-0.0379458143\H,0,-0.3906004
 17,2.710045048,-0.3948393954\H,0,4.8496609525,-0.8766641631,-0.3035476
 737\H,0,-0.2031992431,-0.1415059635,0.0437069818\H,0,3.8095701249,1.97
 30529415,-0.0953917642\H,0,1.5969065659,2.4396797599,-0.4036230607\H,0
 ,1.3085596908,-1.4558321874,-0.2745084552\H,0,3.2259739222,-1.87996429
 79,-0.6369814681\H,0,2.5668033767,-1.3733615652,1.105473834\\Version=E
 S64L-G16RevA.03\State=1-A\HF=-1857.279971\RMSD=6.640e-09\PG=C01 [X(C40
 H56O4)]\\@


 ... IT CAN BE VERY DIFFICULT, IN THESE COMPLEX TIMES,
 TO UNDERSTAND JUST HOW SCIENTISTS DO WHAT THEY DO.

                     DON MOSER IN THE FEBRUARY 1979 SMITHSONIAN
 Job cpu time:       0 days  6 hours 43 minutes 42.0 seconds.
 Elapsed time:       0 days  2 hours 14 minutes 53.5 seconds.
 File lengths (MBytes):  RWF=   3379 Int=      0 D2E=      0 Chk=     90 Scr=      1
 Normal termination of Gaussian 16 at Fri Aug  2 05:34:24 2019.
