 Entering Gaussian System, Link 0=g16
 Input=Geometria-82-.com
 Output=Geometria-82-.log
 Initial command:
 /usr/local/g16/l1.exe "/home/padawan/israel-mol/neoxanthin/spectra/emi/Gau-56028.inp" -scrdir="/home/padawan/israel-mol/neoxanthin/spectra/emi/"
 Entering Link 1 = /usr/local/g16/l1.exe PID=     56030.
  
 Copyright (c) 1988,1990,1992,1993,1995,1998,2003,2009,2016,
            Gaussian, Inc.  All Rights Reserved.
  
 This is part of the Gaussian(R) 16 program.  It is based on
 the Gaussian(R) 09 system (copyright 2009, Gaussian, Inc.),
 the Gaussian(R) 03 system (copyright 2003, Gaussian, Inc.),
 the Gaussian(R) 98 system (copyright 1998, Gaussian, Inc.),
 the Gaussian(R) 94 system (copyright 1995, Gaussian, Inc.),
 the Gaussian 92(TM) system (copyright 1992, Gaussian, Inc.),
 the Gaussian 90(TM) system (copyright 1990, Gaussian, Inc.),
 the Gaussian 88(TM) system (copyright 1988, Gaussian, Inc.),
 the Gaussian 86(TM) system (copyright 1986, Carnegie Mellon
 University), and the Gaussian 82(TM) system (copyright 1983,
 Carnegie Mellon University). Gaussian is a federally registered
 trademark of Gaussian, Inc.
  
 This software contains proprietary and confidential information,
 including trade secrets, belonging to Gaussian, Inc.
  
 This software is provided under written license and may be
 used, copied, transmitted, or stored only in accord with that
 written license.
  
 The following legend is applicable only to US Government
 contracts under FAR:
  
                    RESTRICTED RIGHTS LEGEND
  
 Use, reproduction and disclosure by the US Government is
 subject to restrictions as set forth in subparagraphs (a)
 and (c) of the Commercial Computer Software - Restricted
 Rights clause in FAR 52.227-19.
  
 Gaussian, Inc.
 340 Quinnipiac St., Bldg. 40, Wallingford CT 06492
  
  
 ---------------------------------------------------------------
 Warning -- This program may not be used in any manner that
 competes with the business of Gaussian, Inc. or will provide
 assistance to any competitor of Gaussian, Inc.  The licensee
 of this program is prohibited from giving any competitor of
 Gaussian, Inc. access to this program.  By using this program,
 the user acknowledges that Gaussian, Inc. is engaged in the
 business of creating and licensing software in the field of
 computational chemistry and represents and warrants to the
 licensee that it is not a competitor of Gaussian, Inc. and that
 it will not use this program in any manner prohibited above.
 ---------------------------------------------------------------
  

 Cite this work as:
 Gaussian 16, Revision A.03,
 M. J. Frisch, G. W. Trucks, H. B. Schlegel, G. E. Scuseria, 
 M. A. Robb, J. R. Cheeseman, G. Scalmani, V. Barone, 
 G. A. Petersson, H. Nakatsuji, X. Li, M. Caricato, A. V. Marenich, 
 J. Bloino, B. G. Janesko, R. Gomperts, B. Mennucci, H. P. Hratchian, 
 J. V. Ortiz, A. F. Izmaylov, J. L. Sonnenberg, D. Williams-Young, 
 F. Ding, F. Lipparini, F. Egidi, J. Goings, B. Peng, A. Petrone, 
 T. Henderson, D. Ranasinghe, V. G. Zakrzewski, J. Gao, N. Rega, 
 G. Zheng, W. Liang, M. Hada, M. Ehara, K. Toyota, R. Fukuda, 
 J. Hasegawa, M. Ishida, T. Nakajima, Y. Honda, O. Kitao, H. Nakai, 
 T. Vreven, K. Throssell, J. A. Montgomery, Jr., J. E. Peralta, 
 F. Ogliaro, M. J. Bearpark, J. J. Heyd, E. N. Brothers, K. N. Kudin, 
 V. N. Staroverov, T. A. Keith, R. Kobayashi, J. Normand, 
 K. Raghavachari, A. P. Rendell, J. C. Burant, S. S. Iyengar, 
 J. Tomasi, M. Cossi, J. M. Millam, M. Klene, C. Adamo, R. Cammi, 
 J. W. Ochterski, R. L. Martin, K. Morokuma, O. Farkas, 
 J. B. Foresman, and D. J. Fox, Gaussian, Inc., Wallingford CT, 2016.
 
 ******************************************
 Gaussian 16:  ES64L-G16RevA.03 25-Dec-2016
                29-Jul-2019 
 ******************************************
 %nproc=3
 Will use up to    3 processors via shared memory.
 %Mem=2GB
 -------------------------------------
 # td=(NStates=1) CAM-B3LYP/6-31G(d,p)
 -------------------------------------
 1/38=1,172=1/1;
 2/12=2,17=6,18=5,40=1/2;
 3/5=1,6=6,7=101,11=9,25=1,30=1,74=-40/1,2,3,8;
 4//1;
 5/5=2,38=5/2;
 8/6=1,10=2,108=1/1;
 9/41=1,42=1,70=2/14;
 6/7=2,8=2,9=2,10=2/1;
 99/5=1,9=1/99;
 --
 TD
 --
 Symbolic Z-matrix:
 Charge =  0 Multiplicity = 1
 8                    -11.70658   0.14567  -1.51026 
 8                    -13.05024  -2.37951   1.58656 
 8                     10.6262  -0.95111  -2.04065 
 8                     14.48393  -1.01338   0.02542 
 6                    -11.0429  -0.08788  -0.30912 
 6                    -11.60749  -1.26854  -1.19048 
 6                    -11.81291   0.38772   0.92183 
 6                    -12.9994  -1.66789  -0.84712 
 6                    -13.29684   0.00721   0.94419 
 6                    -13.54229  -1.43862   0.62254 
 6                    -10.7891  -2.19299  -1.99889 
 6                    -9.53571  -0.02934  -0.38242 
 6                    -11.1808  -0.15327   2.24916 
 6                    -11.57883   1.98045   0.93557 
 6                    -8.55293  -0.75695   0.23229 
 6                    -7.10085  -0.63871   0.13058 
 6                    -6.23524  -1.77293   0.28941 
 6                    -6.49145   0.61847   0.0674 
 6                    -5.15379   0.89285  -0.28868 
 6                     11.89982  -0.06358   1.46487 
 6                     11.66566  -0.52664  -1.17478 
 6                     12.55364  -1.41169   1.61857 
 6                     13.34256  -1.78896   0.33367 
 6                     12.41255  -1.78837  -0.96759 
 6                     11.0476   0.09207   0.07236 
 6                     10.94058   0.13839   2.60645 
 6                     12.91011   1.01831   1.46407 
 6                     12.5866   0.53543  -1.99985 
 6                    -4.72603   2.21937  -0.40101 
 6                     9.87658   0.5757    0.05907 
 6                    -3.35218   2.63815  -0.43819 
 6                     8.62645   1.04586  -0.11515 
 6                    -3.09259   4.11788  -0.54314 
 6                    -2.33454   1.70582  -0.39725 
 6                     7.45259   0.09447   0.01598 
 6                     7.58293  -1.38827   0.09338 
 6                     6.21669   0.71656  -0.13748 
 6                    -0.95458   1.93811  -0.48526 
 6                     4.91982   0.05677  -0.16741 
 6                    -0.06336   0.91326  -0.32663 
 6                     3.82717   0.79255  -0.22129 
 6                     1.38667   1.18005  -0.28982 
 6                     2.37922   0.32642  -0.1855 
 6                     2.23498  -1.23305  -0.0974 
 1                    -13.19375  -2.90713  -1.01568 
 1                    -13.67524  -1.10781  -1.62127 
 1                    -13.87509   0.44806   1.79826 
 1                    -13.7658   0.79214   0.10901 
 1                    -14.71447  -1.49043   0.60019 
 1                    -10.46985  -3.05539  -1.48988 
 1                    -11.37449  -2.68635  -2.83059 
 1                    -9.96943  -1.65798  -2.44035 
 1                    -9.18049   0.96098  -0.89558 
 1                    -10.06997  -0.05319   2.09534 
 1                    -11.3214   0.54071   2.98593 
 1                    -11.66409  -1.24375   2.3006 
 1                    -11.8077   2.35571  -0.09943 
 1                    -12.24015   2.40784   1.72734 
 1                    -10.62873   2.20776   1.18664 
 1                    -12.22603  -2.69902   1.1445 
 1                    -9.10216  -1.67496   0.62747 
 1                    -5.87069  -2.06183  -0.66907 
 1                    -5.42742  -1.58804   1.02442 
 1                    -6.76671  -2.53302   0.62354 
 1                    -7.23527   1.30808  -0.06322 
 1                    -4.54412  -0.11752  -0.47637 
 1                     13.50416  -1.20355   2.36126 
 1                     11.77653  -2.17665   1.91271 
 1                     13.62171  -2.89973   0.49984 
 1                     13.14161  -2.04105  -1.87567 
 1                     11.758   -2.44606  -0.73109 
 1                     11.72905  -0.01692   3.57978 
 1                     10.62183   1.0965    2.77645 
 1                     10.08564  -0.54947   2.6677 
 1                     13.69221   1.0498    0.66471 
 1                     12.43215   2.05965   1.20444 
 1                     13.49051   1.19477   2.53501 
 1                     12.76605   0.11634  -2.98398 
 1                     11.94519   1.53567  -2.04178 
 1                     13.33255   0.85308  -1.25247 
 1                    -5.50097   2.99846  -0.318 
 1                     10.27311  -0.06935  -2.31026 
 1                     15.14163  -1.26967   0.83221 
 1                     8.38507   2.13925  -0.48565 
 1                    -2.60758   4.45032   0.39765 
 1                    -2.4563    4.26391  -1.4952 
 1                    -3.95354   4.64182  -0.6316 
 1                    -2.66527   0.66661  -0.10483 
 1                     6.68542  -1.8411   -0.20721 
 1                     8.56622  -1.65515  -0.2858 
 1                     7.65004  -1.56525   1.2847 
 1                     6.03435   1.80479  -0.12438 
 1                    -0.554     2.94142  -0.74537 
 1                     4.82764  -0.92431  -0.14677 
 1                    -0.44758  -0.13355  -0.2391 
 1                     4.09786   1.93598  -0.38539 
 1                     1.55515   2.26314  -0.49238 
 1                     1.19886  -1.59831  -0.33567 
 1                     3.10158  -1.5458   -0.89792 
 1                     2.52213  -1.62994   0.92113 
 
 Stoichiometry    C40H56O4
 Framework group  C1[X(C40H56O4)]
 Deg. of freedom   294
 Full point group                 C1      NOp   1
 Largest Abelian subgroup         C1      NOp   1
 Largest concise Abelian subgroup C1      NOp   1
                         Standard orientation:                         
 ---------------------------------------------------------------------
 Center     Atomic      Atomic             Coordinates (Angstroms)
 Number     Number       Type             X           Y           Z
 ---------------------------------------------------------------------
      1          8           0      -11.706295    0.190643   -1.505468
      2          8           0      -13.050283   -2.424320    1.515771
      3          8           0       10.626558   -0.889869   -2.065174
      4          8           0       14.484049   -1.012687   -0.001370
      5          6           0      -11.042759   -0.078041   -0.311621
      6          6           0      -11.607223   -1.232333   -1.227308
      7          6           0      -11.812921    0.361227    0.932665
      8          6           0      -12.999166   -1.641600   -0.895976
      9          6           0      -13.296843   -0.019783    0.943673
     10          6           0      -13.542238   -1.455554    0.579712
     11          6           0      -10.788732   -2.132663   -2.062402
     12          6           0       -9.535561   -0.017352   -0.382989
     13          6           0      -11.180960   -0.218465    2.243623
     14          6           0      -11.578860    1.952878    0.993159
     15          6           0       -8.552839   -0.762683    0.210220
     16          6           0       -7.100748   -0.641486    0.112194
     17          6           0       -6.235141   -1.779870    0.237779
     18          6           0       -6.491365    0.617011    0.085998
     19          6           0       -5.153658    0.901733   -0.261722
     20          6           0       11.899754   -0.105555    1.465022
     21          6           0       11.665916   -0.490970   -1.187103
     22          6           0       12.553578   -1.457587    1.579178
     23          6           0       13.342651   -1.796993    0.283856
     24          6           0       12.412791   -1.758233   -1.016935
     25          6           0       11.047698    0.090877    0.077586
     26          6           0       10.940373    0.062819    2.611930
     27          6           0       12.910034    0.975894    1.496089
     28          6           0       12.586939    0.594862   -1.980549
     29          6           0       -4.725907    2.230986   -0.335033
     30          6           0        9.876670    0.574671    0.078355
     31          6           0       -3.352059    2.650689   -0.359746
     32          6           0        8.626558    1.049730   -0.082143
     33          6           0       -3.092478    4.132865   -0.421203
     34          6           0       -2.334411    1.717570   -0.346058
     35          6           0        7.452698    0.094889    0.020875
     36          6           0        7.583048   -1.389478    0.054748
     37          6           0        6.216805    0.721199   -0.114412
     38          6           0       -0.954443    1.952357   -0.427046
     39          6           0        4.919949    0.062564   -0.163839
     40          6           0       -0.063228    0.923305   -0.298454
     41          6           0        3.827293    0.799592   -0.196240
     42          6           0        1.386794    1.188910   -0.253661
     43          6           0        2.379339    0.332599   -0.174309
     44          6           0        2.235118   -1.228785   -0.132027
     45          1           0      -13.193485   -2.875369   -1.100848
     46          1           0      -13.674930   -1.059061   -1.653441
     47          1           0      -13.875197    0.395810    1.810245
     48          1           0      -13.765714    0.789311    0.131828
     49          1           0      -14.714412   -1.506701    0.555713
     50          1           0      -10.469521   -3.009621   -1.578880
     51          1           0      -11.374011   -2.601413   -2.908288
     52          1           0       -9.969013   -1.584913   -2.487871
     53          1           0       -9.180288    0.987596   -0.866837
     54          1           0      -10.070108   -0.113907    2.092932
     55          1           0      -11.321650    0.453598    3.000418
     56          1           0      -11.664234   -1.309991    2.262988
     57          1           0      -11.807618    2.358341   -0.030410
     58          1           0      -12.240281    2.356839    1.797045
     59          1           0      -10.628797    2.172732    1.250904
     60          1           0      -12.226016   -2.730720    1.064618
     61          1           0       -9.102105   -1.691891    0.578230
     62          1           0       -5.870473   -2.040522   -0.728729
     63          1           0       -5.427407   -1.616625    0.977992
     64          1           0       -6.766639   -2.549441    0.549397
     65          1           0       -7.235179    1.310145   -0.024414
     66          1           0       -4.543957   -0.102693   -0.478903
     67          1           0       13.504001   -1.271325    2.327772
     68          1           0       11.776444   -2.230858    1.850656
     69          1           0       13.621802   -2.912156    0.417395
     70          1           0       13.141967   -1.984149   -1.931951
     71          1           0       11.758222   -2.422586   -0.799909
     72          1           0       11.728738   -0.120977    3.580377
     73          1           0       10.621593    1.015520    2.809924
     74          1           0       10.085436   -0.626555    2.652870
     75          1           0       13.692219    1.030842    0.698091
     76          1           0       12.432081    2.024399    1.267064
     77          1           0       13.490306    1.120871    2.571815
     78          1           0       12.766503    0.204823   -2.976528
     79          1           0       11.945516    1.595889   -1.993187
     80          1           0       13.332796    0.890453   -1.224080
     81          1           0       -5.500871    3.007296   -0.229289
     82          1           0       10.273487   -0.000572   -2.308843
     83          1           0       15.141653   -1.292529    0.797635
     84          1           0        8.385204    2.153513   -0.420431
     85          1           0       -2.607578    4.437561    0.528993
     86          1           0       -2.456082    4.306773   -1.368492
     87          1           0       -3.953426    4.659165   -0.494352
     88          1           0       -2.665157    0.670220   -0.084296
     89          1           0        6.685577   -1.833311   -0.259103
     90          1           0        8.566385   -1.645112   -0.331982
     91          1           0        7.650022   -1.601339    1.240373
     92          1           0        6.034444    1.808580   -0.069416
     93          1           0       -0.553844    2.962866   -0.657566
     94          1           0        4.827775   -0.918704   -0.172012
     95          1           0       -0.447447   -0.125627   -0.241722
     96          1           0        4.097983    1.947347   -0.326689
     97          1           0        1.555285    2.277481   -0.424335
     98          1           0        1.199027   -1.586906   -0.381037
     99          1           0        3.101815   -1.517907   -0.941273
    100          1           0        2.522149   -1.655386    0.874450
 ---------------------------------------------------------------------
 Rotational constants (GHZ):           0.2590060           0.0088826           0.0087994
 Standard basis: 6-31G(d,p) (6D, 7F)
 There are   940 symmetry adapted cartesian basis functions of A   symmetry.
 There are   940 symmetry adapted basis functions of A   symmetry.
   940 basis functions,  1624 primitive gaussians,   940 cartesian basis functions
   164 alpha electrons      164 beta electrons
       nuclear repulsion energy      4444.6350081496 Hartrees.
 NAtoms=  100 NActive=  100 NUniq=  100 SFac= 1.00D+00 NAtFMM=   60 NAOKFM=T Big=T
 Integral buffers will be    131072 words long.
 Raffenetti 1 integral format.
 Two-electron integral symmetry is turned on.
 One-electron integrals computed using PRISM.
 NBasis=   940 RedAO= T EigKep=  3.56D-04  NBF=   940
 NBsUse=   940 1.00D-06 EigRej= -1.00D+00 NBFU=   940
 ExpMin= 1.61D-01 ExpMax= 5.48D+03 ExpMxC= 8.25D+02 IAcc=3 IRadAn=         5 AccDes= 0.00D+00
 Harris functional with IExCor=20419 and IRadAn=       5 diagonalized for initial guess.
 HarFok:  IExCor=20419 AccDes= 0.00D+00 IRadAn=         5 IDoV= 1 UseB2=F ITyADJ=14
 ICtDFT=  3500011 ScaDFX=  1.000000  1.000000  1.000000  1.000000
 FoFCou: FMM=F IPFlag=           0 FMFlag=      100000 FMFlg1=        2001
         NFxFlg=           0 DoJE=T BraDBF=F KetDBF=T FulRan=T
         wScrn=  0.000000 ICntrl=       500 IOpCl=  0 I1Cent=   200000004 NGrid=           0
         NMat0=    1 NMatS0=      1 NMatT0=    0 NMatD0=    1 NMtDS0=    0 NMtDT0=    0
 Petite list used in FoFCou.
 Requested convergence on RMS density matrix=1.00D-08 within 128 cycles.
 Requested convergence on MAX density matrix=1.00D-06.
 Requested convergence on             energy=1.00D-06.
 No special actions if energy rises.
 Integral accuracy reduced to 1.0D-05 until final iterations.
 Initial convergence to 1.0D-05 achieved.  Increase integral accuracy.
 SCF Done:  E(RCAM-B3LYP) =  -1857.35293640     A.U. after   15 cycles
            NFock= 15  Conv=0.43D-08     -V/T= 2.0101
 DoSCS=F DFT=T ScalE2(SS,OS)=  1.000000  1.000000
 ExpMin= 1.61D-01 ExpMax= 5.48D+03 ExpMxC= 8.25D+02 IAcc=3 IRadAn=         5 AccDes= 0.00D+00
 HarFok:  IExCor=  205 AccDes= 0.00D+00 IRadAn=         5 IDoV=-2 UseB2=F ITyADJ=14
 ICtDFT= 12500011 ScaDFX=  1.000000  1.000000  1.000000  1.000000
 GSVD:  LWork=       -2288 too small for GESVD, short by       10340 words or       10340 for optimal perf.
 Range of M.O.s used for correlation:    45   940
 NBasis=   940 NAE=   164 NBE=   164 NFC=    44 NFV=     0
 NROrb=    896 NOA=   120 NOB=   120 NVA=   776 NVB=   776
 Orbital symmetries:
       Occupied  (A) (A) (A) (A) (A) (A) (A) (A) (A) (A) (A) (A)
                 (A) (A) (A) (A) (A) (A) (A) (A) (A) (A) (A) (A)
                 (A) (A) (A) (A) (A) (A) (A) (A) (A) (A) (A) (A)
                 (A) (A) (A) (A) (A) (A) (A) (A) (A) (A) (A) (A)
                 (A) (A) (A) (A) (A) (A) (A) (A) (A) (A) (A) (A)
                 (A) (A) (A) (A) (A) (A) (A) (A) (A) (A) (A) (A)
                 (A) (A) (A) (A) (A) (A) (A) (A) (A) (A) (A) (A)
                 (A) (A) (A) (A) (A) (A) (A) (A) (A) (A) (A) (A)
                 (A) (A) (A) (A) (A) (A) (A) (A) (A) (A) (A) (A)
                 (A) (A) (A) (A) (A) (A) (A) (A) (A) (A) (A) (A)
                 (A) (A) (A) (A) (A) (A) (A) (A) (A) (A) (A) (A)
                 (A) (A) (A) (A) (A) (A) (A) (A) (A) (A) (A) (A)
                 (A) (A) (A) (A) (A) (A) (A) (A) (A) (A) (A) (A)
                 (A) (A) (A) (A) (A) (A) (A) (A)
       Virtual   (A) (A) (A) (A) (A) (A) (A) (A) (A) (A) (A) (A)
                 (A) (A) (A) (A) (A) (A) (A) (A) (A) (A) (A) (A)
                 (A) (A) (A) (A) (A) (A) (A) (A) (A) (A) (A) (A)
                 (A) (A) (A) (A) (A) (A) (A) (A) (A) (A) (A) (A)
                 (A) (A) (A) (A) (A) (A) (A) (A) (A) (A) (A) (A)
                 (A) (A) (A) (A) (A) (A) (A) (A) (A) (A) (A) (A)
                 (A) (A) (A) (A) (A) (A) (A) (A) (A) (A) (A) (A)
                 (A) (A) (A) (A) (A) (A) (A) (A) (A) (A) (A) (A)
                 (A) (A) (A) (A) (A) (A) (A) (A) (A) (A) (A) (A)
                 (A) (A) (A) (A) (A) (A) (A) (A) (A) (A) (A) (A)
                 (A) (A) (A) (A) (A) (A) (A) (A) (A) (A) (A) (A)
                 (A) (A) (A) (A) (A) (A) (A) (A) (A) (A) (A) (A)
                 (A) (A) (A) (A) (A) (A) (A) (A) (A) (A) (A) (A)
                 (A) (A) (A) (A) (A) (A) (A) (A) (A) (A) (A) (A)
                 (A) (A) (A) (A) (A) (A) (A) (A) (A) (A) (A) (A)
                 (A) (A) (A) (A) (A) (A) (A) (A) (A) (A) (A) (A)
                 (A) (A) (A) (A) (A) (A) (A) (A) (A) (A) (A) (A)
                 (A) (A) (A) (A) (A) (A) (A) (A) (A) (A) (A) (A)
                 (A) (A) (A) (A) (A) (A) (A) (A) (A) (A) (A) (A)
                 (A) (A) (A) (A) (A) (A) (A) (A) (A) (A) (A) (A)
                 (A) (A) (A) (A) (A) (A) (A) (A) (A) (A) (A) (A)
                 (A) (A) (A) (A) (A) (A) (A) (A) (A) (A) (A) (A)
                 (A) (A) (A) (A) (A) (A) (A) (A) (A) (A) (A) (A)
                 (A) (A) (A) (A) (A) (A) (A) (A) (A) (A) (A) (A)
                 (A) (A) (A) (A) (A) (A) (A) (A) (A) (A) (A) (A)
                 (A) (A) (A) (A) (A) (A) (A) (A) (A) (A) (A) (A)
                 (A) (A) (A) (A) (A) (A) (A) (A) (A) (A) (A) (A)
                 (A) (A) (A) (A) (A) (A) (A) (A) (A) (A) (A) (A)
                 (A) (A) (A) (A) (A) (A) (A) (A) (A) (A) (A) (A)
                 (A) (A) (A) (A) (A) (A) (A) (A) (A) (A) (A) (A)
                 (A) (A) (A) (A) (A) (A) (A) (A) (A) (A) (A) (A)
                 (A) (A) (A) (A) (A) (A) (A) (A) (A) (A) (A) (A)
                 (A) (A) (A) (A) (A) (A) (A) (A) (A) (A) (A) (A)
                 (A) (A) (A) (A) (A) (A) (A) (A) (A) (A) (A) (A)
                 (A) (A) (A) (A) (A) (A) (A) (A) (A) (A) (A) (A)
                 (A) (A) (A) (A) (A) (A) (A) (A) (A) (A) (A) (A)
                 (A) (A) (A) (A) (A) (A) (A) (A) (A) (A) (A) (A)
                 (A) (A) (A) (A) (A) (A) (A) (A) (A) (A) (A) (A)
                 (A) (A) (A) (A) (A) (A) (A) (A) (A) (A) (A) (A)
                 (A) (A) (A) (A) (A) (A) (A) (A) (A) (A) (A) (A)
                 (A) (A) (A) (A) (A) (A) (A) (A) (A) (A) (A) (A)
                 (A) (A) (A) (A) (A) (A) (A) (A) (A) (A) (A) (A)
                 (A) (A) (A) (A) (A) (A) (A) (A) (A) (A) (A) (A)
                 (A) (A) (A) (A) (A) (A) (A) (A) (A) (A) (A) (A)
                 (A) (A) (A) (A) (A) (A) (A) (A) (A) (A) (A) (A)
                 (A) (A) (A) (A) (A) (A) (A) (A) (A) (A) (A) (A)
                 (A) (A) (A) (A) (A) (A) (A) (A) (A) (A) (A) (A)
                 (A) (A) (A) (A) (A) (A) (A) (A) (A) (A) (A) (A)
                 (A) (A) (A) (A) (A) (A) (A) (A) (A) (A) (A) (A)
                 (A) (A) (A) (A) (A) (A) (A) (A) (A) (A) (A) (A)
                 (A) (A) (A) (A) (A) (A) (A) (A) (A) (A) (A) (A)
                 (A) (A) (A) (A) (A) (A) (A) (A) (A) (A) (A) (A)
                 (A) (A) (A) (A) (A) (A) (A) (A) (A) (A) (A) (A)
                 (A) (A) (A) (A) (A) (A) (A) (A) (A) (A) (A) (A)
                 (A) (A) (A) (A) (A) (A) (A) (A) (A) (A) (A) (A)
                 (A) (A) (A) (A) (A) (A) (A) (A) (A) (A) (A) (A)
                 (A) (A) (A) (A) (A) (A) (A) (A) (A) (A) (A) (A)
                 (A) (A) (A) (A) (A) (A) (A) (A) (A) (A) (A) (A)
                 (A) (A) (A) (A) (A) (A) (A) (A) (A) (A) (A) (A)
                 (A) (A) (A) (A) (A) (A) (A) (A) (A) (A) (A) (A)
                 (A) (A) (A) (A) (A) (A) (A) (A) (A) (A) (A) (A)
                 (A) (A) (A) (A) (A) (A) (A) (A) (A) (A) (A) (A)
                 (A) (A) (A) (A) (A) (A) (A) (A) (A) (A) (A) (A)
                 (A) (A) (A) (A) (A) (A) (A) (A) (A) (A) (A) (A)
                 (A) (A) (A) (A) (A) (A) (A) (A)
     4 initial guesses have been made.
 Convergence on wavefunction:    0.001000000000000
 Iteration     1 Dimension     4 NMult     0 NNew      4
 CISAX will form     4 AO SS matrices at one time.
 Iteration     2 Dimension     6 NMult     4 NNew      2
 Iteration     3 Dimension     8 NMult     6 NNew      2
 Iteration     4 Dimension    10 NMult     8 NNew      2
 Iteration     5 Dimension    12 NMult    10 NNew      2
 Iteration     6 Dimension    14 NMult    12 NNew      2
 ***********************************************************************
 Excited states from <AA,BB:AA,BB> singles matrix:
 ***********************************************************************
 
 Ground to excited state transition densities written to RWF  633
 Ground to excited state transition electric dipole moments (Au):
       state          X           Y           Z        Dip. S.      Osc.
         1         6.3863      0.2091      0.0656     40.8328      2.4777
 Ground to excited state transition velocity dipole moments (Au):
       state          X           Y           Z        Dip. S.      Osc.
         1        -0.5639     -0.0186     -0.0094      0.3184      2.3322
 Ground to excited state transition magnetic dipole moments (Au):
       state          X           Y           Z
         1         0.0565      0.3545      2.6978
 Ground to excited state transition velocity quadrupole moments (Au):
       state          XX          YY          ZZ          XY          XZ          YZ
         1         2.8406      0.1892      0.0232      0.6034      0.0291      0.0192
 <0|del|b> * <b|rxdel|0> + <0|del|b> * <b|delr+rdel|0>
 Rotatory Strengths (R) in cgs (10**-40 erg-esu-cm/Gauss)
       state          XX          YY          ZZ    R(velocity)    E-M Angle
         1      -143.5705   -241.9172   -109.4031   -164.9636       92.38
 1/2[<0|r|b>*<b|rxdel|0> + (<0|rxdel|b>*<b|r|0>)*]
 Rotatory Strengths (R) in cgs (10**-40 erg-esu-cm/Gauss)
       state          XX          YY          ZZ     R(length)
         1      -255.0922    -52.4122   -125.2165   -144.2403
  1/2[<0|del|b>*<b|r|0> + (<0|r|b>*<b|del|0>)*] (Au)
       state          X           Y           Z        Dip. S.   Osc.(frdel)
         1        -3.6012     -0.0039     -0.0006      3.6057      2.4038

 Excitation energies and oscillator strengths:
 
 Excited State   1:      Singlet-A      2.4767 eV  500.59 nm  f=2.4777  <S**2>=0.000
     163 ->166        -0.13206
     164 ->165         0.68967
 This state for optimization and/or second-order correction.
 Total Energy, E(TD-HF/TD-DFT) =  -1857.26191786    
 Copying the excited state density for this state as the 1-particle RhoCI density.
 SavETr:  write IOETrn=   770 NScale= 10 NData=  16 NLR=1 NState=    1 LETran=      28.

 **********************************************************************

            Population analysis using the SCF density.

 **********************************************************************

 Orbital symmetries:
       Occupied  (A) (A) (A) (A) (A) (A) (A) (A) (A) (A) (A) (A)
                 (A) (A) (A) (A) (A) (A) (A) (A) (A) (A) (A) (A)
                 (A) (A) (A) (A) (A) (A) (A) (A) (A) (A) (A) (A)
                 (A) (A) (A) (A) (A) (A) (A) (A) (A) (A) (A) (A)
                 (A) (A) (A) (A) (A) (A) (A) (A) (A) (A) (A) (A)
                 (A) (A) (A) (A) (A) (A) (A) (A) (A) (A) (A) (A)
                 (A) (A) (A) (A) (A) (A) (A) (A) (A) (A) (A) (A)
                 (A) (A) (A) (A) (A) (A) (A) (A) (A) (A) (A) (A)
                 (A) (A) (A) (A) (A) (A) (A) (A) (A) (A) (A) (A)
                 (A) (A) (A) (A) (A) (A) (A) (A) (A) (A) (A) (A)
                 (A) (A) (A) (A) (A) (A) (A) (A) (A) (A) (A) (A)
                 (A) (A) (A) (A) (A) (A) (A) (A) (A) (A) (A) (A)
                 (A) (A) (A) (A) (A) (A) (A) (A) (A) (A) (A) (A)
                 (A) (A) (A) (A) (A) (A) (A) (A)
       Virtual   (A) (A) (A) (A) (A) (A) (A) (A) (A) (A) (A) (A)
                 (A) (A) (A) (A) (A) (A) (A) (A) (A) (A) (A) (A)
                 (A) (A) (A) (A) (A) (A) (A) (A) (A) (A) (A) (A)
                 (A) (A) (A) (A) (A) (A) (A) (A) (A) (A) (A) (A)
                 (A) (A) (A) (A) (A) (A) (A) (A) (A) (A) (A) (A)
                 (A) (A) (A) (A) (A) (A) (A) (A) (A) (A) (A) (A)
                 (A) (A) (A) (A) (A) (A) (A) (A) (A) (A) (A) (A)
                 (A) (A) (A) (A) (A) (A) (A) (A) (A) (A) (A) (A)
                 (A) (A) (A) (A) (A) (A) (A) (A) (A) (A) (A) (A)
                 (A) (A) (A) (A) (A) (A) (A) (A) (A) (A) (A) (A)
                 (A) (A) (A) (A) (A) (A) (A) (A) (A) (A) (A) (A)
                 (A) (A) (A) (A) (A) (A) (A) (A) (A) (A) (A) (A)
                 (A) (A) (A) (A) (A) (A) (A) (A) (A) (A) (A) (A)
                 (A) (A) (A) (A) (A) (A) (A) (A) (A) (A) (A) (A)
                 (A) (A) (A) (A) (A) (A) (A) (A) (A) (A) (A) (A)
                 (A) (A) (A) (A) (A) (A) (A) (A) (A) (A) (A) (A)
                 (A) (A) (A) (A) (A) (A) (A) (A) (A) (A) (A) (A)
                 (A) (A) (A) (A) (A) (A) (A) (A) (A) (A) (A) (A)
                 (A) (A) (A) (A) (A) (A) (A) (A) (A) (A) (A) (A)
                 (A) (A) (A) (A) (A) (A) (A) (A) (A) (A) (A) (A)
                 (A) (A) (A) (A) (A) (A) (A) (A) (A) (A) (A) (A)
                 (A) (A) (A) (A) (A) (A) (A) (A) (A) (A) (A) (A)
                 (A) (A) (A) (A) (A) (A) (A) (A) (A) (A) (A) (A)
                 (A) (A) (A) (A) (A) (A) (A) (A) (A) (A) (A) (A)
                 (A) (A) (A) (A) (A) (A) (A) (A) (A) (A) (A) (A)
                 (A) (A) (A) (A) (A) (A) (A) (A) (A) (A) (A) (A)
                 (A) (A) (A) (A) (A) (A) (A) (A) (A) (A) (A) (A)
                 (A) (A) (A) (A) (A) (A) (A) (A) (A) (A) (A) (A)
                 (A) (A) (A) (A) (A) (A) (A) (A) (A) (A) (A) (A)
                 (A) (A) (A) (A) (A) (A) (A) (A) (A) (A) (A) (A)
                 (A) (A) (A) (A) (A) (A) (A) (A) (A) (A) (A) (A)
                 (A) (A) (A) (A) (A) (A) (A) (A) (A) (A) (A) (A)
                 (A) (A) (A) (A) (A) (A) (A) (A) (A) (A) (A) (A)
                 (A) (A) (A) (A) (A) (A) (A) (A) (A) (A) (A) (A)
                 (A) (A) (A) (A) (A) (A) (A) (A) (A) (A) (A) (A)
                 (A) (A) (A) (A) (A) (A) (A) (A) (A) (A) (A) (A)
                 (A) (A) (A) (A) (A) (A) (A) (A) (A) (A) (A) (A)
                 (A) (A) (A) (A) (A) (A) (A) (A) (A) (A) (A) (A)
                 (A) (A) (A) (A) (A) (A) (A) (A) (A) (A) (A) (A)
                 (A) (A) (A) (A) (A) (A) (A) (A) (A) (A) (A) (A)
                 (A) (A) (A) (A) (A) (A) (A) (A) (A) (A) (A) (A)
                 (A) (A) (A) (A) (A) (A) (A) (A) (A) (A) (A) (A)
                 (A) (A) (A) (A) (A) (A) (A) (A) (A) (A) (A) (A)
                 (A) (A) (A) (A) (A) (A) (A) (A) (A) (A) (A) (A)
                 (A) (A) (A) (A) (A) (A) (A) (A) (A) (A) (A) (A)
                 (A) (A) (A) (A) (A) (A) (A) (A) (A) (A) (A) (A)
                 (A) (A) (A) (A) (A) (A) (A) (A) (A) (A) (A) (A)
                 (A) (A) (A) (A) (A) (A) (A) (A) (A) (A) (A) (A)
                 (A) (A) (A) (A) (A) (A) (A) (A) (A) (A) (A) (A)
                 (A) (A) (A) (A) (A) (A) (A) (A) (A) (A) (A) (A)
                 (A) (A) (A) (A) (A) (A) (A) (A) (A) (A) (A) (A)
                 (A) (A) (A) (A) (A) (A) (A) (A) (A) (A) (A) (A)
                 (A) (A) (A) (A) (A) (A) (A) (A) (A) (A) (A) (A)
                 (A) (A) (A) (A) (A) (A) (A) (A) (A) (A) (A) (A)
                 (A) (A) (A) (A) (A) (A) (A) (A) (A) (A) (A) (A)
                 (A) (A) (A) (A) (A) (A) (A) (A) (A) (A) (A) (A)
                 (A) (A) (A) (A) (A) (A) (A) (A) (A) (A) (A) (A)
                 (A) (A) (A) (A) (A) (A) (A) (A) (A) (A) (A) (A)
                 (A) (A) (A) (A) (A) (A) (A) (A) (A) (A) (A) (A)
                 (A) (A) (A) (A) (A) (A) (A) (A) (A) (A) (A) (A)
                 (A) (A) (A) (A) (A) (A) (A) (A) (A) (A) (A) (A)
                 (A) (A) (A) (A) (A) (A) (A) (A) (A) (A) (A) (A)
                 (A) (A) (A) (A) (A) (A) (A) (A) (A) (A) (A) (A)
                 (A) (A) (A) (A) (A) (A) (A) (A) (A) (A) (A) (A)
                 (A) (A) (A) (A) (A) (A) (A) (A)
 The electronic state is 1-A.
 Alpha  occ. eigenvalues --  -19.23668 -19.23493 -19.22774 -19.20930 -10.32718
 Alpha  occ. eigenvalues --  -10.32339 -10.32326 -10.31796 -10.31536 -10.28700
 Alpha  occ. eigenvalues --  -10.28384 -10.28177 -10.27950 -10.27935 -10.27794
 Alpha  occ. eigenvalues --  -10.27787 -10.27693 -10.27662 -10.27481 -10.27211
 Alpha  occ. eigenvalues --  -10.27197 -10.27066 -10.27066 -10.27061 -10.26827
 Alpha  occ. eigenvalues --  -10.26730 -10.26565 -10.26482 -10.26195 -10.26134
 Alpha  occ. eigenvalues --  -10.26096 -10.25934 -10.25931 -10.25785 -10.25781
 Alpha  occ. eigenvalues --  -10.25740 -10.25485 -10.25184 -10.24839 -10.24553
 Alpha  occ. eigenvalues --  -10.24547 -10.24086 -10.23925 -10.23015  -1.16048
 Alpha  occ. eigenvalues --   -1.10877  -1.10196  -1.09581  -0.92994  -0.92364
 Alpha  occ. eigenvalues --   -0.91531  -0.90919  -0.89820  -0.89450  -0.87264
 Alpha  occ. eigenvalues --   -0.86680  -0.85949  -0.85539  -0.84783  -0.83493
 Alpha  occ. eigenvalues --   -0.82510  -0.81444  -0.79857  -0.77806  -0.76898
 Alpha  occ. eigenvalues --   -0.76703  -0.76232  -0.76056  -0.75190  -0.74909
 Alpha  occ. eigenvalues --   -0.74590  -0.74200  -0.73123  -0.69857  -0.69053
 Alpha  occ. eigenvalues --   -0.68138  -0.66334  -0.64755  -0.63946  -0.63395
 Alpha  occ. eigenvalues --   -0.63080  -0.62370  -0.61280  -0.60624  -0.59593
 Alpha  occ. eigenvalues --   -0.58410  -0.57814  -0.57288  -0.56946  -0.55890
 Alpha  occ. eigenvalues --   -0.55362  -0.55014  -0.54571  -0.54317  -0.53938
 Alpha  occ. eigenvalues --   -0.53682  -0.53259  -0.52964  -0.52747  -0.52143
 Alpha  occ. eigenvalues --   -0.51550  -0.51090  -0.50885  -0.50271  -0.49455
 Alpha  occ. eigenvalues --   -0.49336  -0.49129  -0.49086  -0.48857  -0.48602
 Alpha  occ. eigenvalues --   -0.47803  -0.47473  -0.47246  -0.46873  -0.46494
 Alpha  occ. eigenvalues --   -0.46417  -0.46407  -0.46219  -0.45958  -0.45791
 Alpha  occ. eigenvalues --   -0.45658  -0.45040  -0.44397  -0.44245  -0.44082
 Alpha  occ. eigenvalues --   -0.43631  -0.43154  -0.42887  -0.42658  -0.42547
 Alpha  occ. eigenvalues --   -0.42320  -0.42118  -0.41913  -0.41489  -0.41444
 Alpha  occ. eigenvalues --   -0.41145  -0.41104  -0.40971  -0.40677  -0.40037
 Alpha  occ. eigenvalues --   -0.39738  -0.39651  -0.39364  -0.38969  -0.38916
 Alpha  occ. eigenvalues --   -0.38160  -0.37996  -0.37732  -0.37539  -0.36829
 Alpha  occ. eigenvalues --   -0.36482  -0.35385  -0.34308  -0.33837  -0.33573
 Alpha  occ. eigenvalues --   -0.32668  -0.32392  -0.32221  -0.31190  -0.30817
 Alpha  occ. eigenvalues --   -0.29988  -0.27680  -0.24093  -0.20621
 Alpha virt. eigenvalues --   -0.04941  -0.00167   0.03118   0.06493   0.07000
 Alpha virt. eigenvalues --    0.08320   0.09113   0.09683   0.11877   0.11971
 Alpha virt. eigenvalues --    0.12071   0.12386   0.13315   0.13412   0.14028
 Alpha virt. eigenvalues --    0.14050   0.14135   0.14529   0.14641   0.15008
 Alpha virt. eigenvalues --    0.15573   0.15966   0.16058   0.16510   0.16835
 Alpha virt. eigenvalues --    0.17090   0.17308   0.17318   0.17484   0.17602
 Alpha virt. eigenvalues --    0.17870   0.18306   0.18545   0.19059   0.19356
 Alpha virt. eigenvalues --    0.19520   0.19681   0.19921   0.19929   0.20436
 Alpha virt. eigenvalues --    0.20490   0.20628   0.21286   0.21507   0.21542
 Alpha virt. eigenvalues --    0.21705   0.21929   0.22109   0.22217   0.22588
 Alpha virt. eigenvalues --    0.23124   0.23184   0.23209   0.23418   0.23474
 Alpha virt. eigenvalues --    0.24142   0.24370   0.25055   0.25091   0.25347
 Alpha virt. eigenvalues --    0.25807   0.26096   0.26238   0.26442   0.27026
 Alpha virt. eigenvalues --    0.27441   0.27557   0.27770   0.27794   0.28517
 Alpha virt. eigenvalues --    0.28754   0.28888   0.29390   0.29628   0.29886
 Alpha virt. eigenvalues --    0.29993   0.30031   0.30665   0.30723   0.30887
 Alpha virt. eigenvalues --    0.30935   0.31353   0.32602   0.33162   0.33706
 Alpha virt. eigenvalues --    0.35084   0.35252   0.35659   0.35704   0.36498
 Alpha virt. eigenvalues --    0.37102   0.37969   0.38349   0.38934   0.39803
 Alpha virt. eigenvalues --    0.39900   0.40586   0.41124   0.41807   0.42356
 Alpha virt. eigenvalues --    0.42720   0.43934   0.44673   0.45263   0.45787
 Alpha virt. eigenvalues --    0.47208   0.47993   0.49229   0.49848   0.51725
 Alpha virt. eigenvalues --    0.53225   0.54447   0.55101   0.55401   0.56139
 Alpha virt. eigenvalues --    0.56595   0.56866   0.57366   0.57485   0.57765
 Alpha virt. eigenvalues --    0.58025   0.58649   0.58910   0.59145   0.59413
 Alpha virt. eigenvalues --    0.59931   0.60262   0.60736   0.60822   0.61296
 Alpha virt. eigenvalues --    0.61670   0.61797   0.62244   0.62560   0.62765
 Alpha virt. eigenvalues --    0.63144   0.63358   0.63670   0.63957   0.64082
 Alpha virt. eigenvalues --    0.64491   0.64930   0.65013   0.65213   0.65302
 Alpha virt. eigenvalues --    0.65718   0.66069   0.66312   0.66482   0.67099
 Alpha virt. eigenvalues --    0.67195   0.67299   0.67813   0.68138   0.68466
 Alpha virt. eigenvalues --    0.68738   0.68986   0.69063   0.69683   0.69922
 Alpha virt. eigenvalues --    0.70020   0.70545   0.71012   0.71137   0.71234
 Alpha virt. eigenvalues --    0.71678   0.72178   0.72839   0.73201   0.73783
 Alpha virt. eigenvalues --    0.74087   0.74300   0.74544   0.74853   0.75439
 Alpha virt. eigenvalues --    0.75996   0.76425   0.76556   0.76701   0.77045
 Alpha virt. eigenvalues --    0.77387   0.77534   0.78667   0.79070   0.79489
 Alpha virt. eigenvalues --    0.79598   0.80062   0.80519   0.80684   0.81320
 Alpha virt. eigenvalues --    0.81616   0.81717   0.81936   0.82469   0.83013
 Alpha virt. eigenvalues --    0.83234   0.83430   0.83678   0.83742   0.84462
 Alpha virt. eigenvalues --    0.84622   0.85117   0.85283   0.85616   0.85731
 Alpha virt. eigenvalues --    0.85757   0.86033   0.86218   0.86666   0.87273
 Alpha virt. eigenvalues --    0.87688   0.88050   0.88371   0.88426   0.88757
 Alpha virt. eigenvalues --    0.89192   0.89818   0.90101   0.90245   0.90592
 Alpha virt. eigenvalues --    0.90753   0.90844   0.90867   0.91378   0.91721
 Alpha virt. eigenvalues --    0.91999   0.92250   0.92412   0.92659   0.92838
 Alpha virt. eigenvalues --    0.93700   0.93854   0.93985   0.94227   0.94406
 Alpha virt. eigenvalues --    0.94755   0.95059   0.95562   0.95863   0.96213
 Alpha virt. eigenvalues --    0.96230   0.97277   0.97534   0.97711   0.98007
 Alpha virt. eigenvalues --    0.98066   0.98846   0.99118   0.99154   0.99595
 Alpha virt. eigenvalues --    1.00042   1.00162   1.00459   1.00902   1.01421
 Alpha virt. eigenvalues --    1.01787   1.01843   1.02115   1.02708   1.03112
 Alpha virt. eigenvalues --    1.03314   1.03722   1.04113   1.04501   1.04813
 Alpha virt. eigenvalues --    1.05567   1.06122   1.06495   1.07347   1.07450
 Alpha virt. eigenvalues --    1.07675   1.07999   1.08604   1.09362   1.09780
 Alpha virt. eigenvalues --    1.10476   1.10983   1.11597   1.11831   1.12356
 Alpha virt. eigenvalues --    1.12763   1.13274   1.13658   1.13746   1.14579
 Alpha virt. eigenvalues --    1.15169   1.15377   1.15789   1.16447   1.17301
 Alpha virt. eigenvalues --    1.18289   1.18719   1.19235   1.19962   1.20568
 Alpha virt. eigenvalues --    1.21394   1.21761   1.22417   1.22687   1.23347
 Alpha virt. eigenvalues --    1.24849   1.25518   1.26931   1.27047   1.28188
 Alpha virt. eigenvalues --    1.28671   1.29485   1.29956   1.30482   1.30879
 Alpha virt. eigenvalues --    1.31695   1.32392   1.32680   1.34479   1.35190
 Alpha virt. eigenvalues --    1.35395   1.36062   1.36504   1.37192   1.37450
 Alpha virt. eigenvalues --    1.37892   1.38688   1.39080   1.39554   1.40425
 Alpha virt. eigenvalues --    1.40639   1.40893   1.41896   1.42878   1.44089
 Alpha virt. eigenvalues --    1.44548   1.45024   1.45607   1.46386   1.47017
 Alpha virt. eigenvalues --    1.47538   1.48080   1.49081   1.49837   1.50713
 Alpha virt. eigenvalues --    1.51401   1.52663   1.52853   1.54215   1.54771
 Alpha virt. eigenvalues --    1.55346   1.55676   1.55988   1.56727   1.57001
 Alpha virt. eigenvalues --    1.57975   1.58783   1.59459   1.59791   1.60488
 Alpha virt. eigenvalues --    1.60793   1.60848   1.61898   1.62293   1.62725
 Alpha virt. eigenvalues --    1.62994   1.64962   1.65427   1.65476   1.65939
 Alpha virt. eigenvalues --    1.67820   1.68425   1.69383   1.69770   1.71546
 Alpha virt. eigenvalues --    1.71975   1.72916   1.73431   1.74355   1.75196
 Alpha virt. eigenvalues --    1.76235   1.76780   1.76828   1.78576   1.79026
 Alpha virt. eigenvalues --    1.80161   1.80723   1.81078   1.81239   1.81836
 Alpha virt. eigenvalues --    1.82126   1.82528   1.82674   1.83501   1.84303
 Alpha virt. eigenvalues --    1.84364   1.84655   1.85006   1.85135   1.85829
 Alpha virt. eigenvalues --    1.86060   1.87009   1.87573   1.88094   1.88399
 Alpha virt. eigenvalues --    1.88884   1.89100   1.90326   1.90676   1.91470
 Alpha virt. eigenvalues --    1.91923   1.92420   1.92613   1.92840   1.93252
 Alpha virt. eigenvalues --    1.93565   1.93593   1.94221   1.94406   1.94777
 Alpha virt. eigenvalues --    1.95254   1.95343   1.95781   1.96039   1.96235
 Alpha virt. eigenvalues --    1.97689   1.97722   1.97947   1.98131   1.98213
 Alpha virt. eigenvalues --    1.98410   1.99020   1.99425   2.00210   2.00469
 Alpha virt. eigenvalues --    2.00612   2.01030   2.01275   2.02158   2.02437
 Alpha virt. eigenvalues --    2.03041   2.03427   2.04052   2.04161   2.04711
 Alpha virt. eigenvalues --    2.05055   2.05141   2.05627   2.05897   2.06053
 Alpha virt. eigenvalues --    2.06469   2.07069   2.08304   2.08616   2.08950
 Alpha virt. eigenvalues --    2.09212   2.09679   2.09870   2.10155   2.10376
 Alpha virt. eigenvalues --    2.10564   2.11013   2.11375   2.11409   2.12285
 Alpha virt. eigenvalues --    2.12494   2.12941   2.13382   2.13540   2.13775
 Alpha virt. eigenvalues --    2.14286   2.14669   2.14797   2.14908   2.15272
 Alpha virt. eigenvalues --    2.16075   2.16490   2.16616   2.17661   2.18131
 Alpha virt. eigenvalues --    2.18377   2.18760   2.19416   2.19624   2.19778
 Alpha virt. eigenvalues --    2.20781   2.20894   2.21340   2.21867   2.22101
 Alpha virt. eigenvalues --    2.22598   2.22754   2.23501   2.23557   2.23646
 Alpha virt. eigenvalues --    2.24815   2.25298   2.25772   2.26154   2.26462
 Alpha virt. eigenvalues --    2.27115   2.27187   2.27697   2.28273   2.28704
 Alpha virt. eigenvalues --    2.28974   2.29500   2.29933   2.30126   2.31094
 Alpha virt. eigenvalues --    2.31171   2.31617   2.32064   2.32541   2.32661
 Alpha virt. eigenvalues --    2.33150   2.33555   2.34322   2.34596   2.35350
 Alpha virt. eigenvalues --    2.36298   2.36412   2.37012   2.37363   2.37748
 Alpha virt. eigenvalues --    2.38182   2.38911   2.39687   2.40365   2.41069
 Alpha virt. eigenvalues --    2.41310   2.42054   2.42696   2.43506   2.43737
 Alpha virt. eigenvalues --    2.43805   2.44370   2.45165   2.45733   2.45889
 Alpha virt. eigenvalues --    2.46536   2.46673   2.47173   2.47533   2.47846
 Alpha virt. eigenvalues --    2.48055   2.48858   2.49159   2.49974   2.50045
 Alpha virt. eigenvalues --    2.50181   2.50760   2.51114   2.51314   2.51868
 Alpha virt. eigenvalues --    2.52312   2.53131   2.54218   2.54549   2.55100
 Alpha virt. eigenvalues --    2.55569   2.56202   2.56618   2.57300   2.57615
 Alpha virt. eigenvalues --    2.58686   2.58938   2.59152   2.59552   2.60169
 Alpha virt. eigenvalues --    2.60596   2.60962   2.61163   2.61476   2.62177
 Alpha virt. eigenvalues --    2.62548   2.62808   2.63076   2.63515   2.64133
 Alpha virt. eigenvalues --    2.64420   2.64745   2.64986   2.65423   2.65689
 Alpha virt. eigenvalues --    2.65791   2.66122   2.66690   2.67076   2.67556
 Alpha virt. eigenvalues --    2.67800   2.68251   2.68832   2.69245   2.69436
 Alpha virt. eigenvalues --    2.69781   2.70251   2.70441   2.70921   2.71498
 Alpha virt. eigenvalues --    2.72476   2.73026   2.73294   2.74132   2.74564
 Alpha virt. eigenvalues --    2.74814   2.74854   2.75448   2.75986   2.76308
 Alpha virt. eigenvalues --    2.76391   2.76717   2.77296   2.77890   2.78014
 Alpha virt. eigenvalues --    2.78084   2.78952   2.79258   2.79750   2.80718
 Alpha virt. eigenvalues --    2.81224   2.81337   2.82060   2.82453   2.83233
 Alpha virt. eigenvalues --    2.83580   2.83597   2.84700   2.85197   2.85797
 Alpha virt. eigenvalues --    2.86293   2.86827   2.87401   2.88109   2.88738
 Alpha virt. eigenvalues --    2.89155   2.89854   2.90593   2.91084   2.91600
 Alpha virt. eigenvalues --    2.92666   2.92984   2.93122   2.94022   2.94302
 Alpha virt. eigenvalues --    2.94558   2.95127   2.95817   2.97324   2.98023
 Alpha virt. eigenvalues --    2.98725   2.99311   2.99844   2.99917   3.00982
 Alpha virt. eigenvalues --    3.01272   3.02134   3.02409   3.02434   3.03076
 Alpha virt. eigenvalues --    3.04161   3.04409   3.05321   3.05410   3.06390
 Alpha virt. eigenvalues --    3.07674   3.09056   3.09618   3.09791   3.10104
 Alpha virt. eigenvalues --    3.10553   3.11670   3.12149   3.12672   3.13209
 Alpha virt. eigenvalues --    3.15473   3.15889   3.15986   3.18298   3.18700
 Alpha virt. eigenvalues --    3.20039   3.20761   3.22679   3.23880   3.25482
 Alpha virt. eigenvalues --    3.26116   3.27023   3.27605   3.28765   3.31219
 Alpha virt. eigenvalues --    3.32307   3.34856   3.35544   3.35693   3.35853
 Alpha virt. eigenvalues --    3.37456   3.39430   3.40028   3.40156   3.40817
 Alpha virt. eigenvalues --    3.41408   3.41691   3.42039   3.42274   3.42469
 Alpha virt. eigenvalues --    3.42593   3.43247   3.43702   3.44445   3.46177
 Alpha virt. eigenvalues --    3.46825   3.47629   3.48459   3.50819   3.52130
 Alpha virt. eigenvalues --    3.52629   3.52914   3.52944   3.53600   3.55081
 Alpha virt. eigenvalues --    3.56648   3.57898   3.59500   3.59711   3.59983
 Alpha virt. eigenvalues --    3.60598   3.64205   3.66552   3.67998   3.68874
 Alpha virt. eigenvalues --    3.69000   3.70361   3.71463   3.73436   3.79599
 Alpha virt. eigenvalues --    3.84855   3.89693   4.03399   4.07661   4.12580
 Alpha virt. eigenvalues --    4.15489   4.18846   4.19882   4.20146   4.22148
 Alpha virt. eigenvalues --    4.23499   4.25682   4.27287   4.30201   4.32246
 Alpha virt. eigenvalues --    4.32827   4.36633   4.39409   4.43193   4.44104
 Alpha virt. eigenvalues --    4.45959   4.48402   4.50056   4.54304   4.54507
 Alpha virt. eigenvalues --    4.54966   4.55925   4.58816   4.60672   4.61332
 Alpha virt. eigenvalues --    4.62851   4.65331   4.68337   4.70525   4.71670
 Alpha virt. eigenvalues --    4.71875   4.76756   4.80312   4.81310   4.83087
 Alpha virt. eigenvalues --    4.84127   4.85274   4.87853   4.93000   4.94827
 Alpha virt. eigenvalues --    4.95258
          Condensed to atoms (all electrons):
 Mulliken charges:
               1
     1  O   -0.498851
     2  O   -0.522274
     3  O   -0.549613
     4  O   -0.529824
     5  C    0.242544
     6  C    0.219887
     7  C    0.017691
     8  C   -0.223248
     9  C   -0.185016
    10  C    0.160004
    11  C   -0.345775
    12  C   -0.121932
    13  C   -0.317704
    14  C   -0.330378
    15  C   -0.084574
    16  C    0.054847
    17  C   -0.374986
    18  C   -0.089796
    19  C   -0.072466
    20  C    0.055254
    21  C    0.222253
    22  C   -0.171889
    23  C    0.117773
    24  C   -0.145469
    25  C   -0.132192
    26  C   -0.285659
    27  C   -0.311761
    28  C   -0.315216
    29  C   -0.133602
    30  C    0.194964
    31  C    0.081935
    32  C   -0.274830
    33  C   -0.364052
    34  C   -0.118395
    35  C    0.086864
    36  C   -0.358614
    37  C   -0.120556
    38  C   -0.074572
    39  C   -0.036677
    40  C   -0.084428
    41  C   -0.124603
    42  C   -0.130994
    43  C    0.095245
    44  C   -0.357708
    45  H    0.058385
    46  H    0.128568
    47  H    0.103345
    48  H    0.081730
    49  H    0.092821
    50  H    0.118774
    51  H    0.109776
    52  H    0.135671
    53  H    0.083629
    54  H    0.091210
    55  H    0.101141
    56  H    0.110969
    57  H    0.111567
    58  H    0.096905
    59  H    0.115935
    60  H    0.315658
    61  H    0.073925
    62  H    0.129022
    63  H    0.125256
    64  H    0.113106
    65  H    0.068993
    66  H    0.095389
    67  H    0.065157
    68  H    0.107144
    69  H    0.065958
    70  H    0.105355
    71  H    0.108962
    72  H    0.051925
    73  H    0.121392
    74  H    0.106259
    75  H    0.136997
    76  H    0.086199
    77  H    0.070172
    78  H    0.127304
    79  H    0.067941
    80  H    0.130745
    81  H    0.092655
    82  H    0.304359
    83  H    0.309580
    84  H    0.114299
    85  H    0.127286
    86  H    0.116050
    87  H    0.116496
    88  H    0.078360
    89  H    0.125239
    90  H    0.146335
    91  H    0.098206
    92  H    0.073518
    93  H    0.089894
    94  H    0.063362
    95  H    0.081220
    96  H    0.067761
    97  H    0.080165
    98  H    0.110942
    99  H    0.104449
   100  H    0.124931
 Sum of Mulliken charges =  -0.00000
 Mulliken charges with hydrogens summed into heavy atoms:
               1
     1  O   -0.498851
     2  O   -0.206615
     3  O   -0.245254
     4  O   -0.220244
     5  C    0.242544
     6  C    0.219887
     7  C    0.017691
     8  C   -0.036295
     9  C    0.000058
    10  C    0.252826
    11  C    0.018446
    12  C   -0.038304
    13  C   -0.014385
    14  C   -0.005970
    15  C   -0.010649
    16  C    0.054847
    17  C   -0.007602
    18  C   -0.020803
    19  C    0.022922
    20  C    0.055254
    21  C    0.222253
    22  C    0.000413
    23  C    0.183731
    24  C    0.068849
    25  C   -0.132192
    26  C   -0.006083
    27  C   -0.018393
    28  C    0.010775
    29  C   -0.040947
    30  C    0.194964
    31  C    0.081935
    32  C   -0.160532
    33  C   -0.004220
    34  C   -0.040035
    35  C    0.086864
    36  C    0.011167
    37  C   -0.047038
    38  C    0.015322
    39  C    0.026685
    40  C   -0.003208
    41  C   -0.056842
    42  C   -0.050829
    43  C    0.095245
    44  C   -0.017386
 Electronic spatial extent (au):  <R**2>=         114765.4268
 Charge=              0.0000 electrons
 Dipole moment (field-independent basis, Debye):
    X=              2.9328    Y=             -0.8304    Z=              0.6197  Tot=              3.1104
 Quadrupole moment (field-independent basis, Debye-Ang):
   XX=           -270.9458   YY=           -255.8509   ZZ=           -282.0659
   XY=             -1.3255   XZ=             30.0265   YZ=             -0.1458
 Traceless Quadrupole moment (field-independent basis, Debye-Ang):
   XX=             -1.3249   YY=             13.7700   ZZ=            -12.4451
   XY=             -1.3255   XZ=             30.0265   YZ=             -0.1458
 Octapole moment (field-independent basis, Debye-Ang**2):
  XXX=           1013.7122  YYY=              2.1444  ZZZ=            -22.9569  XYY=             -0.0781
  XXY=           -119.0814  XXZ=            160.6888  XZZ=             61.4167  YZZ=             -0.0465
  YYZ=            -13.8842  XYZ=           -150.0577
 Hexadecapole moment (field-independent basis, Debye-Ang**3):
 XXXX=        -146305.0069 YYYY=          -3716.4046 ZZZZ=          -2338.5254 XXXY=          -2627.6495
 XXXZ=           6034.8448 YYYX=            -58.7895 YYYZ=             -3.1375 ZZZX=            -97.0300
 ZZZY=             30.0490 XXYY=         -25121.0180 XXZZ=         -26288.5524 YYZZ=          -1045.7077
 XXYZ=            346.4984 YYXZ=            176.6092 ZZXY=            -35.3648
 N-N= 4.444635008150D+03 E-N=-1.319892691111D+04  KE= 1.838834570200D+03
 1\1\GINC-RYZEN-SSD3\SP\RCAM-B3LYP TD-FC\6-31G(d,p)\C40H56O4\PADAWAN\29
 -Jul-2019\0\\# td=(NStates=1) CAM-B3LYP/6-31G(d,p)\\TD\\0,1\O,0,-11.70
 65773253,0.1456652149,-1.5102581894\O,0,-13.0502358594,-2.3795062586,1
 .5865643414\O,0,10.6261981397,-0.9511149994,-2.0406477911\O,0,14.48393
 17599,-1.0133800595,0.0254180544\C,0,-11.0429024574,-0.087882743,-0.30
 91203364\C,0,-11.6074870384,-1.2685380337,-1.1904778881\C,0,-11.812913
 3343,0.3877154543,0.9218318382\C,0,-12.9993951432,-1.6678869466,-0.847
 1163456\C,0,-13.2968381418,0.0072132737,0.9441891068\C,0,-13.542290662
 6,-1.4386153993,0.6225410214\C,0,-10.7891044991,-2.192994717,-1.998892
 2075\C,0,-9.5357130151,-0.0293357998,-0.3824151996\C,0,-11.1808040578,
 -0.1532709231,2.2491599831\C,0,-11.5788282631,1.9804531484,0.935571648
 9\C,0,-8.5529287146,-0.7569537366,0.2322919682\C,0,-7.1008480744,-0.63
 87057167,0.1305807584\C,0,-6.2352375387,-1.7729259814,0.2894111774\C,0
 ,-6.4914548072,0.6184726772,0.0673981846\C,0,-5.1537853201,0.892851321
 8,-0.2886831985\C,0,11.8998192288,-0.0635763281,1.4648660147\C,0,11.66
 56638565,-0.5266388191,-1.1747813578\C,0,12.5536425924,-1.4116853982,1
 .6185665901\C,0,13.3425589426,-1.7889634297,0.3336673311\C,0,12.412546
 1893,-1.7883733463,-0.9675907216\C,0,11.0476016481,0.0920739553,0.0723
 644167\C,0,10.9405754624,0.138390481,2.6064529855\C,0,12.9101141281,1.
 0183050513,1.4640694579\C,0,12.5866049667,0.5354324165,-1.9998539332\C
 ,0,-4.7260290986,2.2193744434,-0.4010149504\C,0,9.8765788454,0.5756983
 726,0.0590747308\C,0,-3.3521803764,2.638152569,-0.4381940801\C,0,8.626
 4524312,1.0458609199,-0.1151458546\C,0,-3.0925909442,4.1178832478,-0.5
 431440465\C,0,-2.3345403691,1.7058224309,-0.3972522599\C,0,7.452594802
 ,0.094470035,0.0159824141\C,0,7.5829330298,-1.3882657787,0.0933792608\
 C,0,6.2166930173,0.7165585862,-0.1374776838\C,0,-0.9545795895,1.938112
 935,-0.4852567008\C,0,4.9198235852,0.0567747936,-0.1674053717\C,0,-0.0
 63359857,0.9132646364,-0.326631766\C,0,3.8271721249,0.7925496054,-0.22
 1289598\C,0,1.3866706079,1.1800497327,-0.289821363\C,0,2.3792158221,0.
 3264219419,-0.1854951916\C,0,2.23498336,-1.233047485,-0.0974011465\H,0
 ,-13.1937511759,-2.9071336912,-1.0156767917\H,0,-13.675242748,-1.10781
 47657,-1.6212685816\H,0,-13.8750853107,0.448061875,1.798262509\H,0,-13
 .7657959732,0.7921443415,0.1090085665\H,0,-14.714468751,-1.4904277562,
 0.6001916235\H,0,-10.4698456015,-3.055392322,-1.4898842838\H,0,-11.374
 4876577,-2.6863534267,-2.8305913453\H,0,-9.9694291264,-1.6579750061,-2
 .4403456471\H,0,-9.1804867035,0.9609782288,-0.8955833684\H,0,-10.06996
 83244,-0.0531940553,2.0953352763\H,0,-11.3213975007,0.5407107727,2.985
 9269428\H,0,-11.6640871024,-1.2437512516,2.3006008498\H,0,-11.80770331
 28,2.3557116932,-0.0994267267\H,0,-12.2401502544,2.4078363591,1.727336
 4454\H,0,-10.6287331554,2.2077613666,1.1866429578\H,0,-12.2260256751,-
 2.6990227759,1.1444989288\H,0,-9.102161058,-1.6749558533,0.6274718461\
 H,0,-5.8706865148,-2.0618295081,-0.6690749519\H,0,-5.4274151568,-1.588
 044037,1.0244208383\H,0,-6.7667067813,-2.5330155746,0.6235385047\H,0,-
 7.2352748386,1.308079137,-0.0632159981\H,0,-4.5441210568,-0.1175231339
 ,-0.4763714128\H,0,13.5041560927,-1.2035520426,2.3612610667\H,0,11.776
 5328303,-2.1766470447,1.9127072704\H,0,13.6217145284,-2.8997316382,0.4
 998369096\H,0,13.1416115997,-2.0410505836,-1.8756706618\H,0,11.7579958
 078,-2.4460637303,-0.7310884509\H,0,11.7290525135,-0.0169213254,3.5797
 83017\H,0,10.6218291606,1.0964952126,2.7764451687\H,0,10.0856361848,-0
 .5494732618,2.6677030115\H,0,13.6922061225,1.0498036046,0.6647105359\H
 ,0,12.4321458278,2.0596454023,1.2044351492\H,0,13.4905148886,1.1947739
 565,2.5350099826\H,0,12.7660474242,0.1163350239,-2.98398085\H,0,11.945
 1915876,1.5356656575,-2.0417821131\H,0,13.332554088,0.853081361,-1.252
 4707325\H,0,-5.5009723211,2.9984642332,-0.3180032111\H,0,10.2731085615
 ,-0.0693455922,-2.3102633621\H,0,15.1416270079,-1.2696667811,0.8322118
 205\H,0,8.3850703578,2.1392462518,-0.4856458418\H,0,-2.6075758418,4.45
 03214818,0.3976455943\H,0,-2.4563043947,4.2639136162,-1.4952026294\H,0
 ,-3.9535417393,4.641822364,-0.6316029618\H,0,-2.6652661467,0.666608872
 9,-0.1048334379\H,0,6.685421292,-1.8411036725,-0.2072082361\H,0,8.5662
 218367,-1.6551502398,-0.285799354\H,0,7.6500449261,-1.5652488533,1.284
 7022311\H,0,6.034348582,1.8047942848,-0.1243844581\H,0,-0.5539967567,2
 .9414181853,-0.7453744489\H,0,4.8276387503,-0.9243089276,-0.1467719961
 \H,0,-0.4475836816,-0.1335451674,-0.239101299\H,0,4.0978589538,1.93597
 92341,-0.3853907641\H,0,1.5551523904,2.2631421061,-0.4923819366\H,0,1.
 1988587207,-1.5983064348,-0.3356745719\H,0,3.1015814829,-1.5458008816,
 -0.8979175618\H,0,2.5221289093,-1.6299372227,0.9211253991\\Version=ES6
 4L-G16RevA.03\State=1-A\HF=-1857.3529364\RMSD=4.282e-09\PG=C01 [X(C40H
 56O4)]\\@


 The hours that make us happy make us wise.
                         -- John Masefield
 Job cpu time:       0 days  6 hours 52 minutes  0.3 seconds.
 Elapsed time:       0 days  2 hours 17 minutes 35.5 seconds.
 File lengths (MBytes):  RWF=   3379 Int=      0 D2E=      0 Chk=     90 Scr=      1
 Normal termination of Gaussian 16 at Mon Jul 29 16:36:49 2019.
