 Entering Gaussian System, Link 0=g16
 Input=Geometria-160-.com
 Output=Geometria-160-.log
 Initial command:
 /usr/local/g09/l1.exe "/home/padawan/israel-mol/dihydrobiliverdin/spectra/abs/Gau-48310.inp" -scrdir="/home/padawan/israel-mol/dihydrobiliverdin/spectra/abs/"
 Entering Link 1 = /usr/local/g09/l1.exe PID=     48312.
  
 Copyright (c) 1988,1990,1992,1993,1995,1998,2003,2009,2013,
            Gaussian, Inc.  All Rights Reserved.
  
 This is part of the Gaussian(R) 09 program.  It is based on
 the Gaussian(R) 03 system (copyright 2003, Gaussian, Inc.),
 the Gaussian(R) 98 system (copyright 1998, Gaussian, Inc.),
 the Gaussian(R) 94 system (copyright 1995, Gaussian, Inc.),
 the Gaussian 92(TM) system (copyright 1992, Gaussian, Inc.),
 the Gaussian 90(TM) system (copyright 1990, Gaussian, Inc.),
 the Gaussian 88(TM) system (copyright 1988, Gaussian, Inc.),
 the Gaussian 86(TM) system (copyright 1986, Carnegie Mellon
 University), and the Gaussian 82(TM) system (copyright 1983,
 Carnegie Mellon University). Gaussian is a federally registered
 trademark of Gaussian, Inc.
  
 This software contains proprietary and confidential information,
 including trade secrets, belonging to Gaussian, Inc.
  
 This software is provided under written license and may be
 used, copied, transmitted, or stored only in accord with that
 written license.
  
 The following legend is applicable only to US Government
 contracts under FAR:
  
                    RESTRICTED RIGHTS LEGEND
  
 Use, reproduction and disclosure by the US Government is
 subject to restrictions as set forth in subparagraphs (a)
 and (c) of the Commercial Computer Software - Restricted
 Rights clause in FAR 52.227-19.
  
 Gaussian, Inc.
 340 Quinnipiac St., Bldg. 40, Wallingford CT 06492
  
  
 ---------------------------------------------------------------
 Warning -- This program may not be used in any manner that
 competes with the business of Gaussian, Inc. or will provide
 assistance to any competitor of Gaussian, Inc.  The licensee
 of this program is prohibited from giving any competitor of
 Gaussian, Inc. access to this program.  By using this program,
 the user acknowledges that Gaussian, Inc. is engaged in the
 business of creating and licensing software in the field of
 computational chemistry and represents and warrants to the
 licensee that it is not a competitor of Gaussian, Inc. and that
 it will not use this program in any manner prohibited above.
 ---------------------------------------------------------------
  

 Cite this work as:
 Gaussian 09, Revision D.01,
 M. J. Frisch, G. W. Trucks, H. B. Schlegel, G. E. Scuseria, 
 M. A. Robb, J. R. Cheeseman, G. Scalmani, V. Barone, B. Mennucci, 
 G. A. Petersson, H. Nakatsuji, M. Caricato, X. Li, H. P. Hratchian, 
 A. F. Izmaylov, J. Bloino, G. Zheng, J. L. Sonnenberg, M. Hada, 
 M. Ehara, K. Toyota, R. Fukuda, J. Hasegawa, M. Ishida, T. Nakajima, 
 Y. Honda, O. Kitao, H. Nakai, T. Vreven, J. A. Montgomery, Jr., 
 J. E. Peralta, F. Ogliaro, M. Bearpark, J. J. Heyd, E. Brothers, 
 K. N. Kudin, V. N. Staroverov, T. Keith, R. Kobayashi, J. Normand, 
 K. Raghavachari, A. Rendell, J. C. Burant, S. S. Iyengar, J. Tomasi, 
 M. Cossi, N. Rega, J. M. Millam, M. Klene, J. E. Knox, J. B. Cross, 
 V. Bakken, C. Adamo, J. Jaramillo, R. Gomperts, R. E. Stratmann, 
 O. Yazyev, A. J. Austin, R. Cammi, C. Pomelli, J. W. Ochterski, 
 R. L. Martin, K. Morokuma, V. G. Zakrzewski, G. A. Voth, 
 P. Salvador, J. J. Dannenberg, S. Dapprich, A. D. Daniels, 
 O. Farkas, J. B. Foresman, J. V. Ortiz, J. Cioslowski, 
 and D. J. Fox, Gaussian, Inc., Wallingford CT, 2013.
 
 ******************************************
 Gaussian 09:  ES64L-G09RevD.01 24-Apr-2013
                 8-Jul-2019 
 ******************************************
 %nproc=4
 Will use up to    4 processors via shared memory.
 %Mem=2GB
 --------------------------
 # td=(NStates=1) B3LYP/SVP
 --------------------------
 1/38=1/1;
 2/12=2,17=6,18=5,40=1/2;
 3/5=18,7=101,11=9,16=1,25=1,30=1,74=-5/1,2,8,3;
 4//1;
 5/5=2,38=5/2;
 8/6=1,10=1,108=1/1;
 9/41=1,42=1,70=2/14;
 6/7=2,8=2,9=2,10=2/1;
 99/5=1,9=1/99;
 --
 TD
 --
 Symbolic Z-matrix:
 Charge =  0 Multiplicity = 1
 8                    -5.67074   0.0786   -3.32338 
 8                     2.60929   3.18625   3.2716 
 8                     3.24901   0.95848   3.17738 
 8                     1.48142  -7.00428   1.76259 
 8                     0.94518  -7.24906  -0.55588 
 8                     1.85783   4.08057  -0.14136 
 7                    -2.32915  -1.0338    0.56522 
 7                    -4.50054   0.53588  -1.38589 
 7                     1.90446  -0.68429  -0.4211 
 7                     2.67427   1.88514  -0.60857 
 6                    -4.80411   1.24841  -0.1149 
 6                    -4.37201   0.31231   1.11508 
 6                    -2.96363   0.00637   1.15566 
 6                    -1.96725   0.6907    2.03819 
 6                    -0.81638   0.06144   1.74143 
 6                    -0.99671  -0.91652   0.66527 
 6                    -6.27124   1.48875  -0.14614 
 6                     0.5386    0.18146   2.449 
 6                    -6.7688    1.12327  -1.45337 
 6                    -0.17613  -1.92702   0.20021 
 6                     1.13024  -1.91071  -0.27955 
 6                    -5.60531   0.62602  -2.19749 
 6                     1.91653  -2.96051  -0.82603 
 6                    -2.24033   1.59515   3.17299 
 6                    -7.07867   2.08648   0.95669 
 6                     3.08228  -2.41906  -1.37583 
 6                     0.9631    1.73642   2.47433 
 6                     3.07902  -1.00966  -1.00843 
 6                     1.51245  -4.40779  -0.73717 
 6                    -8.05031   0.97599  -2.04976 
 6                     1.75086  -5.11735   0.48127 
 6                     4.29374  -2.98844  -2.02342 
 6                     3.9672    0.03211  -1.27126 
 6                     2.37401   1.81738   3.00381 
 6                     3.79693   1.373    -1.09136 
 6                    -9.23973   0.94746  -1.27152 
 6                     1.36915  -6.55195   0.4643 
 6                     4.76884   2.4209   -1.43865 
 6                     4.23157   3.63482  -0.971 
 6                     2.78249   3.26953  -0.48982 
 6                     6.05423   2.17018  -2.00308 
 6                     4.65377   4.99106  -1.19089 
 6                     6.96842   3.15279  -2.36994 
 1                    -4.09632   2.10878  -0.05707 
 1                    -4.77709  -0.57952   0.92841 
 1                    -4.67582   0.80548   1.92216 
 1                    -2.92463  -1.46993  -0.2669 
 1                    -3.5991    0.76216  -1.77241 
 1                     0.5471   -0.36806   3.5936 
 1                     1.30902  -0.31727   1.86685 
 1                    -0.5433   -2.87676   0.00868 
 1                    -3.17471   1.61072   3.44518 
 1                    -1.48937   1.30957   4.03739 
 1                    -1.80309   2.56305   3.04405 
 1                    -6.49391   2.52422   1.59954 
 1                    -7.74011   1.32164   1.54233 
 1                    -7.8164    2.82003   0.5934 
 1                     1.07977   2.26662   1.47166 
 1                     0.60714   2.43749   3.28796 
 1                     1.97034   0.48958  -0.44215 
 1                     1.79838  -4.90683  -1.61404 
 1                     0.3961   -4.58078  -0.806 
 1                    -8.16537   0.92508  -3.04913 
 1                     1.33908  -4.61828   1.25087 
 1                     2.69865  -5.14528   0.89149 
 1                     3.91875  -4.06711  -2.31996 
 1                     5.19228  -3.14546  -1.25076 
 1                     4.61835  -2.43655  -2.84079 
 1                     4.91897  -0.21652  -1.7314 
 1                    -9.40937   1.12245  -0.12659 
 1                    -10.34572   0.84127  -1.71785 
 1                     3.63674   3.41493   3.26748 
 1                     6.29881   1.08531  -1.97285 
 1                     4.8085    4.92448  -2.23223 
 1                     4.02058   5.68001  -0.74238 
 1                     5.57053   4.98219  -0.35176 
 1                     1.34166  -7.94873   1.62687 
 1                     8.08752   2.83738  -2.64718 
 1                     6.92141   4.24275  -2.3865 
 
 Stoichiometry    C33H36N4O6
 Framework group  C1[X(C33H36N4O6)]
 Deg. of freedom   231
 Full point group                 C1      NOp   1
 Largest Abelian subgroup         C1      NOp   1
 Largest concise Abelian subgroup C1      NOp   1
                         Standard orientation:                         
 ---------------------------------------------------------------------
 Center     Atomic      Atomic             Coordinates (Angstroms)
 Number     Number       Type             X           Y           Z
 ---------------------------------------------------------------------
      1          8           0        5.680842    0.081894   -3.314305
      2          8           0       -2.522398   -3.260587    3.261774
      3          8           0       -3.222727   -1.051039    3.169430
      4          8           0       -1.671445    6.959113    1.768545
      5          8           0       -1.138088    7.221734   -0.548633
      6          8           0       -1.740806   -4.129207   -0.151055
      7          7           0        2.303297    1.096915    0.569864
      8          7           0        4.520247   -0.409971   -1.379519
      9          7           0       -1.917438    0.632977   -0.424439
     10          7           0       -2.616258   -1.956304   -0.616743
     11          6           0        4.841011   -1.115697   -0.108958
     12          6           0        4.381300   -0.193508    1.121524
     13          6           0        2.964999    0.073692    1.160018
     14          6           0        1.986208   -0.638910    2.039857
     15          6           0        0.819045   -0.040986    1.741907
     16          6           0        0.974398    0.943047    0.667393
     17          6           0        6.314226   -1.315729   -0.137924
     18          6           0       -0.533358   -0.199058    2.446908
     19          6           0        6.803853   -0.934933   -1.443768
     20          6           0        0.127257    1.931347    0.202240
     21          6           0       -1.177341    1.879944   -0.279851
     22          6           0        5.628472   -0.468689   -2.189279
     23          6           0       -1.991141    2.908577   -0.826304
     24          6           0        2.281987   -1.537131    3.173907
     25          6           0        7.135806   -1.892670    0.965525
     26          6           0       -3.140675    2.336179   -1.378903
     27          6           0       -0.915159   -1.765095    2.469385
     28          6           0       -3.099452    0.926880   -1.013410
     29          6           0       -1.627006    4.366250   -0.734775
     30          6           0        8.081883   -0.751775   -2.037688
     31          6           0       -1.886874    5.067310    0.484206
     32          6           0       -4.366143    2.873071   -2.027874
     33          6           0       -3.958300   -0.138459   -1.279216
     34          6           0       -2.324236   -1.885405    2.996250
     35          6           0       -3.751690   -1.474425   -1.100836
     36          6           0        9.268724   -0.691772   -1.257299
     37          6           0       -1.544578    6.511854    0.469846
     38          6           0       -4.693927   -2.548069   -1.451259
     39          6           0       -4.124421   -3.747468   -0.984299
     40          6           0       -2.686725   -3.343305   -0.500057
     41          6           0       -5.984723   -2.331850   -2.017631
     42          6           0       -4.508932   -5.114455   -1.206776
     43          6           0       -6.871020   -3.338616   -2.387440
     44          1           0        4.156947   -1.995209   -0.053542
     45          1           0        4.762119    0.709342    0.936779
     46          1           0        4.697099   -0.679310    1.928474
     47          1           0        2.888048    1.550360   -0.260611
     48          1           0        3.626006   -0.660313   -1.767946
     49          1           0       -0.558895    0.348412    3.592238
     50          1           0       -1.316139    0.279198    1.864063
     51          1           0        0.468610    2.891051    0.012650
     52          1           0        3.215968   -1.527484    3.447736
     53          1           0        1.521991   -1.273434    4.037367
     54          1           0        1.871647   -2.516464    3.042883
     55          1           0        6.562143   -2.347158    1.606747
     56          1           0        7.775029   -1.110818    1.553371
     57          1           0        7.893980   -2.605232    0.602554
     58          1           0       -1.015521   -2.296889    1.465788
     59          1           0       -0.541545   -2.457298    3.282692
     60          1           0       -1.951109   -0.542222   -0.447186
     61          1           0       -1.924976    4.858501   -1.611472
     62          1           0       -0.515696    4.569847   -0.801393
     63          1           0        8.197240   -0.696326   -3.036779
     64          1           0       -1.462916    4.578625    1.253859
     65          1           0       -2.835788    5.068701    0.892781
     66          1           0       -4.020322    3.962025   -2.322286
     67          1           0       -5.269990    3.004345   -1.256593
     68          1           0       -4.674098    2.313639   -2.846565
     69          1           0       -4.915732    0.084657   -1.740709
     70          1           0        9.441105   -0.863655   -0.112316
     71          1           0       10.372164   -0.554704   -1.701529
     72          1           0       -3.543193   -3.517314    3.255525
     73          1           0       -6.258978   -1.254132   -1.986370
     74          1           0       -4.663626   -5.050674   -2.248296
     75          1           0       -3.857893   -5.786428   -0.758072
     76          1           0       -5.427048   -5.131875   -0.369257
     77          1           0       -1.557369    7.907225    1.634357
     78          1           0       -7.997852   -3.053583   -2.666238
     79          1           0       -6.794146   -4.426855   -2.405391
 ---------------------------------------------------------------------
 Rotational constants (GHZ):      0.0743088      0.0441050      0.0341339
 Standard basis: SVP (5D, 7F)
 There are   825 symmetry adapted cartesian basis functions of A   symmetry.
 There are   782 symmetry adapted basis functions of A   symmetry.
   782 basis functions,  1327 primitive gaussians,   825 cartesian basis functions
   155 alpha electrons      155 beta electrons
       nuclear repulsion energy      4912.1192531228 Hartrees.
 NAtoms=   79 NActive=   79 NUniq=   79 SFac= 1.00D+00 NAtFMM=   60 NAOKFM=T Big=T
 Integral buffers will be    131072 words long.
 Regular integral format.
 Two-electron integral symmetry is turned on.
 One-electron integrals computed using PRISM.
 NBasis=   782 RedAO= T EigKep=  3.64D-04  NBF=   782
 NBsUse=   782 1.00D-06 EigRej= -1.00D+00 NBFU=   782
 ExpMin= 1.22D-01 ExpMax= 2.27D+03 ExpMxC= 3.41D+02 IAcc=1 IRadAn=         1 AccDes= 0.00D+00
 Harris functional with IExCor=  402 and IRadAn=       1 diagonalized for initial guess.
 HarFok:  IExCor=  402 AccDes= 0.00D+00 IRadAn=         1 IDoV= 1 UseB2=F ITyADJ=14
 ICtDFT=  3500011 ScaDFX=  1.000000  1.000000  1.000000  1.000000
 FoFCou: FMM=F IPFlag=           0 FMFlag=      100000 FMFlg1=        2001
         NFxFlg=           0 DoJE=T BraDBF=F KetDBF=T FulRan=T
         wScrn=  0.000000 ICntrl=     500 IOpCl=  0 I1Cent=   200000004 NGrid=           0
         NMat0=    1 NMatS0=      1 NMatT0=    0 NMatD0=    1 NMtDS0=    0 NMtDT0=    0
 Petite list used in FoFCou.
 Requested convergence on RMS density matrix=1.00D-08 within 128 cycles.
 Requested convergence on MAX density matrix=1.00D-06.
 Requested convergence on             energy=1.00D-06.
 No special actions if energy rises.
 Integral accuracy reduced to 1.0D-05 until final iterations.
 EnCoef did     2 forward-backward iterations
 Initial convergence to 1.0D-05 achieved.  Increase integral accuracy.
 SCF Done:  E(RB3LYP) =  -1947.79480186     A.U. after   19 cycles
            NFock= 19  Conv=0.47D-08     -V/T= 2.0104
 DoSCS=F DFT=T ScalE2(SS,OS)=  1.000000  1.000000
 ExpMin= 1.22D-01 ExpMax= 2.27D+03 ExpMxC= 3.41D+02 IAcc=3 IRadAn=         5 AccDes= 0.00D+00
 HarFok:  IExCor=  205 AccDes= 0.00D+00 IRadAn=         5 IDoV=-2 UseB2=F ITyADJ=14
 ICtDFT= 12500011 ScaDFX=  1.000000  1.000000  1.000000  1.000000
 Range of M.O.s used for correlation:    44   782
 NBasis=   782 NAE=   155 NBE=   155 NFC=    43 NFV=     0
 NROrb=    739 NOA=   112 NOB=   112 NVA=   627 NVB=   627

 **** Warning!!: The smallest alpha delta epsilon is  0.81519339D-01

 Would need an additional        140608300000 words for in-memory AO integral storage.
 Orbital symmetries:
       Occupied  (A) (A) (A) (A) (A) (A) (A) (A) (A) (A) (A) (A)
                 (A) (A) (A) (A) (A) (A) (A) (A) (A) (A) (A) (A)
                 (A) (A) (A) (A) (A) (A) (A) (A) (A) (A) (A) (A)
                 (A) (A) (A) (A) (A) (A) (A) (A) (A) (A) (A) (A)
                 (A) (A) (A) (A) (A) (A) (A) (A) (A) (A) (A) (A)
                 (A) (A) (A) (A) (A) (A) (A) (A) (A) (A) (A) (A)
                 (A) (A) (A) (A) (A) (A) (A) (A) (A) (A) (A) (A)
                 (A) (A) (A) (A) (A) (A) (A) (A) (A) (A) (A) (A)
                 (A) (A) (A) (A) (A) (A) (A) (A) (A) (A) (A) (A)
                 (A) (A) (A) (A) (A) (A) (A) (A) (A) (A) (A) (A)
                 (A) (A) (A) (A) (A) (A) (A) (A) (A) (A) (A) (A)
                 (A) (A) (A) (A) (A) (A) (A) (A) (A) (A) (A) (A)
                 (A) (A) (A) (A) (A) (A) (A) (A) (A) (A) (A)
       Virtual   (A) (A) (A) (A) (A) (A) (A) (A) (A) (A) (A) (A)
                 (A) (A) (A) (A) (A) (A) (A) (A) (A) (A) (A) (A)
                 (A) (A) (A) (A) (A) (A) (A) (A) (A) (A) (A) (A)
                 (A) (A) (A) (A) (A) (A) (A) (A) (A) (A) (A) (A)
                 (A) (A) (A) (A) (A) (A) (A) (A) (A) (A) (A) (A)
                 (A) (A) (A) (A) (A) (A) (A) (A) (A) (A) (A) (A)
                 (A) (A) (A) (A) (A) (A) (A) (A) (A) (A) (A) (A)
                 (A) (A) (A) (A) (A) (A) (A) (A) (A) (A) (A) (A)
                 (A) (A) (A) (A) (A) (A) (A) (A) (A) (A) (A) (A)
                 (A) (A) (A) (A) (A) (A) (A) (A) (A) (A) (A) (A)
                 (A) (A) (A) (A) (A) (A) (A) (A) (A) (A) (A) (A)
                 (A) (A) (A) (A) (A) (A) (A) (A) (A) (A) (A) (A)
                 (A) (A) (A) (A) (A) (A) (A) (A) (A) (A) (A) (A)
                 (A) (A) (A) (A) (A) (A) (A) (A) (A) (A) (A) (A)
                 (A) (A) (A) (A) (A) (A) (A) (A) (A) (A) (A) (A)
                 (A) (A) (A) (A) (A) (A) (A) (A) (A) (A) (A) (A)
                 (A) (A) (A) (A) (A) (A) (A) (A) (A) (A) (A) (A)
                 (A) (A) (A) (A) (A) (A) (A) (A) (A) (A) (A) (A)
                 (A) (A) (A) (A) (A) (A) (A) (A) (A) (A) (A) (A)
                 (A) (A) (A) (A) (A) (A) (A) (A) (A) (A) (A) (A)
                 (A) (A) (A) (A) (A) (A) (A) (A) (A) (A) (A) (A)
                 (A) (A) (A) (A) (A) (A) (A) (A) (A) (A) (A) (A)
                 (A) (A) (A) (A) (A) (A) (A) (A) (A) (A) (A) (A)
                 (A) (A) (A) (A) (A) (A) (A) (A) (A) (A) (A) (A)
                 (A) (A) (A) (A) (A) (A) (A) (A) (A) (A) (A) (A)
                 (A) (A) (A) (A) (A) (A) (A) (A) (A) (A) (A) (A)
                 (A) (A) (A) (A) (A) (A) (A) (A) (A) (A) (A) (A)
                 (A) (A) (A) (A) (A) (A) (A) (A) (A) (A) (A) (A)
                 (A) (A) (A) (A) (A) (A) (A) (A) (A) (A) (A) (A)
                 (A) (A) (A) (A) (A) (A) (A) (A) (A) (A) (A) (A)
                 (A) (A) (A) (A) (A) (A) (A) (A) (A) (A) (A) (A)
                 (A) (A) (A) (A) (A) (A) (A) (A) (A) (A) (A) (A)
                 (A) (A) (A) (A) (A) (A) (A) (A) (A) (A) (A) (A)
                 (A) (A) (A) (A) (A) (A) (A) (A) (A) (A) (A) (A)
                 (A) (A) (A) (A) (A) (A) (A) (A) (A) (A) (A) (A)
                 (A) (A) (A) (A) (A) (A) (A) (A) (A) (A) (A) (A)
                 (A) (A) (A) (A) (A) (A) (A) (A) (A) (A) (A) (A)
                 (A) (A) (A) (A) (A) (A) (A) (A) (A) (A) (A) (A)
                 (A) (A) (A) (A) (A) (A) (A) (A) (A) (A) (A) (A)
                 (A) (A) (A) (A) (A) (A) (A) (A) (A) (A) (A) (A)
                 (A) (A) (A) (A) (A) (A) (A) (A) (A) (A) (A) (A)
                 (A) (A) (A) (A) (A) (A) (A) (A) (A) (A) (A) (A)
                 (A) (A) (A) (A) (A) (A) (A) (A) (A) (A) (A) (A)
                 (A) (A) (A) (A) (A) (A) (A) (A) (A) (A) (A) (A)
                 (A) (A) (A) (A) (A) (A) (A) (A) (A) (A) (A) (A)
                 (A) (A) (A) (A) (A) (A) (A) (A) (A) (A) (A) (A)
                 (A) (A) (A) (A) (A) (A) (A) (A) (A) (A) (A) (A)
                 (A) (A) (A) (A) (A) (A) (A) (A) (A) (A) (A) (A)
                 (A) (A) (A) (A) (A) (A) (A) (A) (A) (A) (A) (A)
                 (A) (A) (A) (A) (A) (A) (A) (A) (A) (A) (A) (A)
                 (A) (A) (A) (A) (A) (A) (A) (A) (A) (A) (A) (A)
                 (A) (A) (A) (A) (A) (A) (A) (A) (A) (A) (A) (A)
                 (A) (A) (A)
     8 initial guesses have been made.
 Convergence on wavefunction:    0.001000000000000
 Iteration     1 Dimension     8 NMult     0 NNew      8
 CISAX will form     8 AO SS matrices at one time.
 New state      1 was old state      2
 Iteration     2 Dimension    12 NMult     8 NNew      4
 Iteration     3 Dimension    16 NMult    12 NNew      4
 Iteration     4 Dimension    20 NMult    16 NNew      4
 Iteration     5 Dimension    24 NMult    20 NNew      4
 Iteration     6 Dimension    28 NMult    24 NNew      4
 Iteration     7 Dimension    32 NMult    28 NNew      4
 ***********************************************************************
 Excited states from <AA,BB:AA,BB> singles matrix:
 ***********************************************************************
 
 Ground to excited state transition densities written to RWF  633
 Ground to excited state transition electric dipole moments (Au):
       state          X           Y           Z        Dip. S.      Osc.
         1        -2.9939     -1.0358     -0.8459     10.7520      0.5548
 Ground to excited state transition velocity dipole moments (Au):
       state          X           Y           Z        Dip. S.      Osc.
         1         0.2239      0.0719      0.0638      0.0594      0.5115
 Ground to excited state transition magnetic dipole moments (Au):
       state          X           Y           Z
         1         0.8224      0.0823     -1.6794
 Ground to excited state transition velocity quadrupole moments (Au):
       state          XX          YY          ZZ          XY          XZ          YZ
         1        -0.0174     -0.5654      0.1079     -0.6833     -0.4650     -0.2047
 <0|del|b> * <b|rxdel|0> + <0|del|b> * <b|delr+rdel|0>
 Rotatory Strengths (R) in cgs (10**-40 erg-esu-cm/Gauss)
       state          XX          YY          ZZ    R(velocity)    E-M Angle
         1      -508.4069    341.8338    925.0395    252.8221       79.51
 1/2[<0|r|b>*<b|rxdel|0> + (<0|rxdel|b>*<b|r|0>)*]
 Rotatory Strengths (R) in cgs (10**-40 erg-esu-cm/Gauss)
       state          XX          YY          ZZ     R(length)
         1      1741.1473     60.3056  -1004.6626    265.5968
  1/2[<0|del|b>*<b|r|0> + (<0|r|b>*<b|del|0>)*] (Au)
       state          X           Y           Z        Dip. S.   Osc.(frdel)
         1        -0.6704     -0.0745     -0.0539      0.7988      0.5326

 Excitation energies and oscillator strengths:
 
 Excited State   1:      Singlet-A      2.1061 eV  588.70 nm  f=0.5548  <S**2>=0.000
     154 ->156        -0.19562
     155 ->156         0.67657
     155 <-156        -0.11046
 This state for optimization and/or second-order correction.
 Total Energy, E(TD-HF/TD-KS) =  -1947.71740466    
 Copying the excited state density for this state as the 1-particle RhoCI density.
 SavETr:  write IOETrn=   770 NScale= 10 NData=  16 NLR=1 NState=    1 LETran=      28.

 **********************************************************************

            Population analysis using the SCF density.

 **********************************************************************

 Orbital symmetries:
       Occupied  (A) (A) (A) (A) (A) (A) (A) (A) (A) (A) (A) (A)
                 (A) (A) (A) (A) (A) (A) (A) (A) (A) (A) (A) (A)
                 (A) (A) (A) (A) (A) (A) (A) (A) (A) (A) (A) (A)
                 (A) (A) (A) (A) (A) (A) (A) (A) (A) (A) (A) (A)
                 (A) (A) (A) (A) (A) (A) (A) (A) (A) (A) (A) (A)
                 (A) (A) (A) (A) (A) (A) (A) (A) (A) (A) (A) (A)
                 (A) (A) (A) (A) (A) (A) (A) (A) (A) (A) (A) (A)
                 (A) (A) (A) (A) (A) (A) (A) (A) (A) (A) (A) (A)
                 (A) (A) (A) (A) (A) (A) (A) (A) (A) (A) (A) (A)
                 (A) (A) (A) (A) (A) (A) (A) (A) (A) (A) (A) (A)
                 (A) (A) (A) (A) (A) (A) (A) (A) (A) (A) (A) (A)
                 (A) (A) (A) (A) (A) (A) (A) (A) (A) (A) (A) (A)
                 (A) (A) (A) (A) (A) (A) (A) (A) (A) (A) (A)
       Virtual   (A) (A) (A) (A) (A) (A) (A) (A) (A) (A) (A) (A)
                 (A) (A) (A) (A) (A) (A) (A) (A) (A) (A) (A) (A)
                 (A) (A) (A) (A) (A) (A) (A) (A) (A) (A) (A) (A)
                 (A) (A) (A) (A) (A) (A) (A) (A) (A) (A) (A) (A)
                 (A) (A) (A) (A) (A) (A) (A) (A) (A) (A) (A) (A)
                 (A) (A) (A) (A) (A) (A) (A) (A) (A) (A) (A) (A)
                 (A) (A) (A) (A) (A) (A) (A) (A) (A) (A) (A) (A)
                 (A) (A) (A) (A) (A) (A) (A) (A) (A) (A) (A) (A)
                 (A) (A) (A) (A) (A) (A) (A) (A) (A) (A) (A) (A)
                 (A) (A) (A) (A) (A) (A) (A) (A) (A) (A) (A) (A)
                 (A) (A) (A) (A) (A) (A) (A) (A) (A) (A) (A) (A)
                 (A) (A) (A) (A) (A) (A) (A) (A) (A) (A) (A) (A)
                 (A) (A) (A) (A) (A) (A) (A) (A) (A) (A) (A) (A)
                 (A) (A) (A) (A) (A) (A) (A) (A) (A) (A) (A) (A)
                 (A) (A) (A) (A) (A) (A) (A) (A) (A) (A) (A) (A)
                 (A) (A) (A) (A) (A) (A) (A) (A) (A) (A) (A) (A)
                 (A) (A) (A) (A) (A) (A) (A) (A) (A) (A) (A) (A)
                 (A) (A) (A) (A) (A) (A) (A) (A) (A) (A) (A) (A)
                 (A) (A) (A) (A) (A) (A) (A) (A) (A) (A) (A) (A)
                 (A) (A) (A) (A) (A) (A) (A) (A) (A) (A) (A) (A)
                 (A) (A) (A) (A) (A) (A) (A) (A) (A) (A) (A) (A)
                 (A) (A) (A) (A) (A) (A) (A) (A) (A) (A) (A) (A)
                 (A) (A) (A) (A) (A) (A) (A) (A) (A) (A) (A) (A)
                 (A) (A) (A) (A) (A) (A) (A) (A) (A) (A) (A) (A)
                 (A) (A) (A) (A) (A) (A) (A) (A) (A) (A) (A) (A)
                 (A) (A) (A) (A) (A) (A) (A) (A) (A) (A) (A) (A)
                 (A) (A) (A) (A) (A) (A) (A) (A) (A) (A) (A) (A)
                 (A) (A) (A) (A) (A) (A) (A) (A) (A) (A) (A) (A)
                 (A) (A) (A) (A) (A) (A) (A) (A) (A) (A) (A) (A)
                 (A) (A) (A) (A) (A) (A) (A) (A) (A) (A) (A) (A)
                 (A) (A) (A) (A) (A) (A) (A) (A) (A) (A) (A) (A)
                 (A) (A) (A) (A) (A) (A) (A) (A) (A) (A) (A) (A)
                 (A) (A) (A) (A) (A) (A) (A) (A) (A) (A) (A) (A)
                 (A) (A) (A) (A) (A) (A) (A) (A) (A) (A) (A) (A)
                 (A) (A) (A) (A) (A) (A) (A) (A) (A) (A) (A) (A)
                 (A) (A) (A) (A) (A) (A) (A) (A) (A) (A) (A) (A)
                 (A) (A) (A) (A) (A) (A) (A) (A) (A) (A) (A) (A)
                 (A) (A) (A) (A) (A) (A) (A) (A) (A) (A) (A) (A)
                 (A) (A) (A) (A) (A) (A) (A) (A) (A) (A) (A) (A)
                 (A) (A) (A) (A) (A) (A) (A) (A) (A) (A) (A) (A)
                 (A) (A) (A) (A) (A) (A) (A) (A) (A) (A) (A) (A)
                 (A) (A) (A) (A) (A) (A) (A) (A) (A) (A) (A) (A)
                 (A) (A) (A) (A) (A) (A) (A) (A) (A) (A) (A) (A)
                 (A) (A) (A) (A) (A) (A) (A) (A) (A) (A) (A) (A)
                 (A) (A) (A) (A) (A) (A) (A) (A) (A) (A) (A) (A)
                 (A) (A) (A) (A) (A) (A) (A) (A) (A) (A) (A) (A)
                 (A) (A) (A) (A) (A) (A) (A) (A) (A) (A) (A) (A)
                 (A) (A) (A) (A) (A) (A) (A) (A) (A) (A) (A) (A)
                 (A) (A) (A) (A) (A) (A) (A) (A) (A) (A) (A) (A)
                 (A) (A) (A) (A) (A) (A) (A) (A) (A) (A) (A) (A)
                 (A) (A) (A) (A) (A) (A) (A) (A) (A) (A) (A) (A)
                 (A) (A) (A) (A) (A) (A) (A) (A) (A) (A) (A) (A)
                 (A) (A) (A)
 The electronic state is 1-A.
 Alpha  occ. eigenvalues --  -19.20375 -19.15845 -19.14482 -19.11582 -19.09923
 Alpha  occ. eigenvalues --  -19.09664 -14.40931 -14.36259 -14.34458 -14.29367
 Alpha  occ. eigenvalues --  -10.34185 -10.30653 -10.28631 -10.26832 -10.26220
 Alpha  occ. eigenvalues --  -10.24446 -10.24148 -10.24011 -10.23402 -10.23172
 Alpha  occ. eigenvalues --  -10.22955 -10.22143 -10.21852 -10.21745 -10.21440
 Alpha  occ. eigenvalues --  -10.21433 -10.21388 -10.21260 -10.20950 -10.20923
 Alpha  occ. eigenvalues --  -10.20640 -10.20578 -10.20342 -10.20272 -10.20243
 Alpha  occ. eigenvalues --  -10.20145 -10.20013 -10.19926 -10.19821 -10.19576
 Alpha  occ. eigenvalues --  -10.19015 -10.18949 -10.17813  -1.09744  -1.04527
 Alpha  occ. eigenvalues --   -1.01666  -1.01007  -0.98589  -0.97993  -0.96751
 Alpha  occ. eigenvalues --   -0.96101  -0.94205  -0.91703  -0.84571  -0.83363
 Alpha  occ. eigenvalues --   -0.82823  -0.82210  -0.80803  -0.80263  -0.79277
 Alpha  occ. eigenvalues --   -0.77843  -0.76736  -0.76198  -0.75077  -0.73165
 Alpha  occ. eigenvalues --   -0.72441  -0.72386  -0.70218  -0.69305  -0.68125
 Alpha  occ. eigenvalues --   -0.67074  -0.66895  -0.64474  -0.62145  -0.60599
 Alpha  occ. eigenvalues --   -0.60030  -0.58909  -0.58533  -0.58159  -0.57476
 Alpha  occ. eigenvalues --   -0.56752  -0.55926  -0.55078  -0.54509  -0.53177
 Alpha  occ. eigenvalues --   -0.52346  -0.52027  -0.51606  -0.51175  -0.49987
 Alpha  occ. eigenvalues --   -0.49824  -0.49490  -0.48916  -0.48361  -0.47735
 Alpha  occ. eigenvalues --   -0.47163  -0.46878  -0.46320  -0.46086  -0.45777
 Alpha  occ. eigenvalues --   -0.45599  -0.45386  -0.44912  -0.44778  -0.44342
 Alpha  occ. eigenvalues --   -0.43763  -0.43402  -0.43280  -0.43110  -0.42840
 Alpha  occ. eigenvalues --   -0.42503  -0.42421  -0.41930  -0.41748  -0.41586
 Alpha  occ. eigenvalues --   -0.41346  -0.40991  -0.40495  -0.40342  -0.39966
 Alpha  occ. eigenvalues --   -0.39606  -0.39387  -0.39205  -0.38893  -0.38737
 Alpha  occ. eigenvalues --   -0.38329  -0.38092  -0.37410  -0.37309  -0.36931
 Alpha  occ. eigenvalues --   -0.36351  -0.35577  -0.35150  -0.34553  -0.34454
 Alpha  occ. eigenvalues --   -0.34095  -0.33454  -0.33068  -0.32785  -0.31792
 Alpha  occ. eigenvalues --   -0.30906  -0.30174  -0.29274  -0.28577  -0.27499
 Alpha  occ. eigenvalues --   -0.27447  -0.26565  -0.25847  -0.25466  -0.25366
 Alpha  occ. eigenvalues --   -0.24071  -0.23525  -0.23028  -0.21215  -0.18771
 Alpha virt. eigenvalues --   -0.10619  -0.08410  -0.06462  -0.03180  -0.01536
 Alpha virt. eigenvalues --   -0.01073  -0.00002   0.01085   0.02370   0.03032
 Alpha virt. eigenvalues --    0.03214   0.03682   0.04310   0.04509   0.05072
 Alpha virt. eigenvalues --    0.05353   0.05454   0.06033   0.06594   0.06727
 Alpha virt. eigenvalues --    0.07143   0.07508   0.08035   0.08345   0.08557
 Alpha virt. eigenvalues --    0.08728   0.09518   0.09695   0.10557   0.10816
 Alpha virt. eigenvalues --    0.10952   0.11117   0.12201   0.12707   0.12959
 Alpha virt. eigenvalues --    0.13035   0.13121   0.13358   0.13501   0.14188
 Alpha virt. eigenvalues --    0.14427   0.14593   0.14776   0.15056   0.15359
 Alpha virt. eigenvalues --    0.15842   0.15982   0.17042   0.17455   0.17922
 Alpha virt. eigenvalues --    0.18306   0.18934   0.19430   0.20002   0.20059
 Alpha virt. eigenvalues --    0.20581   0.21009   0.21473   0.22326   0.22673
 Alpha virt. eigenvalues --    0.22907   0.23207   0.23561   0.23678   0.24155
 Alpha virt. eigenvalues --    0.24319   0.24988   0.25245   0.25666   0.26300
 Alpha virt. eigenvalues --    0.27478   0.27888   0.28043   0.28533   0.28958
 Alpha virt. eigenvalues --    0.29489   0.30010   0.30489   0.30770   0.31108
 Alpha virt. eigenvalues --    0.31234   0.31666   0.32582   0.33160   0.33301
 Alpha virt. eigenvalues --    0.33898   0.34045   0.34851   0.35236   0.36212
 Alpha virt. eigenvalues --    0.36649   0.37187   0.37753   0.37826   0.38262
 Alpha virt. eigenvalues --    0.39529   0.40119   0.40313   0.40645   0.41325
 Alpha virt. eigenvalues --    0.41569   0.42245   0.42548   0.42785   0.43413
 Alpha virt. eigenvalues --    0.43721   0.43932   0.44159   0.44326   0.44992
 Alpha virt. eigenvalues --    0.45426   0.45733   0.45899   0.46197   0.46508
 Alpha virt. eigenvalues --    0.46749   0.47401   0.47457   0.47621   0.48183
 Alpha virt. eigenvalues --    0.48731   0.49011   0.49202   0.49226   0.50056
 Alpha virt. eigenvalues --    0.50385   0.50564   0.51100   0.51261   0.51431
 Alpha virt. eigenvalues --    0.51613   0.51858   0.52625   0.52759   0.52966
 Alpha virt. eigenvalues --    0.53765   0.54013   0.54299   0.54658   0.54970
 Alpha virt. eigenvalues --    0.55109   0.55405   0.56100   0.56573   0.56988
 Alpha virt. eigenvalues --    0.57466   0.57587   0.57938   0.58311   0.58691
 Alpha virt. eigenvalues --    0.59280   0.59472   0.59546   0.59954   0.60265
 Alpha virt. eigenvalues --    0.60318   0.60795   0.61182   0.61423   0.61968
 Alpha virt. eigenvalues --    0.62311   0.62400   0.62606   0.63188   0.63321
 Alpha virt. eigenvalues --    0.63696   0.64016   0.64196   0.64560   0.64989
 Alpha virt. eigenvalues --    0.65006   0.65298   0.65698   0.65899   0.66167
 Alpha virt. eigenvalues --    0.66567   0.66732   0.67013   0.67110   0.67268
 Alpha virt. eigenvalues --    0.67624   0.67934   0.68269   0.68453   0.68611
 Alpha virt. eigenvalues --    0.68916   0.69131   0.69329   0.69391   0.69603
 Alpha virt. eigenvalues --    0.70122   0.70368   0.70754   0.70916   0.70997
 Alpha virt. eigenvalues --    0.71576   0.72467   0.72565   0.73027   0.73323
 Alpha virt. eigenvalues --    0.73716   0.74082   0.74136   0.75006   0.75281
 Alpha virt. eigenvalues --    0.75609   0.75777   0.76222   0.76637   0.76835
 Alpha virt. eigenvalues --    0.77058   0.77226   0.77632   0.78388   0.78935
 Alpha virt. eigenvalues --    0.79271   0.79500   0.79843   0.80068   0.80563
 Alpha virt. eigenvalues --    0.80931   0.81375   0.82168   0.82469   0.82714
 Alpha virt. eigenvalues --    0.83350   0.83496   0.84245   0.84855   0.85607
 Alpha virt. eigenvalues --    0.86197   0.87311   0.87497   0.88406   0.89570
 Alpha virt. eigenvalues --    0.90185   0.90522   0.91556   0.92618   0.93493
 Alpha virt. eigenvalues --    0.93708   0.94249   0.94510   0.95225   0.96211
 Alpha virt. eigenvalues --    0.96388   0.96879   0.97155   0.97300   0.97766
 Alpha virt. eigenvalues --    0.98511   0.99358   1.00277   1.01093   1.01259
 Alpha virt. eigenvalues --    1.01861   1.02745   1.02895   1.03974   1.05242
 Alpha virt. eigenvalues --    1.05644   1.05901   1.07168   1.07868   1.08192
 Alpha virt. eigenvalues --    1.08357   1.09110   1.09422   1.10884   1.11317
 Alpha virt. eigenvalues --    1.12137   1.12317   1.12987   1.13229   1.13683
 Alpha virt. eigenvalues --    1.14885   1.16172   1.17030   1.17727   1.18075
 Alpha virt. eigenvalues --    1.18538   1.18633   1.18867   1.20854   1.21803
 Alpha virt. eigenvalues --    1.22414   1.22806   1.23094   1.23710   1.23945
 Alpha virt. eigenvalues --    1.24079   1.24990   1.25948   1.26053   1.26833
 Alpha virt. eigenvalues --    1.26952   1.28259   1.28540   1.28868   1.29509
 Alpha virt. eigenvalues --    1.31053   1.31683   1.31763   1.32822   1.33181
 Alpha virt. eigenvalues --    1.33805   1.35057   1.35508   1.36561   1.38429
 Alpha virt. eigenvalues --    1.38821   1.39317   1.39653   1.40435   1.41036
 Alpha virt. eigenvalues --    1.42323   1.42544   1.43107   1.43458   1.44550
 Alpha virt. eigenvalues --    1.45598   1.45627   1.46607   1.46951   1.48390
 Alpha virt. eigenvalues --    1.48604   1.49002   1.49833   1.50423   1.50601
 Alpha virt. eigenvalues --    1.51823   1.51923   1.52836   1.53425   1.54157
 Alpha virt. eigenvalues --    1.54931   1.55451   1.55526   1.56695   1.57216
 Alpha virt. eigenvalues --    1.57811   1.58682   1.59234   1.59551   1.59687
 Alpha virt. eigenvalues --    1.60611   1.61163   1.61597   1.61803   1.62618
 Alpha virt. eigenvalues --    1.62882   1.63450   1.64125   1.64448   1.64799
 Alpha virt. eigenvalues --    1.65125   1.65701   1.66298   1.66759   1.67395
 Alpha virt. eigenvalues --    1.67518   1.67829   1.68576   1.68839   1.68980
 Alpha virt. eigenvalues --    1.69417   1.69954   1.70228   1.70383   1.70433
 Alpha virt. eigenvalues --    1.70988   1.71528   1.71947   1.71998   1.72866
 Alpha virt. eigenvalues --    1.73002   1.73519   1.74034   1.75023   1.75410
 Alpha virt. eigenvalues --    1.75464   1.75636   1.76131   1.76831   1.77894
 Alpha virt. eigenvalues --    1.78237   1.78448   1.78844   1.79111   1.79580
 Alpha virt. eigenvalues --    1.80142   1.80660   1.80877   1.81436   1.81638
 Alpha virt. eigenvalues --    1.81777   1.82013   1.82883   1.83112   1.83393
 Alpha virt. eigenvalues --    1.84226   1.84479   1.84870   1.85157   1.85398
 Alpha virt. eigenvalues --    1.85762   1.86460   1.86952   1.87166   1.87903
 Alpha virt. eigenvalues --    1.88562   1.89434   1.89721   1.90554   1.90823
 Alpha virt. eigenvalues --    1.91048   1.91734   1.92530   1.92824   1.93033
 Alpha virt. eigenvalues --    1.93248   1.93929   1.94472   1.94827   1.95434
 Alpha virt. eigenvalues --    1.95828   1.96017   1.96733   1.97499   1.98112
 Alpha virt. eigenvalues --    1.98748   1.99073   1.99373   1.99759   2.00372
 Alpha virt. eigenvalues --    2.00945   2.01490   2.01708   2.02231   2.02738
 Alpha virt. eigenvalues --    2.03007   2.03613   2.04745   2.05026   2.05510
 Alpha virt. eigenvalues --    2.05601   2.06379   2.06530   2.06854   2.08418
 Alpha virt. eigenvalues --    2.08885   2.09694   2.09908   2.10579   2.11054
 Alpha virt. eigenvalues --    2.11411   2.12076   2.12694   2.12769   2.13335
 Alpha virt. eigenvalues --    2.13512   2.14203   2.14468   2.14725   2.15235
 Alpha virt. eigenvalues --    2.15963   2.16853   2.17161   2.17471   2.17727
 Alpha virt. eigenvalues --    2.18755   2.19235   2.19428   2.21430   2.21850
 Alpha virt. eigenvalues --    2.22557   2.22891   2.23997   2.24576   2.25368
 Alpha virt. eigenvalues --    2.26189   2.27704   2.27998   2.29387   2.29815
 Alpha virt. eigenvalues --    2.30122   2.30464   2.30800   2.32292   2.32945
 Alpha virt. eigenvalues --    2.33297   2.34028   2.35032   2.35596   2.36145
 Alpha virt. eigenvalues --    2.36442   2.36794   2.37689   2.38118   2.39178
 Alpha virt. eigenvalues --    2.40288   2.40730   2.41309   2.41717   2.42614
 Alpha virt. eigenvalues --    2.43200   2.43741   2.44288   2.45757   2.46483
 Alpha virt. eigenvalues --    2.47293   2.48325   2.49115   2.50362   2.50430
 Alpha virt. eigenvalues --    2.50954   2.52999   2.53320   2.53784   2.55301
 Alpha virt. eigenvalues --    2.56091   2.57283   2.57518   2.57802   2.58352
 Alpha virt. eigenvalues --    2.59637   2.60140   2.60646   2.61594   2.62049
 Alpha virt. eigenvalues --    2.63011   2.63614   2.63893   2.64241   2.64479
 Alpha virt. eigenvalues --    2.65811   2.66157   2.66620   2.67185   2.67970
 Alpha virt. eigenvalues --    2.68820   2.69113   2.70029   2.70339   2.70723
 Alpha virt. eigenvalues --    2.71547   2.71845   2.72340   2.73149   2.73794
 Alpha virt. eigenvalues --    2.74402   2.77880   2.78268   2.78806   2.79109
 Alpha virt. eigenvalues --    2.79485   2.80364   2.80663   2.82271   2.82529
 Alpha virt. eigenvalues --    2.82930   2.84674   2.84920   2.85794   2.86218
 Alpha virt. eigenvalues --    2.86731   2.87428   2.88918   2.89733   2.89954
 Alpha virt. eigenvalues --    2.90791   2.91085   2.91646   2.92066   2.93862
 Alpha virt. eigenvalues --    2.93993   2.94638   2.95012   2.95173   2.95978
 Alpha virt. eigenvalues --    2.96648   2.97633   2.98212   3.00250   3.01276
 Alpha virt. eigenvalues --    3.03031   3.04002   3.04690   3.05629   3.08480
 Alpha virt. eigenvalues --    3.09061   3.09976   3.10415   3.11156   3.11218
 Alpha virt. eigenvalues --    3.11962   3.12102   3.13924   3.14326   3.15064
 Alpha virt. eigenvalues --    3.16014   3.16634   3.17967   3.18603   3.19343
 Alpha virt. eigenvalues --    3.19779   3.22524   3.24834   3.27457   3.29458
 Alpha virt. eigenvalues --    3.30328   3.34385   3.35063   3.35490   3.37793
 Alpha virt. eigenvalues --    3.40369   3.48444   3.50099   3.50144   3.54161
 Alpha virt. eigenvalues --    3.54820   3.59348   3.60228   3.62334   3.66532
 Alpha virt. eigenvalues --    3.67835   3.75959
          Condensed to atoms (all electrons):
 Mulliken charges:
               1
     1  O   -0.258915
     2  O   -0.294522
     3  O   -0.245032
     4  O   -0.176725
     5  O   -0.300491
     6  O   -0.280367
     7  N   -0.052906
     8  N   -0.175915
     9  N   -0.206455
    10  N   -0.287963
    11  C    0.002561
    12  C    0.394537
    13  C   -0.193958
    14  C   -0.131970
    15  C   -0.071349
    16  C    0.125593
    17  C   -0.142331
    18  C    0.063306
    19  C   -0.009358
    20  C   -0.057593
    21  C    0.076661
    22  C    0.134167
    23  C   -0.039211
    24  C    0.181394
    25  C    0.139782
    26  C   -0.128159
    27  C   -0.054032
    28  C    0.071921
    29  C    0.102402
    30  C    0.055562
    31  C    0.134580
    32  C    0.075483
    33  C   -0.096853
    34  C    0.160184
    35  C    0.097801
    36  C   -0.118972
    37  C    0.167203
    38  C    0.036670
    39  C   -0.252049
    40  C    0.191787
    41  C   -0.004169
    42  C    0.121440
    43  C   -0.094540
    44  H    0.034737
    45  H   -0.055191
    46  H   -0.057749
    47  H    0.168651
    48  H    0.133182
    49  H    0.047322
    50  H    0.019823
    51  H   -0.058906
    52  H   -0.036962
    53  H    0.023063
    54  H    0.018510
    55  H   -0.032532
    56  H    0.050476
    57  H    0.039329
    58  H    0.106378
    59  H    0.047119
    60  H    0.215467
    61  H   -0.001665
    62  H    0.003863
    63  H   -0.018629
    64  H   -0.015637
    65  H   -0.001248
    66  H    0.025986
    67  H    0.052278
    68  H    0.022051
    69  H   -0.053037
    70  H    0.041175
    71  H    0.051855
    72  H    0.216565
    73  H    0.005066
    74  H    0.057699
    75  H    0.006082
    76  H    0.043652
    77  H    0.176255
    78  H    0.032571
    79  H    0.033203
 Sum of Mulliken charges =   0.00000
 Mulliken charges with hydrogens summed into heavy atoms:
               1
     1  O   -0.258915
     2  O   -0.077957
     3  O   -0.245032
     4  O   -0.000470
     5  O   -0.300491
     6  O   -0.280367
     7  N    0.115746
     8  N   -0.042733
     9  N    0.009012
    10  N   -0.287963
    11  C    0.037299
    12  C    0.281597
    13  C   -0.193958
    14  C   -0.131970
    15  C   -0.071349
    16  C    0.125593
    17  C   -0.142331
    18  C    0.130451
    19  C   -0.009358
    20  C   -0.116500
    21  C    0.076661
    22  C    0.134167
    23  C   -0.039211
    24  C    0.186005
    25  C    0.197054
    26  C   -0.128159
    27  C    0.099466
    28  C    0.071921
    29  C    0.104600
    30  C    0.036933
    31  C    0.117696
    32  C    0.175797
    33  C   -0.149890
    34  C    0.160184
    35  C    0.097801
    36  C   -0.025942
    37  C    0.167203
    38  C    0.036670
    39  C   -0.252049
    40  C    0.191787
    41  C    0.000897
    42  C    0.228873
    43  C   -0.028766
 Electronic spatial extent (au):  <R**2>=          32529.7603
 Charge=              0.0000 electrons
 Dipole moment (field-independent basis, Debye):
    X=              2.8966    Y=              1.5604    Z=              4.1721  Tot=              5.3133
 Quadrupole moment (field-independent basis, Debye-Ang):
   XX=           -216.8350   YY=           -253.1548   ZZ=           -267.5808
   XY=            -14.5426   XZ=             32.1998   YZ=              8.8631
 Traceless Quadrupole moment (field-independent basis, Debye-Ang):
   XX=             29.0218   YY=             -7.2979   ZZ=            -21.7240
   XY=            -14.5426   XZ=             32.1998   YZ=              8.8631
 Octapole moment (field-independent basis, Debye-Ang**2):
  XXX=            147.9044  YYY=             77.8909  ZZZ=             76.6091  XYY=            -78.0345
  XXY=            -98.1238  XXZ=            108.3700  XZZ=            -44.9887  YZZ=            -17.3357
  YYZ=            117.7140  XYZ=             -1.5917
 Hexadecapole moment (field-independent basis, Debye-Ang**3):
 XXXX=         -23638.1877 YYYY=         -12541.7207 ZZZZ=          -4943.7130 XXXY=           -439.4978
 XXXZ=            723.7958 YYYX=           -105.5345 YYYZ=            897.5406 ZZZX=            152.5157
 ZZZY=            -63.8938 XXYY=          -6039.3898 XXZZ=          -5553.4909 YYZZ=          -2852.1673
 XXYZ=            -61.1354 YYXZ=           -162.3823 ZZXY=            -35.7034
 N-N= 4.912119253123D+03 E-N=-1.435274370791D+04  KE= 1.927654418442D+03
 1\1\GINC-PEDRO-RYZENSSD\SP\RB3LYP TD-FC\SVP\C33H36N4O6\PADAWAN\08-Jul-
 2019\0\\# td=(NStates=1) B3LYP/SVP\\TD\\0,1\O,0,-5.670742436,0.0786019
 752,-3.3233751703\O,0,2.6092877549,3.1862543488,3.2716034247\O,0,3.249
 0056384,0.9584808572,3.1773796992\O,0,1.4814222781,-7.004276332,1.7625
 866685\O,0,0.9451812675,-7.2490558096,-0.5558795192\O,0,1.8578292422,4
 .0805710241,-0.1413558712\N,0,-2.3291535181,-1.0337983864,0.5652230494
 \N,0,-4.5005439583,0.5358778364,-1.3858905212\N,0,1.9044601731,-0.6842
 9041,-0.4211035485\N,0,2.6742686973,1.8851369638,-0.6085683318\C,0,-4.
 8041126576,1.2484050199,-0.1149010336\C,0,-4.3720118066,0.3123076485,1
 .1150835691\C,0,-2.9636298192,0.006365519,1.1556609062\C,0,-1.96725176
 95,0.6907012171,2.0381946177\C,0,-0.8163755251,0.0614375853,1.74143290
 55\C,0,-0.9967140464,-0.9165167608,0.6652732356\C,0,-6.2712432217,1.48
 8750631,-0.1461430281\C,0,0.538597343,0.1814560687,2.4489995688\C,0,-6
 .7687993116,1.1232746327,-1.4533661943\C,0,-0.1761333553,-1.9270180029
 ,0.2002071964\C,0,1.1302359348,-1.910713584,-0.2795467479\C,0,-5.60530
 8589,0.6260222954,-2.1974891897\C,0,1.9165275227,-2.960509627,-0.82602
 79194\C,0,-2.2403307743,1.5951512471,3.1729859386\C,0,-7.0786698592,2.
 0864841844,0.9566862825\C,0,3.0822837567,-2.4190639307,-1.37582874\C,0
 ,0.9631030829,1.7364167839,2.4743326517\C,0,3.0790244434,-1.0096604054
 ,-1.0084344744\C,0,1.5124467826,-4.4077851581,-0.7371721911\C,0,-8.050
 3117521,0.9759921636,-2.049759698\C,0,1.7508567758,-5.1173479772,0.481
 2744539\C,0,4.2937370901,-2.9884401098,-2.0234243398\C,0,3.9671956618,
 0.0321148733,-1.2712573208\C,0,2.3740100164,1.8173759119,3.0038102861\
 C,0,3.7969342193,1.372996556,-1.0913649072\C,0,-9.2397321462,0.9474625
 901,-1.2715159142\C,0,1.3691542238,-6.5519539249,0.4642972224\C,0,4.76
 8840949,2.4209041454,-1.4386475913\C,0,4.2315687914,3.634817642,-0.970
 996671\C,0,2.7824870047,3.2695286543,-0.4898175288\C,0,6.0542334277,2.
 1701788893,-2.003081837\C,0,4.65376617,4.9910606233,-1.1908917611\C,0,
 6.9684243938,3.1527917006,-2.3699416623\H,0,-4.0963175825,2.1087759225
 ,-0.0570661646\H,0,-4.7770861377,-0.5795229434,0.9284140897\H,0,-4.675
 817701,0.8054847776,1.9221643509\H,0,-2.9246298734,-1.4699338509,-0.26
 68990812\H,0,-3.5990956029,0.7621592921,-1.7724144387\H,0,0.5471012944
 ,-0.3680568322,3.5936046927\H,0,1.3090193459,-0.3172716112,1.866845004
 9\H,0,-0.543304823,-2.8767556389,0.0086806865\H,0,-3.174709623,1.61071
 76571,3.4451806857\H,0,-1.4893737968,1.3095695845,4.0373934639\H,0,-1.
 8030931086,2.5630549413,3.0440465587\H,0,-6.4939132864,2.5242213742,1.
 5995380726\H,0,-7.740106719,1.3216384922,1.5423266553\H,0,-7.816400131
 3,2.8200341735,0.593398337\H,0,1.0797701583,2.2666192699,1.4716571733\
 H,0,0.6071447546,2.437491837,3.2879591504\H,0,1.9703426526,0.489575347
 7,-0.4421464407\H,0,1.7983780964,-4.9068262058,-1.6140394661\H,0,0.396
 0976902,-4.5807779912,-0.80600337\H,0,-8.1653718622,0.9250751415,-3.04
 91258246\H,0,1.3390768478,-4.6182761319,1.2508747751\H,0,2.698650908,-
 5.1452810071,0.8914930877\H,0,3.9187463184,-4.0671142399,-2.3199610487
 \H,0,5.1922813496,-3.1454634271,-1.2507599975\H,0,4.6183489312,-2.4365
 457102,-2.8407944017\H,0,4.9189747046,-0.2165157604,-1.7313998282\H,0,
 -9.4093704592,1.1224531425,-0.1265933455\H,0,-10.3457227374,0.84126850
 53,-1.7178515269\H,0,3.6367401054,3.414934062,3.2674849307\H,0,6.29881
 48871,1.0853127378,-1.9728547887\H,0,4.8085018604,4.9244755396,-2.2322
 30278\H,0,4.0205800621,5.6800050704,-0.7423773209\H,0,5.5705288244,4.9
 821946741,-0.3517569238\H,0,1.3416617047,-7.9487261151,1.6268723603\H,
 0,8.0875200338,2.8373810444,-2.6471834805\H,0,6.9214135857,4.242751846
 5,-2.3865015393\\Version=ES64L-G09RevD.01\State=1-A\HF=-1947.7948019\R
 MSD=4.665e-09\PG=C01 [X(C33H36N4O6)]\\@


 Discoveries are often made by not following instructions,
 by going off the main road, by trying the untried.
 -- Frank Tyger
 Job cpu time:       0 days  5 hours  0 minutes 37.4 seconds.
 File lengths (MBytes):  RWF=    769 Int=      0 D2E=      0 Chk=     58 Scr=      1
 Normal termination of Gaussian 09 at Mon Jul  8 14:52:45 2019.
