 Entering Gaussian System, Link 0=g16
 Input=Geometria-463-.com
 Output=Geometria-463-.log
 Initial command:
 /usr/local/g09/l1.exe "/home/padawan/israel-mol/dihydrobiliverdin/spectra/abs/Gau-77856.inp" -scrdir="/home/padawan/israel-mol/dihydrobiliverdin/spectra/abs/"
 Entering Link 1 = /usr/local/g09/l1.exe PID=     77858.
  
 Copyright (c) 1988,1990,1992,1993,1995,1998,2003,2009,2013,
            Gaussian, Inc.  All Rights Reserved.
  
 This is part of the Gaussian(R) 09 program.  It is based on
 the Gaussian(R) 03 system (copyright 2003, Gaussian, Inc.),
 the Gaussian(R) 98 system (copyright 1998, Gaussian, Inc.),
 the Gaussian(R) 94 system (copyright 1995, Gaussian, Inc.),
 the Gaussian 92(TM) system (copyright 1992, Gaussian, Inc.),
 the Gaussian 90(TM) system (copyright 1990, Gaussian, Inc.),
 the Gaussian 88(TM) system (copyright 1988, Gaussian, Inc.),
 the Gaussian 86(TM) system (copyright 1986, Carnegie Mellon
 University), and the Gaussian 82(TM) system (copyright 1983,
 Carnegie Mellon University). Gaussian is a federally registered
 trademark of Gaussian, Inc.
  
 This software contains proprietary and confidential information,
 including trade secrets, belonging to Gaussian, Inc.
  
 This software is provided under written license and may be
 used, copied, transmitted, or stored only in accord with that
 written license.
  
 The following legend is applicable only to US Government
 contracts under FAR:
  
                    RESTRICTED RIGHTS LEGEND
  
 Use, reproduction and disclosure by the US Government is
 subject to restrictions as set forth in subparagraphs (a)
 and (c) of the Commercial Computer Software - Restricted
 Rights clause in FAR 52.227-19.
  
 Gaussian, Inc.
 340 Quinnipiac St., Bldg. 40, Wallingford CT 06492
  
  
 ---------------------------------------------------------------
 Warning -- This program may not be used in any manner that
 competes with the business of Gaussian, Inc. or will provide
 assistance to any competitor of Gaussian, Inc.  The licensee
 of this program is prohibited from giving any competitor of
 Gaussian, Inc. access to this program.  By using this program,
 the user acknowledges that Gaussian, Inc. is engaged in the
 business of creating and licensing software in the field of
 computational chemistry and represents and warrants to the
 licensee that it is not a competitor of Gaussian, Inc. and that
 it will not use this program in any manner prohibited above.
 ---------------------------------------------------------------
  

 Cite this work as:
 Gaussian 09, Revision D.01,
 M. J. Frisch, G. W. Trucks, H. B. Schlegel, G. E. Scuseria, 
 M. A. Robb, J. R. Cheeseman, G. Scalmani, V. Barone, B. Mennucci, 
 G. A. Petersson, H. Nakatsuji, M. Caricato, X. Li, H. P. Hratchian, 
 A. F. Izmaylov, J. Bloino, G. Zheng, J. L. Sonnenberg, M. Hada, 
 M. Ehara, K. Toyota, R. Fukuda, J. Hasegawa, M. Ishida, T. Nakajima, 
 Y. Honda, O. Kitao, H. Nakai, T. Vreven, J. A. Montgomery, Jr., 
 J. E. Peralta, F. Ogliaro, M. Bearpark, J. J. Heyd, E. Brothers, 
 K. N. Kudin, V. N. Staroverov, T. Keith, R. Kobayashi, J. Normand, 
 K. Raghavachari, A. Rendell, J. C. Burant, S. S. Iyengar, J. Tomasi, 
 M. Cossi, N. Rega, J. M. Millam, M. Klene, J. E. Knox, J. B. Cross, 
 V. Bakken, C. Adamo, J. Jaramillo, R. Gomperts, R. E. Stratmann, 
 O. Yazyev, A. J. Austin, R. Cammi, C. Pomelli, J. W. Ochterski, 
 R. L. Martin, K. Morokuma, V. G. Zakrzewski, G. A. Voth, 
 P. Salvador, J. J. Dannenberg, S. Dapprich, A. D. Daniels, 
 O. Farkas, J. B. Foresman, J. V. Ortiz, J. Cioslowski, 
 and D. J. Fox, Gaussian, Inc., Wallingford CT, 2013.
 
 ******************************************
 Gaussian 09:  ES64L-G09RevD.01 24-Apr-2013
                10-Jul-2019 
 ******************************************
 %nproc=4
 Will use up to    4 processors via shared memory.
 %Mem=2GB
 --------------------------
 # td=(NStates=1) B3LYP/SVP
 --------------------------
 1/38=1/1;
 2/12=2,17=6,18=5,40=1/2;
 3/5=18,7=101,11=9,16=1,25=1,30=1,74=-5/1,2,8,3;
 4//1;
 5/5=2,38=5/2;
 8/6=1,10=1,108=1/1;
 9/41=1,42=1,70=2/14;
 6/7=2,8=2,9=2,10=2/1;
 99/5=1,9=1/99;
 --
 TD
 --
 Symbolic Z-matrix:
 Charge =  0 Multiplicity = 1
 8                    -5.364    -0.07326  -3.37367 
 8                     2.89696   2.97553   3.37432 
 8                     3.28161   0.84278   3.41377 
 8                     1.78196  -7.28044   1.33926 
 8                     0.33794  -6.88511  -0.28922 
 8                     2.00616   4.07097  -0.03986 
 7                    -2.43708  -0.89845   0.65673 
 7                    -4.32018   0.55206  -1.3922 
 7                     1.90756  -0.66238  -0.23409 
 7                     2.75721   1.82562  -0.49411 
 6                    -4.81924   1.22004  -0.04561 
 6                    -4.49225   0.38355   1.26461 
 6                    -3.07855   0.10845   1.36032 
 6                    -2.01494   0.69798   2.17077 
 6                    -0.77874   0.07775   1.91194 
 6                    -0.99884  -0.991     0.8652 
 6                    -6.359     1.43046  -0.23755 
 6                     0.53257   0.23126   2.56769 
 6                    -6.66596   0.88719  -1.43876 
 6                    -0.20922  -1.88194   0.10148 
 6                     1.05343  -1.7238   -0.42347 
 6                    -5.35547   0.40516  -2.24488 
 6                     1.84853  -2.89639  -0.85582 
 6                    -2.20124   1.6507    3.20103 
 6                    -7.13283   2.17255   0.79731 
 6                     3.09619  -2.39514  -1.29458 
 6                     1.10145   1.66431   2.49184 
 6                     3.07318  -0.9464   -0.9979 
 6                     1.31098  -4.26407  -0.89202 
 6                    -8.00112   0.84443  -2.07332 
 6                     1.69579  -5.10813   0.42807 
 6                     4.26483  -3.18759  -1.7836 
 6                     4.07926  -0.03514  -1.22356 
 6                     2.52465   1.75546   3.06333 
 6                     3.81668   1.40774  -0.97678 
 6                    -9.20231   0.81363  -1.56747 
 6                     1.16178  -6.47754   0.45375 
 6                     4.7574    2.53129  -1.52049 
 6                     4.12369   3.69516  -1.23625 
 6                     2.80762   3.3183   -0.6027 
 6                     6.02269   2.32403  -2.16853 
 6                     4.47587   5.15916  -1.31449 
 6                     6.84877   3.25524  -2.66702 
 1                    -4.24897   2.05932  -0.01859 
 1                    -4.96172  -0.56732   1.09122 
 1                    -4.84523   0.88193   2.2471 
 1                    -3.05168  -1.4002   -0.06331 
 1                    -3.43006   0.35666  -1.62032 
 1                     0.44825  -0.04662   3.52972 
 1                     1.4457   -0.44307   2.10165 
 1                    -0.8008   -2.69478  -0.22067 
 1                    -3.38431   1.68452   3.46003 
 1                    -1.6739    1.51243   3.88767 
 1                    -2.16987   2.64672   2.68662 
 1                    -6.43136   2.77221   1.3989 
 1                    -7.76228   1.47792   1.37818 
 1                    -7.9188    2.78226   0.31774 
 1                     1.17282   2.06735   1.52541 
 1                     0.4785    2.30288   3.25852 
 1                     1.73855   0.31064  -0.11274 
 1                     1.5276   -4.8336   -1.72631 
 1                     0.1559   -3.95633  -0.90612 
 1                    -7.92704   0.58934  -3.20838 
 1                     1.14786  -4.70423   1.27161 
 1                     2.77037  -5.03469   0.73052 
 1                     3.872    -4.2677   -1.91649 
 1                     5.12698  -3.04526  -1.14975 
 1                     4.37625  -2.89954  -2.73897 
 1                     5.01426  -0.32649  -1.6988 
 1                    -9.38085   0.97539  -0.50206 
 1                    -10.23201   0.54519  -2.08363 
 1                     3.79791   2.99597   3.55662 
 1                     6.2864    1.30526  -2.26395 
 1                     4.34742   5.54505  -2.40404 
 1                     3.69803   5.65436  -0.83587 
 1                     5.50284   5.40445  -0.98188 
 1                     1.54488  -8.19321   1.18623 
 1                     7.8225    2.97332  -3.12059 
 1                     6.789     4.36892  -2.55941 
 
 Stoichiometry    C33H36N4O6
 Framework group  C1[X(C33H36N4O6)]
 Deg. of freedom   231
 Full point group                 C1      NOp   1
 Largest Abelian subgroup         C1      NOp   1
 Largest concise Abelian subgroup C1      NOp   1
                         Standard orientation:                         
 ---------------------------------------------------------------------
 Center     Atomic      Atomic             Coordinates (Angstroms)
 Number     Number       Type             X           Y           Z
 ---------------------------------------------------------------------
      1          8           0        5.378363    0.025752   -3.346350
      2          8           0       -2.930615   -2.937959    3.380558
      3          8           0       -3.303986   -0.802980    3.405325
      4          8           0       -1.750945    7.299409    1.289045
      5          8           0       -0.301397    6.886515   -0.330149
      6          8           0       -2.029615   -4.058784   -0.022685
      7          7           0        2.436929    0.890951    0.665049
      8          7           0        4.321852   -0.581979   -1.366132
      9          7           0       -1.904668    0.672707   -0.244977
     10          7           0       -2.766432   -1.812244   -0.494025
     11          6           0        4.810962   -1.244457   -0.013186
     12          6           0        4.482289   -0.398320    1.290402
     13          6           0        3.069649   -0.115086    1.377735
     14          6           0        1.999069   -0.694014    2.186656
     15          6           0        0.767460   -0.068762    1.918222
     16          6           0        0.998239    0.992445    0.866121
     17          6           0        6.350456   -1.464263   -0.196533
     18          6           0       -0.547735   -0.211293    2.568647
     19          6           0        6.665994   -0.929917   -1.399525
     20          6           0        0.217023    1.882952    0.093295
     21          6           0       -1.043961    1.728389   -0.436686
     22          6           0        5.361937   -0.445778   -2.214754
     23          6           0       -1.830703    2.902571   -0.879869
     24          6           0        2.175383   -1.641458    3.223514
     25          6           0        7.115388   -2.204198    0.846450
     26          6           0       -3.078947    2.405347   -1.321525
     27          6           0       -1.123942   -1.641714    2.498736
     28          6           0       -3.065130    0.958330   -1.016015
     29          6           0       -1.285644    4.267113   -0.921753
     30          6           0        8.004343   -0.898132   -2.027976
     31          6           0       -1.672145    5.121187    0.391379
     32          6           0       -4.241001    3.201055   -1.820860
     33          6           0       -4.075008    0.051108   -1.240957
     34          6           0       -2.550291   -1.721797    3.063986
     35          6           0       -3.821350   -1.391637   -0.984241
     36          6           0        9.203281   -0.870690   -1.516611
     37          6           0       -1.130916    6.487854    0.411339
     38          6           0       -4.765519   -2.513409   -1.525627
     39          6           0       -4.139418   -3.678915   -1.231376
     40          6           0       -2.824349   -3.305266   -0.593857
     41          6           0       -6.026605   -2.303326   -2.180913
     42          6           0       -4.499085   -5.141453   -1.302465
     43          6           0       -6.855316   -3.233106   -2.677705
     44          1           0        4.236069   -2.080498    0.016183
     45          1           0        4.957675    0.548968    1.113519
     46          1           0        4.827946   -0.892621    2.277543
     47          1           0        3.057606    1.385035   -0.055074
     48          1           0        3.433884   -0.383209   -1.599651
     49          1           0       -0.466470    0.071956    3.529372
     50          1           0       -1.455026    0.465079    2.094214
     51          1           0        0.814480    2.690649   -0.230933
     52          1           0        3.357022   -1.680029    3.488336
     53          1           0        1.645564   -1.496222    3.906794
     54          1           0        2.141094   -2.640398    2.714975
     55          1           0        6.407877   -2.796442    1.448300
     56          1           0        7.745816   -1.509440    1.426107
     57          1           0        7.900331   -2.820989    0.374304
     58          1           0       -1.192916   -2.050208    1.534422
     59          1           0       -0.508062   -2.278950    3.272194
     60          1           0       -1.741461   -0.300445   -0.116962
     61          1           0       -1.495265    4.832730   -1.760484
     62          1           0       -0.132187    3.953120   -0.928514
     63          1           0        7.936994   -0.649527   -3.164892
     64          1           0       -1.130377    4.719486    1.239930
     65          1           0       -2.748517    5.055326    0.689153
     66          1           0       -3.841748    4.278231   -1.958390
     67          1           0       -5.106886    3.067177   -1.190268
     68          1           0       -4.349456    2.907830   -2.774999
     69          1           0       -5.006183    0.344563   -1.722377
     70          1           0        9.375918   -1.026950   -0.449415
     71          1           0       10.236837   -0.610885   -2.029483
     72          1           0       -3.832512   -2.952479    3.558694
     73          1           0       -6.284388   -1.283758   -2.283729
     74          1           0       -4.367566   -5.534611   -2.389040
     75          1           0       -3.726184   -5.637902   -0.817170
     76          1           0       -5.528921   -5.379234   -0.973263
     77          1           0       -1.508245    8.209953    1.131639
     78          1           0       -7.825367   -2.948739   -3.137588
     79          1           0       -6.802036   -4.346420   -2.563099
 ---------------------------------------------------------------------
 Rotational constants (GHZ):      0.0735634      0.0441524      0.0344609
 Standard basis: SVP (5D, 7F)
 There are   825 symmetry adapted cartesian basis functions of A   symmetry.
 There are   782 symmetry adapted basis functions of A   symmetry.
   782 basis functions,  1327 primitive gaussians,   825 cartesian basis functions
   155 alpha electrons      155 beta electrons
       nuclear repulsion energy      4899.9429560890 Hartrees.
 NAtoms=   79 NActive=   79 NUniq=   79 SFac= 1.00D+00 NAtFMM=   60 NAOKFM=T Big=T
 Integral buffers will be    131072 words long.
 Regular integral format.
 Two-electron integral symmetry is turned on.
 One-electron integrals computed using PRISM.
 NBasis=   782 RedAO= T EigKep=  3.55D-04  NBF=   782
 NBsUse=   782 1.00D-06 EigRej= -1.00D+00 NBFU=   782
 ExpMin= 1.22D-01 ExpMax= 2.27D+03 ExpMxC= 3.41D+02 IAcc=1 IRadAn=         1 AccDes= 0.00D+00
 Harris functional with IExCor=  402 and IRadAn=       1 diagonalized for initial guess.
 HarFok:  IExCor=  402 AccDes= 0.00D+00 IRadAn=         1 IDoV= 1 UseB2=F ITyADJ=14
 ICtDFT=  3500011 ScaDFX=  1.000000  1.000000  1.000000  1.000000
 FoFCou: FMM=F IPFlag=           0 FMFlag=      100000 FMFlg1=        2001
         NFxFlg=           0 DoJE=T BraDBF=F KetDBF=T FulRan=T
         wScrn=  0.000000 ICntrl=     500 IOpCl=  0 I1Cent=   200000004 NGrid=           0
         NMat0=    1 NMatS0=      1 NMatT0=    0 NMatD0=    1 NMtDS0=    0 NMtDT0=    0
 Petite list used in FoFCou.
 Requested convergence on RMS density matrix=1.00D-08 within 128 cycles.
 Requested convergence on MAX density matrix=1.00D-06.
 Requested convergence on             energy=1.00D-06.
 No special actions if energy rises.
 Integral accuracy reduced to 1.0D-05 until final iterations.
 Initial convergence to 1.0D-05 achieved.  Increase integral accuracy.
 SCF Done:  E(RB3LYP) =  -1947.86990444     A.U. after   16 cycles
            NFock= 16  Conv=0.52D-08     -V/T= 2.0102
 DoSCS=F DFT=T ScalE2(SS,OS)=  1.000000  1.000000
 ExpMin= 1.22D-01 ExpMax= 2.27D+03 ExpMxC= 3.41D+02 IAcc=3 IRadAn=         5 AccDes= 0.00D+00
 HarFok:  IExCor=  205 AccDes= 0.00D+00 IRadAn=         5 IDoV=-2 UseB2=F ITyADJ=14
 ICtDFT= 12500011 ScaDFX=  1.000000  1.000000  1.000000  1.000000
 Range of M.O.s used for correlation:    44   782
 NBasis=   782 NAE=   155 NBE=   155 NFC=    43 NFV=     0
 NROrb=    739 NOA=   112 NOB=   112 NVA=   627 NVB=   627

 **** Warning!!: The smallest alpha delta epsilon is  0.75009453D-01

 Would need an additional        140608300000 words for in-memory AO integral storage.
 Orbital symmetries:
       Occupied  (A) (A) (A) (A) (A) (A) (A) (A) (A) (A) (A) (A)
                 (A) (A) (A) (A) (A) (A) (A) (A) (A) (A) (A) (A)
                 (A) (A) (A) (A) (A) (A) (A) (A) (A) (A) (A) (A)
                 (A) (A) (A) (A) (A) (A) (A) (A) (A) (A) (A) (A)
                 (A) (A) (A) (A) (A) (A) (A) (A) (A) (A) (A) (A)
                 (A) (A) (A) (A) (A) (A) (A) (A) (A) (A) (A) (A)
                 (A) (A) (A) (A) (A) (A) (A) (A) (A) (A) (A) (A)
                 (A) (A) (A) (A) (A) (A) (A) (A) (A) (A) (A) (A)
                 (A) (A) (A) (A) (A) (A) (A) (A) (A) (A) (A) (A)
                 (A) (A) (A) (A) (A) (A) (A) (A) (A) (A) (A) (A)
                 (A) (A) (A) (A) (A) (A) (A) (A) (A) (A) (A) (A)
                 (A) (A) (A) (A) (A) (A) (A) (A) (A) (A) (A) (A)
                 (A) (A) (A) (A) (A) (A) (A) (A) (A) (A) (A)
       Virtual   (A) (A) (A) (A) (A) (A) (A) (A) (A) (A) (A) (A)
                 (A) (A) (A) (A) (A) (A) (A) (A) (A) (A) (A) (A)
                 (A) (A) (A) (A) (A) (A) (A) (A) (A) (A) (A) (A)
                 (A) (A) (A) (A) (A) (A) (A) (A) (A) (A) (A) (A)
                 (A) (A) (A) (A) (A) (A) (A) (A) (A) (A) (A) (A)
                 (A) (A) (A) (A) (A) (A) (A) (A) (A) (A) (A) (A)
                 (A) (A) (A) (A) (A) (A) (A) (A) (A) (A) (A) (A)
                 (A) (A) (A) (A) (A) (A) (A) (A) (A) (A) (A) (A)
                 (A) (A) (A) (A) (A) (A) (A) (A) (A) (A) (A) (A)
                 (A) (A) (A) (A) (A) (A) (A) (A) (A) (A) (A) (A)
                 (A) (A) (A) (A) (A) (A) (A) (A) (A) (A) (A) (A)
                 (A) (A) (A) (A) (A) (A) (A) (A) (A) (A) (A) (A)
                 (A) (A) (A) (A) (A) (A) (A) (A) (A) (A) (A) (A)
                 (A) (A) (A) (A) (A) (A) (A) (A) (A) (A) (A) (A)
                 (A) (A) (A) (A) (A) (A) (A) (A) (A) (A) (A) (A)
                 (A) (A) (A) (A) (A) (A) (A) (A) (A) (A) (A) (A)
                 (A) (A) (A) (A) (A) (A) (A) (A) (A) (A) (A) (A)
                 (A) (A) (A) (A) (A) (A) (A) (A) (A) (A) (A) (A)
                 (A) (A) (A) (A) (A) (A) (A) (A) (A) (A) (A) (A)
                 (A) (A) (A) (A) (A) (A) (A) (A) (A) (A) (A) (A)
                 (A) (A) (A) (A) (A) (A) (A) (A) (A) (A) (A) (A)
                 (A) (A) (A) (A) (A) (A) (A) (A) (A) (A) (A) (A)
                 (A) (A) (A) (A) (A) (A) (A) (A) (A) (A) (A) (A)
                 (A) (A) (A) (A) (A) (A) (A) (A) (A) (A) (A) (A)
                 (A) (A) (A) (A) (A) (A) (A) (A) (A) (A) (A) (A)
                 (A) (A) (A) (A) (A) (A) (A) (A) (A) (A) (A) (A)
                 (A) (A) (A) (A) (A) (A) (A) (A) (A) (A) (A) (A)
                 (A) (A) (A) (A) (A) (A) (A) (A) (A) (A) (A) (A)
                 (A) (A) (A) (A) (A) (A) (A) (A) (A) (A) (A) (A)
                 (A) (A) (A) (A) (A) (A) (A) (A) (A) (A) (A) (A)
                 (A) (A) (A) (A) (A) (A) (A) (A) (A) (A) (A) (A)
                 (A) (A) (A) (A) (A) (A) (A) (A) (A) (A) (A) (A)
                 (A) (A) (A) (A) (A) (A) (A) (A) (A) (A) (A) (A)
                 (A) (A) (A) (A) (A) (A) (A) (A) (A) (A) (A) (A)
                 (A) (A) (A) (A) (A) (A) (A) (A) (A) (A) (A) (A)
                 (A) (A) (A) (A) (A) (A) (A) (A) (A) (A) (A) (A)
                 (A) (A) (A) (A) (A) (A) (A) (A) (A) (A) (A) (A)
                 (A) (A) (A) (A) (A) (A) (A) (A) (A) (A) (A) (A)
                 (A) (A) (A) (A) (A) (A) (A) (A) (A) (A) (A) (A)
                 (A) (A) (A) (A) (A) (A) (A) (A) (A) (A) (A) (A)
                 (A) (A) (A) (A) (A) (A) (A) (A) (A) (A) (A) (A)
                 (A) (A) (A) (A) (A) (A) (A) (A) (A) (A) (A) (A)
                 (A) (A) (A) (A) (A) (A) (A) (A) (A) (A) (A) (A)
                 (A) (A) (A) (A) (A) (A) (A) (A) (A) (A) (A) (A)
                 (A) (A) (A) (A) (A) (A) (A) (A) (A) (A) (A) (A)
                 (A) (A) (A) (A) (A) (A) (A) (A) (A) (A) (A) (A)
                 (A) (A) (A) (A) (A) (A) (A) (A) (A) (A) (A) (A)
                 (A) (A) (A) (A) (A) (A) (A) (A) (A) (A) (A) (A)
                 (A) (A) (A) (A) (A) (A) (A) (A) (A) (A) (A) (A)
                 (A) (A) (A) (A) (A) (A) (A) (A) (A) (A) (A) (A)
                 (A) (A) (A) (A) (A) (A) (A) (A) (A) (A) (A) (A)
                 (A) (A) (A) (A) (A) (A) (A) (A) (A) (A) (A) (A)
                 (A) (A) (A)
     8 initial guesses have been made.
 Convergence on wavefunction:    0.001000000000000
 Iteration     1 Dimension     8 NMult     0 NNew      8
 CISAX will form     8 AO SS matrices at one time.
 Iteration     2 Dimension    12 NMult     8 NNew      4
 Iteration     3 Dimension    16 NMult    12 NNew      4
 Iteration     4 Dimension    20 NMult    16 NNew      4
 Iteration     5 Dimension    24 NMult    20 NNew      4
 ***********************************************************************
 Excited states from <AA,BB:AA,BB> singles matrix:
 ***********************************************************************
 
 Ground to excited state transition densities written to RWF  633
 Ground to excited state transition electric dipole moments (Au):
       state          X           Y           Z        Dip. S.      Osc.
         1        -2.5356     -1.2620     -0.8974      8.8271      0.4114
 Ground to excited state transition velocity dipole moments (Au):
       state          X           Y           Z        Dip. S.      Osc.
         1         0.1711      0.0816      0.0604      0.0396      0.3774
 Ground to excited state transition magnetic dipole moments (Au):
       state          X           Y           Z
         1         0.6819     -0.0208     -1.4960
 Ground to excited state transition velocity quadrupole moments (Au):
       state          XX          YY          ZZ          XY          XZ          YZ
         1        -0.3346     -0.4548      0.0613     -0.7363     -0.3396     -0.2420
 <0|del|b> * <b|rxdel|0> + <0|del|b> * <b|delr+rdel|0>
 Rotatory Strengths (R) in cgs (10**-40 erg-esu-cm/Gauss)
       state          XX          YY          ZZ    R(velocity)    E-M Angle
         1      -550.7134    148.3779    650.6349     82.7665       85.70
 1/2[<0|r|b>*<b|rxdel|0> + (<0|rxdel|b>*<b|r|0>)*]
 Rotatory Strengths (R) in cgs (10**-40 erg-esu-cm/Gauss)
       state          XX          YY          ZZ     R(length)
         1      1222.6650    -18.5608   -949.4034     84.9003
  1/2[<0|del|b>*<b|r|0> + (<0|r|b>*<b|del|0>)*] (Au)
       state          X           Y           Z        Dip. S.   Osc.(frdel)
         1        -0.4338     -0.1030     -0.0542      0.5910      0.3940

 Excitation energies and oscillator strengths:
 
 Excited State   1:      Singlet-A      1.9024 eV  651.73 nm  f=0.4114  <S**2>=0.000
     155 ->156         0.70484
     155 <-156        -0.10309
 This state for optimization and/or second-order correction.
 Total Energy, E(TD-HF/TD-KS) =  -1947.79999277    
 Copying the excited state density for this state as the 1-particle RhoCI density.
 SavETr:  write IOETrn=   770 NScale= 10 NData=  16 NLR=1 NState=    1 LETran=      28.

 **********************************************************************

            Population analysis using the SCF density.

 **********************************************************************

 Orbital symmetries:
       Occupied  (A) (A) (A) (A) (A) (A) (A) (A) (A) (A) (A) (A)
                 (A) (A) (A) (A) (A) (A) (A) (A) (A) (A) (A) (A)
                 (A) (A) (A) (A) (A) (A) (A) (A) (A) (A) (A) (A)
                 (A) (A) (A) (A) (A) (A) (A) (A) (A) (A) (A) (A)
                 (A) (A) (A) (A) (A) (A) (A) (A) (A) (A) (A) (A)
                 (A) (A) (A) (A) (A) (A) (A) (A) (A) (A) (A) (A)
                 (A) (A) (A) (A) (A) (A) (A) (A) (A) (A) (A) (A)
                 (A) (A) (A) (A) (A) (A) (A) (A) (A) (A) (A) (A)
                 (A) (A) (A) (A) (A) (A) (A) (A) (A) (A) (A) (A)
                 (A) (A) (A) (A) (A) (A) (A) (A) (A) (A) (A) (A)
                 (A) (A) (A) (A) (A) (A) (A) (A) (A) (A) (A) (A)
                 (A) (A) (A) (A) (A) (A) (A) (A) (A) (A) (A) (A)
                 (A) (A) (A) (A) (A) (A) (A) (A) (A) (A) (A)
       Virtual   (A) (A) (A) (A) (A) (A) (A) (A) (A) (A) (A) (A)
                 (A) (A) (A) (A) (A) (A) (A) (A) (A) (A) (A) (A)
                 (A) (A) (A) (A) (A) (A) (A) (A) (A) (A) (A) (A)
                 (A) (A) (A) (A) (A) (A) (A) (A) (A) (A) (A) (A)
                 (A) (A) (A) (A) (A) (A) (A) (A) (A) (A) (A) (A)
                 (A) (A) (A) (A) (A) (A) (A) (A) (A) (A) (A) (A)
                 (A) (A) (A) (A) (A) (A) (A) (A) (A) (A) (A) (A)
                 (A) (A) (A) (A) (A) (A) (A) (A) (A) (A) (A) (A)
                 (A) (A) (A) (A) (A) (A) (A) (A) (A) (A) (A) (A)
                 (A) (A) (A) (A) (A) (A) (A) (A) (A) (A) (A) (A)
                 (A) (A) (A) (A) (A) (A) (A) (A) (A) (A) (A) (A)
                 (A) (A) (A) (A) (A) (A) (A) (A) (A) (A) (A) (A)
                 (A) (A) (A) (A) (A) (A) (A) (A) (A) (A) (A) (A)
                 (A) (A) (A) (A) (A) (A) (A) (A) (A) (A) (A) (A)
                 (A) (A) (A) (A) (A) (A) (A) (A) (A) (A) (A) (A)
                 (A) (A) (A) (A) (A) (A) (A) (A) (A) (A) (A) (A)
                 (A) (A) (A) (A) (A) (A) (A) (A) (A) (A) (A) (A)
                 (A) (A) (A) (A) (A) (A) (A) (A) (A) (A) (A) (A)
                 (A) (A) (A) (A) (A) (A) (A) (A) (A) (A) (A) (A)
                 (A) (A) (A) (A) (A) (A) (A) (A) (A) (A) (A) (A)
                 (A) (A) (A) (A) (A) (A) (A) (A) (A) (A) (A) (A)
                 (A) (A) (A) (A) (A) (A) (A) (A) (A) (A) (A) (A)
                 (A) (A) (A) (A) (A) (A) (A) (A) (A) (A) (A) (A)
                 (A) (A) (A) (A) (A) (A) (A) (A) (A) (A) (A) (A)
                 (A) (A) (A) (A) (A) (A) (A) (A) (A) (A) (A) (A)
                 (A) (A) (A) (A) (A) (A) (A) (A) (A) (A) (A) (A)
                 (A) (A) (A) (A) (A) (A) (A) (A) (A) (A) (A) (A)
                 (A) (A) (A) (A) (A) (A) (A) (A) (A) (A) (A) (A)
                 (A) (A) (A) (A) (A) (A) (A) (A) (A) (A) (A) (A)
                 (A) (A) (A) (A) (A) (A) (A) (A) (A) (A) (A) (A)
                 (A) (A) (A) (A) (A) (A) (A) (A) (A) (A) (A) (A)
                 (A) (A) (A) (A) (A) (A) (A) (A) (A) (A) (A) (A)
                 (A) (A) (A) (A) (A) (A) (A) (A) (A) (A) (A) (A)
                 (A) (A) (A) (A) (A) (A) (A) (A) (A) (A) (A) (A)
                 (A) (A) (A) (A) (A) (A) (A) (A) (A) (A) (A) (A)
                 (A) (A) (A) (A) (A) (A) (A) (A) (A) (A) (A) (A)
                 (A) (A) (A) (A) (A) (A) (A) (A) (A) (A) (A) (A)
                 (A) (A) (A) (A) (A) (A) (A) (A) (A) (A) (A) (A)
                 (A) (A) (A) (A) (A) (A) (A) (A) (A) (A) (A) (A)
                 (A) (A) (A) (A) (A) (A) (A) (A) (A) (A) (A) (A)
                 (A) (A) (A) (A) (A) (A) (A) (A) (A) (A) (A) (A)
                 (A) (A) (A) (A) (A) (A) (A) (A) (A) (A) (A) (A)
                 (A) (A) (A) (A) (A) (A) (A) (A) (A) (A) (A) (A)
                 (A) (A) (A) (A) (A) (A) (A) (A) (A) (A) (A) (A)
                 (A) (A) (A) (A) (A) (A) (A) (A) (A) (A) (A) (A)
                 (A) (A) (A) (A) (A) (A) (A) (A) (A) (A) (A) (A)
                 (A) (A) (A) (A) (A) (A) (A) (A) (A) (A) (A) (A)
                 (A) (A) (A) (A) (A) (A) (A) (A) (A) (A) (A) (A)
                 (A) (A) (A) (A) (A) (A) (A) (A) (A) (A) (A) (A)
                 (A) (A) (A) (A) (A) (A) (A) (A) (A) (A) (A) (A)
                 (A) (A) (A) (A) (A) (A) (A) (A) (A) (A) (A) (A)
                 (A) (A) (A) (A) (A) (A) (A) (A) (A) (A) (A) (A)
                 (A) (A) (A)
 The electronic state is 1-A.
 Alpha  occ. eigenvalues --  -19.17779 -19.16416 -19.12584 -19.12375 -19.10326
 Alpha  occ. eigenvalues --  -19.10294 -14.38997 -14.36304 -14.35632 -14.30274
 Alpha  occ. eigenvalues --  -10.31699 -10.30433 -10.29493 -10.28482 -10.26002
 Alpha  occ. eigenvalues --  -10.24121 -10.23787 -10.23599 -10.23571 -10.23334
 Alpha  occ. eigenvalues --  -10.22986 -10.22484 -10.21689 -10.21305 -10.21261
 Alpha  occ. eigenvalues --  -10.21033 -10.20902 -10.20747 -10.20547 -10.20535
 Alpha  occ. eigenvalues --  -10.20502 -10.20442 -10.20291 -10.20146 -10.19879
 Alpha  occ. eigenvalues --  -10.19708 -10.19629 -10.19563 -10.19464 -10.19015
 Alpha  occ. eigenvalues --  -10.18970 -10.18796 -10.18402  -1.10608  -1.09947
 Alpha  occ. eigenvalues --   -1.02077  -1.02066  -1.01551  -0.97479  -0.97045
 Alpha  occ. eigenvalues --   -0.96093  -0.93768  -0.93099  -0.83007  -0.82481
 Alpha  occ. eigenvalues --   -0.81945  -0.81540  -0.81359  -0.79676  -0.77820
 Alpha  occ. eigenvalues --   -0.77502  -0.76691  -0.76213  -0.74692  -0.72934
 Alpha  occ. eigenvalues --   -0.72033  -0.71747  -0.70106  -0.68994  -0.68917
 Alpha  occ. eigenvalues --   -0.67462  -0.66206  -0.63932  -0.61807  -0.61083
 Alpha  occ. eigenvalues --   -0.60954  -0.59774  -0.58867  -0.58344  -0.56747
 Alpha  occ. eigenvalues --   -0.56075  -0.55171  -0.55030  -0.53820  -0.53029
 Alpha  occ. eigenvalues --   -0.52494  -0.51451  -0.50689  -0.50478  -0.49771
 Alpha  occ. eigenvalues --   -0.49169  -0.48810  -0.47945  -0.47780  -0.47667
 Alpha  occ. eigenvalues --   -0.47377  -0.47227  -0.46616  -0.46054  -0.45856
 Alpha  occ. eigenvalues --   -0.45517  -0.45116  -0.44784  -0.44573  -0.44300
 Alpha  occ. eigenvalues --   -0.43993  -0.43848  -0.43681  -0.43312  -0.42926
 Alpha  occ. eigenvalues --   -0.42726  -0.42506  -0.41985  -0.41748  -0.41600
 Alpha  occ. eigenvalues --   -0.41313  -0.41175  -0.40671  -0.40314  -0.39958
 Alpha  occ. eigenvalues --   -0.39685  -0.39214  -0.38936  -0.38800  -0.38515
 Alpha  occ. eigenvalues --   -0.38390  -0.37967  -0.37787  -0.37528  -0.37196
 Alpha  occ. eigenvalues --   -0.36662  -0.36463  -0.35565  -0.35356  -0.35157
 Alpha  occ. eigenvalues --   -0.33963  -0.33299  -0.32849  -0.31991  -0.31840
 Alpha  occ. eigenvalues --   -0.31636  -0.30169  -0.29197  -0.29065  -0.28285
 Alpha  occ. eigenvalues --   -0.27308  -0.25873  -0.25781  -0.25608  -0.25062
 Alpha  occ. eigenvalues --   -0.24682  -0.24208  -0.23874  -0.23110  -0.17877
 Alpha virt. eigenvalues --   -0.10376  -0.06700  -0.05050  -0.00965   0.00338
 Alpha virt. eigenvalues --    0.01331   0.01385   0.01795   0.02721   0.03409
 Alpha virt. eigenvalues --    0.03821   0.04256   0.04969   0.05157   0.05667
 Alpha virt. eigenvalues --    0.06384   0.06626   0.06953   0.07127   0.07381
 Alpha virt. eigenvalues --    0.07585   0.07677   0.07755   0.08249   0.08311
 Alpha virt. eigenvalues --    0.08896   0.09296   0.09991   0.10310   0.10733
 Alpha virt. eigenvalues --    0.11360   0.11723   0.11817   0.11961   0.12631
 Alpha virt. eigenvalues --    0.12926   0.13357   0.13587   0.13733   0.13978
 Alpha virt. eigenvalues --    0.14271   0.14374   0.14620   0.15103   0.15233
 Alpha virt. eigenvalues --    0.15937   0.16414   0.17027   0.17522   0.17955
 Alpha virt. eigenvalues --    0.18390   0.18570   0.19182   0.19387   0.19798
 Alpha virt. eigenvalues --    0.20779   0.20933   0.21593   0.21984   0.22351
 Alpha virt. eigenvalues --    0.22976   0.23021   0.23847   0.24151   0.24565
 Alpha virt. eigenvalues --    0.25162   0.25361   0.25463   0.25572   0.26115
 Alpha virt. eigenvalues --    0.26226   0.26538   0.26705   0.28197   0.29355
 Alpha virt. eigenvalues --    0.29550   0.29972   0.30741   0.31216   0.31349
 Alpha virt. eigenvalues --    0.31859   0.32390   0.32852   0.33262   0.34043
 Alpha virt. eigenvalues --    0.34141   0.34672   0.35304   0.35773   0.36066
 Alpha virt. eigenvalues --    0.36910   0.37390   0.37814   0.38382   0.39303
 Alpha virt. eigenvalues --    0.39678   0.39957   0.40289   0.40818   0.41729
 Alpha virt. eigenvalues --    0.41916   0.42228   0.42481   0.42899   0.43403
 Alpha virt. eigenvalues --    0.43994   0.44094   0.44215   0.45031   0.45349
 Alpha virt. eigenvalues --    0.45454   0.45976   0.46249   0.46912   0.46968
 Alpha virt. eigenvalues --    0.47247   0.47653   0.47925   0.47996   0.48482
 Alpha virt. eigenvalues --    0.48691   0.49138   0.49616   0.49656   0.50095
 Alpha virt. eigenvalues --    0.50336   0.50584   0.51200   0.51455   0.51679
 Alpha virt. eigenvalues --    0.52100   0.52586   0.52720   0.53162   0.53397
 Alpha virt. eigenvalues --    0.53893   0.54819   0.55068   0.55550   0.55936
 Alpha virt. eigenvalues --    0.56330   0.56693   0.56780   0.57418   0.57769
 Alpha virt. eigenvalues --    0.57797   0.58336   0.58876   0.59392   0.59690
 Alpha virt. eigenvalues --    0.60081   0.60401   0.60595   0.60758   0.61005
 Alpha virt. eigenvalues --    0.61256   0.61554   0.62040   0.62072   0.62523
 Alpha virt. eigenvalues --    0.62772   0.63046   0.63277   0.63794   0.63944
 Alpha virt. eigenvalues --    0.64066   0.64504   0.64786   0.64885   0.64943
 Alpha virt. eigenvalues --    0.65080   0.65383   0.65403   0.65680   0.65952
 Alpha virt. eigenvalues --    0.66236   0.66690   0.66706   0.66917   0.67225
 Alpha virt. eigenvalues --    0.67585   0.67918   0.68086   0.68253   0.68453
 Alpha virt. eigenvalues --    0.68812   0.69077   0.69492   0.69634   0.69794
 Alpha virt. eigenvalues --    0.69981   0.70358   0.70571   0.70846   0.70962
 Alpha virt. eigenvalues --    0.71157   0.71607   0.71787   0.71972   0.72366
 Alpha virt. eigenvalues --    0.72628   0.73108   0.73450   0.73861   0.74209
 Alpha virt. eigenvalues --    0.74767   0.74930   0.75621   0.75800   0.76247
 Alpha virt. eigenvalues --    0.76771   0.77226   0.77823   0.78247   0.78432
 Alpha virt. eigenvalues --    0.78832   0.79132   0.79875   0.80795   0.81566
 Alpha virt. eigenvalues --    0.81786   0.82769   0.83050   0.83726   0.84329
 Alpha virt. eigenvalues --    0.84605   0.84802   0.85821   0.86200   0.86277
 Alpha virt. eigenvalues --    0.87064   0.87806   0.87960   0.88375   0.90166
 Alpha virt. eigenvalues --    0.90882   0.91443   0.92158   0.92844   0.93717
 Alpha virt. eigenvalues --    0.93997   0.94415   0.94872   0.94971   0.95703
 Alpha virt. eigenvalues --    0.96509   0.97001   0.97372   0.97590   0.98263
 Alpha virt. eigenvalues --    0.98678   0.98878   1.00237   1.00946   1.01683
 Alpha virt. eigenvalues --    1.02521   1.02887   1.03303   1.03557   1.05035
 Alpha virt. eigenvalues --    1.05583   1.06252   1.06933   1.07335   1.08463
 Alpha virt. eigenvalues --    1.08979   1.09307   1.10487   1.10563   1.10882
 Alpha virt. eigenvalues --    1.11644   1.12293   1.13669   1.13861   1.14911
 Alpha virt. eigenvalues --    1.15138   1.15435   1.15922   1.16808   1.18029
 Alpha virt. eigenvalues --    1.18471   1.19663   1.19826   1.20743   1.20792
 Alpha virt. eigenvalues --    1.21363   1.21640   1.22482   1.23144   1.23333
 Alpha virt. eigenvalues --    1.23781   1.24487   1.24726   1.25353   1.26408
 Alpha virt. eigenvalues --    1.27325   1.27629   1.28745   1.29193   1.30148
 Alpha virt. eigenvalues --    1.31000   1.31460   1.31734   1.32233   1.32381
 Alpha virt. eigenvalues --    1.33615   1.34259   1.34793   1.35497   1.36377
 Alpha virt. eigenvalues --    1.37101   1.38008   1.39068   1.39520   1.40822
 Alpha virt. eigenvalues --    1.41828   1.42462   1.42691   1.43220   1.44613
 Alpha virt. eigenvalues --    1.45733   1.46128   1.46802   1.47653   1.48532
 Alpha virt. eigenvalues --    1.48712   1.49723   1.50229   1.50734   1.50824
 Alpha virt. eigenvalues --    1.51032   1.51430   1.51762   1.52061   1.52177
 Alpha virt. eigenvalues --    1.53283   1.55265   1.56439   1.57577   1.57993
 Alpha virt. eigenvalues --    1.58554   1.59099   1.59122   1.59325   1.60084
 Alpha virt. eigenvalues --    1.60882   1.61068   1.61953   1.62045   1.62837
 Alpha virt. eigenvalues --    1.63146   1.63487   1.63708   1.64577   1.64883
 Alpha virt. eigenvalues --    1.65423   1.65736   1.65881   1.66357   1.66616
 Alpha virt. eigenvalues --    1.67101   1.67181   1.67896   1.68204   1.68760
 Alpha virt. eigenvalues --    1.69726   1.69773   1.70363   1.71004   1.71543
 Alpha virt. eigenvalues --    1.71725   1.72122   1.72906   1.73458   1.73617
 Alpha virt. eigenvalues --    1.73926   1.74135   1.74255   1.74605   1.75306
 Alpha virt. eigenvalues --    1.75710   1.75973   1.76154   1.76679   1.77159
 Alpha virt. eigenvalues --    1.77711   1.77873   1.78175   1.78719   1.78909
 Alpha virt. eigenvalues --    1.79461   1.79605   1.79956   1.80370   1.80904
 Alpha virt. eigenvalues --    1.81094   1.82123   1.82585   1.82831   1.83232
 Alpha virt. eigenvalues --    1.83719   1.83983   1.84142   1.85019   1.85345
 Alpha virt. eigenvalues --    1.85658   1.86276   1.86502   1.87024   1.87166
 Alpha virt. eigenvalues --    1.88083   1.88663   1.89020   1.89517   1.89971
 Alpha virt. eigenvalues --    1.90631   1.91460   1.92275   1.92822   1.93096
 Alpha virt. eigenvalues --    1.93937   1.94304   1.94940   1.95553   1.95780
 Alpha virt. eigenvalues --    1.96286   1.96475   1.97040   1.97208   1.97442
 Alpha virt. eigenvalues --    1.97984   1.98933   1.99036   1.99510   1.99830
 Alpha virt. eigenvalues --    2.00131   2.00925   2.01190   2.02312   2.03010
 Alpha virt. eigenvalues --    2.03183   2.03401   2.04641   2.05238   2.06294
 Alpha virt. eigenvalues --    2.06497   2.06915   2.07169   2.08114   2.08285
 Alpha virt. eigenvalues --    2.09240   2.09722   2.09896   2.10186   2.11122
 Alpha virt. eigenvalues --    2.11426   2.11686   2.12230   2.12785   2.13143
 Alpha virt. eigenvalues --    2.13780   2.14622   2.14729   2.15187   2.16516
 Alpha virt. eigenvalues --    2.17150   2.18111   2.19387   2.19767   2.20094
 Alpha virt. eigenvalues --    2.21167   2.21418   2.22689   2.23185   2.23855
 Alpha virt. eigenvalues --    2.25412   2.26162   2.26649   2.28148   2.28284
 Alpha virt. eigenvalues --    2.28600   2.29920   2.30473   2.30583   2.31639
 Alpha virt. eigenvalues --    2.31888   2.32647   2.33537   2.33976   2.34977
 Alpha virt. eigenvalues --    2.35828   2.36069   2.36846   2.37123   2.37703
 Alpha virt. eigenvalues --    2.38435   2.38805   2.39179   2.39959   2.40735
 Alpha virt. eigenvalues --    2.40999   2.41253   2.41713   2.42490   2.43101
 Alpha virt. eigenvalues --    2.43926   2.44920   2.45248   2.46091   2.47029
 Alpha virt. eigenvalues --    2.47358   2.48223   2.49658   2.50216   2.50986
 Alpha virt. eigenvalues --    2.51705   2.52325   2.53532   2.53750   2.54731
 Alpha virt. eigenvalues --    2.55193   2.55345   2.56268   2.57020   2.57440
 Alpha virt. eigenvalues --    2.58526   2.59182   2.60131   2.61229   2.61974
 Alpha virt. eigenvalues --    2.62258   2.62719   2.63343   2.63873   2.64429
 Alpha virt. eigenvalues --    2.64649   2.65927   2.66588   2.67506   2.68080
 Alpha virt. eigenvalues --    2.68374   2.69419   2.70154   2.70632   2.71029
 Alpha virt. eigenvalues --    2.71383   2.72041   2.72610   2.73401   2.73704
 Alpha virt. eigenvalues --    2.74363   2.74477   2.75667   2.76906   2.77845
 Alpha virt. eigenvalues --    2.78704   2.79058   2.80447   2.80960   2.81537
 Alpha virt. eigenvalues --    2.81916   2.82763   2.83672   2.84744   2.85490
 Alpha virt. eigenvalues --    2.86719   2.87989   2.89373   2.89984   2.90428
 Alpha virt. eigenvalues --    2.91238   2.92307   2.92556   2.93425   2.93707
 Alpha virt. eigenvalues --    2.94066   2.94494   2.94844   2.95624   2.95907
 Alpha virt. eigenvalues --    2.97166   2.97653   2.98360   2.99556   3.01157
 Alpha virt. eigenvalues --    3.02833   3.03423   3.04614   3.06509   3.07944
 Alpha virt. eigenvalues --    3.08807   3.09085   3.10705   3.10978   3.11664
 Alpha virt. eigenvalues --    3.12350   3.12678   3.14657   3.14824   3.15893
 Alpha virt. eigenvalues --    3.16568   3.19011   3.19919   3.20798   3.22219
 Alpha virt. eigenvalues --    3.23013   3.23652   3.27673   3.28454   3.32936
 Alpha virt. eigenvalues --    3.35343   3.39230   3.41629   3.42088   3.45116
 Alpha virt. eigenvalues --    3.49437   3.51906   3.57028   3.57428   3.57942
 Alpha virt. eigenvalues --    3.58593   3.61534   3.62179   3.66805   3.68888
 Alpha virt. eigenvalues --    3.78059   3.81905
          Condensed to atoms (all electrons):
 Mulliken charges:
               1
     1  O   -0.226279
     2  O   -0.115985
     3  O   -0.270221
     4  O   -0.181788
     5  O   -0.196981
     6  O   -0.203838
     7  N   -0.151638
     8  N   -0.188832
     9  N   -0.081210
    10  N   -0.250107
    11  C    0.120658
    12  C    0.203145
    13  C   -0.092023
    14  C   -0.168221
    15  C   -0.054663
    16  C    0.071649
    17  C   -0.154136
    18  C    0.050727
    19  C   -0.085007
    20  C   -0.094947
    21  C    0.134701
    22  C    0.174057
    23  C   -0.102455
    24  C    0.235242
    25  C    0.113462
    26  C   -0.174970
    27  C   -0.016876
    28  C    0.137304
    29  C    0.085611
    30  C   -0.000594
    31  C    0.028769
    32  C    0.188140
    33  C   -0.129395
    34  C    0.105187
    35  C    0.043752
    36  C   -0.084320
    37  C    0.086484
    38  C    0.033530
    39  C   -0.220085
    40  C    0.184316
    41  C    0.022457
    42  C    0.124193
    43  C   -0.043813
    44  H   -0.008454
    45  H   -0.015970
    46  H    0.033967
    47  H    0.132576
    48  H    0.093712
    49  H   -0.025819
    50  H    0.062422
    51  H   -0.029487
    52  H   -0.010550
    53  H   -0.078247
    54  H    0.028187
    55  H    0.029918
    56  H    0.041249
    57  H    0.035783
    58  H    0.051279
    59  H    0.042896
    60  H    0.134492
    61  H    0.001380
    62  H    0.034446
    63  H    0.033021
    64  H    0.032749
    65  H    0.047599
    66  H    0.012076
    67  H    0.041809
    68  H   -0.011869
    69  H   -0.027145
    70  H   -0.004352
    71  H    0.051557
    72  H    0.149924
    73  H   -0.034421
    74  H    0.030864
    75  H    0.001191
    76  H    0.039967
    77  H    0.173645
    78  H    0.027629
    79  H    0.026976
 Sum of Mulliken charges =   0.00000
 Mulliken charges with hydrogens summed into heavy atoms:
               1
     1  O   -0.226279
     2  O    0.033939
     3  O   -0.270221
     4  O   -0.008143
     5  O   -0.196981
     6  O   -0.203838
     7  N   -0.019062
     8  N   -0.095120
     9  N    0.053282
    10  N   -0.250107
    11  C    0.112205
    12  C    0.221143
    13  C   -0.092023
    14  C   -0.168221
    15  C   -0.054663
    16  C    0.071649
    17  C   -0.154136
    18  C    0.087330
    19  C   -0.085007
    20  C   -0.124434
    21  C    0.134701
    22  C    0.174057
    23  C   -0.102455
    24  C    0.174632
    25  C    0.220412
    26  C   -0.174970
    27  C    0.077299
    28  C    0.137304
    29  C    0.121436
    30  C    0.032427
    31  C    0.109118
    32  C    0.230157
    33  C   -0.156540
    34  C    0.105187
    35  C    0.043752
    36  C   -0.037115
    37  C    0.086484
    38  C    0.033530
    39  C   -0.220085
    40  C    0.184316
    41  C   -0.011964
    42  C    0.196216
    43  C    0.010792
 Electronic spatial extent (au):  <R**2>=          32448.3960
 Charge=              0.0000 electrons
 Dipole moment (field-independent basis, Debye):
    X=             -0.3174    Y=              0.5299    Z=              2.2688  Tot=              2.3514
 Quadrupole moment (field-independent basis, Debye-Ang):
   XX=           -218.1184   YY=           -241.6047   ZZ=           -267.1424
   XY=             -9.8941   XZ=             40.1714   YZ=              1.4438
 Traceless Quadrupole moment (field-independent basis, Debye-Ang):
   XX=             24.1701   YY=              0.6838   ZZ=            -24.8539
   XY=             -9.8941   XZ=             40.1714   YZ=              1.4438
 Octapole moment (field-independent basis, Debye-Ang**2):
  XXX=            -24.0251  YYY=            147.4751  ZZZ=             78.4634  XYY=           -123.3660
  XXY=           -103.6609  XXZ=             75.2414  XZZ=            -73.4511  YZZ=            -16.5527
  YYZ=             41.9773  XYZ=             -2.2380
 Hexadecapole moment (field-independent basis, Debye-Ang**3):
 XXXX=         -23540.0859 YYYY=         -11299.3788 ZZZZ=          -5166.3552 XXXY=            138.9148
 XXXZ=            927.7548 YYYX=           -336.0107 YYYZ=            526.2366 ZZZX=            169.5448
 ZZZY=           -126.5495 XXYY=          -5949.3170 XXZZ=          -5465.9483 YYZZ=          -2872.1234
 XXYZ=           -111.4637 YYXZ=             99.0982 ZZXY=             76.4406
 N-N= 4.899942956089D+03 E-N=-1.432899374264D+04  KE= 1.928149422590D+03
 1\1\GINC-PEDRO-RYZENSSD\SP\RB3LYP TD-FC\SVP\C33H36N4O6\PADAWAN\10-Jul-
 2019\0\\# td=(NStates=1) B3LYP/SVP\\TD\\0,1\O,0,-5.364001762,-0.073263
 2113,-3.3736701998\O,0,2.8969565218,2.9755332767,3.3743236968\O,0,3.28
 16088987,0.842779287,3.4137733385\O,0,1.7819623321,-7.2804439488,1.339
 2643362\O,0,0.3379405435,-6.8851094149,-0.2892228535\O,0,2.0061640757,
 4.070970064,-0.0398557212\N,0,-2.4370843111,-0.8984548521,0.6567322003
 \N,0,-4.3201759215,0.5520594545,-1.3922011522\N,0,1.9075604831,-0.6623
 782188,-0.2340948476\N,0,2.7572069911,1.8256210122,-0.4941068857\C,0,-
 4.8192441707,1.2200421836,-0.0456141049\C,0,-4.4922538308,0.3835547732
 ,1.2646085216\C,0,-3.0785513113,0.108445727,1.3603213722\C,0,-2.014936
 538,0.6979819452,2.170767875\C,0,-0.7787417617,0.0777492164,1.91193995
 62\C,0,-0.9988442594,-0.9910042095,0.8652032286\C,0,-6.3590019976,1.43
 04648024,-0.237552169\C,0,0.53256674,0.2312610492,2.5676914379\C,0,-6.
 6659590276,0.8871910243,-1.4387647342\C,0,-0.2092166637,-1.8819434954,
 0.1014773234\C,0,1.053428254,-1.7238048931,-0.4234711403\C,0,-5.355473
 6055,0.4051602092,-2.2448839292\C,0,1.848530723,-2.8963932153,-0.85582
 08987\C,0,-2.2012368649,1.6506968017,3.2010287429\C,0,-7.1328252747,2.
 1725527913,0.7973103449\C,0,3.0961851468,-2.3951415385,-1.2945806152\C
 ,0,1.1014469173,1.6643095732,2.4918444028\C,0,3.0731838594,-0.94640407
 98,-0.9979034213\C,0,1.3109766356,-4.2640707867,-0.8920176757\C,0,-8.0
 011168326,0.8444290073,-2.0733220542\C,0,1.6957912692,-5.1081270551,0.
 4280691334\C,0,4.2648341998,-3.1875900248,-1.7836003574\C,0,4.07925686
 79,-0.0351418524,-1.2235625514\C,0,2.5246450799,1.7554597203,3.0633262
 377\C,0,3.8166761935,1.4077400303,-0.976783449\C,0,-9.2023084038,0.813
 6292067,-1.5674655092\C,0,1.1617834867,-6.4775364831,0.4537461673\C,0,
 4.7573998049,2.5312851835,-1.5204857751\C,0,4.1236880033,3.6951636766,
 -1.2362531966\C,0,2.807619518,3.3183035318,-0.6026988169\C,0,6.0226902
 734,2.3240342748,-2.1685283816\C,0,4.4758683802,5.1591574329,-1.314494
 1213\C,0,6.8487724286,3.2552419456,-2.6670213702\H,0,-4.248972848,2.05
 9320977,-0.0185923172\H,0,-4.9617246016,-0.5673217233,1.0912203703\H,0
 ,-4.8452346427,0.8819324223,2.2470968442\H,0,-3.0516825787,-1.40019687
 72,-0.0633087222\H,0,-3.4300586992,0.3566587421,-1.6203192292\H,0,0.44
 82514094,-0.046624689,3.529718304\H,0,1.4457030143,-0.4430741914,2.101
 6484852\H,0,-0.8008005726,-2.694777441,-0.2206722488\H,0,-3.3843105831
 ,1.6845150368,3.4600321708\H,0,-1.6739022496,1.5124298705,3.8876684914
 \H,0,-2.1698697863,2.6467233081,2.6866208161\H,0,-6.4313570308,2.77220
 61727,1.3988980086\H,0,-7.7622789362,1.4779241208,1.3781802406\H,0,-7.
 9188003713,2.7822603961,0.3177407713\H,0,1.1728194632,2.0673493429,1.5
 254125489\H,0,0.4785018903,2.3028783756,3.2585162061\H,0,1.7385494732,
 0.3106374539,-0.1127435005\H,0,1.5276010187,-4.8335988831,-1.726310693
 3\H,0,0.1559036708,-3.956325546,-0.906123382\H,0,-7.9270380288,0.58934
 15682,-3.2083817502\H,0,1.1478577259,-4.7042347278,1.2716068483\H,0,2.
 7703680797,-5.034689948,0.7305169901\H,0,3.872001644,-4.2677042989,-1.
 9164907017\H,0,5.12698482,-3.0452634071,-1.1497498965\H,0,4.3762547218
 ,-2.8995420098,-2.7389742197\H,0,5.0142642335,-0.3264867575,-1.6987965
 679\H,0,-9.380847607,0.975388436,-0.5020608923\H,0,-10.2320113662,0.54
 51888973,-2.0836281045\H,0,3.797906222,2.9959721658,3.5566238446\H,0,6
 .286403646,1.305264733,-2.2639538986\H,0,4.3474157518,5.5450475968,-2.
 4040374587\H,0,3.6980278069,5.6543625062,-0.8358666699\H,0,5.502842055
 7,5.4044468993,-0.9818799361\H,0,1.5448820267,-8.1932105636,1.18622829
 59\H,0,7.8225035322,2.9733246388,-3.1205908213\H,0,6.7890003443,4.3689
 244637,-2.55940883\\Version=ES64L-G09RevD.01\State=1-A\HF=-1947.869904
 4\RMSD=5.180e-09\PG=C01 [X(C33H36N4O6)]\\@


 TRUTH, IN SCIENCE, CAN BE DEFINED AS THE WORKING HYPOTHESIS 
 BEST FITTED TO OPEN THE WAY TO THE NEXT BETTER ONE.

                              -- KONRAD LORENZ
 Job cpu time:       0 days  3 hours 47 minutes 55.1 seconds.
 File lengths (MBytes):  RWF=    769 Int=      0 D2E=      0 Chk=     58 Scr=      1
 Normal termination of Gaussian 09 at Wed Jul 10 16:39:36 2019.
