 Entering Gaussian System, Link 0=g16
 Input=Geometria-152-.com
 Output=Geometria-152-.log
 Initial command:
 /usr/local/g09/l1.exe "/home/padawan/israel-mol/dihydrobiliverdin/spectra/abs/Gau-47685.inp" -scrdir="/home/padawan/israel-mol/dihydrobiliverdin/spectra/abs/"
 Entering Link 1 = /usr/local/g09/l1.exe PID=     47687.
  
 Copyright (c) 1988,1990,1992,1993,1995,1998,2003,2009,2013,
            Gaussian, Inc.  All Rights Reserved.
  
 This is part of the Gaussian(R) 09 program.  It is based on
 the Gaussian(R) 03 system (copyright 2003, Gaussian, Inc.),
 the Gaussian(R) 98 system (copyright 1998, Gaussian, Inc.),
 the Gaussian(R) 94 system (copyright 1995, Gaussian, Inc.),
 the Gaussian 92(TM) system (copyright 1992, Gaussian, Inc.),
 the Gaussian 90(TM) system (copyright 1990, Gaussian, Inc.),
 the Gaussian 88(TM) system (copyright 1988, Gaussian, Inc.),
 the Gaussian 86(TM) system (copyright 1986, Carnegie Mellon
 University), and the Gaussian 82(TM) system (copyright 1983,
 Carnegie Mellon University). Gaussian is a federally registered
 trademark of Gaussian, Inc.
  
 This software contains proprietary and confidential information,
 including trade secrets, belonging to Gaussian, Inc.
  
 This software is provided under written license and may be
 used, copied, transmitted, or stored only in accord with that
 written license.
  
 The following legend is applicable only to US Government
 contracts under FAR:
  
                    RESTRICTED RIGHTS LEGEND
  
 Use, reproduction and disclosure by the US Government is
 subject to restrictions as set forth in subparagraphs (a)
 and (c) of the Commercial Computer Software - Restricted
 Rights clause in FAR 52.227-19.
  
 Gaussian, Inc.
 340 Quinnipiac St., Bldg. 40, Wallingford CT 06492
  
  
 ---------------------------------------------------------------
 Warning -- This program may not be used in any manner that
 competes with the business of Gaussian, Inc. or will provide
 assistance to any competitor of Gaussian, Inc.  The licensee
 of this program is prohibited from giving any competitor of
 Gaussian, Inc. access to this program.  By using this program,
 the user acknowledges that Gaussian, Inc. is engaged in the
 business of creating and licensing software in the field of
 computational chemistry and represents and warrants to the
 licensee that it is not a competitor of Gaussian, Inc. and that
 it will not use this program in any manner prohibited above.
 ---------------------------------------------------------------
  

 Cite this work as:
 Gaussian 09, Revision D.01,
 M. J. Frisch, G. W. Trucks, H. B. Schlegel, G. E. Scuseria, 
 M. A. Robb, J. R. Cheeseman, G. Scalmani, V. Barone, B. Mennucci, 
 G. A. Petersson, H. Nakatsuji, M. Caricato, X. Li, H. P. Hratchian, 
 A. F. Izmaylov, J. Bloino, G. Zheng, J. L. Sonnenberg, M. Hada, 
 M. Ehara, K. Toyota, R. Fukuda, J. Hasegawa, M. Ishida, T. Nakajima, 
 Y. Honda, O. Kitao, H. Nakai, T. Vreven, J. A. Montgomery, Jr., 
 J. E. Peralta, F. Ogliaro, M. Bearpark, J. J. Heyd, E. Brothers, 
 K. N. Kudin, V. N. Staroverov, T. Keith, R. Kobayashi, J. Normand, 
 K. Raghavachari, A. Rendell, J. C. Burant, S. S. Iyengar, J. Tomasi, 
 M. Cossi, N. Rega, J. M. Millam, M. Klene, J. E. Knox, J. B. Cross, 
 V. Bakken, C. Adamo, J. Jaramillo, R. Gomperts, R. E. Stratmann, 
 O. Yazyev, A. J. Austin, R. Cammi, C. Pomelli, J. W. Ochterski, 
 R. L. Martin, K. Morokuma, V. G. Zakrzewski, G. A. Voth, 
 P. Salvador, J. J. Dannenberg, S. Dapprich, A. D. Daniels, 
 O. Farkas, J. B. Foresman, J. V. Ortiz, J. Cioslowski, 
 and D. J. Fox, Gaussian, Inc., Wallingford CT, 2013.
 
 ******************************************
 Gaussian 09:  ES64L-G09RevD.01 24-Apr-2013
                 8-Jul-2019 
 ******************************************
 %nproc=4
 Will use up to    4 processors via shared memory.
 %Mem=2GB
 --------------------------
 # td=(NStates=1) B3LYP/SVP
 --------------------------
 1/38=1/1;
 2/12=2,17=6,18=5,40=1/2;
 3/5=18,7=101,11=9,16=1,25=1,30=1,74=-5/1,2,8,3;
 4//1;
 5/5=2,38=5/2;
 8/6=1,10=1,108=1/1;
 9/41=1,42=1,70=2/14;
 6/7=2,8=2,9=2,10=2/1;
 99/5=1,9=1/99;
 --
 TD
 --
 Symbolic Z-matrix:
 Charge =  0 Multiplicity = 1
 8                    -5.23912   0.38774  -3.37005 
 8                     2.81049   3.00659   3.38983 
 8                     3.21428   0.83839   3.08789 
 8                     1.36025  -7.20963   1.63385 
 8                     0.41909  -6.93802  -0.35231 
 8                     1.98361   4.02188  -0.16297 
 7                    -2.39807  -0.98771   0.59923 
 7                    -4.35473   0.68081  -1.21962 
 7                     1.9401   -0.67767  -0.40493 
 7                     2.79244   1.91332  -0.32629 
 6                    -4.86217   1.16511  -0.03264 
 6                    -4.50514   0.26473   1.22441 
 6                    -3.05915  -0.06299   1.40742 
 6                    -2.14402   0.54453   2.23919 
 6                    -0.77349   0.07297   1.75926 
 6                    -1.01123  -0.88861   0.79226 
 6                    -6.28687   1.31699  -0.1645 
 6                     0.55245   0.29353   2.49671 
 6                    -6.6574    0.93187  -1.39277 
 6                    -0.12307  -1.89732   0.15427 
 6                     1.19395  -1.80669  -0.27621 
 6                    -5.38599   0.66254  -2.20115 
 6                     1.98447  -2.92002  -0.88726 
 6                    -2.31899   1.51306   3.22288 
 6                    -7.24373   1.93611   0.94536 
 6                     3.16476  -2.35927  -1.19274 
 6                     1.05435   1.74252   2.44802 
 6                     3.09218  -0.95643  -1.03081 
 6                     1.5395   -4.39555  -0.92155 
 6                    -7.85228   0.8127   -2.07633 
 6                     1.66908  -5.05701   0.50895 
 6                     4.30156  -2.98704  -1.89308 
 6                     4.05972   0.00453  -1.30684 
 6                     2.45868   1.77551   2.99609 
 6                     3.83851   1.44477  -1.06784 
 6                    -9.18843   0.72499  -1.68251 
 6                     1.11302  -6.40096   0.52519 
 6                     4.75234   2.42826  -1.45407 
 6                     4.16005   3.66174  -1.17079 
 6                     2.84682   3.28124  -0.45629 
 6                     5.99338   2.34885  -2.07249 
 6                     4.46476   5.12589  -1.36734 
 6                     6.84393   3.16923  -2.8467 
 1                    -4.34214   2.20017   0.1808 
 1                    -5.08875  -0.65942   1.00225 
 1                    -4.75671   0.60132   2.07115 
 1                    -2.7795   -1.48864   0.01695 
 1                    -3.45371   0.91325  -1.43915 
 1                     0.4553    0.04488   3.55144 
 1                     1.17465  -0.46841   2.15602 
 1                    -0.48668  -2.85263   0.12682 
 1                    -3.41838   1.53872   3.75137 
 1                    -1.5894    1.56854   4.23546 
 1                    -2.06228   2.64495   2.60923 
 1                    -6.59523   2.59826   1.514 
 1                    -7.79118   0.94164   1.47136 
 1                    -7.87406   2.50782   0.35484 
 1                     1.12221   2.32947   1.59212 
 1                     0.55859   2.2794    3.08944 
 1                     1.46183   0.18427  -0.34366 
 1                     2.14645  -4.97746  -1.56794 
 1                     0.47052  -4.52776  -1.28559 
 1                    -7.83816   0.65168  -3.08811 
 1                     1.0372   -4.60082   1.23665 
 1                     2.48156  -5.09848   1.064 
 1                     3.92326  -4.12086  -1.81209 
 1                     5.36452  -3.07973  -1.35846 
 1                     4.60821  -2.87239  -2.93668 
 1                     4.85997  -0.33205  -1.95107 
 1                    -9.25778   1.00776  -0.57982 
 1                    -10.06556   0.50648  -2.29095 
 1                     3.86197   2.8873    3.59944 
 1                     6.2815    1.42616  -2.063 
 1                     4.64322   5.28477  -2.49796 
 1                     3.7267    5.7186   -0.84515 
 1                     5.36886   5.29774  -0.77211 
 1                     0.95522  -7.96626   1.41698 
 1                     7.5793    2.66579  -3.3489 
 1                     6.75624   4.31904  -2.87797 
 
 Stoichiometry    C33H36N4O6
 Framework group  C1[X(C33H36N4O6)]
 Deg. of freedom   231
 Full point group                 C1      NOp   1
 Largest Abelian subgroup         C1      NOp   1
 Largest concise Abelian subgroup C1      NOp   1
                         Standard orientation:                         
 ---------------------------------------------------------------------
 Center     Atomic      Atomic             Coordinates (Angstroms)
 Number     Number       Type             X           Y           Z
 ---------------------------------------------------------------------
      1          8           0        5.207038   -0.540534   -3.396417
      2          8           0       -2.812930   -2.879472    3.499952
      3          8           0       -3.198273   -0.717255    3.137158
      4          8           0       -1.278685    7.265728    1.431463
      5          8           0       -0.356127    6.926406   -0.553012
      6          8           0       -2.024353   -4.007207   -0.027545
      7          7           0        2.411246    0.979308    0.552281
      8          7           0        4.337136   -0.761324   -1.231495
      9          7           0       -1.937617    0.682499   -0.408715
     10          7           0       -2.814160   -1.896527   -0.246898
     11          6           0        4.849394   -1.215367   -0.034667
     12          6           0        4.511118   -0.274834    1.197934
     13          6           0        3.069862    0.072364    1.382332
     14          6           0        2.155632   -0.501317    2.238761
     15          6           0        0.785897   -0.030652    1.755700
     16          6           0        1.025104    0.899602    0.758869
     17          6           0        6.271472   -1.385095   -0.172985
     18          6           0       -0.536149   -0.216298    2.509574
     19          6           0        6.635824   -1.040031   -1.414930
     20          6           0        0.141598    1.897740    0.098216
     21          6           0       -1.179641    1.807429   -0.319205
     22          6           0        5.360621   -0.782161   -2.221071
     23          6           0       -1.964298    2.909970   -0.956793
     24          6           0        2.329162   -1.442091    3.249278
     25          6           0        7.231194   -1.980593    0.947271
     26          6           0       -3.152331    2.352102   -1.236423
     27          6           0       -1.052330   -1.661083    2.507633
     28          6           0       -3.091936    0.954000   -1.033638
     29          6           0       -1.505450    4.379403   -1.038139
     30          6           0        7.826281   -0.952845   -2.110930
     31          6           0       -1.617196    5.084012    0.373130
     32          6           0       -4.288617    2.970103   -1.946217
     33          6           0       -4.070858   -0.005110   -1.273647
     34          6           0       -2.452471   -1.664070    3.067275
     35          6           0       -3.861586   -1.439783   -0.993877
     36          6           0        9.166320   -0.866718   -1.730208
     37          6           0       -1.048132    6.422315    0.345326
     38          6           0       -4.787894   -2.425196   -1.343776
     39          6           0       -4.205238   -3.655549   -1.028724
     40          6           0       -2.882729   -3.267085   -0.335967
     41          6           0       -6.033029   -2.351841   -1.954665
     42          6           0       -4.525568   -5.121793   -1.179530
     43          6           0       -6.897607   -3.186294   -2.697679
     44          1           0        4.321171   -2.238510    0.213303
     45          1           0        5.101787    0.636574    0.944034
     46          1           0        4.766221   -0.588763    2.052284
     47          1           0        2.792788    1.459057   -0.047485
     48          1           0        3.432195   -0.991259   -1.437083
     49          1           0       -0.428166    0.062380    3.555704
     50          1           0       -1.153705    0.541343    2.151318
     51          1           0        0.514143    2.848207    0.039716
     52          1           0        3.432461   -1.462970    3.769785
     53          1           0        1.607217   -1.460486    4.268666
     54          1           0        2.056675   -2.589008    2.671375
     55          1           0        6.580945   -2.619265    1.540244
     56          1           0        7.792381   -0.976479    1.439389
     57          1           0        7.851246   -2.575654    0.369073
     58          1           0       -1.132689   -2.272326    1.670015
     59          1           0       -0.556626   -2.183662    3.160799
     60          1           0       -1.467176   -0.181929   -0.325673
     61          1           0       -2.111944    4.947939   -1.696751
     62          1           0       -0.438197    4.490287   -1.414181
     63          1           0        7.805597   -0.821610   -3.126888
     64          1           0       -0.983916    4.643290    1.109104
     65          1           0       -2.424766    5.149827    0.932976
     66          1           0       -3.898799    4.102039   -1.901718
     67          1           0       -5.346319    3.088979   -1.406373
     68          1           0       -4.604710    2.827743   -2.983572
     69          1           0       -4.872968    0.320181   -1.921347
     70          1           0        9.241783   -1.117509   -0.620208
     71          1           0       10.040613   -0.674891   -2.351606
     72          1           0       -3.861506   -2.743711    3.714065
     73          1           0       -6.312187   -1.426481   -1.970245
     74          1           0       -4.714601   -5.312187   -2.303541
     75          1           0       -3.789081   -5.706074   -0.645757
     76          1           0       -5.426480   -5.267094   -0.572509
     77          1           0       -0.868156    8.011609    1.189186
     78          1           0       -7.632103   -2.690673   -3.208855
     79          1           0       -6.821221   -4.337330   -2.695609
 ---------------------------------------------------------------------
 Rotational constants (GHZ):      0.0743344      0.0443812      0.0346953
 Standard basis: SVP (5D, 7F)
 There are   825 symmetry adapted cartesian basis functions of A   symmetry.
 There are   782 symmetry adapted basis functions of A   symmetry.
   782 basis functions,  1327 primitive gaussians,   825 cartesian basis functions
   155 alpha electrons      155 beta electrons
       nuclear repulsion energy      4925.2347947266 Hartrees.
 NAtoms=   79 NActive=   79 NUniq=   79 SFac= 1.00D+00 NAtFMM=   60 NAOKFM=T Big=T
 Integral buffers will be    131072 words long.
 Regular integral format.
 Two-electron integral symmetry is turned on.
 One-electron integrals computed using PRISM.
 NBasis=   782 RedAO= T EigKep=  3.67D-04  NBF=   782
 NBsUse=   782 1.00D-06 EigRej= -1.00D+00 NBFU=   782
 ExpMin= 1.22D-01 ExpMax= 2.27D+03 ExpMxC= 3.41D+02 IAcc=1 IRadAn=         1 AccDes= 0.00D+00
 Harris functional with IExCor=  402 and IRadAn=       1 diagonalized for initial guess.
 HarFok:  IExCor=  402 AccDes= 0.00D+00 IRadAn=         1 IDoV= 1 UseB2=F ITyADJ=14
 ICtDFT=  3500011 ScaDFX=  1.000000  1.000000  1.000000  1.000000
 FoFCou: FMM=F IPFlag=           0 FMFlag=      100000 FMFlg1=        2001
         NFxFlg=           0 DoJE=T BraDBF=F KetDBF=T FulRan=T
         wScrn=  0.000000 ICntrl=     500 IOpCl=  0 I1Cent=   200000004 NGrid=           0
         NMat0=    1 NMatS0=      1 NMatT0=    0 NMatD0=    1 NMtDS0=    0 NMtDT0=    0
 Petite list used in FoFCou.
 Requested convergence on RMS density matrix=1.00D-08 within 128 cycles.
 Requested convergence on MAX density matrix=1.00D-06.
 Requested convergence on             energy=1.00D-06.
 No special actions if energy rises.
 Integral accuracy reduced to 1.0D-05 until final iterations.
 Initial convergence to 1.0D-05 achieved.  Increase integral accuracy.
 SCF Done:  E(RB3LYP) =  -1947.78227312     A.U. after   16 cycles
            NFock= 16  Conv=0.62D-08     -V/T= 2.0096
 DoSCS=F DFT=T ScalE2(SS,OS)=  1.000000  1.000000
 ExpMin= 1.22D-01 ExpMax= 2.27D+03 ExpMxC= 3.41D+02 IAcc=3 IRadAn=         5 AccDes= 0.00D+00
 HarFok:  IExCor=  205 AccDes= 0.00D+00 IRadAn=         5 IDoV=-2 UseB2=F ITyADJ=14
 ICtDFT= 12500011 ScaDFX=  1.000000  1.000000  1.000000  1.000000
 Range of M.O.s used for correlation:    44   782
 NBasis=   782 NAE=   155 NBE=   155 NFC=    43 NFV=     0
 NROrb=    739 NOA=   112 NOB=   112 NVA=   627 NVB=   627

 **** Warning!!: The smallest alpha delta epsilon is  0.84103862D-01

 Would need an additional        140608300000 words for in-memory AO integral storage.
 Orbital symmetries:
       Occupied  (A) (A) (A) (A) (A) (A) (A) (A) (A) (A) (A) (A)
                 (A) (A) (A) (A) (A) (A) (A) (A) (A) (A) (A) (A)
                 (A) (A) (A) (A) (A) (A) (A) (A) (A) (A) (A) (A)
                 (A) (A) (A) (A) (A) (A) (A) (A) (A) (A) (A) (A)
                 (A) (A) (A) (A) (A) (A) (A) (A) (A) (A) (A) (A)
                 (A) (A) (A) (A) (A) (A) (A) (A) (A) (A) (A) (A)
                 (A) (A) (A) (A) (A) (A) (A) (A) (A) (A) (A) (A)
                 (A) (A) (A) (A) (A) (A) (A) (A) (A) (A) (A) (A)
                 (A) (A) (A) (A) (A) (A) (A) (A) (A) (A) (A) (A)
                 (A) (A) (A) (A) (A) (A) (A) (A) (A) (A) (A) (A)
                 (A) (A) (A) (A) (A) (A) (A) (A) (A) (A) (A) (A)
                 (A) (A) (A) (A) (A) (A) (A) (A) (A) (A) (A) (A)
                 (A) (A) (A) (A) (A) (A) (A) (A) (A) (A) (A)
       Virtual   (A) (A) (A) (A) (A) (A) (A) (A) (A) (A) (A) (A)
                 (A) (A) (A) (A) (A) (A) (A) (A) (A) (A) (A) (A)
                 (A) (A) (A) (A) (A) (A) (A) (A) (A) (A) (A) (A)
                 (A) (A) (A) (A) (A) (A) (A) (A) (A) (A) (A) (A)
                 (A) (A) (A) (A) (A) (A) (A) (A) (A) (A) (A) (A)
                 (A) (A) (A) (A) (A) (A) (A) (A) (A) (A) (A) (A)
                 (A) (A) (A) (A) (A) (A) (A) (A) (A) (A) (A) (A)
                 (A) (A) (A) (A) (A) (A) (A) (A) (A) (A) (A) (A)
                 (A) (A) (A) (A) (A) (A) (A) (A) (A) (A) (A) (A)
                 (A) (A) (A) (A) (A) (A) (A) (A) (A) (A) (A) (A)
                 (A) (A) (A) (A) (A) (A) (A) (A) (A) (A) (A) (A)
                 (A) (A) (A) (A) (A) (A) (A) (A) (A) (A) (A) (A)
                 (A) (A) (A) (A) (A) (A) (A) (A) (A) (A) (A) (A)
                 (A) (A) (A) (A) (A) (A) (A) (A) (A) (A) (A) (A)
                 (A) (A) (A) (A) (A) (A) (A) (A) (A) (A) (A) (A)
                 (A) (A) (A) (A) (A) (A) (A) (A) (A) (A) (A) (A)
                 (A) (A) (A) (A) (A) (A) (A) (A) (A) (A) (A) (A)
                 (A) (A) (A) (A) (A) (A) (A) (A) (A) (A) (A) (A)
                 (A) (A) (A) (A) (A) (A) (A) (A) (A) (A) (A) (A)
                 (A) (A) (A) (A) (A) (A) (A) (A) (A) (A) (A) (A)
                 (A) (A) (A) (A) (A) (A) (A) (A) (A) (A) (A) (A)
                 (A) (A) (A) (A) (A) (A) (A) (A) (A) (A) (A) (A)
                 (A) (A) (A) (A) (A) (A) (A) (A) (A) (A) (A) (A)
                 (A) (A) (A) (A) (A) (A) (A) (A) (A) (A) (A) (A)
                 (A) (A) (A) (A) (A) (A) (A) (A) (A) (A) (A) (A)
                 (A) (A) (A) (A) (A) (A) (A) (A) (A) (A) (A) (A)
                 (A) (A) (A) (A) (A) (A) (A) (A) (A) (A) (A) (A)
                 (A) (A) (A) (A) (A) (A) (A) (A) (A) (A) (A) (A)
                 (A) (A) (A) (A) (A) (A) (A) (A) (A) (A) (A) (A)
                 (A) (A) (A) (A) (A) (A) (A) (A) (A) (A) (A) (A)
                 (A) (A) (A) (A) (A) (A) (A) (A) (A) (A) (A) (A)
                 (A) (A) (A) (A) (A) (A) (A) (A) (A) (A) (A) (A)
                 (A) (A) (A) (A) (A) (A) (A) (A) (A) (A) (A) (A)
                 (A) (A) (A) (A) (A) (A) (A) (A) (A) (A) (A) (A)
                 (A) (A) (A) (A) (A) (A) (A) (A) (A) (A) (A) (A)
                 (A) (A) (A) (A) (A) (A) (A) (A) (A) (A) (A) (A)
                 (A) (A) (A) (A) (A) (A) (A) (A) (A) (A) (A) (A)
                 (A) (A) (A) (A) (A) (A) (A) (A) (A) (A) (A) (A)
                 (A) (A) (A) (A) (A) (A) (A) (A) (A) (A) (A) (A)
                 (A) (A) (A) (A) (A) (A) (A) (A) (A) (A) (A) (A)
                 (A) (A) (A) (A) (A) (A) (A) (A) (A) (A) (A) (A)
                 (A) (A) (A) (A) (A) (A) (A) (A) (A) (A) (A) (A)
                 (A) (A) (A) (A) (A) (A) (A) (A) (A) (A) (A) (A)
                 (A) (A) (A) (A) (A) (A) (A) (A) (A) (A) (A) (A)
                 (A) (A) (A) (A) (A) (A) (A) (A) (A) (A) (A) (A)
                 (A) (A) (A) (A) (A) (A) (A) (A) (A) (A) (A) (A)
                 (A) (A) (A) (A) (A) (A) (A) (A) (A) (A) (A) (A)
                 (A) (A) (A) (A) (A) (A) (A) (A) (A) (A) (A) (A)
                 (A) (A) (A) (A) (A) (A) (A) (A) (A) (A) (A) (A)
                 (A) (A) (A) (A) (A) (A) (A) (A) (A) (A) (A) (A)
                 (A) (A) (A) (A) (A) (A) (A) (A) (A) (A) (A) (A)
                 (A) (A) (A) (A) (A) (A) (A) (A) (A) (A) (A) (A)
                 (A) (A) (A)
     8 initial guesses have been made.
 Convergence on wavefunction:    0.001000000000000
 Iteration     1 Dimension     8 NMult     0 NNew      8
 CISAX will form     8 AO SS matrices at one time.
 Iteration     2 Dimension    12 NMult     8 NNew      4
 Iteration     3 Dimension    16 NMult    12 NNew      4
 Iteration     4 Dimension    20 NMult    16 NNew      4
 Iteration     5 Dimension    24 NMult    20 NNew      4
 Iteration     6 Dimension    28 NMult    24 NNew      4
 ***********************************************************************
 Excited states from <AA,BB:AA,BB> singles matrix:
 ***********************************************************************
 
 Ground to excited state transition densities written to RWF  633
 Ground to excited state transition electric dipole moments (Au):
       state          X           Y           Z        Dip. S.      Osc.
         1        -1.9482     -0.9510     -0.6597      5.1352      0.2584
 Ground to excited state transition velocity dipole moments (Au):
       state          X           Y           Z        Dip. S.      Osc.
         1         0.1418      0.0635      0.0515      0.0268      0.2366
 Ground to excited state transition magnetic dipole moments (Au):
       state          X           Y           Z
         1         0.4322     -0.0664     -0.9591
 Ground to excited state transition velocity quadrupole moments (Au):
       state          XX          YY          ZZ          XY          XZ          YZ
         1        -0.5027     -0.1648      0.0288     -0.5557     -0.3714     -0.1905
 <0|del|b> * <b|rxdel|0> + <0|del|b> * <b|delr+rdel|0>
 Rotatory Strengths (R) in cgs (10**-40 erg-esu-cm/Gauss)
       state          XX          YY          ZZ    R(velocity)    E-M Angle
         1      -274.9125     63.1703    283.4070     23.8883       87.46
 1/2[<0|r|b>*<b|rxdel|0> + (<0|rxdel|b>*<b|r|0>)*]
 Rotatory Strengths (R) in cgs (10**-40 erg-esu-cm/Gauss)
       state          XX          YY          ZZ     R(length)
         1       595.4971    -44.6720   -447.4139     34.4704
  1/2[<0|del|b>*<b|r|0> + (<0|r|b>*<b|del|0>)*] (Au)
       state          X           Y           Z        Dip. S.   Osc.(frdel)
         1        -0.2762     -0.0604     -0.0340      0.3706      0.2471

 Excitation energies and oscillator strengths:
 
 Excited State   1:      Singlet-A      2.0538 eV  603.68 nm  f=0.2584  <S**2>=0.000
     154 ->156         0.35561
     155 ->156         0.60438
 This state for optimization and/or second-order correction.
 Total Energy, E(TD-HF/TD-KS) =  -1947.70679725    
 Copying the excited state density for this state as the 1-particle RhoCI density.
 SavETr:  write IOETrn=   770 NScale= 10 NData=  16 NLR=1 NState=    1 LETran=      28.

 **********************************************************************

            Population analysis using the SCF density.

 **********************************************************************

 Orbital symmetries:
       Occupied  (A) (A) (A) (A) (A) (A) (A) (A) (A) (A) (A) (A)
                 (A) (A) (A) (A) (A) (A) (A) (A) (A) (A) (A) (A)
                 (A) (A) (A) (A) (A) (A) (A) (A) (A) (A) (A) (A)
                 (A) (A) (A) (A) (A) (A) (A) (A) (A) (A) (A) (A)
                 (A) (A) (A) (A) (A) (A) (A) (A) (A) (A) (A) (A)
                 (A) (A) (A) (A) (A) (A) (A) (A) (A) (A) (A) (A)
                 (A) (A) (A) (A) (A) (A) (A) (A) (A) (A) (A) (A)
                 (A) (A) (A) (A) (A) (A) (A) (A) (A) (A) (A) (A)
                 (A) (A) (A) (A) (A) (A) (A) (A) (A) (A) (A) (A)
                 (A) (A) (A) (A) (A) (A) (A) (A) (A) (A) (A) (A)
                 (A) (A) (A) (A) (A) (A) (A) (A) (A) (A) (A) (A)
                 (A) (A) (A) (A) (A) (A) (A) (A) (A) (A) (A) (A)
                 (A) (A) (A) (A) (A) (A) (A) (A) (A) (A) (A)
       Virtual   (A) (A) (A) (A) (A) (A) (A) (A) (A) (A) (A) (A)
                 (A) (A) (A) (A) (A) (A) (A) (A) (A) (A) (A) (A)
                 (A) (A) (A) (A) (A) (A) (A) (A) (A) (A) (A) (A)
                 (A) (A) (A) (A) (A) (A) (A) (A) (A) (A) (A) (A)
                 (A) (A) (A) (A) (A) (A) (A) (A) (A) (A) (A) (A)
                 (A) (A) (A) (A) (A) (A) (A) (A) (A) (A) (A) (A)
                 (A) (A) (A) (A) (A) (A) (A) (A) (A) (A) (A) (A)
                 (A) (A) (A) (A) (A) (A) (A) (A) (A) (A) (A) (A)
                 (A) (A) (A) (A) (A) (A) (A) (A) (A) (A) (A) (A)
                 (A) (A) (A) (A) (A) (A) (A) (A) (A) (A) (A) (A)
                 (A) (A) (A) (A) (A) (A) (A) (A) (A) (A) (A) (A)
                 (A) (A) (A) (A) (A) (A) (A) (A) (A) (A) (A) (A)
                 (A) (A) (A) (A) (A) (A) (A) (A) (A) (A) (A) (A)
                 (A) (A) (A) (A) (A) (A) (A) (A) (A) (A) (A) (A)
                 (A) (A) (A) (A) (A) (A) (A) (A) (A) (A) (A) (A)
                 (A) (A) (A) (A) (A) (A) (A) (A) (A) (A) (A) (A)
                 (A) (A) (A) (A) (A) (A) (A) (A) (A) (A) (A) (A)
                 (A) (A) (A) (A) (A) (A) (A) (A) (A) (A) (A) (A)
                 (A) (A) (A) (A) (A) (A) (A) (A) (A) (A) (A) (A)
                 (A) (A) (A) (A) (A) (A) (A) (A) (A) (A) (A) (A)
                 (A) (A) (A) (A) (A) (A) (A) (A) (A) (A) (A) (A)
                 (A) (A) (A) (A) (A) (A) (A) (A) (A) (A) (A) (A)
                 (A) (A) (A) (A) (A) (A) (A) (A) (A) (A) (A) (A)
                 (A) (A) (A) (A) (A) (A) (A) (A) (A) (A) (A) (A)
                 (A) (A) (A) (A) (A) (A) (A) (A) (A) (A) (A) (A)
                 (A) (A) (A) (A) (A) (A) (A) (A) (A) (A) (A) (A)
                 (A) (A) (A) (A) (A) (A) (A) (A) (A) (A) (A) (A)
                 (A) (A) (A) (A) (A) (A) (A) (A) (A) (A) (A) (A)
                 (A) (A) (A) (A) (A) (A) (A) (A) (A) (A) (A) (A)
                 (A) (A) (A) (A) (A) (A) (A) (A) (A) (A) (A) (A)
                 (A) (A) (A) (A) (A) (A) (A) (A) (A) (A) (A) (A)
                 (A) (A) (A) (A) (A) (A) (A) (A) (A) (A) (A) (A)
                 (A) (A) (A) (A) (A) (A) (A) (A) (A) (A) (A) (A)
                 (A) (A) (A) (A) (A) (A) (A) (A) (A) (A) (A) (A)
                 (A) (A) (A) (A) (A) (A) (A) (A) (A) (A) (A) (A)
                 (A) (A) (A) (A) (A) (A) (A) (A) (A) (A) (A) (A)
                 (A) (A) (A) (A) (A) (A) (A) (A) (A) (A) (A) (A)
                 (A) (A) (A) (A) (A) (A) (A) (A) (A) (A) (A) (A)
                 (A) (A) (A) (A) (A) (A) (A) (A) (A) (A) (A) (A)
                 (A) (A) (A) (A) (A) (A) (A) (A) (A) (A) (A) (A)
                 (A) (A) (A) (A) (A) (A) (A) (A) (A) (A) (A) (A)
                 (A) (A) (A) (A) (A) (A) (A) (A) (A) (A) (A) (A)
                 (A) (A) (A) (A) (A) (A) (A) (A) (A) (A) (A) (A)
                 (A) (A) (A) (A) (A) (A) (A) (A) (A) (A) (A) (A)
                 (A) (A) (A) (A) (A) (A) (A) (A) (A) (A) (A) (A)
                 (A) (A) (A) (A) (A) (A) (A) (A) (A) (A) (A) (A)
                 (A) (A) (A) (A) (A) (A) (A) (A) (A) (A) (A) (A)
                 (A) (A) (A) (A) (A) (A) (A) (A) (A) (A) (A) (A)
                 (A) (A) (A) (A) (A) (A) (A) (A) (A) (A) (A) (A)
                 (A) (A) (A) (A) (A) (A) (A) (A) (A) (A) (A) (A)
                 (A) (A) (A) (A) (A) (A) (A) (A) (A) (A) (A) (A)
                 (A) (A) (A) (A) (A) (A) (A) (A) (A) (A) (A) (A)
                 (A) (A) (A)
 The electronic state is 1-A.
 Alpha  occ. eigenvalues --  -19.17580 -19.17162 -19.13178 -19.11144 -19.10826
 Alpha  occ. eigenvalues --  -19.10527 -14.36968 -14.36457 -14.34807 -14.28562
 Alpha  occ. eigenvalues --  -10.33097 -10.29583 -10.29202 -10.25819 -10.24826
 Alpha  occ. eigenvalues --  -10.24770 -10.24632 -10.24061 -10.23453 -10.23250
 Alpha  occ. eigenvalues --  -10.22955 -10.22813 -10.22602 -10.22485 -10.21991
 Alpha  occ. eigenvalues --  -10.21810 -10.21786 -10.21763 -10.21306 -10.20469
 Alpha  occ. eigenvalues --  -10.20390 -10.20174 -10.20127 -10.19895 -10.19718
 Alpha  occ. eigenvalues --  -10.19584 -10.19521 -10.19241 -10.19209 -10.19005
 Alpha  occ. eigenvalues --  -10.18863 -10.18517 -10.16745  -1.10375  -1.07704
 Alpha  occ. eigenvalues --   -1.04122  -1.03450  -1.00747  -0.99892  -0.98332
 Alpha  occ. eigenvalues --   -0.98088  -0.96284  -0.92399  -0.84305  -0.83287
 Alpha  occ. eigenvalues --   -0.82326  -0.81900  -0.80955  -0.80737  -0.79669
 Alpha  occ. eigenvalues --   -0.77690  -0.76834  -0.75664  -0.74665  -0.72936
 Alpha  occ. eigenvalues --   -0.71914  -0.71751  -0.70616  -0.70496  -0.69170
 Alpha  occ. eigenvalues --   -0.67655  -0.66586  -0.64379  -0.62427  -0.61539
 Alpha  occ. eigenvalues --   -0.60864  -0.59825  -0.58775  -0.58573  -0.57556
 Alpha  occ. eigenvalues --   -0.57270  -0.55964  -0.55341  -0.54465  -0.53630
 Alpha  occ. eigenvalues --   -0.52602  -0.52399  -0.51844  -0.51667  -0.50742
 Alpha  occ. eigenvalues --   -0.49432  -0.48907  -0.48797  -0.48423  -0.47972
 Alpha  occ. eigenvalues --   -0.47732  -0.47024  -0.46667  -0.46485  -0.46002
 Alpha  occ. eigenvalues --   -0.45808  -0.45114  -0.44607  -0.44257  -0.44050
 Alpha  occ. eigenvalues --   -0.43810  -0.43248  -0.43232  -0.43052  -0.42723
 Alpha  occ. eigenvalues --   -0.42603  -0.42202  -0.42096  -0.41837  -0.41441
 Alpha  occ. eigenvalues --   -0.41407  -0.41215  -0.41035  -0.40550  -0.40214
 Alpha  occ. eigenvalues --   -0.40179  -0.39868  -0.39574  -0.39103  -0.38881
 Alpha  occ. eigenvalues --   -0.38762  -0.38412  -0.37908  -0.37828  -0.37394
 Alpha  occ. eigenvalues --   -0.37030  -0.35975  -0.35743  -0.35486  -0.35290
 Alpha  occ. eigenvalues --   -0.34805  -0.34715  -0.32404  -0.32308  -0.32185
 Alpha  occ. eigenvalues --   -0.31129  -0.30568  -0.28848  -0.28645  -0.27746
 Alpha  occ. eigenvalues --   -0.27556  -0.26957  -0.26372  -0.26276  -0.24536
 Alpha  occ. eigenvalues --   -0.23768  -0.23624  -0.22957  -0.21404  -0.19666
 Alpha virt. eigenvalues --   -0.11255  -0.06914  -0.06508  -0.01703  -0.01323
 Alpha virt. eigenvalues --    0.00384   0.00786   0.01799   0.02913   0.03335
 Alpha virt. eigenvalues --    0.03568   0.04162   0.04418   0.05325   0.05532
 Alpha virt. eigenvalues --    0.06258   0.06572   0.06862   0.06960   0.07413
 Alpha virt. eigenvalues --    0.07733   0.08285   0.08590   0.08924   0.09559
 Alpha virt. eigenvalues --    0.09704   0.09779   0.09845   0.10237   0.11280
 Alpha virt. eigenvalues --    0.11484   0.11943   0.12417   0.12635   0.12878
 Alpha virt. eigenvalues --    0.13191   0.13308   0.13744   0.13801   0.14077
 Alpha virt. eigenvalues --    0.14321   0.14789   0.14932   0.15297   0.15780
 Alpha virt. eigenvalues --    0.16211   0.16241   0.16570   0.17053   0.17176
 Alpha virt. eigenvalues --    0.17729   0.18914   0.19062   0.19668   0.19835
 Alpha virt. eigenvalues --    0.20695   0.20909   0.21462   0.21876   0.22451
 Alpha virt. eigenvalues --    0.23222   0.23267   0.23572   0.23864   0.24323
 Alpha virt. eigenvalues --    0.24716   0.25184   0.25902   0.26470   0.26650
 Alpha virt. eigenvalues --    0.27110   0.27380   0.27766   0.28864   0.29197
 Alpha virt. eigenvalues --    0.29868   0.29969   0.30403   0.30837   0.30900
 Alpha virt. eigenvalues --    0.31845   0.32243   0.32648   0.33858   0.34060
 Alpha virt. eigenvalues --    0.34437   0.35149   0.35567   0.36442   0.36554
 Alpha virt. eigenvalues --    0.37045   0.37327   0.37813   0.38605   0.38760
 Alpha virt. eigenvalues --    0.39051   0.40365   0.40701   0.41761   0.41873
 Alpha virt. eigenvalues --    0.42184   0.42508   0.42906   0.43528   0.43737
 Alpha virt. eigenvalues --    0.44212   0.44428   0.45089   0.45438   0.45530
 Alpha virt. eigenvalues --    0.45891   0.46383   0.46456   0.46980   0.47334
 Alpha virt. eigenvalues --    0.47444   0.47703   0.47879   0.48615   0.48972
 Alpha virt. eigenvalues --    0.49063   0.49340   0.49528   0.50056   0.50343
 Alpha virt. eigenvalues --    0.50496   0.50747   0.51340   0.51715   0.52008
 Alpha virt. eigenvalues --    0.52191   0.52519   0.52878   0.53436   0.53595
 Alpha virt. eigenvalues --    0.53996   0.54175   0.54718   0.54931   0.55596
 Alpha virt. eigenvalues --    0.55884   0.56177   0.56224   0.56861   0.57204
 Alpha virt. eigenvalues --    0.57373   0.57970   0.58365   0.58613   0.58895
 Alpha virt. eigenvalues --    0.59512   0.59579   0.59953   0.60464   0.60612
 Alpha virt. eigenvalues --    0.60666   0.61174   0.61727   0.62054   0.62384
 Alpha virt. eigenvalues --    0.62712   0.63090   0.63418   0.63555   0.63708
 Alpha virt. eigenvalues --    0.64112   0.64191   0.64556   0.64754   0.65064
 Alpha virt. eigenvalues --    0.65391   0.65697   0.66031   0.66432   0.66512
 Alpha virt. eigenvalues --    0.66528   0.67237   0.67579   0.67738   0.67874
 Alpha virt. eigenvalues --    0.68162   0.68204   0.68448   0.68558   0.69069
 Alpha virt. eigenvalues --    0.69434   0.69668   0.69972   0.70288   0.70650
 Alpha virt. eigenvalues --    0.70774   0.70862   0.71177   0.71317   0.71472
 Alpha virt. eigenvalues --    0.71943   0.72292   0.72426   0.73250   0.73762
 Alpha virt. eigenvalues --    0.74014   0.74240   0.74761   0.75034   0.75439
 Alpha virt. eigenvalues --    0.75931   0.76354   0.76520   0.77120   0.77208
 Alpha virt. eigenvalues --    0.77561   0.78075   0.78715   0.78962   0.79632
 Alpha virt. eigenvalues --    0.79871   0.80514   0.80847   0.81165   0.81572
 Alpha virt. eigenvalues --    0.81861   0.82226   0.82928   0.83585   0.83676
 Alpha virt. eigenvalues --    0.84511   0.84861   0.85416   0.86219   0.86910
 Alpha virt. eigenvalues --    0.87548   0.88619   0.89282   0.89834   0.90469
 Alpha virt. eigenvalues --    0.90823   0.91822   0.92613   0.93503   0.93879
 Alpha virt. eigenvalues --    0.94504   0.94617   0.95318   0.95754   0.96570
 Alpha virt. eigenvalues --    0.96696   0.97099   0.97364   0.97729   0.97941
 Alpha virt. eigenvalues --    0.98752   0.99021   1.00324   1.00928   1.01656
 Alpha virt. eigenvalues --    1.01776   1.02431   1.03148   1.03924   1.04888
 Alpha virt. eigenvalues --    1.05870   1.05985   1.06381   1.06860   1.07946
 Alpha virt. eigenvalues --    1.08157   1.09228   1.10635   1.11114   1.11615
 Alpha virt. eigenvalues --    1.12220   1.12600   1.13639   1.13982   1.15354
 Alpha virt. eigenvalues --    1.15471   1.16327   1.16361   1.16785   1.17650
 Alpha virt. eigenvalues --    1.18311   1.18488   1.19407   1.20228   1.20835
 Alpha virt. eigenvalues --    1.21693   1.22230   1.22570   1.23333   1.23584
 Alpha virt. eigenvalues --    1.23912   1.24796   1.25078   1.26061   1.26106
 Alpha virt. eigenvalues --    1.26609   1.27650   1.28064   1.28487   1.29113
 Alpha virt. eigenvalues --    1.29938   1.30754   1.31330   1.31752   1.33254
 Alpha virt. eigenvalues --    1.34054   1.34781   1.36074   1.36451   1.36896
 Alpha virt. eigenvalues --    1.37819   1.38151   1.38784   1.39620   1.40218
 Alpha virt. eigenvalues --    1.41352   1.41871   1.42458   1.44199   1.44578
 Alpha virt. eigenvalues --    1.45132   1.45522   1.45993   1.46722   1.47003
 Alpha virt. eigenvalues --    1.47315   1.48036   1.48659   1.49063   1.49477
 Alpha virt. eigenvalues --    1.50776   1.51493   1.52282   1.52323   1.53644
 Alpha virt. eigenvalues --    1.54072   1.54801   1.54985   1.55204   1.56403
 Alpha virt. eigenvalues --    1.57113   1.57735   1.58218   1.59100   1.59628
 Alpha virt. eigenvalues --    1.60263   1.61024   1.61283   1.62062   1.62498
 Alpha virt. eigenvalues --    1.62924   1.63391   1.63730   1.64023   1.64828
 Alpha virt. eigenvalues --    1.64989   1.65560   1.66019   1.66703   1.66904
 Alpha virt. eigenvalues --    1.67402   1.67538   1.67547   1.67816   1.68360
 Alpha virt. eigenvalues --    1.68694   1.68929   1.70076   1.70254   1.70790
 Alpha virt. eigenvalues --    1.71335   1.71796   1.72043   1.72412   1.73267
 Alpha virt. eigenvalues --    1.73471   1.74109   1.74323   1.74582   1.74994
 Alpha virt. eigenvalues --    1.75808   1.76061   1.77240   1.77893   1.78211
 Alpha virt. eigenvalues --    1.78567   1.78817   1.79269   1.79408   1.80027
 Alpha virt. eigenvalues --    1.80685   1.80769   1.80998   1.81562   1.82567
 Alpha virt. eigenvalues --    1.83472   1.83603   1.84010   1.84447   1.84729
 Alpha virt. eigenvalues --    1.85629   1.85971   1.86171   1.86580   1.87021
 Alpha virt. eigenvalues --    1.87780   1.88109   1.88850   1.89302   1.89435
 Alpha virt. eigenvalues --    1.89764   1.90194   1.90615   1.90864   1.91284
 Alpha virt. eigenvalues --    1.91753   1.92759   1.93289   1.93453   1.94083
 Alpha virt. eigenvalues --    1.94614   1.95006   1.95278   1.96189   1.96531
 Alpha virt. eigenvalues --    1.97778   1.98078   1.98690   1.99022   1.99579
 Alpha virt. eigenvalues --    2.00007   2.00333   2.00456   2.00856   2.01478
 Alpha virt. eigenvalues --    2.02211   2.02493   2.03129   2.03777   2.03939
 Alpha virt. eigenvalues --    2.04406   2.04811   2.05080   2.05957   2.06269
 Alpha virt. eigenvalues --    2.07227   2.07383   2.08206   2.09053   2.09604
 Alpha virt. eigenvalues --    2.09729   2.10246   2.11092   2.11566   2.11915
 Alpha virt. eigenvalues --    2.12558   2.12823   2.13243   2.13767   2.14324
 Alpha virt. eigenvalues --    2.14506   2.15466   2.15762   2.16432   2.17028
 Alpha virt. eigenvalues --    2.17807   2.18404   2.19074   2.19365   2.19521
 Alpha virt. eigenvalues --    2.20218   2.21027   2.21235   2.21461   2.23367
 Alpha virt. eigenvalues --    2.23801   2.24047   2.24225   2.25261   2.26408
 Alpha virt. eigenvalues --    2.27198   2.27703   2.28857   2.30099   2.30750
 Alpha virt. eigenvalues --    2.31798   2.32063   2.32603   2.33337   2.34960
 Alpha virt. eigenvalues --    2.36240   2.36904   2.37247   2.37803   2.38121
 Alpha virt. eigenvalues --    2.38689   2.39105   2.39475   2.39979   2.40404
 Alpha virt. eigenvalues --    2.41299   2.41695   2.42471   2.42946   2.43560
 Alpha virt. eigenvalues --    2.44115   2.44733   2.46037   2.46214   2.46575
 Alpha virt. eigenvalues --    2.47456   2.48602   2.48848   2.50835   2.51352
 Alpha virt. eigenvalues --    2.51816   2.52435   2.53010   2.53684   2.54764
 Alpha virt. eigenvalues --    2.55189   2.55639   2.57286   2.57977   2.58534
 Alpha virt. eigenvalues --    2.61150   2.61669   2.62007   2.62847   2.63393
 Alpha virt. eigenvalues --    2.63579   2.64101   2.65195   2.65814   2.66259
 Alpha virt. eigenvalues --    2.66882   2.67586   2.68855   2.69412   2.69839
 Alpha virt. eigenvalues --    2.70251   2.70754   2.71061   2.72366   2.72874
 Alpha virt. eigenvalues --    2.73277   2.74254   2.74977   2.76160   2.76430
 Alpha virt. eigenvalues --    2.77453   2.78189   2.79331   2.79893   2.80239
 Alpha virt. eigenvalues --    2.81209   2.81798   2.81867   2.82528   2.83309
 Alpha virt. eigenvalues --    2.83612   2.83943   2.84227   2.85765   2.86877
 Alpha virt. eigenvalues --    2.87240   2.88043   2.89771   2.90395   2.91023
 Alpha virt. eigenvalues --    2.92664   2.94730   2.94905   2.95223   2.96124
 Alpha virt. eigenvalues --    2.96231   2.96676   2.97270   2.97778   2.98103
 Alpha virt. eigenvalues --    2.98734   2.99202   3.01546   3.02556   3.03239
 Alpha virt. eigenvalues --    3.03787   3.04605   3.05321   3.06637   3.07781
 Alpha virt. eigenvalues --    3.10529   3.11391   3.11803   3.13488   3.13832
 Alpha virt. eigenvalues --    3.14809   3.16257   3.17955   3.19762   3.20769
 Alpha virt. eigenvalues --    3.21482   3.22135   3.23227   3.23526   3.24976
 Alpha virt. eigenvalues --    3.26047   3.27146   3.28669   3.31375   3.32680
 Alpha virt. eigenvalues --    3.34685   3.39609   3.43029   3.45056   3.46823
 Alpha virt. eigenvalues --    3.50470   3.51416   3.55001   3.57056   3.60079
 Alpha virt. eigenvalues --    3.61379   3.65441   3.66884   3.70612   3.72134
 Alpha virt. eigenvalues --    3.72710   3.84622
          Condensed to atoms (all electrons):
 Mulliken charges:
               1
     1  O   -0.193297
     2  O   -0.229400
     3  O   -0.242544
     4  O   -0.158400
     5  O   -0.265315
     6  O   -0.155586
     7  N    0.017422
     8  N   -0.130344
     9  N    0.025220
    10  N   -0.268128
    11  C    0.015408
    12  C    0.353223
    13  C   -0.124036
    14  C   -0.033825
    15  C   -0.110453
    16  C    0.061223
    17  C   -0.213144
    18  C    0.128163
    19  C    0.021072
    20  C   -0.031084
    21  C    0.004943
    22  C    0.153267
    23  C   -0.063355
    24  C   -0.129798
    25  C    0.108276
    26  C   -0.065371
    27  C    0.173292
    28  C    0.094635
    29  C    0.114934
    30  C   -0.063702
    31  C    0.156258
    32  C   -0.013858
    33  C   -0.107922
    34  C    0.083776
    35  C    0.113979
    36  C   -0.034151
    37  C    0.084650
    38  C    0.047370
    39  C   -0.233326
    40  C    0.107070
    41  C    0.001493
    42  C    0.117822
    43  C   -0.012339
    44  H    0.022189
    45  H   -0.019412
    46  H   -0.100813
    47  H    0.006959
    48  H    0.102482
    49  H   -0.006535
    50  H   -0.013077
    51  H   -0.043465
    52  H    0.038520
    53  H    0.054939
    54  H    0.057523
    55  H    0.024732
    56  H    0.080805
    57  H    0.028181
    58  H    0.024468
    59  H   -0.052259
    60  H    0.129115
    61  H    0.012914
    62  H    0.048991
    63  H   -0.026673
    64  H    0.022366
    65  H   -0.022777
    66  H    0.008732
    67  H    0.041848
    68  H    0.047657
    69  H   -0.019070
    70  H    0.005201
    71  H    0.039753
    72  H    0.215056
    73  H   -0.087788
    74  H    0.058087
    75  H    0.024021
    76  H    0.025686
    77  H    0.130964
    78  H    0.004333
    79  H    0.032233
 Sum of Mulliken charges =   0.00000
 Mulliken charges with hydrogens summed into heavy atoms:
               1
     1  O   -0.193297
     2  O   -0.014344
     3  O   -0.242544
     4  O   -0.027437
     5  O   -0.265315
     6  O   -0.155586
     7  N    0.024381
     8  N   -0.027863
     9  N    0.154335
    10  N   -0.268128
    11  C    0.037597
    12  C    0.232998
    13  C   -0.124036
    14  C   -0.033825
    15  C   -0.110453
    16  C    0.061223
    17  C   -0.213144
    18  C    0.108550
    19  C    0.021072
    20  C   -0.074549
    21  C    0.004943
    22  C    0.153267
    23  C   -0.063355
    24  C    0.021184
    25  C    0.241994
    26  C   -0.065371
    27  C    0.145501
    28  C    0.094635
    29  C    0.176839
    30  C   -0.090375
    31  C    0.155846
    32  C    0.084378
    33  C   -0.126992
    34  C    0.083776
    35  C    0.113979
    36  C    0.010803
    37  C    0.084650
    38  C    0.047370
    39  C   -0.233326
    40  C    0.107070
    41  C   -0.086294
    42  C    0.225616
    43  C    0.024227
 Electronic spatial extent (au):  <R**2>=          32247.0389
 Charge=              0.0000 electrons
 Dipole moment (field-independent basis, Debye):
    X=              0.3080    Y=              1.6296    Z=              2.1618  Tot=              2.7247
 Quadrupole moment (field-independent basis, Debye-Ang):
   XX=           -223.0554   YY=           -252.4785   ZZ=           -263.2473
   XY=             -8.6644   XZ=             29.9957   YZ=             -0.1758
 Traceless Quadrupole moment (field-independent basis, Debye-Ang):
   XX=             23.2050   YY=             -6.2181   ZZ=            -16.9869
   XY=             -8.6644   XZ=             29.9957   YZ=             -0.1758
 Octapole moment (field-independent basis, Debye-Ang**2):
  XXX=             41.3891  YYY=             45.4968  ZZZ=             83.2723  XYY=            -67.8204
  XXY=            -48.8734  XXZ=             39.8345  XZZ=            -76.3115  YZZ=            -10.9002
  YYZ=             43.9412  XYZ=             12.3375
 Hexadecapole moment (field-independent basis, Debye-Ang**3):
 XXXX=         -24106.1894 YYYY=         -12362.9566 ZZZZ=          -5059.0097 XXXY=            -59.4875
 XXXZ=            270.8608 YYYX=             -0.9394 YYYZ=            479.9270 ZZZX=             82.8299
 ZZZY=           -142.2609 XXYY=          -6060.7970 XXZZ=          -5221.6489 YYZZ=          -2955.9914
 XXYZ=           -191.3539 YYXZ=             63.1495 ZZXY=            110.7777
 N-N= 4.925234794727D+03 E-N=-1.437987516115D+04  KE= 1.929352455127D+03
 1\1\GINC-PEDRO-RYZENSSD\SP\RB3LYP TD-FC\SVP\C33H36N4O6\PADAWAN\08-Jul-
 2019\0\\# td=(NStates=1) B3LYP/SVP\\TD\\0,1\O,0,-5.2391192737,0.387742
 8893,-3.3700498378\O,0,2.8104878749,3.006586382,3.3898252469\O,0,3.214
 282166,0.838388848,3.0878907503\O,0,1.3602501609,-7.2096268671,1.63385
 37952\O,0,0.4190886583,-6.9380247065,-0.3523091621\O,0,1.9836118205,4.
 0218751545,-0.1629680324\N,0,-2.3980704097,-0.987713778,0.5992264497\N
 ,0,-4.3547293768,0.6808123298,-1.2196238945\N,0,1.9401037375,-0.677669
 748,-0.4049319313\N,0,2.7924405145,1.9133197821,-0.326290104\C,0,-4.86
 21684631,1.1651066901,-0.0326428078\C,0,-4.5051351189,0.264732891,1.22
 44145022\C,0,-3.0591493711,-0.0629914167,1.4074160817\C,0,-2.144019446
 2,0.5445265997,2.2391947177\C,0,-0.7734912366,0.0729687384,1.759264688
 7\C,0,-1.0112254975,-0.8886139705,0.7922559339\C,0,-6.2868747849,1.316
 9934552,-0.1645048643\C,0,0.5524487282,0.2935272758,2.4967143402\C,0,-
 6.6573981715,0.9318654917,-1.3927701347\C,0,-0.1230680488,-1.897315032
 6,0.154272603\C,0,1.1939523064,-1.8066931819,-0.2762064138\C,0,-5.3859
 866568,0.6625359468,-2.2011495558\C,0,1.9844743173,-2.9200155776,-0.88
 7264043\C,0,-2.3189886401,1.5130630383,3.2228809281\C,0,-7.2437263648,
 1.9361091469,0.9453551494\C,0,3.1647620045,-2.3592679511,-1.1927404311
 \C,0,1.0543522078,1.7425173939,2.4480200204\C,0,3.0921757586,-0.956425
 0819,-1.0308067117\C,0,1.5394994878,-4.395553935,-0.921550629\C,0,-7.8
 522819491,0.812695834,-2.0763323552\C,0,1.669078598,-5.0570119436,0.50
 89472212\C,0,4.3015578722,-2.9870399698,-1.8930813055\C,0,4.0597249147
 ,0.004532115,-1.3068408792\C,0,2.4586784832,1.7755117255,2.9960895141\
 C,0,3.8385083767,1.4447737337,-1.067842555\C,0,-9.1884270157,0.7249903
 428,-1.6825070133\C,0,1.1130186103,-6.4009588254,0.525193312\C,0,4.752
 3392988,2.4282648815,-1.4540691334\C,0,4.1600516397,3.6617403342,-1.17
 078665\C,0,2.8468234383,3.2812398254,-0.4562941764\C,0,5.9933773421,2.
 3488467561,-2.0724887777\C,0,4.4647572691,5.1258941066,-1.3673394058\C
 ,0,6.8439319446,3.1692333447,-2.846699338\H,0,-4.3421421649,2.20016506
 14,0.1807976218\H,0,-5.0887473038,-0.6594209332,1.0022514734\H,0,-4.75
 67057898,0.6013243615,2.0711492494\H,0,-2.7794953599,-1.4886357211,0.0
 169493036\H,0,-3.4537110644,0.9132544016,-1.4391511124\H,0,0.455302114
 5,0.0448844619,3.5514404762\H,0,1.1746459086,-0.4684067247,2.156023922
 8\H,0,-0.4866791604,-2.8526332266,0.1268225007\H,0,-3.4183839904,1.538
 7204573,3.7513713047\H,0,-1.5894037998,1.568535481,4.2354632709\H,0,-2
 .0622790272,2.6449531311,2.6092330773\H,0,-6.5952334184,2.598258778,1.
 5139995188\H,0,-7.7911818265,0.9416404924,1.4713595586\H,0,-7.87405589
 69,2.5078229524,0.3548444816\H,0,1.1222144027,2.3294655546,1.592119219
 5\H,0,0.5585898991,2.2793960274,3.0894392984\H,0,1.4618318015,0.184274
 8177,-0.3436565918\H,0,2.1464529039,-4.9774632695,-1.5679448567\H,0,0.
 4705151319,-4.5277626897,-1.2855913288\H,0,-7.8381591409,0.6516778018,
 -3.088109723\H,0,1.0371966598,-4.6008243867,1.2366533529\H,0,2.4815591
 988,-5.0984763266,1.0640003384\H,0,3.9232567695,-4.1208596145,-1.81209
 02616\H,0,5.3645185734,-3.0797268535,-1.3584607676\H,0,4.6082079171,-2
 .8723892945,-2.9366839907\H,0,4.859968804,-0.3320473135,-1.9510717954\
 H,0,-9.2577752997,1.0077616734,-0.5798186681\H,0,-10.0655647216,0.5064
 750259,-2.2909488366\H,0,3.8619726287,2.8873012987,3.599438126\H,0,6.2
 815031559,1.4261568222,-2.0630038036\H,0,4.6432153317,5.2847715692,-2.
 4979568507\H,0,3.7267006742,5.7185989298,-0.845147598\H,0,5.3688586574
 ,5.2977362282,-0.772108959\H,0,0.9552230608,-7.9662578683,1.4169813712
 \H,0,7.5792992117,2.6657938857,-3.3489036526\H,0,6.756237068,4.3190394
 752,-2.8779706862\\Version=ES64L-G09RevD.01\State=1-A\HF=-1947.7822731
 \RMSD=6.150e-09\PG=C01 [X(C33H36N4O6)]\\@


      TO SUSPECT YOUR OWN MORTALITY IS TO KNOW THE BEGINNING OF TERROR.
      TO LEARN IRREFUTABLY THAT YOU ARE MORTAL IS TO KNOW THE END
      OF TERROR.

                                                  -- JESSICA
                                                     CHILDREN OF DUNE
                                                     BY FRANK HERBERT
 Job cpu time:       0 days  4 hours 20 minutes 34.1 seconds.
 File lengths (MBytes):  RWF=    769 Int=      0 D2E=      0 Chk=     58 Scr=      1
 Normal termination of Gaussian 09 at Mon Jul  8 13:11:43 2019.
