 Entering Gaussian System, Link 0=g16
 Input=Geometria-134-.com
 Output=Geometria-134-.log
 Initial command:
 /usr/local/g09/l1.exe "/home/padawan/israel-mol/dihydrobiliverdin/spectra/abs/Gau-46199.inp" -scrdir="/home/padawan/israel-mol/dihydrobiliverdin/spectra/abs/"
 Entering Link 1 = /usr/local/g09/l1.exe PID=     46201.
  
 Copyright (c) 1988,1990,1992,1993,1995,1998,2003,2009,2013,
            Gaussian, Inc.  All Rights Reserved.
  
 This is part of the Gaussian(R) 09 program.  It is based on
 the Gaussian(R) 03 system (copyright 2003, Gaussian, Inc.),
 the Gaussian(R) 98 system (copyright 1998, Gaussian, Inc.),
 the Gaussian(R) 94 system (copyright 1995, Gaussian, Inc.),
 the Gaussian 92(TM) system (copyright 1992, Gaussian, Inc.),
 the Gaussian 90(TM) system (copyright 1990, Gaussian, Inc.),
 the Gaussian 88(TM) system (copyright 1988, Gaussian, Inc.),
 the Gaussian 86(TM) system (copyright 1986, Carnegie Mellon
 University), and the Gaussian 82(TM) system (copyright 1983,
 Carnegie Mellon University). Gaussian is a federally registered
 trademark of Gaussian, Inc.
  
 This software contains proprietary and confidential information,
 including trade secrets, belonging to Gaussian, Inc.
  
 This software is provided under written license and may be
 used, copied, transmitted, or stored only in accord with that
 written license.
  
 The following legend is applicable only to US Government
 contracts under FAR:
  
                    RESTRICTED RIGHTS LEGEND
  
 Use, reproduction and disclosure by the US Government is
 subject to restrictions as set forth in subparagraphs (a)
 and (c) of the Commercial Computer Software - Restricted
 Rights clause in FAR 52.227-19.
  
 Gaussian, Inc.
 340 Quinnipiac St., Bldg. 40, Wallingford CT 06492
  
  
 ---------------------------------------------------------------
 Warning -- This program may not be used in any manner that
 competes with the business of Gaussian, Inc. or will provide
 assistance to any competitor of Gaussian, Inc.  The licensee
 of this program is prohibited from giving any competitor of
 Gaussian, Inc. access to this program.  By using this program,
 the user acknowledges that Gaussian, Inc. is engaged in the
 business of creating and licensing software in the field of
 computational chemistry and represents and warrants to the
 licensee that it is not a competitor of Gaussian, Inc. and that
 it will not use this program in any manner prohibited above.
 ---------------------------------------------------------------
  

 Cite this work as:
 Gaussian 09, Revision D.01,
 M. J. Frisch, G. W. Trucks, H. B. Schlegel, G. E. Scuseria, 
 M. A. Robb, J. R. Cheeseman, G. Scalmani, V. Barone, B. Mennucci, 
 G. A. Petersson, H. Nakatsuji, M. Caricato, X. Li, H. P. Hratchian, 
 A. F. Izmaylov, J. Bloino, G. Zheng, J. L. Sonnenberg, M. Hada, 
 M. Ehara, K. Toyota, R. Fukuda, J. Hasegawa, M. Ishida, T. Nakajima, 
 Y. Honda, O. Kitao, H. Nakai, T. Vreven, J. A. Montgomery, Jr., 
 J. E. Peralta, F. Ogliaro, M. Bearpark, J. J. Heyd, E. Brothers, 
 K. N. Kudin, V. N. Staroverov, T. Keith, R. Kobayashi, J. Normand, 
 K. Raghavachari, A. Rendell, J. C. Burant, S. S. Iyengar, J. Tomasi, 
 M. Cossi, N. Rega, J. M. Millam, M. Klene, J. E. Knox, J. B. Cross, 
 V. Bakken, C. Adamo, J. Jaramillo, R. Gomperts, R. E. Stratmann, 
 O. Yazyev, A. J. Austin, R. Cammi, C. Pomelli, J. W. Ochterski, 
 R. L. Martin, K. Morokuma, V. G. Zakrzewski, G. A. Voth, 
 P. Salvador, J. J. Dannenberg, S. Dapprich, A. D. Daniels, 
 O. Farkas, J. B. Foresman, J. V. Ortiz, J. Cioslowski, 
 and D. J. Fox, Gaussian, Inc., Wallingford CT, 2013.
 
 ******************************************
 Gaussian 09:  ES64L-G09RevD.01 24-Apr-2013
                 8-Jul-2019 
 ******************************************
 %nproc=4
 Will use up to    4 processors via shared memory.
 %Mem=2GB
 --------------------------
 # td=(NStates=1) B3LYP/SVP
 --------------------------
 1/38=1/1;
 2/12=2,17=6,18=5,40=1/2;
 3/5=18,7=101,11=9,16=1,25=1,30=1,74=-5/1,2,8,3;
 4//1;
 5/5=2,38=5/2;
 8/6=1,10=1,108=1/1;
 9/41=1,42=1,70=2/14;
 6/7=2,8=2,9=2,10=2/1;
 99/5=1,9=1/99;
 --
 TD
 --
 Symbolic Z-matrix:
 Charge =  0 Multiplicity = 1
 8                    -5.49556   0.15142  -3.36024 
 8                     2.78096   3.27505   3.30518 
 8                     3.22148   0.97081   3.15898 
 8                     1.34732  -7.25655   1.52896 
 8                     0.82971  -7.03874  -0.70639 
 8                     1.94061   4.01444  -0.0699 
 7                    -2.36789  -0.98666   0.45967 
 7                    -4.39231   0.69178  -1.30763 
 7                     1.85487  -0.71856  -0.46948 
 7                     2.73571   1.79957  -0.50698 
 6                    -4.8715    1.24352  -0.09642 
 6                    -4.51798   0.29219   1.16705 
 6                    -2.95142   0.13348   1.28243 
 6                    -2.01681   0.56775   2.10012 
 6                    -0.78189   0.07339   1.73921 
 6                    -0.95206  -0.85093   0.73444 
 6                    -6.34863   1.43528  -0.22102 
 6                     0.55796   0.30577   2.47397 
 6                    -6.73997   0.9758   -1.38738 
 6                    -0.16095  -1.89816   0.16691 
 6                     1.06189  -1.82386  -0.33933 
 6                    -5.47699   0.50278  -2.22019 
 6                     2.02806  -2.92673  -0.75854 
 6                    -2.29063   1.56535   3.41778 
 6                    -7.16232   2.16293   0.80561 
 6                     3.19202  -2.48144  -1.20255 
 6                     1.06833   1.76453   2.5483 
 6                     3.15396  -1.00234  -0.9661 
 6                     1.60179  -4.45608  -0.83502 
 6                    -8.02988   0.87633  -1.96671 
 6                     1.44243  -5.00014   0.64876 
 6                     4.39012  -3.02179  -1.79021 
 6                     4.0741    0.02681  -1.23872 
 6                     2.46926   1.9449    2.94128 
 6                     3.82573   1.36102  -1.00954 
 6                    -9.23128   0.64952  -1.336 
 6                     1.12074  -6.51382   0.43014 
 6                     4.73932   2.51151  -1.47573 
 6                     4.1306    3.67675  -1.05787 
 6                     2.77866   3.24289  -0.43754 
 6                     6.11885   2.2289   -2.11052 
 6                     4.50223   5.00832  -1.07566 
 6                     6.9124    3.03466  -2.79052 
 1                    -4.47443   2.26884  -0.00917 
 1                    -4.98951  -0.65243   0.92113 
 1                    -4.97554   0.90581   2.1517 
 1                    -2.77325  -1.36554  -0.36887 
 1                    -3.4598    0.58436  -1.49865 
 1                     0.4738    0.01243   3.58045 
 1                     1.42098  -0.26162   2.09284 
 1                    -0.72054  -2.88529   0.00466 
 1                    -3.39802   1.65456   3.58654 
 1                    -1.69478   1.36037   4.26486 
 1                    -1.97758   2.48617   3.18236 
 1                    -6.32181   2.93399   1.18173 
 1                    -7.40478   1.63259   1.69302 
 1                    -8.03026   2.46285   0.43552 
 1                     0.95068   2.18394   1.41715 
 1                     0.53279   2.56274   3.179 
 1                     1.83801   0.26693  -0.20314 
 1                     2.35552  -5.00462  -1.55851 
 1                     0.51384  -4.69867  -1.29308 
 1                    -8.32275   0.84337  -3.11511 
 1                     0.5787   -4.5043    1.23906 
 1                     2.43007  -4.98402   1.35429 
 1                     4.22233  -4.07563  -1.98768 
 1                     5.33626  -2.83513  -0.96808 
 1                     4.85609  -2.69488  -2.78242 
 1                     4.92871  -0.35948  -1.60274 
 1                    -9.18173   0.82791  -0.2361 
 1                    -10.2017   0.39803  -1.81059 
 1                     3.7073    3.06273   3.35003 
 1                     6.47847   1.20186  -1.93923 
 1                     4.30048   5.1773   -2.11292 
 1                     4.02869   5.7514   -0.63908 
 1                     5.65048   5.09468  -0.99868 
 1                     1.17245  -8.40043   1.13342 
 1                     7.86052   2.68498  -3.08833 
 1                     6.72269   4.00411  -3.12812 
 
 Stoichiometry    C33H36N4O6
 Framework group  C1[X(C33H36N4O6)]
 Deg. of freedom   231
 Full point group                 C1      NOp   1
 Largest Abelian subgroup         C1      NOp   1
 Largest concise Abelian subgroup C1      NOp   1
                         Standard orientation:                         
 ---------------------------------------------------------------------
 Center     Atomic      Atomic             Coordinates (Angstroms)
 Number     Number       Type             X           Y           Z
 ---------------------------------------------------------------------
      1          8           0        5.482614   -0.061820   -3.385622
      2          8           0       -2.737573   -3.341053    3.274780
      3          8           0       -3.199149   -1.039213    3.158858
      4          8           0       -1.405027    7.224001    1.622831
      5          8           0       -0.894968    7.038357   -0.617160
      6          8           0       -1.904974   -4.031310   -0.112602
      7          7           0        2.361147    1.001180    0.460909
      8          7           0        4.392900   -0.637240   -1.335314
      9          7           0       -1.862952    0.706835   -0.454067
     10          7           0       -2.721559   -1.818411   -0.519022
     11          6           0        4.882088   -1.199546   -0.132990
     12          6           0        4.525481   -0.267026    1.143574
     13          6           0        2.958078   -0.123748    1.267365
     14          6           0        2.030828   -0.576380    2.083474
     15          6           0        0.790056   -0.088664    1.733791
     16          6           0        0.947756    0.849435    0.739813
     17          6           0        6.360323   -1.376549   -0.266037
     18          6           0       -0.544558   -0.342027    2.471142
     19          6           0        6.742624   -0.899275   -1.428237
     20          6           0        0.144986    1.896460    0.188525
     21          6           0       -1.079278    1.817488   -0.313555
     22          6           0        5.471980   -0.427339   -2.249933
     23          6           0       -2.056968    2.916753   -0.715130
     24          6           0        2.319068   -1.587638    3.387577
     25          6           0        7.184776   -2.109491    0.748170
     26          6           0       -3.218803    2.466589   -1.159802
     27          6           0       -1.041640   -1.806092    2.529557
     28          6           0       -3.166608    0.985089   -0.941789
     29          6           0       -1.644619    4.450679   -0.774480
     30          6           0        8.029140   -0.781168   -2.011609
     31          6           0       -1.483819    4.977831    0.715238
     32          6           0       -4.424122    3.003413   -1.735802
     33          6           0       -4.078713   -0.048808   -1.223302
     34          6           0       -2.439234   -2.003789    2.926056
     35          6           0       -3.817539   -1.383458   -1.011630
     36          6           0        9.231138   -0.551419   -1.383106
     37          6           0       -1.176513    6.496904    0.514001
     38          6           0       -4.722843   -2.536243   -1.488224
     39          6           0       -4.102038   -3.701054   -1.087288
     40          6           0       -2.751389   -3.262800   -0.467234
     41          6           0       -6.107504   -2.258175   -2.113786
     42          6           0       -4.461904   -5.035571   -1.119989
     43          6           0       -6.896737   -3.062554   -2.800406
     44          1           0        4.494506   -2.229365   -0.056771
     45          1           0        4.987561    0.684718    0.907398
     46          1           0        4.992636   -0.888618    2.118677
     47          1           0        2.759625    1.393834   -0.364556
     48          1           0        3.458671   -0.535807   -1.521142
     49          1           0       -0.458329   -0.061591    3.580804
     50          1           0       -1.414188    0.222276    2.100602
     51          1           0        0.695098    2.890472    0.036166
     52          1           0        3.427917   -1.669029    3.550661
     53          1           0        1.725020   -1.398436    4.239568
     54          1           0        2.013218   -2.508248    3.142099
     55          1           0        6.352743   -2.892599    1.118199
     56          1           0        7.426276   -1.587968    1.641054
     57          1           0        8.053775   -2.397066    0.370833
     58          1           0       -0.925052   -2.210481    1.392842
     59          1           0       -0.496363   -2.607195    3.148140
     60          1           0       -1.836220   -0.281676   -0.199990
     61          1           0       -2.406253    5.001325   -1.488031
     62          1           0       -0.560818    4.708595   -1.233990
     63          1           0        8.316841   -0.731456   -3.160713
     64          1           0       -0.613235    4.482505    1.295808
     65          1           0       -2.468290    4.944217    1.424579
     66          1           0       -4.266533    4.061052   -1.920933
     67          1           0       -5.365078    2.798204   -0.912147
     68          1           0       -4.891371    2.684590   -2.730041
     69          1           0       -4.938252    0.334290   -1.578993
     70          1           0        9.187826   -0.743770   -0.285299
     71          1           0       10.197267   -0.285451   -1.858549
     72          1           0       -3.665556   -3.137578    3.326073
     73          1           0       -6.475504   -1.236573   -1.928347
     74          1           0       -4.263053   -5.189961   -2.160078
     75          1           0       -3.979942   -5.779709   -0.694569
     76          1           0       -5.609002   -5.133117   -1.039350
     77          1           0       -1.242002    8.374179    1.240726
     78          1           0       -7.849175   -2.717712   -3.089959
     79          1           0       -6.699862   -4.026040   -3.150720
 ---------------------------------------------------------------------
 Rotational constants (GHZ):      0.0739439      0.0440010      0.0341683
 Standard basis: SVP (5D, 7F)
 There are   825 symmetry adapted cartesian basis functions of A   symmetry.
 There are   782 symmetry adapted basis functions of A   symmetry.
   782 basis functions,  1327 primitive gaussians,   825 cartesian basis functions
   155 alpha electrons      155 beta electrons
       nuclear repulsion energy      4896.2315489877 Hartrees.
 NAtoms=   79 NActive=   79 NUniq=   79 SFac= 1.00D+00 NAtFMM=   60 NAOKFM=T Big=T
 Integral buffers will be    131072 words long.
 Regular integral format.
 Two-electron integral symmetry is turned on.
 One-electron integrals computed using PRISM.
 NBasis=   782 RedAO= T EigKep=  3.25D-04  NBF=   782
 NBsUse=   782 1.00D-06 EigRej= -1.00D+00 NBFU=   782
 ExpMin= 1.22D-01 ExpMax= 2.27D+03 ExpMxC= 3.41D+02 IAcc=1 IRadAn=         1 AccDes= 0.00D+00
 Harris functional with IExCor=  402 and IRadAn=       1 diagonalized for initial guess.
 HarFok:  IExCor=  402 AccDes= 0.00D+00 IRadAn=         1 IDoV= 1 UseB2=F ITyADJ=14
 ICtDFT=  3500011 ScaDFX=  1.000000  1.000000  1.000000  1.000000
 FoFCou: FMM=F IPFlag=           0 FMFlag=      100000 FMFlg1=        2001
         NFxFlg=           0 DoJE=T BraDBF=F KetDBF=T FulRan=T
         wScrn=  0.000000 ICntrl=     500 IOpCl=  0 I1Cent=   200000004 NGrid=           0
         NMat0=    1 NMatS0=      1 NMatT0=    0 NMatD0=    1 NMtDS0=    0 NMtDT0=    0
 Petite list used in FoFCou.
 Requested convergence on RMS density matrix=1.00D-08 within 128 cycles.
 Requested convergence on MAX density matrix=1.00D-06.
 Requested convergence on             energy=1.00D-06.
 No special actions if energy rises.
 Integral accuracy reduced to 1.0D-05 until final iterations.
 Initial convergence to 1.0D-05 achieved.  Increase integral accuracy.
 SCF Done:  E(RB3LYP) =  -1947.80386696     A.U. after   16 cycles
            NFock= 16  Conv=0.51D-08     -V/T= 2.0108
 DoSCS=F DFT=T ScalE2(SS,OS)=  1.000000  1.000000
 ExpMin= 1.22D-01 ExpMax= 2.27D+03 ExpMxC= 3.41D+02 IAcc=3 IRadAn=         5 AccDes= 0.00D+00
 HarFok:  IExCor=  205 AccDes= 0.00D+00 IRadAn=         5 IDoV=-2 UseB2=F ITyADJ=14
 ICtDFT= 12500011 ScaDFX=  1.000000  1.000000  1.000000  1.000000
 Range of M.O.s used for correlation:    44   782
 NBasis=   782 NAE=   155 NBE=   155 NFC=    43 NFV=     0
 NROrb=    739 NOA=   112 NOB=   112 NVA=   627 NVB=   627

 **** Warning!!: The smallest alpha delta epsilon is  0.93070371D-01

 Would need an additional        140608300000 words for in-memory AO integral storage.
 Orbital symmetries:
       Occupied  (A) (A) (A) (A) (A) (A) (A) (A) (A) (A) (A) (A)
                 (A) (A) (A) (A) (A) (A) (A) (A) (A) (A) (A) (A)
                 (A) (A) (A) (A) (A) (A) (A) (A) (A) (A) (A) (A)
                 (A) (A) (A) (A) (A) (A) (A) (A) (A) (A) (A) (A)
                 (A) (A) (A) (A) (A) (A) (A) (A) (A) (A) (A) (A)
                 (A) (A) (A) (A) (A) (A) (A) (A) (A) (A) (A) (A)
                 (A) (A) (A) (A) (A) (A) (A) (A) (A) (A) (A) (A)
                 (A) (A) (A) (A) (A) (A) (A) (A) (A) (A) (A) (A)
                 (A) (A) (A) (A) (A) (A) (A) (A) (A) (A) (A) (A)
                 (A) (A) (A) (A) (A) (A) (A) (A) (A) (A) (A) (A)
                 (A) (A) (A) (A) (A) (A) (A) (A) (A) (A) (A) (A)
                 (A) (A) (A) (A) (A) (A) (A) (A) (A) (A) (A) (A)
                 (A) (A) (A) (A) (A) (A) (A) (A) (A) (A) (A)
       Virtual   (A) (A) (A) (A) (A) (A) (A) (A) (A) (A) (A) (A)
                 (A) (A) (A) (A) (A) (A) (A) (A) (A) (A) (A) (A)
                 (A) (A) (A) (A) (A) (A) (A) (A) (A) (A) (A) (A)
                 (A) (A) (A) (A) (A) (A) (A) (A) (A) (A) (A) (A)
                 (A) (A) (A) (A) (A) (A) (A) (A) (A) (A) (A) (A)
                 (A) (A) (A) (A) (A) (A) (A) (A) (A) (A) (A) (A)
                 (A) (A) (A) (A) (A) (A) (A) (A) (A) (A) (A) (A)
                 (A) (A) (A) (A) (A) (A) (A) (A) (A) (A) (A) (A)
                 (A) (A) (A) (A) (A) (A) (A) (A) (A) (A) (A) (A)
                 (A) (A) (A) (A) (A) (A) (A) (A) (A) (A) (A) (A)
                 (A) (A) (A) (A) (A) (A) (A) (A) (A) (A) (A) (A)
                 (A) (A) (A) (A) (A) (A) (A) (A) (A) (A) (A) (A)
                 (A) (A) (A) (A) (A) (A) (A) (A) (A) (A) (A) (A)
                 (A) (A) (A) (A) (A) (A) (A) (A) (A) (A) (A) (A)
                 (A) (A) (A) (A) (A) (A) (A) (A) (A) (A) (A) (A)
                 (A) (A) (A) (A) (A) (A) (A) (A) (A) (A) (A) (A)
                 (A) (A) (A) (A) (A) (A) (A) (A) (A) (A) (A) (A)
                 (A) (A) (A) (A) (A) (A) (A) (A) (A) (A) (A) (A)
                 (A) (A) (A) (A) (A) (A) (A) (A) (A) (A) (A) (A)
                 (A) (A) (A) (A) (A) (A) (A) (A) (A) (A) (A) (A)
                 (A) (A) (A) (A) (A) (A) (A) (A) (A) (A) (A) (A)
                 (A) (A) (A) (A) (A) (A) (A) (A) (A) (A) (A) (A)
                 (A) (A) (A) (A) (A) (A) (A) (A) (A) (A) (A) (A)
                 (A) (A) (A) (A) (A) (A) (A) (A) (A) (A) (A) (A)
                 (A) (A) (A) (A) (A) (A) (A) (A) (A) (A) (A) (A)
                 (A) (A) (A) (A) (A) (A) (A) (A) (A) (A) (A) (A)
                 (A) (A) (A) (A) (A) (A) (A) (A) (A) (A) (A) (A)
                 (A) (A) (A) (A) (A) (A) (A) (A) (A) (A) (A) (A)
                 (A) (A) (A) (A) (A) (A) (A) (A) (A) (A) (A) (A)
                 (A) (A) (A) (A) (A) (A) (A) (A) (A) (A) (A) (A)
                 (A) (A) (A) (A) (A) (A) (A) (A) (A) (A) (A) (A)
                 (A) (A) (A) (A) (A) (A) (A) (A) (A) (A) (A) (A)
                 (A) (A) (A) (A) (A) (A) (A) (A) (A) (A) (A) (A)
                 (A) (A) (A) (A) (A) (A) (A) (A) (A) (A) (A) (A)
                 (A) (A) (A) (A) (A) (A) (A) (A) (A) (A) (A) (A)
                 (A) (A) (A) (A) (A) (A) (A) (A) (A) (A) (A) (A)
                 (A) (A) (A) (A) (A) (A) (A) (A) (A) (A) (A) (A)
                 (A) (A) (A) (A) (A) (A) (A) (A) (A) (A) (A) (A)
                 (A) (A) (A) (A) (A) (A) (A) (A) (A) (A) (A) (A)
                 (A) (A) (A) (A) (A) (A) (A) (A) (A) (A) (A) (A)
                 (A) (A) (A) (A) (A) (A) (A) (A) (A) (A) (A) (A)
                 (A) (A) (A) (A) (A) (A) (A) (A) (A) (A) (A) (A)
                 (A) (A) (A) (A) (A) (A) (A) (A) (A) (A) (A) (A)
                 (A) (A) (A) (A) (A) (A) (A) (A) (A) (A) (A) (A)
                 (A) (A) (A) (A) (A) (A) (A) (A) (A) (A) (A) (A)
                 (A) (A) (A) (A) (A) (A) (A) (A) (A) (A) (A) (A)
                 (A) (A) (A) (A) (A) (A) (A) (A) (A) (A) (A) (A)
                 (A) (A) (A) (A) (A) (A) (A) (A) (A) (A) (A) (A)
                 (A) (A) (A) (A) (A) (A) (A) (A) (A) (A) (A) (A)
                 (A) (A) (A) (A) (A) (A) (A) (A) (A) (A) (A) (A)
                 (A) (A) (A) (A) (A) (A) (A) (A) (A) (A) (A) (A)
                 (A) (A) (A) (A) (A) (A) (A) (A) (A) (A) (A) (A)
                 (A) (A) (A)
     8 initial guesses have been made.
 Convergence on wavefunction:    0.001000000000000
 Iteration     1 Dimension     8 NMult     0 NNew      8
 CISAX will form     8 AO SS matrices at one time.
 Iteration     2 Dimension    12 NMult     8 NNew      4
 Iteration     3 Dimension    16 NMult    12 NNew      4
 Iteration     4 Dimension    20 NMult    16 NNew      4
 Iteration     5 Dimension    24 NMult    20 NNew      4
 Iteration     6 Dimension    28 NMult    24 NNew      4
 ***********************************************************************
 Excited states from <AA,BB:AA,BB> singles matrix:
 ***********************************************************************
 
 Ground to excited state transition densities written to RWF  633
 Ground to excited state transition electric dipole moments (Au):
       state          X           Y           Z        Dip. S.      Osc.
         1        -2.4152     -1.0171     -0.8532      7.5954      0.4306
 Ground to excited state transition velocity dipole moments (Au):
       state          X           Y           Z        Dip. S.      Osc.
         1         0.1978      0.0790      0.0712      0.0504      0.3954
 Ground to excited state transition magnetic dipole moments (Au):
       state          X           Y           Z
         1         0.7421      0.0044     -1.5874
 Ground to excited state transition velocity quadrupole moments (Au):
       state          XX          YY          ZZ          XY          XZ          YZ
         1        -0.3380     -0.4696      0.0954     -0.6826     -0.3795     -0.2313
 <0|del|b> * <b|rxdel|0> + <0|del|b> * <b|delr+rdel|0>
 Rotatory Strengths (R) in cgs (10**-40 erg-esu-cm/Gauss)
       state          XX          YY          ZZ    R(velocity)    E-M Angle
         1      -545.6490    152.2769    677.2438     94.6239       85.02
 1/2[<0|r|b>*<b|rxdel|0> + (<0|rxdel|b>*<b|r|0>)*]
 Rotatory Strengths (R) in cgs (10**-40 erg-esu-cm/Gauss)
       state          XX          YY          ZZ     R(length)
         1      1267.4371      3.1766   -957.6987    104.3050
  1/2[<0|del|b>*<b|r|0> + (<0|r|b>*<b|del|0>)*] (Au)
       state          X           Y           Z        Dip. S.   Osc.(frdel)
         1        -0.4777     -0.0804     -0.0607      0.6188      0.4125

 Excitation energies and oscillator strengths:
 
 Excited State   1:      Singlet-A      2.3139 eV  535.83 nm  f=0.4306  <S**2>=0.000
     155 ->156         0.69780
 This state for optimization and/or second-order correction.
 Total Energy, E(TD-HF/TD-KS) =  -1947.71883324    
 Copying the excited state density for this state as the 1-particle RhoCI density.
 SavETr:  write IOETrn=   770 NScale= 10 NData=  16 NLR=1 NState=    1 LETran=      28.

 **********************************************************************

            Population analysis using the SCF density.

 **********************************************************************

 Orbital symmetries:
       Occupied  (A) (A) (A) (A) (A) (A) (A) (A) (A) (A) (A) (A)
                 (A) (A) (A) (A) (A) (A) (A) (A) (A) (A) (A) (A)
                 (A) (A) (A) (A) (A) (A) (A) (A) (A) (A) (A) (A)
                 (A) (A) (A) (A) (A) (A) (A) (A) (A) (A) (A) (A)
                 (A) (A) (A) (A) (A) (A) (A) (A) (A) (A) (A) (A)
                 (A) (A) (A) (A) (A) (A) (A) (A) (A) (A) (A) (A)
                 (A) (A) (A) (A) (A) (A) (A) (A) (A) (A) (A) (A)
                 (A) (A) (A) (A) (A) (A) (A) (A) (A) (A) (A) (A)
                 (A) (A) (A) (A) (A) (A) (A) (A) (A) (A) (A) (A)
                 (A) (A) (A) (A) (A) (A) (A) (A) (A) (A) (A) (A)
                 (A) (A) (A) (A) (A) (A) (A) (A) (A) (A) (A) (A)
                 (A) (A) (A) (A) (A) (A) (A) (A) (A) (A) (A) (A)
                 (A) (A) (A) (A) (A) (A) (A) (A) (A) (A) (A)
       Virtual   (A) (A) (A) (A) (A) (A) (A) (A) (A) (A) (A) (A)
                 (A) (A) (A) (A) (A) (A) (A) (A) (A) (A) (A) (A)
                 (A) (A) (A) (A) (A) (A) (A) (A) (A) (A) (A) (A)
                 (A) (A) (A) (A) (A) (A) (A) (A) (A) (A) (A) (A)
                 (A) (A) (A) (A) (A) (A) (A) (A) (A) (A) (A) (A)
                 (A) (A) (A) (A) (A) (A) (A) (A) (A) (A) (A) (A)
                 (A) (A) (A) (A) (A) (A) (A) (A) (A) (A) (A) (A)
                 (A) (A) (A) (A) (A) (A) (A) (A) (A) (A) (A) (A)
                 (A) (A) (A) (A) (A) (A) (A) (A) (A) (A) (A) (A)
                 (A) (A) (A) (A) (A) (A) (A) (A) (A) (A) (A) (A)
                 (A) (A) (A) (A) (A) (A) (A) (A) (A) (A) (A) (A)
                 (A) (A) (A) (A) (A) (A) (A) (A) (A) (A) (A) (A)
                 (A) (A) (A) (A) (A) (A) (A) (A) (A) (A) (A) (A)
                 (A) (A) (A) (A) (A) (A) (A) (A) (A) (A) (A) (A)
                 (A) (A) (A) (A) (A) (A) (A) (A) (A) (A) (A) (A)
                 (A) (A) (A) (A) (A) (A) (A) (A) (A) (A) (A) (A)
                 (A) (A) (A) (A) (A) (A) (A) (A) (A) (A) (A) (A)
                 (A) (A) (A) (A) (A) (A) (A) (A) (A) (A) (A) (A)
                 (A) (A) (A) (A) (A) (A) (A) (A) (A) (A) (A) (A)
                 (A) (A) (A) (A) (A) (A) (A) (A) (A) (A) (A) (A)
                 (A) (A) (A) (A) (A) (A) (A) (A) (A) (A) (A) (A)
                 (A) (A) (A) (A) (A) (A) (A) (A) (A) (A) (A) (A)
                 (A) (A) (A) (A) (A) (A) (A) (A) (A) (A) (A) (A)
                 (A) (A) (A) (A) (A) (A) (A) (A) (A) (A) (A) (A)
                 (A) (A) (A) (A) (A) (A) (A) (A) (A) (A) (A) (A)
                 (A) (A) (A) (A) (A) (A) (A) (A) (A) (A) (A) (A)
                 (A) (A) (A) (A) (A) (A) (A) (A) (A) (A) (A) (A)
                 (A) (A) (A) (A) (A) (A) (A) (A) (A) (A) (A) (A)
                 (A) (A) (A) (A) (A) (A) (A) (A) (A) (A) (A) (A)
                 (A) (A) (A) (A) (A) (A) (A) (A) (A) (A) (A) (A)
                 (A) (A) (A) (A) (A) (A) (A) (A) (A) (A) (A) (A)
                 (A) (A) (A) (A) (A) (A) (A) (A) (A) (A) (A) (A)
                 (A) (A) (A) (A) (A) (A) (A) (A) (A) (A) (A) (A)
                 (A) (A) (A) (A) (A) (A) (A) (A) (A) (A) (A) (A)
                 (A) (A) (A) (A) (A) (A) (A) (A) (A) (A) (A) (A)
                 (A) (A) (A) (A) (A) (A) (A) (A) (A) (A) (A) (A)
                 (A) (A) (A) (A) (A) (A) (A) (A) (A) (A) (A) (A)
                 (A) (A) (A) (A) (A) (A) (A) (A) (A) (A) (A) (A)
                 (A) (A) (A) (A) (A) (A) (A) (A) (A) (A) (A) (A)
                 (A) (A) (A) (A) (A) (A) (A) (A) (A) (A) (A) (A)
                 (A) (A) (A) (A) (A) (A) (A) (A) (A) (A) (A) (A)
                 (A) (A) (A) (A) (A) (A) (A) (A) (A) (A) (A) (A)
                 (A) (A) (A) (A) (A) (A) (A) (A) (A) (A) (A) (A)
                 (A) (A) (A) (A) (A) (A) (A) (A) (A) (A) (A) (A)
                 (A) (A) (A) (A) (A) (A) (A) (A) (A) (A) (A) (A)
                 (A) (A) (A) (A) (A) (A) (A) (A) (A) (A) (A) (A)
                 (A) (A) (A) (A) (A) (A) (A) (A) (A) (A) (A) (A)
                 (A) (A) (A) (A) (A) (A) (A) (A) (A) (A) (A) (A)
                 (A) (A) (A) (A) (A) (A) (A) (A) (A) (A) (A) (A)
                 (A) (A) (A) (A) (A) (A) (A) (A) (A) (A) (A) (A)
                 (A) (A) (A) (A) (A) (A) (A) (A) (A) (A) (A) (A)
                 (A) (A) (A) (A) (A) (A) (A) (A) (A) (A) (A) (A)
                 (A) (A) (A)
 The electronic state is 1-A.
 Alpha  occ. eigenvalues --  -19.20825 -19.17481 -19.13162 -19.12521 -19.12320
 Alpha  occ. eigenvalues --  -19.11092 -14.37060 -14.35676 -14.35169 -14.29596
 Alpha  occ. eigenvalues --  -10.33305 -10.31568 -10.29421 -10.27968 -10.25012
 Alpha  occ. eigenvalues --  -10.24389 -10.24379 -10.24095 -10.23554 -10.23418
 Alpha  occ. eigenvalues --  -10.23203 -10.23188 -10.22956 -10.22086 -10.22014
 Alpha  occ. eigenvalues --  -10.21299 -10.21139 -10.20996 -10.20800 -10.20528
 Alpha  occ. eigenvalues --  -10.20519 -10.20436 -10.20229 -10.20216 -10.20122
 Alpha  occ. eigenvalues --  -10.19846 -10.19744 -10.19631 -10.19555 -10.19457
 Alpha  occ. eigenvalues --  -10.18521 -10.18217 -10.18026  -1.07672  -1.07536
 Alpha  occ. eigenvalues --   -1.03800  -1.03669  -0.98856  -0.97580  -0.97426
 Alpha  occ. eigenvalues --   -0.95429  -0.94595  -0.93175  -0.83082  -0.82536
 Alpha  occ. eigenvalues --   -0.81824  -0.81094  -0.80804  -0.78418  -0.77477
 Alpha  occ. eigenvalues --   -0.76957  -0.76720  -0.76167  -0.74501  -0.72140
 Alpha  occ. eigenvalues --   -0.72023  -0.71274  -0.70316  -0.69319  -0.67249
 Alpha  occ. eigenvalues --   -0.66372  -0.65306  -0.63910  -0.61500  -0.60976
 Alpha  occ. eigenvalues --   -0.59345  -0.58273  -0.57907  -0.57511  -0.55836
 Alpha  occ. eigenvalues --   -0.55397  -0.55126  -0.54343  -0.53779  -0.53244
 Alpha  occ. eigenvalues --   -0.52714  -0.51374  -0.50310  -0.49775  -0.49107
 Alpha  occ. eigenvalues --   -0.48621  -0.48443  -0.48362  -0.47980  -0.47797
 Alpha  occ. eigenvalues --   -0.47139  -0.46937  -0.46727  -0.46177  -0.45675
 Alpha  occ. eigenvalues --   -0.44997  -0.44944  -0.44649  -0.44432  -0.44208
 Alpha  occ. eigenvalues --   -0.44052  -0.43734  -0.43403  -0.42680  -0.42494
 Alpha  occ. eigenvalues --   -0.42406  -0.41868  -0.41762  -0.41292  -0.40937
 Alpha  occ. eigenvalues --   -0.40929  -0.40596  -0.40175  -0.40083  -0.39988
 Alpha  occ. eigenvalues --   -0.39582  -0.39498  -0.39188  -0.38969  -0.38849
 Alpha  occ. eigenvalues --   -0.38491  -0.38261  -0.37455  -0.37338  -0.36902
 Alpha  occ. eigenvalues --   -0.35879  -0.35749  -0.35556  -0.35191  -0.35075
 Alpha  occ. eigenvalues --   -0.34412  -0.34024  -0.32755  -0.31611  -0.31273
 Alpha  occ. eigenvalues --   -0.30834  -0.30712  -0.29259  -0.28562  -0.28472
 Alpha  occ. eigenvalues --   -0.27516  -0.26734  -0.26326  -0.26249  -0.25745
 Alpha  occ. eigenvalues --   -0.24487  -0.24293  -0.23691  -0.22622  -0.19652
 Alpha virt. eigenvalues --   -0.10345  -0.05764  -0.04835  -0.03078  -0.01857
 Alpha virt. eigenvalues --   -0.00947  -0.00528   0.00567   0.00966   0.02873
 Alpha virt. eigenvalues --    0.03030   0.03994   0.04724   0.04997   0.05219
 Alpha virt. eigenvalues --    0.06216   0.06682   0.06825   0.06956   0.07082
 Alpha virt. eigenvalues --    0.07479   0.07639   0.08230   0.08283   0.08627
 Alpha virt. eigenvalues --    0.08751   0.09911   0.10302   0.10442   0.10879
 Alpha virt. eigenvalues --    0.11169   0.11369   0.11777   0.12283   0.12516
 Alpha virt. eigenvalues --    0.12612   0.13146   0.13308   0.13472   0.13988
 Alpha virt. eigenvalues --    0.14158   0.14512   0.14814   0.14978   0.15602
 Alpha virt. eigenvalues --    0.15736   0.15919   0.16364   0.16808   0.16882
 Alpha virt. eigenvalues --    0.17630   0.18156   0.18870   0.19134   0.19301
 Alpha virt. eigenvalues --    0.19709   0.19864   0.20226   0.21020   0.21404
 Alpha virt. eigenvalues --    0.21665   0.22168   0.22780   0.23089   0.23957
 Alpha virt. eigenvalues --    0.24287   0.24539   0.24995   0.25205   0.25837
 Alpha virt. eigenvalues --    0.26147   0.26962   0.27082   0.27365   0.27979
 Alpha virt. eigenvalues --    0.28478   0.29178   0.30081   0.30532   0.30857
 Alpha virt. eigenvalues --    0.31489   0.32029   0.32357   0.33403   0.33780
 Alpha virt. eigenvalues --    0.34844   0.35184   0.35628   0.35895   0.36555
 Alpha virt. eigenvalues --    0.36905   0.37015   0.37193   0.38420   0.39105
 Alpha virt. eigenvalues --    0.39194   0.40049   0.40383   0.41252   0.41353
 Alpha virt. eigenvalues --    0.41838   0.42091   0.42463   0.42612   0.43144
 Alpha virt. eigenvalues --    0.43404   0.43974   0.44231   0.44471   0.44630
 Alpha virt. eigenvalues --    0.44660   0.44975   0.45450   0.45804   0.46054
 Alpha virt. eigenvalues --    0.46270   0.46578   0.46840   0.47017   0.47372
 Alpha virt. eigenvalues --    0.47777   0.48613   0.48911   0.49220   0.49335
 Alpha virt. eigenvalues --    0.49914   0.50340   0.50733   0.50817   0.51071
 Alpha virt. eigenvalues --    0.51350   0.51645   0.52238   0.52504   0.52647
 Alpha virt. eigenvalues --    0.53365   0.53833   0.54251   0.54547   0.54913
 Alpha virt. eigenvalues --    0.55283   0.55449   0.55906   0.56936   0.57115
 Alpha virt. eigenvalues --    0.57226   0.57437   0.57874   0.58304   0.58882
 Alpha virt. eigenvalues --    0.58990   0.59207   0.59564   0.59733   0.60014
 Alpha virt. eigenvalues --    0.60359   0.60706   0.61055   0.61333   0.61472
 Alpha virt. eigenvalues --    0.61917   0.62229   0.62285   0.62725   0.62986
 Alpha virt. eigenvalues --    0.63339   0.63708   0.64151   0.64564   0.64839
 Alpha virt. eigenvalues --    0.65029   0.65133   0.65872   0.66095   0.66423
 Alpha virt. eigenvalues --    0.66537   0.66825   0.67077   0.67275   0.67428
 Alpha virt. eigenvalues --    0.67641   0.67792   0.67988   0.68279   0.68689
 Alpha virt. eigenvalues --    0.68870   0.68912   0.69036   0.69445   0.69469
 Alpha virt. eigenvalues --    0.69802   0.70129   0.70709   0.71013   0.71636
 Alpha virt. eigenvalues --    0.71763   0.71828   0.72491   0.72555   0.73017
 Alpha virt. eigenvalues --    0.73331   0.73469   0.73807   0.74214   0.74548
 Alpha virt. eigenvalues --    0.74973   0.75427   0.75761   0.76179   0.76327
 Alpha virt. eigenvalues --    0.76829   0.77055   0.77275   0.78116   0.78423
 Alpha virt. eigenvalues --    0.78649   0.79096   0.79319   0.79819   0.81422
 Alpha virt. eigenvalues --    0.81634   0.82186   0.82241   0.82886   0.83670
 Alpha virt. eigenvalues --    0.84569   0.85154   0.85436   0.86147   0.86844
 Alpha virt. eigenvalues --    0.87435   0.87843   0.88928   0.89827   0.90378
 Alpha virt. eigenvalues --    0.91001   0.91494   0.92294   0.92528   0.92683
 Alpha virt. eigenvalues --    0.93534   0.93670   0.94227   0.94617   0.94721
 Alpha virt. eigenvalues --    0.94986   0.95103   0.95984   0.96415   0.96990
 Alpha virt. eigenvalues --    0.98365   0.99070   0.99199   1.00654   1.01776
 Alpha virt. eigenvalues --    1.02139   1.02910   1.03691   1.04335   1.04995
 Alpha virt. eigenvalues --    1.05757   1.06611   1.07309   1.07491   1.09507
 Alpha virt. eigenvalues --    1.09963   1.10229   1.10938   1.11808   1.12513
 Alpha virt. eigenvalues --    1.13026   1.13886   1.14789   1.14806   1.15793
 Alpha virt. eigenvalues --    1.16169   1.16312   1.16964   1.17416   1.18046
 Alpha virt. eigenvalues --    1.18765   1.19101   1.20055   1.20798   1.20982
 Alpha virt. eigenvalues --    1.21897   1.22087   1.22457   1.23124   1.23321
 Alpha virt. eigenvalues --    1.24378   1.24637   1.25677   1.26237   1.27005
 Alpha virt. eigenvalues --    1.27782   1.28082   1.28997   1.29390   1.29712
 Alpha virt. eigenvalues --    1.31040   1.31218   1.31862   1.32064   1.32958
 Alpha virt. eigenvalues --    1.34206   1.34391   1.35273   1.35641   1.37166
 Alpha virt. eigenvalues --    1.37325   1.37909   1.38721   1.39199   1.40324
 Alpha virt. eigenvalues --    1.40512   1.41069   1.41546   1.41932   1.43300
 Alpha virt. eigenvalues --    1.44584   1.45135   1.46165   1.47165   1.47591
 Alpha virt. eigenvalues --    1.47982   1.48560   1.49028   1.49527   1.49965
 Alpha virt. eigenvalues --    1.50460   1.51037   1.51755   1.51915   1.52917
 Alpha virt. eigenvalues --    1.53210   1.54190   1.54351   1.54889   1.55679
 Alpha virt. eigenvalues --    1.56248   1.56830   1.57507   1.57817   1.58285
 Alpha virt. eigenvalues --    1.59316   1.59734   1.60267   1.60612   1.61055
 Alpha virt. eigenvalues --    1.61456   1.62650   1.62912   1.63306   1.64308
 Alpha virt. eigenvalues --    1.64780   1.65101   1.65482   1.66001   1.66452
 Alpha virt. eigenvalues --    1.66744   1.66970   1.67541   1.67720   1.67826
 Alpha virt. eigenvalues --    1.68023   1.68386   1.68942   1.69340   1.70026
 Alpha virt. eigenvalues --    1.70555   1.70916   1.71442   1.71653   1.72018
 Alpha virt. eigenvalues --    1.72382   1.72921   1.73645   1.74183   1.74818
 Alpha virt. eigenvalues --    1.75067   1.75613   1.76223   1.76817   1.77141
 Alpha virt. eigenvalues --    1.77215   1.77487   1.77854   1.78221   1.79004
 Alpha virt. eigenvalues --    1.79234   1.79880   1.79885   1.80121   1.80242
 Alpha virt. eigenvalues --    1.81292   1.81792   1.81929   1.82534   1.82828
 Alpha virt. eigenvalues --    1.83031   1.83463   1.83919   1.84331   1.84575
 Alpha virt. eigenvalues --    1.85038   1.85216   1.85308   1.86062   1.86635
 Alpha virt. eigenvalues --    1.87043   1.87721   1.88546   1.88848   1.89783
 Alpha virt. eigenvalues --    1.89962   1.90509   1.91313   1.91535   1.91777
 Alpha virt. eigenvalues --    1.92088   1.92530   1.93130   1.93458   1.94028
 Alpha virt. eigenvalues --    1.94202   1.94965   1.95741   1.96170   1.96294
 Alpha virt. eigenvalues --    1.96425   1.97114   1.97901   1.98330   1.98690
 Alpha virt. eigenvalues --    1.99016   1.99641   2.00179   2.00894   2.01785
 Alpha virt. eigenvalues --    2.02626   2.02992   2.03749   2.04009   2.04620
 Alpha virt. eigenvalues --    2.05378   2.05547   2.06191   2.06986   2.07572
 Alpha virt. eigenvalues --    2.07795   2.09261   2.09857   2.10466   2.10822
 Alpha virt. eigenvalues --    2.11039   2.11527   2.12006   2.13083   2.13291
 Alpha virt. eigenvalues --    2.13792   2.13996   2.14323   2.15562   2.15983
 Alpha virt. eigenvalues --    2.16192   2.16436   2.17452   2.18342   2.18683
 Alpha virt. eigenvalues --    2.19216   2.19817   2.20012   2.20923   2.21984
 Alpha virt. eigenvalues --    2.22084   2.23146   2.23651   2.24165   2.24889
 Alpha virt. eigenvalues --    2.25298   2.25634   2.27661   2.27796   2.29356
 Alpha virt. eigenvalues --    2.29398   2.30342   2.30979   2.32041   2.32327
 Alpha virt. eigenvalues --    2.33073   2.33571   2.33906   2.34660   2.35162
 Alpha virt. eigenvalues --    2.35618   2.36210   2.37133   2.37261   2.38743
 Alpha virt. eigenvalues --    2.39586   2.39971   2.40316   2.40808   2.41794
 Alpha virt. eigenvalues --    2.42600   2.43249   2.43451   2.44096   2.44540
 Alpha virt. eigenvalues --    2.45527   2.46889   2.47458   2.48886   2.49437
 Alpha virt. eigenvalues --    2.50173   2.51231   2.51685   2.52075   2.53741
 Alpha virt. eigenvalues --    2.54139   2.55193   2.55548   2.56220   2.56672
 Alpha virt. eigenvalues --    2.57887   2.58096   2.59644   2.60430   2.60651
 Alpha virt. eigenvalues --    2.61901   2.62918   2.63757   2.64585   2.65154
 Alpha virt. eigenvalues --    2.65498   2.66132   2.66743   2.67047   2.68362
 Alpha virt. eigenvalues --    2.68453   2.69070   2.69491   2.69933   2.70572
 Alpha virt. eigenvalues --    2.71494   2.71872   2.72109   2.72460   2.72765
 Alpha virt. eigenvalues --    2.73676   2.74303   2.75221   2.76374   2.76886
 Alpha virt. eigenvalues --    2.77686   2.78015   2.79121   2.79908   2.81033
 Alpha virt. eigenvalues --    2.81235   2.81630   2.82388   2.83223   2.83573
 Alpha virt. eigenvalues --    2.84970   2.85612   2.86283   2.86943   2.87543
 Alpha virt. eigenvalues --    2.88768   2.89104   2.89452   2.90379   2.90977
 Alpha virt. eigenvalues --    2.91525   2.92209   2.93366   2.93639   2.94602
 Alpha virt. eigenvalues --    2.95179   2.95974   2.96939   2.96964   2.97764
 Alpha virt. eigenvalues --    2.98996   3.01462   3.02257   3.03703   3.04668
 Alpha virt. eigenvalues --    3.04936   3.07039   3.08517   3.10004   3.10906
 Alpha virt. eigenvalues --    3.11991   3.12759   3.13044   3.13124   3.16013
 Alpha virt. eigenvalues --    3.16351   3.16663   3.19283   3.20158   3.20694
 Alpha virt. eigenvalues --    3.21732   3.23401   3.25877   3.26735   3.28208
 Alpha virt. eigenvalues --    3.29283   3.32024   3.35673   3.38898   3.39811
 Alpha virt. eigenvalues --    3.40562   3.42430   3.47448   3.53359   3.53779
 Alpha virt. eigenvalues --    3.56757   3.58046   3.60960   3.65436   3.68446
 Alpha virt. eigenvalues --    3.69576   3.79473
          Condensed to atoms (all electrons):
 Mulliken charges:
               1
     1  O   -0.170575
     2  O   -0.195875
     3  O   -0.269110
     4  O   -0.266323
     5  O   -0.307810
     6  O   -0.165970
     7  N   -0.210794
     8  N   -0.200846
     9  N   -0.102917
    10  N   -0.284570
    11  C    0.061242
    12  C    0.141402
    13  C   -0.034261
    14  C   -0.122424
    15  C   -0.059035
    16  C    0.094045
    17  C   -0.182863
    18  C    0.090972
    19  C   -0.003921
    20  C   -0.154435
    21  C    0.177576
    22  C    0.181937
    23  C   -0.074991
    24  C    0.165185
    25  C    0.168010
    26  C   -0.023777
    27  C   -0.093097
    28  C    0.011479
    29  C   -0.016713
    30  C   -0.102805
    31  C   -0.076741
    32  C    0.012060
    33  C   -0.029593
    34  C    0.174682
    35  C    0.133719
    36  C   -0.067440
    37  C    0.197620
    38  C    0.018628
    39  C   -0.212256
    40  C    0.169359
    41  C   -0.009438
    42  C    0.166587
    43  C    0.005336
    44  H    0.017206
    45  H   -0.001061
    46  H    0.034875
    47  H    0.112691
    48  H    0.098446
    49  H    0.017121
    50  H    0.023801
    51  H    0.018679
    52  H    0.009356
    53  H    0.006658
    54  H   -0.011121
    55  H    0.029440
    56  H    0.018343
    57  H   -0.006116
    58  H    0.099213
    59  H    0.043147
    60  H    0.134872
    61  H    0.055301
    62  H    0.062943
    63  H    0.036996
    64  H    0.078335
    65  H    0.075240
    66  H    0.001735
    67  H    0.055569
    68  H    0.053747
    69  H   -0.096827
    70  H    0.001992
    71  H    0.041161
    72  H    0.153627
    73  H    0.002533
    74  H    0.022807
    75  H   -0.025958
    76  H    0.031175
    77  H    0.269683
    78  H    0.006828
    79  H   -0.003696
 Sum of Mulliken charges =   0.00000
 Mulliken charges with hydrogens summed into heavy atoms:
               1
     1  O   -0.170575
     2  O   -0.042248
     3  O   -0.269110
     4  O    0.003361
     5  O   -0.307810
     6  O   -0.165970
     7  N   -0.098104
     8  N   -0.102399
     9  N    0.031955
    10  N   -0.284570
    11  C    0.078447
    12  C    0.175216
    13  C   -0.034261
    14  C   -0.122424
    15  C   -0.059035
    16  C    0.094045
    17  C   -0.182863
    18  C    0.131894
    19  C   -0.003921
    20  C   -0.135756
    21  C    0.177576
    22  C    0.181937
    23  C   -0.074991
    24  C    0.170078
    25  C    0.209677
    26  C   -0.023777
    27  C    0.049263
    28  C    0.011479
    29  C    0.101532
    30  C   -0.065809
    31  C    0.076834
    32  C    0.123111
    33  C   -0.126420
    34  C    0.174682
    35  C    0.133719
    36  C   -0.024286
    37  C    0.197620
    38  C    0.018628
    39  C   -0.212256
    40  C    0.169359
    41  C   -0.006904
    42  C    0.194611
    43  C    0.008468
 Electronic spatial extent (au):  <R**2>=          32589.4060
 Charge=              0.0000 electrons
 Dipole moment (field-independent basis, Debye):
    X=             -0.8902    Y=              1.6761    Z=              2.3977  Tot=              3.0579
 Quadrupole moment (field-independent basis, Debye-Ang):
   XX=           -223.8763   YY=           -240.1429   ZZ=           -266.9802
   XY=             -8.5130   XZ=             32.9552   YZ=              7.4192
 Traceless Quadrupole moment (field-independent basis, Debye-Ang):
   XX=             19.7902   YY=              3.5235   ZZ=            -23.3137
   XY=             -8.5130   XZ=             32.9552   YZ=              7.4192
 Octapole moment (field-independent basis, Debye-Ang**2):
  XXX=            -28.7303  YYY=            155.4285  ZZZ=             63.8160  XYY=            -89.0739
  XXY=            -61.0619  XXZ=             36.0169  XZZ=            -63.5357  YZZ=            -28.0150
  YYZ=             65.7350  XYZ=            -20.5136
 Hexadecapole moment (field-independent basis, Debye-Ang**3):
 XXXX=         -24183.8177 YYYY=         -11137.0331 ZZZZ=          -5015.0405 XXXY=            -23.1712
 XXXZ=            638.1858 YYYX=            -44.7268 YYYZ=            870.3789 ZZZX=            195.1732
 ZZZY=            -89.9024 XXYY=          -6132.6968 XXZZ=          -5388.4225 YYZZ=          -2948.8669
 XXYZ=            -55.8686 YYXZ=             56.4711 ZZXY=             38.2201
 N-N= 4.896231548988D+03 E-N=-1.432085555375D+04  KE= 1.927072197717D+03
 1\1\GINC-PEDRO-RYZENSSD\SP\RB3LYP TD-FC\SVP\C33H36N4O6\PADAWAN\08-Jul-
 2019\0\\# td=(NStates=1) B3LYP/SVP\\TD\\0,1\O,0,-5.4955649183,0.151419
 2569,-3.3602388567\O,0,2.7809649226,3.2750532287,3.3051767821\O,0,3.22
 14828861,0.9708120903,3.158977859\O,0,1.3473188678,-7.2565515596,1.528
 9633061\O,0,0.8297097204,-7.0387447785,-0.7063945707\O,0,1.9406075201,
 4.0144444114,-0.0698987255\N,0,-2.3678873914,-0.986663673,0.4596724943
 \N,0,-4.3923131352,0.6917834269,-1.3076326954\N,0,1.8548652136,-0.7185
 638374,-0.4694783859\N,0,2.7357148419,1.7995684069,-0.5069781728\C,0,-
 4.8714993962,1.2435245319,-0.0964191854\C,0,-4.517976403,0.2921856363,
 1.1670487656\C,0,-2.9514185981,0.1334782302,1.2824335835\C,0,-2.016806
 725,0.5677489219,2.1001208103\C,0,-0.7818920767,0.0733887804,1.7392126
 835\C,0,-0.952059581,-0.8509302021,0.7344401523\C,0,-6.3486309605,1.43
 52752834,-0.2210205159\C,0,0.5579592792,0.3057685,2.473972066\C,0,-6.7
 399664283,0.9757998852,-1.3873795957\C,0,-0.1609518372,-1.8981551166,0
 .1669138671\C,0,1.0618891001,-1.8238648991,-0.3393327265\C,0,-5.476985
 7567,0.5027799712,-2.2201914599\C,0,2.0280586758,-2.9267262486,-0.7585
 411707\C,0,-2.2906258038,1.5653482668,3.417780418\C,0,-7.162318224,2.1
 629318292,0.805611175\C,0,3.1920247308,-2.4814401683,-1.2025514122\C,0
 ,1.068333606,1.7645295952,2.5483000484\C,0,3.1539619372,-1.0023396734,
 -0.966100241\C,0,1.6017857165,-4.4560799876,-0.8350219761\C,0,-8.02987
 97089,0.8763321976,-1.9667113931\C,0,1.4424259327,-5.000136256,0.64876
 12026\C,0,4.3901167281,-3.0217934451,-1.7902110185\C,0,4.0740963518,0.
 0268143432,-1.2387240675\C,0,2.4692595414,1.9448986642,2.9412840335\C,
 0,3.8257270986,1.3610153578,-1.0095367244\C,0,-9.2312813011,0.64952279
 61,-1.3360023628\C,0,1.1207393823,-6.5138201115,0.4301438071\C,0,4.739
 3179967,2.5115132063,-1.4757312996\C,0,4.1305986944,3.6767518354,-1.05
 78653578\C,0,2.7786566217,3.24288599,-0.4375423012\C,0,6.1188498894,2.
 2289047619,-2.1105225811\C,0,4.5022310165,5.0083223494,-1.0756602379\C
 ,0,6.9123987913,3.0346598874,-2.7905237205\H,0,-4.4744253932,2.2688419
 291,-0.0091713751\H,0,-4.9895073798,-0.6524302341,0.9211333616\H,0,-4.
 975537673,0.9058148106,2.1516973042\H,0,-2.7732547359,-1.3655434118,-0
 .3688692782\H,0,-3.4598016735,0.5843615124,-1.498647062\H,0,0.47380396
 47,0.0124312166,3.5804533775\H,0,1.4209805421,-0.2616160456,2.09283760
 42\H,0,-0.7205425468,-2.8852864919,0.0046602844\H,0,-3.3980219542,1.65
 45620415,3.5865448221\H,0,-1.6947843378,1.360374665,4.2648562102\H,0,-
 1.9775805574,2.4861672525,3.18236039\H,0,-6.3218060757,2.9339923513,1.
 1817262914\H,0,-7.4047831866,1.6325895874,1.6930217248\H,0,-8.03026151
 75,2.4628484549,0.4355225495\H,0,0.950677249,2.1839410021,1.4171517228
 \H,0,0.5327873188,2.5627443622,3.1789982543\H,0,1.8380094192,0.2669330
 835,-0.2031425404\H,0,2.355523811,-5.0046159848,-1.5585139136\H,0,0.51
 38394643,-4.6986697804,-1.2930820779\H,0,-8.3227475998,0.8433669707,-3
 .1151124232\H,0,0.5787008102,-4.5043047348,1.239063594\H,0,2.430074050
 3,-4.9840248815,1.3542893673\H,0,4.2223266765,-4.075625091,-1.98767782
 04\H,0,5.3362557471,-2.835132394,-0.9680817297\H,0,4.8560927056,-2.694
 8815438,-2.7824185642\H,0,4.9287056777,-0.3594800568,-1.6027369619\H,0
 ,-9.181727695,0.8279136886,-0.2361042966\H,0,-10.2016983349,0.39803418
 18,-1.8105908008\H,0,3.7072971611,3.0627288415,3.3500331855\H,0,6.4784
 728529,1.2018643929,-1.9392314263\H,0,4.3004810583,5.1773008221,-2.112
 9183468\H,0,4.0286908732,5.7514022101,-0.6390769909\H,0,5.6504768192,5
 .0946759222,-0.9986816163\H,0,1.172454784,-8.4004312856,1.1334230154\H
 ,0,7.8605173335,2.6849758039,-3.088327595\H,0,6.7226937137,4.004107982
 1,-3.1281157007\\Version=ES64L-G09RevD.01\State=1-A\HF=-1947.803867\RM
 SD=5.133e-09\PG=C01 [X(C33H36N4O6)]\\@


 TIMES HAVE CHANGED. IN THE BIBLE WHEN AN ASS
 SPOKE IT WAS CONSIDERED A MIRACLE.
 Job cpu time:       0 days  4 hours 17 minutes 55.3 seconds.
 File lengths (MBytes):  RWF=    769 Int=      0 D2E=      0 Chk=     58 Scr=      1
 Normal termination of Gaussian 09 at Mon Jul  8 10:17:07 2019.
