 Entering Gaussian System, Link 0=g16
 Input=Geometria-299-.com
 Output=Geometria-299-.log
 Initial command:
 /usr/local/g09/l1.exe "/home/padawan/israel-mol/dihydrobiliverdin/spectra/abs/Gau-62494.inp" -scrdir="/home/padawan/israel-mol/dihydrobiliverdin/spectra/abs/"
 Entering Link 1 = /usr/local/g09/l1.exe PID=     62496.
  
 Copyright (c) 1988,1990,1992,1993,1995,1998,2003,2009,2013,
            Gaussian, Inc.  All Rights Reserved.
  
 This is part of the Gaussian(R) 09 program.  It is based on
 the Gaussian(R) 03 system (copyright 2003, Gaussian, Inc.),
 the Gaussian(R) 98 system (copyright 1998, Gaussian, Inc.),
 the Gaussian(R) 94 system (copyright 1995, Gaussian, Inc.),
 the Gaussian 92(TM) system (copyright 1992, Gaussian, Inc.),
 the Gaussian 90(TM) system (copyright 1990, Gaussian, Inc.),
 the Gaussian 88(TM) system (copyright 1988, Gaussian, Inc.),
 the Gaussian 86(TM) system (copyright 1986, Carnegie Mellon
 University), and the Gaussian 82(TM) system (copyright 1983,
 Carnegie Mellon University). Gaussian is a federally registered
 trademark of Gaussian, Inc.
  
 This software contains proprietary and confidential information,
 including trade secrets, belonging to Gaussian, Inc.
  
 This software is provided under written license and may be
 used, copied, transmitted, or stored only in accord with that
 written license.
  
 The following legend is applicable only to US Government
 contracts under FAR:
  
                    RESTRICTED RIGHTS LEGEND
  
 Use, reproduction and disclosure by the US Government is
 subject to restrictions as set forth in subparagraphs (a)
 and (c) of the Commercial Computer Software - Restricted
 Rights clause in FAR 52.227-19.
  
 Gaussian, Inc.
 340 Quinnipiac St., Bldg. 40, Wallingford CT 06492
  
  
 ---------------------------------------------------------------
 Warning -- This program may not be used in any manner that
 competes with the business of Gaussian, Inc. or will provide
 assistance to any competitor of Gaussian, Inc.  The licensee
 of this program is prohibited from giving any competitor of
 Gaussian, Inc. access to this program.  By using this program,
 the user acknowledges that Gaussian, Inc. is engaged in the
 business of creating and licensing software in the field of
 computational chemistry and represents and warrants to the
 licensee that it is not a competitor of Gaussian, Inc. and that
 it will not use this program in any manner prohibited above.
 ---------------------------------------------------------------
  

 Cite this work as:
 Gaussian 09, Revision D.01,
 M. J. Frisch, G. W. Trucks, H. B. Schlegel, G. E. Scuseria, 
 M. A. Robb, J. R. Cheeseman, G. Scalmani, V. Barone, B. Mennucci, 
 G. A. Petersson, H. Nakatsuji, M. Caricato, X. Li, H. P. Hratchian, 
 A. F. Izmaylov, J. Bloino, G. Zheng, J. L. Sonnenberg, M. Hada, 
 M. Ehara, K. Toyota, R. Fukuda, J. Hasegawa, M. Ishida, T. Nakajima, 
 Y. Honda, O. Kitao, H. Nakai, T. Vreven, J. A. Montgomery, Jr., 
 J. E. Peralta, F. Ogliaro, M. Bearpark, J. J. Heyd, E. Brothers, 
 K. N. Kudin, V. N. Staroverov, T. Keith, R. Kobayashi, J. Normand, 
 K. Raghavachari, A. Rendell, J. C. Burant, S. S. Iyengar, J. Tomasi, 
 M. Cossi, N. Rega, J. M. Millam, M. Klene, J. E. Knox, J. B. Cross, 
 V. Bakken, C. Adamo, J. Jaramillo, R. Gomperts, R. E. Stratmann, 
 O. Yazyev, A. J. Austin, R. Cammi, C. Pomelli, J. W. Ochterski, 
 R. L. Martin, K. Morokuma, V. G. Zakrzewski, G. A. Voth, 
 P. Salvador, J. J. Dannenberg, S. Dapprich, A. D. Daniels, 
 O. Farkas, J. B. Foresman, J. V. Ortiz, J. Cioslowski, 
 and D. J. Fox, Gaussian, Inc., Wallingford CT, 2013.
 
 ******************************************
 Gaussian 09:  ES64L-G09RevD.01 24-Apr-2013
                 9-Jul-2019 
 ******************************************
 %nproc=4
 Will use up to    4 processors via shared memory.
 %Mem=2GB
 --------------------------
 # td=(NStates=1) B3LYP/SVP
 --------------------------
 1/38=1/1;
 2/12=2,17=6,18=5,40=1/2;
 3/5=18,7=101,11=9,16=1,25=1,30=1,74=-5/1,2,8,3;
 4//1;
 5/5=2,38=5/2;
 8/6=1,10=1,108=1/1;
 9/41=1,42=1,70=2/14;
 6/7=2,8=2,9=2,10=2/1;
 99/5=1,9=1/99;
 --
 TD
 --
 Symbolic Z-matrix:
 Charge =  0 Multiplicity = 1
 8                    -5.24381   0.25489  -3.31862 
 8                     2.89553   3.00112   3.18283 
 8                     3.23793   0.83512   3.32071 
 8                     1.72693  -7.14934   1.5427 
 8                     0.32436  -7.02355  -0.19588 
 8                     1.90468   4.02378  -0.07411 
 7                    -2.41309  -0.93337   0.59929 
 7                    -4.38916   0.88632  -1.21928 
 7                     1.91299  -0.6866   -0.437 
 7                     2.67006   1.88622  -0.42809 
 6                    -4.82726   1.20248   0.11531 
 6                    -4.54474   0.20167   1.25105 
 6                    -3.04512  -0.0325    1.3618 
 6                    -2.00809   0.5836    2.13689 
 6                    -0.80882  -0.06139   1.92536 
 6                    -1.08907  -0.98414   0.82996 
 6                    -6.26209   1.41496  -0.23786 
 6                     0.5387    0.16244   2.51608 
 6                    -6.60458   0.96903  -1.4711 
 6                    -0.13119  -1.88908   0.20016 
 6                     1.07425  -1.82218  -0.37433 
 6                    -5.3534    0.64387  -2.23887 
 6                     1.97071  -2.89292  -0.90761 
 6                    -2.12095   1.78443   3.06565 
 6                    -7.2362    1.73961   0.8559 
 6                     3.10762  -2.40207  -1.26933 
 6                     1.05445   1.64453   2.55521 
 6                     3.08524  -1.02984  -0.97241 
 6                     1.45288  -4.34012  -0.81425 
 6                    -7.85062   1.01685  -2.1253 
 6                     1.72509  -5.07237   0.43248 
 6                     4.29532  -3.0887   -1.97034 
 6                     3.95759   0.02871  -1.30882 
 6                     2.50732   1.77169   3.09047 
 6                     3.7169    1.38118  -1.11604 
 6                    -9.1573    0.78286  -1.68448 
 6                     1.16373  -6.50044   0.51046 
 6                     4.68579   2.5426   -1.51592 
 6                     4.08892   3.75168  -1.19016 
 6                     2.7225    3.31948  -0.53835 
 6                     5.93921   2.25438  -2.09858 
 6                     4.52587   5.14206  -1.38252 
 6                     6.91671   3.13596  -2.51543 
 1                    -4.47108   2.25209   0.35237 
 1                    -5.12688  -0.91983   1.05129 
 1                    -5.12382   0.63969   2.1427 
 1                    -2.82782  -1.27857  -0.16974 
 1                    -3.38849   0.96091  -1.61387 
 1                     0.54456  -0.23261   3.62027 
 1                     1.4955   -0.38486   2.07355 
 1                    -0.71713  -2.8475   -0.04695 
 1                    -3.25715   2.07548   3.56371 
 1                    -1.51106   1.58866   4.06437 
 1                    -1.78318   2.74838   2.58718 
 1                    -6.97438   2.35557   1.45294 
 1                    -7.44308   0.89222   1.60102 
 1                    -8.23577   2.2054    0.60808 
 1                     1.22138   1.99936   1.52566 
 1                     0.35585   2.48063   2.95414 
 1                     1.90663   0.31447  -0.17629 
 1                     1.85293  -4.78554  -1.75768 
 1                     0.36906  -4.26962  -0.9511 
 1                    -7.79767   1.04459  -3.33332 
 1                     1.5406   -4.48512   1.44857 
 1                     2.71032  -5.25605   0.58285 
 1                     4.11624  -4.2054   -2.05631 
 1                     5.21227  -2.83147  -1.35173 
 1                     4.44431  -2.43391  -2.91847 
 1                     4.69781  -0.2924   -2.03211 
 1                    -9.43535   0.56966  -0.58693 
 1                    -9.92093   0.89565  -2.30803 
 1                     3.653     2.99273   3.6129 
 1                     6.24554   1.18027  -2.14237 
 1                     4.28549   5.5213   -2.42749 
 1                     3.94021   5.72495  -0.74645 
 1                     5.61348   5.33875  -1.3104 
 1                     1.30548  -8.01835   1.7463 
 1                     7.86298   2.71996  -2.94651 
 1                     6.56858   4.20854  -2.59835 
 
 Stoichiometry    C33H36N4O6
 Framework group  C1[X(C33H36N4O6)]
 Deg. of freedom   231
 Full point group                 C1      NOp   1
 Largest Abelian subgroup         C1      NOp   1
 Largest concise Abelian subgroup C1      NOp   1
                         Standard orientation:                         
 ---------------------------------------------------------------------
 Center     Atomic      Atomic             Coordinates (Angstroms)
 Number     Number       Type             X           Y           Z
 ---------------------------------------------------------------------
      1          8           0        5.246809   -0.334177   -3.305542
      2          8           0       -2.881805   -2.911296    3.278045
      3          8           0       -3.234970   -0.743718    3.346463
      4          8           0       -1.762614    7.187163    1.314387
      5          8           0       -0.358655    7.012772   -0.418875
      6          8           0       -1.884449   -4.032697    0.055775
      7          7           0        2.408484    0.964768    0.571518
      8          7           0        4.394341   -0.902358   -1.187328
      9          7           0       -1.915858    0.663562   -0.457612
     10          7           0       -2.660212   -1.911371   -0.366631
     11          6           0        4.833396   -1.173489    0.156828
     12          6           0        4.545416   -0.138269    1.259883
     13          6           0        3.044606    0.091891    1.362648
     14          6           0        2.010279   -0.504226    2.156748
     15          6           0        0.807943    0.127727    1.924336
     16          6           0        1.084126    1.016340    0.800059
     17          6           0        6.269415   -1.390054   -0.188946
     18          6           0       -0.538724   -0.083771    2.521513
     19          6           0        6.610257   -0.982107   -1.435715
     20          6           0        0.122069    1.895918    0.141348
     21          6           0       -1.082765    1.804708   -0.431056
     22          6           0        5.357834   -0.687876   -2.213867
     23          6           0       -1.984264    2.853388   -0.998579
     24          6           0        2.128652   -1.674159    3.123471
     25          6           0        7.244615   -1.674720    0.914925
     26          6           0       -3.118565    2.345595   -1.344749
     27          6           0       -1.047170   -1.566379    2.607887
     28          6           0       -3.089541    0.983693   -1.004079
     29          6           0       -1.473629    4.305376   -0.951414
     30          6           0        7.856813   -1.044656   -2.087683
     31          6           0       -1.750020    5.075780    0.271172
     32          6           0       -4.309326    3.003558   -2.067716
     33          6           0       -3.956509   -0.089390   -1.306711
     34          6           0       -2.499638   -1.683548    3.146512
     35          6           0       -3.709220   -1.433785   -1.070690
     36          6           0        9.162123   -0.790217   -1.654189
     37          6           0       -1.195755    6.508370    0.303596
     38          6           0       -4.672187   -2.612184   -1.433495
     39          6           0       -4.069502   -3.807258   -1.069051
     40          6           0       -2.705525   -3.347674   -0.431002
     41          6           0       -5.926751   -2.348961   -2.025452
     42          6           0       -4.499491   -5.205223   -1.216966
     43          6           0       -6.899693   -3.248255   -2.414170
     44          1           0        4.482287   -2.216730    0.427241
     45          1           0        5.122102    0.979129    1.024519
     46          1           0        5.126252   -0.544672    2.165258
     47          1           0        2.821850    1.287248   -0.208035
     48          1           0        3.394232   -0.994481   -1.579619
     49          1           0       -0.547039    0.346372    3.612499
     50          1           0       -1.498016    0.444352    2.061419
     51          1           0        0.703383    2.848831   -0.136124
     52          1           0        3.266049   -1.943502    3.630928
     53          1           0        1.517347   -1.449561    4.115238
     54          1           0        1.795866   -2.654584    2.675989
     55          1           0        6.985576   -2.272560    1.531294
     56          1           0        7.446971   -0.802911    1.632623
     57          1           0        8.246592   -2.143247    0.682430
     58          1           0       -1.211882   -1.954788    1.590168
     59          1           0       -0.344627   -2.385820    3.033560
     60          1           0       -1.904667   -0.328611   -0.165015
     61          1           0       -1.875450    4.718409   -1.908732
     62          1           0       -0.389416    4.235900   -1.085618
     63          1           0        7.804540   -1.111286   -3.294220
     64          1           0       -1.563084    4.522253    1.305588
     65          1           0       -2.736211    5.259294    0.415302
     66          1           0       -4.135724    4.117808   -2.189317
     67          1           0       -5.225280    2.761713   -1.441465
     68          1           0       -4.454655    2.318040   -2.994460
     69          1           0       -4.697976    0.204758   -2.040120
     70          1           0        9.438619   -0.540646   -0.563941
     71          1           0        9.926580   -0.919121   -2.273590
     72          1           0       -3.639507   -2.892910    3.707398
     73          1           0       -6.238360   -1.278336   -2.103671
     74          1           0       -4.256764   -5.616500   -2.249197
     75          1           0       -3.911246   -5.764565   -0.562399
     76          1           0       -5.586148   -5.404892   -1.138912
     77          1           0       -1.345555    8.064320    1.490207
     78          1           0       -7.847810   -2.850947   -2.858622
     79          1           0       -6.546231   -4.321201   -2.462639
 ---------------------------------------------------------------------
 Rotational constants (GHZ):      0.0739920      0.0446321      0.0347103
 Standard basis: SVP (5D, 7F)
 There are   825 symmetry adapted cartesian basis functions of A   symmetry.
 There are   782 symmetry adapted basis functions of A   symmetry.
   782 basis functions,  1327 primitive gaussians,   825 cartesian basis functions
   155 alpha electrons      155 beta electrons
       nuclear repulsion energy      4917.5512947219 Hartrees.
 NAtoms=   79 NActive=   79 NUniq=   79 SFac= 1.00D+00 NAtFMM=   60 NAOKFM=T Big=T
 Integral buffers will be    131072 words long.
 Regular integral format.
 Two-electron integral symmetry is turned on.
 One-electron integrals computed using PRISM.
 NBasis=   782 RedAO= T EigKep=  3.27D-04  NBF=   782
 NBsUse=   782 1.00D-06 EigRej= -1.00D+00 NBFU=   782
 ExpMin= 1.22D-01 ExpMax= 2.27D+03 ExpMxC= 3.41D+02 IAcc=1 IRadAn=         1 AccDes= 0.00D+00
 Harris functional with IExCor=  402 and IRadAn=       1 diagonalized for initial guess.
 HarFok:  IExCor=  402 AccDes= 0.00D+00 IRadAn=         1 IDoV= 1 UseB2=F ITyADJ=14
 ICtDFT=  3500011 ScaDFX=  1.000000  1.000000  1.000000  1.000000
 FoFCou: FMM=F IPFlag=           0 FMFlag=      100000 FMFlg1=        2001
         NFxFlg=           0 DoJE=T BraDBF=F KetDBF=T FulRan=T
         wScrn=  0.000000 ICntrl=     500 IOpCl=  0 I1Cent=   200000004 NGrid=           0
         NMat0=    1 NMatS0=      1 NMatT0=    0 NMatD0=    1 NMtDS0=    0 NMtDT0=    0
 Petite list used in FoFCou.
 Requested convergence on RMS density matrix=1.00D-08 within 128 cycles.
 Requested convergence on MAX density matrix=1.00D-06.
 Requested convergence on             energy=1.00D-06.
 No special actions if energy rises.
 Integral accuracy reduced to 1.0D-05 until final iterations.
 Initial convergence to 1.0D-05 achieved.  Increase integral accuracy.
 SCF Done:  E(RB3LYP) =  -1947.85907957     A.U. after   16 cycles
            NFock= 16  Conv=0.58D-08     -V/T= 2.0103
 DoSCS=F DFT=T ScalE2(SS,OS)=  1.000000  1.000000
 ExpMin= 1.22D-01 ExpMax= 2.27D+03 ExpMxC= 3.41D+02 IAcc=3 IRadAn=         5 AccDes= 0.00D+00
 HarFok:  IExCor=  205 AccDes= 0.00D+00 IRadAn=         5 IDoV=-2 UseB2=F ITyADJ=14
 ICtDFT= 12500011 ScaDFX=  1.000000  1.000000  1.000000  1.000000
 Range of M.O.s used for correlation:    44   782
 NBasis=   782 NAE=   155 NBE=   155 NFC=    43 NFV=     0
 NROrb=    739 NOA=   112 NOB=   112 NVA=   627 NVB=   627

 **** Warning!!: The smallest alpha delta epsilon is  0.90027865D-01

 Would need an additional        140608300000 words for in-memory AO integral storage.
 Orbital symmetries:
       Occupied  (A) (A) (A) (A) (A) (A) (A) (A) (A) (A) (A) (A)
                 (A) (A) (A) (A) (A) (A) (A) (A) (A) (A) (A) (A)
                 (A) (A) (A) (A) (A) (A) (A) (A) (A) (A) (A) (A)
                 (A) (A) (A) (A) (A) (A) (A) (A) (A) (A) (A) (A)
                 (A) (A) (A) (A) (A) (A) (A) (A) (A) (A) (A) (A)
                 (A) (A) (A) (A) (A) (A) (A) (A) (A) (A) (A) (A)
                 (A) (A) (A) (A) (A) (A) (A) (A) (A) (A) (A) (A)
                 (A) (A) (A) (A) (A) (A) (A) (A) (A) (A) (A) (A)
                 (A) (A) (A) (A) (A) (A) (A) (A) (A) (A) (A) (A)
                 (A) (A) (A) (A) (A) (A) (A) (A) (A) (A) (A) (A)
                 (A) (A) (A) (A) (A) (A) (A) (A) (A) (A) (A) (A)
                 (A) (A) (A) (A) (A) (A) (A) (A) (A) (A) (A) (A)
                 (A) (A) (A) (A) (A) (A) (A) (A) (A) (A) (A)
       Virtual   (A) (A) (A) (A) (A) (A) (A) (A) (A) (A) (A) (A)
                 (A) (A) (A) (A) (A) (A) (A) (A) (A) (A) (A) (A)
                 (A) (A) (A) (A) (A) (A) (A) (A) (A) (A) (A) (A)
                 (A) (A) (A) (A) (A) (A) (A) (A) (A) (A) (A) (A)
                 (A) (A) (A) (A) (A) (A) (A) (A) (A) (A) (A) (A)
                 (A) (A) (A) (A) (A) (A) (A) (A) (A) (A) (A) (A)
                 (A) (A) (A) (A) (A) (A) (A) (A) (A) (A) (A) (A)
                 (A) (A) (A) (A) (A) (A) (A) (A) (A) (A) (A) (A)
                 (A) (A) (A) (A) (A) (A) (A) (A) (A) (A) (A) (A)
                 (A) (A) (A) (A) (A) (A) (A) (A) (A) (A) (A) (A)
                 (A) (A) (A) (A) (A) (A) (A) (A) (A) (A) (A) (A)
                 (A) (A) (A) (A) (A) (A) (A) (A) (A) (A) (A) (A)
                 (A) (A) (A) (A) (A) (A) (A) (A) (A) (A) (A) (A)
                 (A) (A) (A) (A) (A) (A) (A) (A) (A) (A) (A) (A)
                 (A) (A) (A) (A) (A) (A) (A) (A) (A) (A) (A) (A)
                 (A) (A) (A) (A) (A) (A) (A) (A) (A) (A) (A) (A)
                 (A) (A) (A) (A) (A) (A) (A) (A) (A) (A) (A) (A)
                 (A) (A) (A) (A) (A) (A) (A) (A) (A) (A) (A) (A)
                 (A) (A) (A) (A) (A) (A) (A) (A) (A) (A) (A) (A)
                 (A) (A) (A) (A) (A) (A) (A) (A) (A) (A) (A) (A)
                 (A) (A) (A) (A) (A) (A) (A) (A) (A) (A) (A) (A)
                 (A) (A) (A) (A) (A) (A) (A) (A) (A) (A) (A) (A)
                 (A) (A) (A) (A) (A) (A) (A) (A) (A) (A) (A) (A)
                 (A) (A) (A) (A) (A) (A) (A) (A) (A) (A) (A) (A)
                 (A) (A) (A) (A) (A) (A) (A) (A) (A) (A) (A) (A)
                 (A) (A) (A) (A) (A) (A) (A) (A) (A) (A) (A) (A)
                 (A) (A) (A) (A) (A) (A) (A) (A) (A) (A) (A) (A)
                 (A) (A) (A) (A) (A) (A) (A) (A) (A) (A) (A) (A)
                 (A) (A) (A) (A) (A) (A) (A) (A) (A) (A) (A) (A)
                 (A) (A) (A) (A) (A) (A) (A) (A) (A) (A) (A) (A)
                 (A) (A) (A) (A) (A) (A) (A) (A) (A) (A) (A) (A)
                 (A) (A) (A) (A) (A) (A) (A) (A) (A) (A) (A) (A)
                 (A) (A) (A) (A) (A) (A) (A) (A) (A) (A) (A) (A)
                 (A) (A) (A) (A) (A) (A) (A) (A) (A) (A) (A) (A)
                 (A) (A) (A) (A) (A) (A) (A) (A) (A) (A) (A) (A)
                 (A) (A) (A) (A) (A) (A) (A) (A) (A) (A) (A) (A)
                 (A) (A) (A) (A) (A) (A) (A) (A) (A) (A) (A) (A)
                 (A) (A) (A) (A) (A) (A) (A) (A) (A) (A) (A) (A)
                 (A) (A) (A) (A) (A) (A) (A) (A) (A) (A) (A) (A)
                 (A) (A) (A) (A) (A) (A) (A) (A) (A) (A) (A) (A)
                 (A) (A) (A) (A) (A) (A) (A) (A) (A) (A) (A) (A)
                 (A) (A) (A) (A) (A) (A) (A) (A) (A) (A) (A) (A)
                 (A) (A) (A) (A) (A) (A) (A) (A) (A) (A) (A) (A)
                 (A) (A) (A) (A) (A) (A) (A) (A) (A) (A) (A) (A)
                 (A) (A) (A) (A) (A) (A) (A) (A) (A) (A) (A) (A)
                 (A) (A) (A) (A) (A) (A) (A) (A) (A) (A) (A) (A)
                 (A) (A) (A) (A) (A) (A) (A) (A) (A) (A) (A) (A)
                 (A) (A) (A) (A) (A) (A) (A) (A) (A) (A) (A) (A)
                 (A) (A) (A) (A) (A) (A) (A) (A) (A) (A) (A) (A)
                 (A) (A) (A) (A) (A) (A) (A) (A) (A) (A) (A) (A)
                 (A) (A) (A) (A) (A) (A) (A) (A) (A) (A) (A) (A)
                 (A) (A) (A) (A) (A) (A) (A) (A) (A) (A) (A) (A)
                 (A) (A) (A)
     8 initial guesses have been made.
 Convergence on wavefunction:    0.001000000000000
 Iteration     1 Dimension     8 NMult     0 NNew      8
 CISAX will form     8 AO SS matrices at one time.
 Iteration     2 Dimension    12 NMult     8 NNew      4
 Iteration     3 Dimension    16 NMult    12 NNew      4
 Iteration     4 Dimension    20 NMult    16 NNew      4
 Iteration     5 Dimension    24 NMult    20 NNew      4
 Iteration     6 Dimension    28 NMult    24 NNew      4
 ***********************************************************************
 Excited states from <AA,BB:AA,BB> singles matrix:
 ***********************************************************************
 
 Ground to excited state transition densities written to RWF  633
 Ground to excited state transition electric dipole moments (Au):
       state          X           Y           Z        Dip. S.      Osc.
         1        -2.5333     -1.0549     -0.8789      8.3029      0.4505
 Ground to excited state transition velocity dipole moments (Au):
       state          X           Y           Z        Dip. S.      Osc.
         1         0.1991      0.0777      0.0716      0.0508      0.4162
 Ground to excited state transition magnetic dipole moments (Au):
       state          X           Y           Z
         1         0.7682     -0.0659     -1.5190
 Ground to excited state transition velocity quadrupole moments (Au):
       state          XX          YY          ZZ          XY          XZ          YZ
         1        -0.3460     -0.4532      0.1112     -0.6909     -0.3819     -0.1970
 <0|del|b> * <b|rxdel|0> + <0|del|b> * <b|delr+rdel|0>
 Rotatory Strengths (R) in cgs (10**-40 erg-esu-cm/Gauss)
       state          XX          YY          ZZ    R(velocity)    E-M Angle
         1      -580.3584    236.5908    683.7586    113.3303       84.15
 1/2[<0|r|b>*<b|rxdel|0> + (<0|rxdel|b>*<b|r|0>)*]
 Rotatory Strengths (R) in cgs (10**-40 erg-esu-cm/Gauss)
       state          XX          YY          ZZ     R(length)
         1      1376.1727    -49.1295   -944.1174    127.6419
  1/2[<0|del|b>*<b|r|0> + (<0|r|b>*<b|del|0>)*] (Au)
       state          X           Y           Z        Dip. S.   Osc.(frdel)
         1        -0.5044     -0.0820     -0.0629      0.6493      0.4329

 Excitation energies and oscillator strengths:
 
 Excited State   1:      Singlet-A      2.2149 eV  559.78 nm  f=0.4505  <S**2>=0.000
     155 ->156         0.69622
 This state for optimization and/or second-order correction.
 Total Energy, E(TD-HF/TD-KS) =  -1947.77768490    
 Copying the excited state density for this state as the 1-particle RhoCI density.
 SavETr:  write IOETrn=   770 NScale= 10 NData=  16 NLR=1 NState=    1 LETran=      28.

 **********************************************************************

            Population analysis using the SCF density.

 **********************************************************************

 Orbital symmetries:
       Occupied  (A) (A) (A) (A) (A) (A) (A) (A) (A) (A) (A) (A)
                 (A) (A) (A) (A) (A) (A) (A) (A) (A) (A) (A) (A)
                 (A) (A) (A) (A) (A) (A) (A) (A) (A) (A) (A) (A)
                 (A) (A) (A) (A) (A) (A) (A) (A) (A) (A) (A) (A)
                 (A) (A) (A) (A) (A) (A) (A) (A) (A) (A) (A) (A)
                 (A) (A) (A) (A) (A) (A) (A) (A) (A) (A) (A) (A)
                 (A) (A) (A) (A) (A) (A) (A) (A) (A) (A) (A) (A)
                 (A) (A) (A) (A) (A) (A) (A) (A) (A) (A) (A) (A)
                 (A) (A) (A) (A) (A) (A) (A) (A) (A) (A) (A) (A)
                 (A) (A) (A) (A) (A) (A) (A) (A) (A) (A) (A) (A)
                 (A) (A) (A) (A) (A) (A) (A) (A) (A) (A) (A) (A)
                 (A) (A) (A) (A) (A) (A) (A) (A) (A) (A) (A) (A)
                 (A) (A) (A) (A) (A) (A) (A) (A) (A) (A) (A)
       Virtual   (A) (A) (A) (A) (A) (A) (A) (A) (A) (A) (A) (A)
                 (A) (A) (A) (A) (A) (A) (A) (A) (A) (A) (A) (A)
                 (A) (A) (A) (A) (A) (A) (A) (A) (A) (A) (A) (A)
                 (A) (A) (A) (A) (A) (A) (A) (A) (A) (A) (A) (A)
                 (A) (A) (A) (A) (A) (A) (A) (A) (A) (A) (A) (A)
                 (A) (A) (A) (A) (A) (A) (A) (A) (A) (A) (A) (A)
                 (A) (A) (A) (A) (A) (A) (A) (A) (A) (A) (A) (A)
                 (A) (A) (A) (A) (A) (A) (A) (A) (A) (A) (A) (A)
                 (A) (A) (A) (A) (A) (A) (A) (A) (A) (A) (A) (A)
                 (A) (A) (A) (A) (A) (A) (A) (A) (A) (A) (A) (A)
                 (A) (A) (A) (A) (A) (A) (A) (A) (A) (A) (A) (A)
                 (A) (A) (A) (A) (A) (A) (A) (A) (A) (A) (A) (A)
                 (A) (A) (A) (A) (A) (A) (A) (A) (A) (A) (A) (A)
                 (A) (A) (A) (A) (A) (A) (A) (A) (A) (A) (A) (A)
                 (A) (A) (A) (A) (A) (A) (A) (A) (A) (A) (A) (A)
                 (A) (A) (A) (A) (A) (A) (A) (A) (A) (A) (A) (A)
                 (A) (A) (A) (A) (A) (A) (A) (A) (A) (A) (A) (A)
                 (A) (A) (A) (A) (A) (A) (A) (A) (A) (A) (A) (A)
                 (A) (A) (A) (A) (A) (A) (A) (A) (A) (A) (A) (A)
                 (A) (A) (A) (A) (A) (A) (A) (A) (A) (A) (A) (A)
                 (A) (A) (A) (A) (A) (A) (A) (A) (A) (A) (A) (A)
                 (A) (A) (A) (A) (A) (A) (A) (A) (A) (A) (A) (A)
                 (A) (A) (A) (A) (A) (A) (A) (A) (A) (A) (A) (A)
                 (A) (A) (A) (A) (A) (A) (A) (A) (A) (A) (A) (A)
                 (A) (A) (A) (A) (A) (A) (A) (A) (A) (A) (A) (A)
                 (A) (A) (A) (A) (A) (A) (A) (A) (A) (A) (A) (A)
                 (A) (A) (A) (A) (A) (A) (A) (A) (A) (A) (A) (A)
                 (A) (A) (A) (A) (A) (A) (A) (A) (A) (A) (A) (A)
                 (A) (A) (A) (A) (A) (A) (A) (A) (A) (A) (A) (A)
                 (A) (A) (A) (A) (A) (A) (A) (A) (A) (A) (A) (A)
                 (A) (A) (A) (A) (A) (A) (A) (A) (A) (A) (A) (A)
                 (A) (A) (A) (A) (A) (A) (A) (A) (A) (A) (A) (A)
                 (A) (A) (A) (A) (A) (A) (A) (A) (A) (A) (A) (A)
                 (A) (A) (A) (A) (A) (A) (A) (A) (A) (A) (A) (A)
                 (A) (A) (A) (A) (A) (A) (A) (A) (A) (A) (A) (A)
                 (A) (A) (A) (A) (A) (A) (A) (A) (A) (A) (A) (A)
                 (A) (A) (A) (A) (A) (A) (A) (A) (A) (A) (A) (A)
                 (A) (A) (A) (A) (A) (A) (A) (A) (A) (A) (A) (A)
                 (A) (A) (A) (A) (A) (A) (A) (A) (A) (A) (A) (A)
                 (A) (A) (A) (A) (A) (A) (A) (A) (A) (A) (A) (A)
                 (A) (A) (A) (A) (A) (A) (A) (A) (A) (A) (A) (A)
                 (A) (A) (A) (A) (A) (A) (A) (A) (A) (A) (A) (A)
                 (A) (A) (A) (A) (A) (A) (A) (A) (A) (A) (A) (A)
                 (A) (A) (A) (A) (A) (A) (A) (A) (A) (A) (A) (A)
                 (A) (A) (A) (A) (A) (A) (A) (A) (A) (A) (A) (A)
                 (A) (A) (A) (A) (A) (A) (A) (A) (A) (A) (A) (A)
                 (A) (A) (A) (A) (A) (A) (A) (A) (A) (A) (A) (A)
                 (A) (A) (A) (A) (A) (A) (A) (A) (A) (A) (A) (A)
                 (A) (A) (A) (A) (A) (A) (A) (A) (A) (A) (A) (A)
                 (A) (A) (A) (A) (A) (A) (A) (A) (A) (A) (A) (A)
                 (A) (A) (A) (A) (A) (A) (A) (A) (A) (A) (A) (A)
                 (A) (A) (A) (A) (A) (A) (A) (A) (A) (A) (A) (A)
                 (A) (A) (A)
 The electronic state is 1-A.
 Alpha  occ. eigenvalues --  -19.18810 -19.17007 -19.13164 -19.11685 -19.10785
 Alpha  occ. eigenvalues --  -19.10628 -14.38849 -14.35744 -14.34988 -14.29343
 Alpha  occ. eigenvalues --  -10.32940 -10.30422 -10.28675 -10.27019 -10.25358
 Alpha  occ. eigenvalues --  -10.24707 -10.24503 -10.24159 -10.23438 -10.23425
 Alpha  occ. eigenvalues --  -10.23127 -10.22317 -10.22287 -10.21594 -10.21567
 Alpha  occ. eigenvalues --  -10.21543 -10.21249 -10.21195 -10.20887 -10.20374
 Alpha  occ. eigenvalues --  -10.20335 -10.20126 -10.20088 -10.20020 -10.19918
 Alpha  occ. eigenvalues --  -10.19522 -10.19386 -10.19296 -10.19229 -10.19070
 Alpha  occ. eigenvalues --  -10.18920 -10.18899 -10.18411  -1.12252  -1.10026
 Alpha  occ. eigenvalues --   -1.06462  -1.03797  -1.01042  -1.00700  -0.99812
 Alpha  occ. eigenvalues --   -0.99271  -0.94434  -0.90532  -0.83863  -0.82028
 Alpha  occ. eigenvalues --   -0.81478  -0.81254  -0.80237  -0.79783  -0.79004
 Alpha  occ. eigenvalues --   -0.76900  -0.75726  -0.75317  -0.74460  -0.72279
 Alpha  occ. eigenvalues --   -0.71613  -0.70873  -0.69565  -0.69070  -0.68810
 Alpha  occ. eigenvalues --   -0.68259  -0.66511  -0.64500  -0.61699  -0.61534
 Alpha  occ. eigenvalues --   -0.61211  -0.60318  -0.59008  -0.57734  -0.57290
 Alpha  occ. eigenvalues --   -0.56345  -0.55640  -0.54626  -0.54115  -0.53019
 Alpha  occ. eigenvalues --   -0.52219  -0.50992  -0.50935  -0.50334  -0.49704
 Alpha  occ. eigenvalues --   -0.48540  -0.48343  -0.47946  -0.47739  -0.47542
 Alpha  occ. eigenvalues --   -0.47274  -0.46962  -0.46860  -0.46334  -0.45749
 Alpha  occ. eigenvalues --   -0.45450  -0.45192  -0.44626  -0.43746  -0.43426
 Alpha  occ. eigenvalues --   -0.43288  -0.42973  -0.42903  -0.42611  -0.42304
 Alpha  occ. eigenvalues --   -0.42262  -0.42197  -0.42045  -0.41392  -0.41229
 Alpha  occ. eigenvalues --   -0.41082  -0.41053  -0.40920  -0.40515  -0.40251
 Alpha  occ. eigenvalues --   -0.40015  -0.39986  -0.39493  -0.39302  -0.38823
 Alpha  occ. eigenvalues --   -0.38401  -0.38003  -0.37475  -0.36810  -0.36549
 Alpha  occ. eigenvalues --   -0.36036  -0.35482  -0.35097  -0.34870  -0.34695
 Alpha  occ. eigenvalues --   -0.34422  -0.33833  -0.32975  -0.31707  -0.31346
 Alpha  occ. eigenvalues --   -0.31249  -0.31210  -0.29097  -0.28688  -0.27685
 Alpha  occ. eigenvalues --   -0.27103  -0.26808  -0.26626  -0.26404  -0.25154
 Alpha  occ. eigenvalues --   -0.24230  -0.23427  -0.23027  -0.21773  -0.19289
 Alpha virt. eigenvalues --   -0.10287  -0.06277  -0.05917  -0.00719  -0.00491
 Alpha virt. eigenvalues --    0.00862   0.01244   0.02787   0.02988   0.03309
 Alpha virt. eigenvalues --    0.03915   0.04425   0.04502   0.04940   0.05752
 Alpha virt. eigenvalues --    0.06088   0.06320   0.06769   0.07150   0.07285
 Alpha virt. eigenvalues --    0.07894   0.07971   0.08142   0.08458   0.08807
 Alpha virt. eigenvalues --    0.09389   0.09587   0.09805   0.10307   0.10560
 Alpha virt. eigenvalues --    0.10793   0.11108   0.11690   0.12260   0.12822
 Alpha virt. eigenvalues --    0.12960   0.13418   0.13595   0.13759   0.13963
 Alpha virt. eigenvalues --    0.14315   0.14501   0.14995   0.15495   0.15654
 Alpha virt. eigenvalues --    0.16249   0.16512   0.16821   0.17362   0.17797
 Alpha virt. eigenvalues --    0.17945   0.18673   0.19146   0.20449   0.20567
 Alpha virt. eigenvalues --    0.21054   0.21771   0.22013   0.22515   0.22998
 Alpha virt. eigenvalues --    0.23067   0.23521   0.23782   0.24250   0.24546
 Alpha virt. eigenvalues --    0.24867   0.25183   0.25667   0.25822   0.26475
 Alpha virt. eigenvalues --    0.27231   0.27568   0.27907   0.28568   0.28844
 Alpha virt. eigenvalues --    0.29640   0.30297   0.30397   0.31326   0.31641
 Alpha virt. eigenvalues --    0.32248   0.32620   0.32787   0.32985   0.33825
 Alpha virt. eigenvalues --    0.35049   0.35449   0.35582   0.36353   0.36598
 Alpha virt. eigenvalues --    0.36783   0.37117   0.37769   0.37857   0.39458
 Alpha virt. eigenvalues --    0.39939   0.40064   0.40195   0.40647   0.41291
 Alpha virt. eigenvalues --    0.41469   0.42195   0.42651   0.43096   0.44112
 Alpha virt. eigenvalues --    0.44476   0.44611   0.45051   0.45092   0.45255
 Alpha virt. eigenvalues --    0.45683   0.45909   0.46328   0.46697   0.47059
 Alpha virt. eigenvalues --    0.47299   0.47599   0.47664   0.47925   0.48667
 Alpha virt. eigenvalues --    0.48872   0.49098   0.49307   0.49933   0.50286
 Alpha virt. eigenvalues --    0.50486   0.50839   0.51152   0.51243   0.51789
 Alpha virt. eigenvalues --    0.52198   0.52417   0.52736   0.53624   0.53787
 Alpha virt. eigenvalues --    0.54253   0.54678   0.55058   0.55608   0.55793
 Alpha virt. eigenvalues --    0.55980   0.56204   0.56649   0.56751   0.57313
 Alpha virt. eigenvalues --    0.57519   0.57818   0.58463   0.58775   0.59115
 Alpha virt. eigenvalues --    0.59347   0.59867   0.60031   0.60305   0.60776
 Alpha virt. eigenvalues --    0.60915   0.61051   0.61358   0.61474   0.61907
 Alpha virt. eigenvalues --    0.62227   0.62506   0.62716   0.62939   0.63168
 Alpha virt. eigenvalues --    0.63469   0.63940   0.64251   0.64503   0.64775
 Alpha virt. eigenvalues --    0.65078   0.65526   0.65714   0.65959   0.65995
 Alpha virt. eigenvalues --    0.66154   0.66790   0.67147   0.67347   0.67446
 Alpha virt. eigenvalues --    0.67630   0.67937   0.68135   0.68250   0.68578
 Alpha virt. eigenvalues --    0.68837   0.69048   0.69134   0.69460   0.69579
 Alpha virt. eigenvalues --    0.70113   0.70522   0.70762   0.70948   0.71316
 Alpha virt. eigenvalues --    0.71513   0.71687   0.72109   0.72315   0.72909
 Alpha virt. eigenvalues --    0.73188   0.73743   0.73898   0.74186   0.74366
 Alpha virt. eigenvalues --    0.75269   0.75618   0.76033   0.76326   0.76441
 Alpha virt. eigenvalues --    0.76894   0.77237   0.78124   0.78643   0.79000
 Alpha virt. eigenvalues --    0.79158   0.79730   0.80436   0.80537   0.80734
 Alpha virt. eigenvalues --    0.81760   0.81931   0.82761   0.82921   0.83988
 Alpha virt. eigenvalues --    0.84482   0.85256   0.85495   0.85671   0.86435
 Alpha virt. eigenvalues --    0.87338   0.87938   0.88229   0.88839   0.89742
 Alpha virt. eigenvalues --    0.90629   0.91042   0.91381   0.91923   0.92205
 Alpha virt. eigenvalues --    0.93224   0.94738   0.95109   0.95324   0.95829
 Alpha virt. eigenvalues --    0.96056   0.96795   0.97742   0.98245   0.99087
 Alpha virt. eigenvalues --    0.99854   1.00260   1.00857   1.01112   1.01585
 Alpha virt. eigenvalues --    1.02023   1.02783   1.03363   1.03891   1.04679
 Alpha virt. eigenvalues --    1.05263   1.05966   1.07008   1.07841   1.08567
 Alpha virt. eigenvalues --    1.09211   1.09578   1.09706   1.10959   1.11226
 Alpha virt. eigenvalues --    1.11988   1.12881   1.13236   1.14208   1.14448
 Alpha virt. eigenvalues --    1.15544   1.16175   1.16482   1.17865   1.18502
 Alpha virt. eigenvalues --    1.19040   1.20243   1.20509   1.20725   1.21713
 Alpha virt. eigenvalues --    1.21892   1.22226   1.23130   1.23862   1.24597
 Alpha virt. eigenvalues --    1.25248   1.25500   1.26253   1.26917   1.27745
 Alpha virt. eigenvalues --    1.28546   1.29353   1.30472   1.30615   1.30832
 Alpha virt. eigenvalues --    1.31033   1.31565   1.31791   1.32315   1.33821
 Alpha virt. eigenvalues --    1.33842   1.34624   1.35259   1.36278   1.36783
 Alpha virt. eigenvalues --    1.37405   1.38564   1.38815   1.39473   1.40954
 Alpha virt. eigenvalues --    1.41095   1.41410   1.42286   1.43077   1.43369
 Alpha virt. eigenvalues --    1.44088   1.45261   1.45464   1.46860   1.47994
 Alpha virt. eigenvalues --    1.48560   1.49117   1.49368   1.49997   1.50054
 Alpha virt. eigenvalues --    1.50954   1.51948   1.52567   1.52750   1.53247
 Alpha virt. eigenvalues --    1.53900   1.54893   1.55548   1.55790   1.56232
 Alpha virt. eigenvalues --    1.56355   1.57412   1.57737   1.58798   1.59285
 Alpha virt. eigenvalues --    1.59609   1.60088   1.60463   1.62128   1.62159
 Alpha virt. eigenvalues --    1.62620   1.63358   1.63591   1.64383   1.64636
 Alpha virt. eigenvalues --    1.64883   1.65003   1.65841   1.65915   1.66574
 Alpha virt. eigenvalues --    1.67100   1.67704   1.67840   1.68103   1.68281
 Alpha virt. eigenvalues --    1.68851   1.69348   1.69510   1.70263   1.70600
 Alpha virt. eigenvalues --    1.71347   1.71747   1.72029   1.72536   1.73282
 Alpha virt. eigenvalues --    1.73497   1.74109   1.74376   1.74855   1.75093
 Alpha virt. eigenvalues --    1.76062   1.76403   1.76805   1.77300   1.77506
 Alpha virt. eigenvalues --    1.77545   1.77830   1.78412   1.78648   1.78794
 Alpha virt. eigenvalues --    1.79472   1.79736   1.80269   1.80457   1.81094
 Alpha virt. eigenvalues --    1.81128   1.81798   1.82011   1.82429   1.82701
 Alpha virt. eigenvalues --    1.83209   1.83778   1.84143   1.84551   1.84774
 Alpha virt. eigenvalues --    1.85118   1.85670   1.85854   1.85982   1.86522
 Alpha virt. eigenvalues --    1.87534   1.87742   1.88146   1.88894   1.89440
 Alpha virt. eigenvalues --    1.89830   1.90165   1.90793   1.91142   1.92024
 Alpha virt. eigenvalues --    1.92477   1.92822   1.92948   1.93535   1.93716
 Alpha virt. eigenvalues --    1.94343   1.94739   1.95393   1.95917   1.96362
 Alpha virt. eigenvalues --    1.97082   1.98120   1.98910   1.99101   1.99514
 Alpha virt. eigenvalues --    2.00128   2.00740   2.00987   2.01853   2.02291
 Alpha virt. eigenvalues --    2.02877   2.03586   2.04303   2.05206   2.05621
 Alpha virt. eigenvalues --    2.06103   2.06751   2.07105   2.07779   2.08204
 Alpha virt. eigenvalues --    2.08303   2.08910   2.09149   2.09541   2.10863
 Alpha virt. eigenvalues --    2.11019   2.11467   2.11721   2.12557   2.12896
 Alpha virt. eigenvalues --    2.13556   2.14262   2.14640   2.15753   2.16519
 Alpha virt. eigenvalues --    2.16905   2.17127   2.18413   2.18672   2.19037
 Alpha virt. eigenvalues --    2.19721   2.20269   2.20678   2.21259   2.21904
 Alpha virt. eigenvalues --    2.22405   2.23572   2.23852   2.24948   2.25371
 Alpha virt. eigenvalues --    2.26305   2.27084   2.28681   2.29079   2.30205
 Alpha virt. eigenvalues --    2.30735   2.31217   2.32147   2.32274   2.33175
 Alpha virt. eigenvalues --    2.33644   2.33841   2.35012   2.35782   2.36231
 Alpha virt. eigenvalues --    2.36478   2.37164   2.37476   2.38186   2.39254
 Alpha virt. eigenvalues --    2.40025   2.40400   2.41249   2.41528   2.42128
 Alpha virt. eigenvalues --    2.42764   2.43259   2.44111   2.44910   2.45181
 Alpha virt. eigenvalues --    2.45769   2.46416   2.47321   2.47697   2.48575
 Alpha virt. eigenvalues --    2.48808   2.49859   2.50835   2.51893   2.52269
 Alpha virt. eigenvalues --    2.53119   2.53984   2.55486   2.55882   2.56997
 Alpha virt. eigenvalues --    2.57890   2.58381   2.59876   2.60398   2.60963
 Alpha virt. eigenvalues --    2.61189   2.62293   2.63142   2.63817   2.64198
 Alpha virt. eigenvalues --    2.64580   2.65970   2.66619   2.66724   2.67319
 Alpha virt. eigenvalues --    2.67697   2.68760   2.69188   2.69723   2.69862
 Alpha virt. eigenvalues --    2.70830   2.71108   2.71914   2.72967   2.73705
 Alpha virt. eigenvalues --    2.74000   2.74828   2.75731   2.75823   2.76473
 Alpha virt. eigenvalues --    2.76530   2.78197   2.78981   2.79036   2.80248
 Alpha virt. eigenvalues --    2.80825   2.81957   2.83661   2.83813   2.84997
 Alpha virt. eigenvalues --    2.85370   2.86093   2.86549   2.87094   2.87925
 Alpha virt. eigenvalues --    2.88752   2.89249   2.89830   2.90780   2.91224
 Alpha virt. eigenvalues --    2.91416   2.91958   2.93367   2.94741   2.96648
 Alpha virt. eigenvalues --    2.97117   2.98165   2.98586   2.99202   2.99426
 Alpha virt. eigenvalues --    3.00919   3.02214   3.03305   3.04599   3.05431
 Alpha virt. eigenvalues --    3.07642   3.08057   3.09063   3.09854   3.10087
 Alpha virt. eigenvalues --    3.10663   3.14332   3.16629   3.17568   3.19968
 Alpha virt. eigenvalues --    3.20459   3.21201   3.21306   3.22288   3.23454
 Alpha virt. eigenvalues --    3.24082   3.24448   3.27579   3.29042   3.31358
 Alpha virt. eigenvalues --    3.33118   3.33914   3.39085   3.50060   3.51329
 Alpha virt. eigenvalues --    3.53606   3.54576   3.56530   3.58865   3.59625
 Alpha virt. eigenvalues --    3.61303   3.65080   3.69498   3.69568   3.72720
 Alpha virt. eigenvalues --    3.73094   3.89334
          Condensed to atoms (all electrons):
 Mulliken charges:
               1
     1  O   -0.126623
     2  O   -0.048924
     3  O   -0.246532
     4  O   -0.195404
     5  O   -0.220897
     6  O   -0.150138
     7  N    0.074728
     8  N   -0.302946
     9  N   -0.071240
    10  N   -0.335858
    11  C    0.142950
    12  C    0.092767
    13  C   -0.078443
    14  C   -0.106710
    15  C    0.007683
    16  C   -0.034862
    17  C   -0.175364
    18  C    0.004124
    19  C   -0.045090
    20  C   -0.118630
    21  C    0.148144
    22  C    0.152731
    23  C   -0.111329
    24  C   -0.040317
    25  C    0.186185
    26  C   -0.131527
    27  C   -0.061210
    28  C    0.031263
    29  C    0.134407
    30  C   -0.095879
    31  C    0.041020
    32  C    0.084591
    33  C   -0.102635
    34  C    0.088266
    35  C    0.109736
    36  C   -0.006150
    37  C    0.124866
    38  C    0.092663
    39  C   -0.221946
    40  C    0.152929
    41  C   -0.090240
    42  C    0.106334
    43  C   -0.035747
    44  H    0.032123
    45  H    0.038889
    46  H    0.027648
    47  H    0.071533
    48  H    0.139583
    49  H    0.023111
    50  H    0.047278
    51  H    0.007516
    52  H    0.015670
    53  H    0.044926
    54  H    0.062827
    55  H   -0.104688
    56  H    0.028766
    57  H    0.025268
    58  H    0.064368
    59  H    0.030217
    60  H    0.145493
    61  H    0.017576
    62  H    0.004824
    63  H    0.042942
    64  H    0.065485
    65  H   -0.012258
    66  H    0.041654
    67  H    0.036519
    68  H    0.050461
    69  H   -0.032087
    70  H    0.033053
    71  H   -0.008471
    72  H    0.113231
    73  H   -0.002738
    74  H    0.034178
    75  H    0.006782
    76  H    0.031291
    77  H    0.196345
    78  H    0.034920
    79  H    0.025016
 Sum of Mulliken charges =   0.00000
 Mulliken charges with hydrogens summed into heavy atoms:
               1
     1  O   -0.126623
     2  O    0.064306
     3  O   -0.246532
     4  O    0.000941
     5  O   -0.220897
     6  O   -0.150138
     7  N    0.146261
     8  N   -0.163364
     9  N    0.074253
    10  N   -0.335858
    11  C    0.175074
    12  C    0.159304
    13  C   -0.078443
    14  C   -0.106710
    15  C    0.007683
    16  C   -0.034862
    17  C   -0.175364
    18  C    0.074513
    19  C   -0.045090
    20  C   -0.111115
    21  C    0.148144
    22  C    0.152731
    23  C   -0.111329
    24  C    0.083107
    25  C    0.135531
    26  C   -0.131527
    27  C    0.033375
    28  C    0.031263
    29  C    0.156807
    30  C   -0.052937
    31  C    0.094247
    32  C    0.213225
    33  C   -0.134722
    34  C    0.088266
    35  C    0.109736
    36  C    0.018431
    37  C    0.124866
    38  C    0.092663
    39  C   -0.221946
    40  C    0.152929
    41  C   -0.092978
    42  C    0.178585
    43  C    0.024189
 Electronic spatial extent (au):  <R**2>=          32215.0436
 Charge=              0.0000 electrons
 Dipole moment (field-independent basis, Debye):
    X=              0.1300    Y=              2.0477    Z=              2.3677  Tot=              3.1330
 Quadrupole moment (field-independent basis, Debye-Ang):
   XX=           -227.3081   YY=           -242.7438   ZZ=           -259.2019
   XY=            -10.7737   XZ=             31.2018   YZ=              4.3892
 Traceless Quadrupole moment (field-independent basis, Debye-Ang):
   XX=             15.7765   YY=              0.3408   ZZ=            -16.1173
   XY=            -10.7737   XZ=             31.2018   YZ=              4.3892
 Octapole moment (field-independent basis, Debye-Ang**2):
  XXX=             32.2421  YYY=            122.4317  ZZZ=             80.9629  XYY=           -106.4113
  XXY=            -54.5138  XXZ=             57.4510  XZZ=            -63.3814  YZZ=            -16.5925
  YYZ=             92.9845  XYZ=              7.7980
 Hexadecapole moment (field-independent basis, Debye-Ang**3):
 XXXX=         -24135.5692 YYYY=         -11518.4224 ZZZZ=          -5002.3967 XXXY=           -124.3012
 XXXZ=            665.2748 YYYX=           -250.0867 YYYZ=            890.1037 ZZZX=            -23.9162
 ZZZY=           -152.8067 XXYY=          -6074.3830 XXZZ=          -5207.1342 YYZZ=          -2733.0276
 XXYZ=           -126.4739 YYXZ=              8.9296 ZZXY=             65.2492
 N-N= 4.917551294722D+03 E-N=-1.436403855586D+04  KE= 1.928028356208D+03
 1\1\GINC-PEDRO-RYZENSSD\SP\RB3LYP TD-FC\SVP\C33H36N4O6\PADAWAN\09-Jul-
 2019\0\\# td=(NStates=1) B3LYP/SVP\\TD\\0,1\O,0,-5.2438097428,0.254889
 604,-3.3186246953\O,0,2.8955263787,3.001115835,3.1828345479\O,0,3.2379
 345313,0.835118521,3.3207140326\O,0,1.7269268286,-7.1493408385,1.54270
 46803\O,0,0.3243591853,-7.0235532593,-0.1958835196\O,0,1.9046839277,4.
 0237753445,-0.0741091465\N,0,-2.4130919119,-0.9333683434,0.5992864557\
 N,0,-4.3891628202,0.8863228809,-1.2192838605\N,0,1.9129910262,-0.68660
 06411,-0.4369951376\N,0,2.6700582762,1.8862170718,-0.428090284\C,0,-4.
 8272649728,1.2024804274,0.1153119877\C,0,-4.5447390793,0.2016665844,1.
 2510471654\C,0,-3.045117968,-0.0324983674,1.3618015203\C,0,-2.00808585
 29,0.5836005071,2.1368944876\C,0,-0.80882477,-0.061394698,1.9253612983
 \C,0,-1.0890732823,-0.9841435235,0.8299597043\C,0,-6.2620923066,1.4149
 632522,-0.2378622\C,0,0.538697353,0.1624441675,2.5160762764\C,0,-6.604
 58289,0.9690292081,-1.4710979675\C,0,-0.1311888609,-1.8890842095,0.200
 1571914\C,0,1.0742503362,-1.8221847311,-0.3743262258\C,0,-5.3534033984
 ,0.6438740806,-2.2388733281\C,0,1.9707129412,-2.8929228683,-0.90760607
 72\C,0,-2.1209488361,1.784430175,3.0656452045\C,0,-7.2361956118,1.7396
 094969,0.8558962035\C,0,3.1076162899,-2.4020722315,-1.2693280899\C,0,1
 .0544522178,1.644527595,2.5552107395\C,0,3.0852350645,-1.0298424236,-0
 .9724108721\C,0,1.452880826,-4.3401183914,-0.8142498989\C,0,-7.8506217
 831,1.016846249,-2.1252972517\C,0,1.7250941995,-5.0723734797,0.4324795
 745\C,0,4.2953172481,-3.0887001358,-1.9703390313\C,0,3.9575947017,0.02
 87145333,-1.3088210772\C,0,2.5073233477,1.7716913434,3.090468952\C,0,3
 .7168962155,1.381177374,-1.1160373744\C,0,-9.1573039034,0.7828561294,-
 1.6844772103\C,0,1.1637336818,-6.5004387734,0.5104618389\C,0,4.6857926
 442,2.5425963146,-1.515915318\C,0,4.088924527,3.7516793281,-1.19015858
 72\C,0,2.7225010061,3.3194836498,-0.5383523822\C,0,5.9392119256,2.2543
 773091,-2.0985813869\C,0,4.5258733807,5.1420557228,-1.382520924\C,0,6.
 9167092223,3.1359600174,-2.5154262107\H,0,-4.4710750582,2.2520902539,0
 .3523747795\H,0,-5.1268811172,-0.9198269738,1.0512863769\H,0,-5.123822
 5015,0.6396881979,2.1426964041\H,0,-2.8278201924,-1.278574715,-0.16973
 93652\H,0,-3.3884945428,0.9609091671,-1.6138685842\H,0,0.5445610404,-0
 .2326132878,3.6202673589\H,0,1.4954979938,-0.3848583698,2.073545675\H,
 0,-0.7171322057,-2.8475027136,-0.0469548771\H,0,-3.2571478668,2.075484
 1337,3.5637125389\H,0,-1.511055965,1.5886574932,4.0643661612\H,0,-1.78
 31811174,2.7483834741,2.5871808721\H,0,-6.9743813332,2.3555745096,1.45
 29434131\H,0,-7.443077016,0.89221555,1.6010225249\H,0,-8.2357720685,2.
 2054027104,0.6080798052\H,0,1.2213843197,1.9993625443,1.5256625739\H,0
 ,0.3558496251,2.4806261504,2.9541357681\H,0,1.9066262809,0.314467837,-
 0.1762898551\H,0,1.852933552,-4.7855440776,-1.7576838306\H,0,0.3690649
 869,-4.2696168751,-0.9510978795\H,0,-7.7976650915,1.0445870927,-3.3333
 242444\H,0,1.5405969998,-4.4851228166,1.4485745451\H,0,2.7103220751,-5
 .2560520842,0.5828522236\H,0,4.1162360674,-4.2053980683,-2.0563146841\
 H,0,5.2122733488,-2.831472028,-1.3517300945\H,0,4.4443115275,-2.433905
 4461,-2.9184721695\H,0,4.6978125884,-0.2924033491,-2.0321098992\H,0,-9
 .4353530575,0.569657863,-0.5869293791\H,0,-9.9209302581,0.8956539438,-
 2.3080305448\H,0,3.6530017316,2.9927318418,3.6128994721\H,0,6.24553955
 96,1.1802722337,-2.1423717404\H,0,4.2854895592,5.5212952215,-2.4274898
 04\H,0,3.9402120253,5.7249495649,-0.746447728\H,0,5.6134831198,5.33875
 03296,-1.3104027884\H,0,1.3054780863,-8.0183530778,1.7463043035\H,0,7.
 8629775796,2.7199593022,-2.9465134135\H,0,6.5685783021,4.2085384251,-2
 .5983527244\\Version=ES64L-G09RevD.01\State=1-A\HF=-1947.8590796\RMSD=
 5.839e-09\PG=C01 [X(C33H36N4O6)]\\@


 THE MOST SERIOUS THREAT TO THE SURVIVAL OF MANKIND IS NOT NOW
 IGNORANCE IN THE TRADITIONAL SENSE,
 BUT A MORALLY NEUTRAL, AN INSENSITIVE OR INHIBITED HUMAN INTELLIGENCE.

                     -- MARGO JEFFERSON IN NEWSWEEK, SEPTEMBER 2, 1974
 Job cpu time:       0 days  4 hours 24 minutes 16.5 seconds.
 File lengths (MBytes):  RWF=    769 Int=      0 D2E=      0 Chk=     58 Scr=      1
 Normal termination of Gaussian 09 at Tue Jul  9 13:28:31 2019.
