 Entering Gaussian System, Link 0=g16
 Input=Geometria-368-.com
 Output=Geometria-368-.log
 Initial command:
 /usr/local/g09/l1.exe "/home/padawan/israel-mol/dihydrobiliverdin/spectra/abs/Gau-68845.inp" -scrdir="/home/padawan/israel-mol/dihydrobiliverdin/spectra/abs/"
 Entering Link 1 = /usr/local/g09/l1.exe PID=     68847.
  
 Copyright (c) 1988,1990,1992,1993,1995,1998,2003,2009,2013,
            Gaussian, Inc.  All Rights Reserved.
  
 This is part of the Gaussian(R) 09 program.  It is based on
 the Gaussian(R) 03 system (copyright 2003, Gaussian, Inc.),
 the Gaussian(R) 98 system (copyright 1998, Gaussian, Inc.),
 the Gaussian(R) 94 system (copyright 1995, Gaussian, Inc.),
 the Gaussian 92(TM) system (copyright 1992, Gaussian, Inc.),
 the Gaussian 90(TM) system (copyright 1990, Gaussian, Inc.),
 the Gaussian 88(TM) system (copyright 1988, Gaussian, Inc.),
 the Gaussian 86(TM) system (copyright 1986, Carnegie Mellon
 University), and the Gaussian 82(TM) system (copyright 1983,
 Carnegie Mellon University). Gaussian is a federally registered
 trademark of Gaussian, Inc.
  
 This software contains proprietary and confidential information,
 including trade secrets, belonging to Gaussian, Inc.
  
 This software is provided under written license and may be
 used, copied, transmitted, or stored only in accord with that
 written license.
  
 The following legend is applicable only to US Government
 contracts under FAR:
  
                    RESTRICTED RIGHTS LEGEND
  
 Use, reproduction and disclosure by the US Government is
 subject to restrictions as set forth in subparagraphs (a)
 and (c) of the Commercial Computer Software - Restricted
 Rights clause in FAR 52.227-19.
  
 Gaussian, Inc.
 340 Quinnipiac St., Bldg. 40, Wallingford CT 06492
  
  
 ---------------------------------------------------------------
 Warning -- This program may not be used in any manner that
 competes with the business of Gaussian, Inc. or will provide
 assistance to any competitor of Gaussian, Inc.  The licensee
 of this program is prohibited from giving any competitor of
 Gaussian, Inc. access to this program.  By using this program,
 the user acknowledges that Gaussian, Inc. is engaged in the
 business of creating and licensing software in the field of
 computational chemistry and represents and warrants to the
 licensee that it is not a competitor of Gaussian, Inc. and that
 it will not use this program in any manner prohibited above.
 ---------------------------------------------------------------
  

 Cite this work as:
 Gaussian 09, Revision D.01,
 M. J. Frisch, G. W. Trucks, H. B. Schlegel, G. E. Scuseria, 
 M. A. Robb, J. R. Cheeseman, G. Scalmani, V. Barone, B. Mennucci, 
 G. A. Petersson, H. Nakatsuji, M. Caricato, X. Li, H. P. Hratchian, 
 A. F. Izmaylov, J. Bloino, G. Zheng, J. L. Sonnenberg, M. Hada, 
 M. Ehara, K. Toyota, R. Fukuda, J. Hasegawa, M. Ishida, T. Nakajima, 
 Y. Honda, O. Kitao, H. Nakai, T. Vreven, J. A. Montgomery, Jr., 
 J. E. Peralta, F. Ogliaro, M. Bearpark, J. J. Heyd, E. Brothers, 
 K. N. Kudin, V. N. Staroverov, T. Keith, R. Kobayashi, J. Normand, 
 K. Raghavachari, A. Rendell, J. C. Burant, S. S. Iyengar, J. Tomasi, 
 M. Cossi, N. Rega, J. M. Millam, M. Klene, J. E. Knox, J. B. Cross, 
 V. Bakken, C. Adamo, J. Jaramillo, R. Gomperts, R. E. Stratmann, 
 O. Yazyev, A. J. Austin, R. Cammi, C. Pomelli, J. W. Ochterski, 
 R. L. Martin, K. Morokuma, V. G. Zakrzewski, G. A. Voth, 
 P. Salvador, J. J. Dannenberg, S. Dapprich, A. D. Daniels, 
 O. Farkas, J. B. Foresman, J. V. Ortiz, J. Cioslowski, 
 and D. J. Fox, Gaussian, Inc., Wallingford CT, 2013.
 
 ******************************************
 Gaussian 09:  ES64L-G09RevD.01 24-Apr-2013
                 9-Jul-2019 
 ******************************************
 %nproc=4
 Will use up to    4 processors via shared memory.
 %Mem=2GB
 --------------------------
 # td=(NStates=1) B3LYP/SVP
 --------------------------
 1/38=1/1;
 2/12=2,17=6,18=5,40=1/2;
 3/5=18,7=101,11=9,16=1,25=1,30=1,74=-5/1,2,8,3;
 4//1;
 5/5=2,38=5/2;
 8/6=1,10=1,108=1/1;
 9/41=1,42=1,70=2/14;
 6/7=2,8=2,9=2,10=2/1;
 99/5=1,9=1/99;
 --
 TD
 --
 Symbolic Z-matrix:
 Charge =  0 Multiplicity = 1
 8                    -5.29831   0.17185  -3.30556 
 8                     2.92253   2.94811   3.32256 
 8                     3.24465   0.67269   3.30196 
 8                     1.29057  -7.07693   1.76375 
 8                     0.71069  -7.01977  -0.45018 
 8                     1.96543   4.10722  -0.02447 
 7                    -2.40579  -0.90847   0.57704 
 7                    -4.41921   0.62782  -1.218 
 7                     1.79131  -0.7108   -0.57301 
 7                     2.6593    1.98363  -0.51295 
 6                    -4.81699   1.2093   -0.03983 
 6                    -4.47919   0.35742   1.1682 
 6                    -2.98967   0.10266   1.39008 
 6                    -2.0007    0.65439   2.08274 
 6                    -0.77595   0.03795   1.82119 
 6                    -0.98262  -0.92562   0.8143 
 6                    -6.36479   1.30152  -0.19402 
 6                     0.55644   0.1762    2.53701 
 6                    -6.70759   0.93189  -1.51093 
 6                    -0.22414  -1.9157    0.22121 
 6                     1.07951  -1.80306  -0.32589 
 6                    -5.43651   0.51865  -2.15691 
 6                     1.88287  -2.9096   -0.83844 
 6                    -2.17218   1.71781   3.09976 
 6                    -7.11405   1.98659   0.83984 
 6                     3.11882  -2.37665  -1.30723 
 6                     1.15206   1.57239   2.50162 
 6                     2.99741  -0.90779  -1.00616 
 6                     1.54135  -4.31531  -0.88368 
 6                    -7.98928   0.78501  -2.13653 
 6                     1.71782  -5.03693   0.52638 
 6                     4.36042  -3.0132   -1.90271 
 6                     3.90197   0.0287   -1.41518 
 6                     2.58661   1.66464   3.0707 
 6                     3.7828    1.49583  -1.07868 
 6                    -9.27709   0.77178  -1.68419 
 6                     1.16215  -6.45883   0.53953 
 6                     4.73728   2.5183   -1.42596 
 6                     4.21787   3.67722  -0.9711 
 6                     2.8369    3.26811  -0.43169 
 6                     6.00383   2.30158  -2.09621 
 6                     4.57739   5.09059  -1.12212 
 6                     6.70855   3.14707  -2.9673 
 1                    -4.48512   2.42524   0.13015 
 1                    -5.04771  -0.5234    1.01314 
 1                    -4.70068   0.93649   2.07744 
 1                    -2.92963  -1.37999  -0.20599 
 1                    -3.40598   0.56634  -1.48592 
 1                     0.48161  -0.02146   3.61191 
 1                     1.26733  -0.6595    2.27162 
 1                    -0.8433   -2.94225   0.14645 
 1                    -3.3465    1.64094   3.54143 
 1                    -1.59098   1.53024   4.04058 
 1                    -2.05722   2.84883   2.87595 
 1                    -6.47024   2.90607   1.2904 
 1                    -7.49855   1.41444   1.80548 
 1                    -8.12288   2.44254   0.6006 
 1                     1.16829   2.05574   1.50263 
 1                     0.5668    2.43539   3.08214 
 1                     1.65199   0.4076   -0.12181 
 1                     2.22511  -4.82853  -1.57347 
 1                     0.43313  -4.38839  -1.09149 
 1                    -7.9883    0.69649  -3.27699 
 1                     1.46863  -4.57484   1.35839 
 1                     2.75934  -5.14783   0.88122 
 1                     4.3302   -4.24925  -1.86766 
 1                     5.15215  -2.82744  -1.25572 
 1                     4.41155  -2.6366   -2.90783 
 1                     4.9431   -0.20402  -1.80353 
 1                    -9.39687   0.73133  -0.54019 
 1                    -10.10166   0.73179  -2.39478 
 1                     3.84291   2.78275   3.85547 
 1                     6.40734   1.28872  -1.66864 
 1                     4.33024   5.47241  -2.27941 
 1                     4.14381   5.80738  -0.54863 
 1                     5.73766   5.11403  -1.2888 
 1                     1.14912  -8.06837   1.63673 
 1                     7.70705   2.86393  -3.24212 
 1                     6.41224   4.06526  -3.57299 
 
 Stoichiometry    C33H36N4O6
 Framework group  C1[X(C33H36N4O6)]
 Deg. of freedom   231
 Full point group                 C1      NOp   1
 Largest Abelian subgroup         C1      NOp   1
 Largest concise Abelian subgroup C1      NOp   1
                         Standard orientation:                         
 ---------------------------------------------------------------------
 Center     Atomic      Atomic             Coordinates (Angstroms)
 Number     Number       Type             X           Y           Z
 ---------------------------------------------------------------------
      1          8           0        5.309972   -0.265671   -3.281916
      2          8           0       -2.939153   -2.857438    3.385647
      3          8           0       -3.256622   -0.582655    3.306348
      4          8           0       -1.281701    7.121776    1.579317
      5          8           0       -0.694328    7.007473   -0.630419
      6          8           0       -1.972891   -4.102748    0.072379
      7          7           0        2.406311    0.918148    0.562000
      8          7           0        4.422790   -0.666952   -1.186563
      9          7           0       -1.787201    0.699505   -0.597306
     10          7           0       -2.660805   -1.990867   -0.472100
     11          6           0        4.815358   -1.219188    0.007326
     12          6           0        4.475120   -0.336353    1.192227
     13          6           0        2.985362   -0.073187    1.402400
     14          6           0        1.992903   -0.605306    2.105344
     15          6           0        0.770307    0.006671    1.824011
     16          6           0        0.982373    0.944037    0.793781
     17          6           0        6.363488   -1.318258   -0.139079
     18          6           0       -0.564811   -0.110852    2.538449
     19          6           0        6.711554   -0.982738   -1.463723
     20          6           0        0.227923    1.920241    0.173185
     21          6           0       -1.074062    1.796300   -0.375431
     22          6           0        5.443533   -0.583546   -2.124374
     23          6           0       -1.873433    2.891054   -0.918617
     24          6           0        2.158758   -1.642973    3.149543
     25          6           0        7.107814   -1.978378    0.914396
     26          6           0       -3.108827    2.348780   -1.378077
     27          6           0       -1.163114   -1.506347    2.536327
     28          6           0       -2.991404    0.887782   -1.039510
     29          6           0       -1.528930    4.294501   -0.998225
     30          6           0        7.995672   -0.854214   -2.088364
     31          6           0       -1.708797    5.051927    0.392492
     32          6           0       -4.347098    2.972440   -1.993801
     33          6           0       -3.896437   -0.057026   -1.427846
     34          6           0       -2.599793   -1.581403    3.102556
     35          6           0       -3.781377   -1.515388   -1.053912
     36          6           0        9.281944   -0.832005   -1.632017
     37          6           0       -1.150318    6.472638    0.371595
     38          6           0       -4.736707   -2.544490   -1.378522
     39          6           0       -4.221193   -3.692518   -0.892669
     40          6           0       -2.841270   -3.272536   -0.358981
     41          6           0       -6.000509   -2.342370   -2.058458
     42          6           0       -4.583034   -5.108563   -1.009132
     43          6           0       -6.703930   -3.208284   -2.910322
     44          1           0        4.480454   -2.429792    0.206873
     45          1           0        5.045940    0.539164    1.016911
     46          1           0        4.692318   -0.892640    2.116598
     47          1           0        2.933785    1.368695   -0.230889
     48          1           0        3.410613   -0.610329   -1.459475
     49          1           0       -0.493283    0.113810    3.608255
     50          1           0       -1.273099    0.719219    2.249515
     51          1           0        0.849406    2.943383    0.074632
     52          1           0        3.331699   -1.557202    3.593219
     53          1           0        1.574707   -1.430527    4.083288
     54          1           0        2.042289   -2.779073    2.954031
     55          1           0        6.460610   -2.884914    1.385828
     56          1           0        7.490142   -1.382700    1.866579
     57          1           0        8.116539   -2.442170    0.690285
     58          1           0       -1.176880   -2.014797    1.549844
     59          1           0       -0.581587   -2.355500    3.140542
     60          1           0       -1.651683   -0.407381   -0.117469
     61          1           0       -2.209284    4.791410   -1.703161
     62          1           0       -0.419860    4.360168   -1.203959
     63          1           0        7.998797   -0.794591   -3.230696
     64          1           0       -1.463393    4.610571    1.236791
     65          1           0       -2.751299    5.173778    0.740782
     66          1           0       -4.314508    4.208921   -1.989933
     67          1           0       -5.141412    2.804640   -1.345079
     68          1           0       -4.395525    2.570608   -2.989239
     69          1           0       -4.935755    0.167799   -1.825584
     70          1           0        9.397877   -0.762847   -0.489003
     71          1           0       10.109032   -0.811605   -2.340514
     72          1           0       -3.861026   -2.676871    3.910995
     73          1           0       -6.403446   -1.318238   -1.658071
     74          1           0       -4.332682   -5.520032   -2.155519
     75          1           0       -4.152873   -5.811435   -0.416170
     76          1           0       -5.742766   -5.133982   -1.179205
     77          1           0       -1.137822    8.109403    1.427746
     78          1           0       -7.700912   -2.930275   -3.195701
     79          1           0       -6.407391   -4.142083   -3.491543
 ---------------------------------------------------------------------
 Rotational constants (GHZ):      0.0742030      0.0441880      0.0346586
 Standard basis: SVP (5D, 7F)
 There are   825 symmetry adapted cartesian basis functions of A   symmetry.
 There are   782 symmetry adapted basis functions of A   symmetry.
   782 basis functions,  1327 primitive gaussians,   825 cartesian basis functions
   155 alpha electrons      155 beta electrons
       nuclear repulsion energy      4909.2675386133 Hartrees.
 NAtoms=   79 NActive=   79 NUniq=   79 SFac= 1.00D+00 NAtFMM=   60 NAOKFM=T Big=T
 Integral buffers will be    131072 words long.
 Regular integral format.
 Two-electron integral symmetry is turned on.
 One-electron integrals computed using PRISM.
 NBasis=   782 RedAO= T EigKep=  3.34D-04  NBF=   782
 NBsUse=   782 1.00D-06 EigRej= -1.00D+00 NBFU=   782
 ExpMin= 1.22D-01 ExpMax= 2.27D+03 ExpMxC= 3.41D+02 IAcc=1 IRadAn=         1 AccDes= 0.00D+00
 Harris functional with IExCor=  402 and IRadAn=       1 diagonalized for initial guess.
 HarFok:  IExCor=  402 AccDes= 0.00D+00 IRadAn=         1 IDoV= 1 UseB2=F ITyADJ=14
 ICtDFT=  3500011 ScaDFX=  1.000000  1.000000  1.000000  1.000000
 FoFCou: FMM=F IPFlag=           0 FMFlag=      100000 FMFlg1=        2001
         NFxFlg=           0 DoJE=T BraDBF=F KetDBF=T FulRan=T
         wScrn=  0.000000 ICntrl=     500 IOpCl=  0 I1Cent=   200000004 NGrid=           0
         NMat0=    1 NMatS0=      1 NMatT0=    0 NMatD0=    1 NMtDS0=    0 NMtDT0=    0
 Petite list used in FoFCou.
 Requested convergence on RMS density matrix=1.00D-08 within 128 cycles.
 Requested convergence on MAX density matrix=1.00D-06.
 Requested convergence on             energy=1.00D-06.
 No special actions if energy rises.
 Integral accuracy reduced to 1.0D-05 until final iterations.
 EnCoef did     2 forward-backward iterations
 Initial convergence to 1.0D-05 achieved.  Increase integral accuracy.
 SCF Done:  E(RB3LYP) =  -1947.88004530     A.U. after   19 cycles
            NFock= 19  Conv=0.82D-08     -V/T= 2.0110
 DoSCS=F DFT=T ScalE2(SS,OS)=  1.000000  1.000000
 ExpMin= 1.22D-01 ExpMax= 2.27D+03 ExpMxC= 3.41D+02 IAcc=3 IRadAn=         5 AccDes= 0.00D+00
 HarFok:  IExCor=  205 AccDes= 0.00D+00 IRadAn=         5 IDoV=-2 UseB2=F ITyADJ=14
 ICtDFT= 12500011 ScaDFX=  1.000000  1.000000  1.000000  1.000000
 Range of M.O.s used for correlation:    44   782
 NBasis=   782 NAE=   155 NBE=   155 NFC=    43 NFV=     0
 NROrb=    739 NOA=   112 NOB=   112 NVA=   627 NVB=   627

 **** Warning!!: The smallest alpha delta epsilon is  0.79371120D-01

 Would need an additional        140608300000 words for in-memory AO integral storage.
 Orbital symmetries:
       Occupied  (A) (A) (A) (A) (A) (A) (A) (A) (A) (A) (A) (A)
                 (A) (A) (A) (A) (A) (A) (A) (A) (A) (A) (A) (A)
                 (A) (A) (A) (A) (A) (A) (A) (A) (A) (A) (A) (A)
                 (A) (A) (A) (A) (A) (A) (A) (A) (A) (A) (A) (A)
                 (A) (A) (A) (A) (A) (A) (A) (A) (A) (A) (A) (A)
                 (A) (A) (A) (A) (A) (A) (A) (A) (A) (A) (A) (A)
                 (A) (A) (A) (A) (A) (A) (A) (A) (A) (A) (A) (A)
                 (A) (A) (A) (A) (A) (A) (A) (A) (A) (A) (A) (A)
                 (A) (A) (A) (A) (A) (A) (A) (A) (A) (A) (A) (A)
                 (A) (A) (A) (A) (A) (A) (A) (A) (A) (A) (A) (A)
                 (A) (A) (A) (A) (A) (A) (A) (A) (A) (A) (A) (A)
                 (A) (A) (A) (A) (A) (A) (A) (A) (A) (A) (A) (A)
                 (A) (A) (A) (A) (A) (A) (A) (A) (A) (A) (A)
       Virtual   (A) (A) (A) (A) (A) (A) (A) (A) (A) (A) (A) (A)
                 (A) (A) (A) (A) (A) (A) (A) (A) (A) (A) (A) (A)
                 (A) (A) (A) (A) (A) (A) (A) (A) (A) (A) (A) (A)
                 (A) (A) (A) (A) (A) (A) (A) (A) (A) (A) (A) (A)
                 (A) (A) (A) (A) (A) (A) (A) (A) (A) (A) (A) (A)
                 (A) (A) (A) (A) (A) (A) (A) (A) (A) (A) (A) (A)
                 (A) (A) (A) (A) (A) (A) (A) (A) (A) (A) (A) (A)
                 (A) (A) (A) (A) (A) (A) (A) (A) (A) (A) (A) (A)
                 (A) (A) (A) (A) (A) (A) (A) (A) (A) (A) (A) (A)
                 (A) (A) (A) (A) (A) (A) (A) (A) (A) (A) (A) (A)
                 (A) (A) (A) (A) (A) (A) (A) (A) (A) (A) (A) (A)
                 (A) (A) (A) (A) (A) (A) (A) (A) (A) (A) (A) (A)
                 (A) (A) (A) (A) (A) (A) (A) (A) (A) (A) (A) (A)
                 (A) (A) (A) (A) (A) (A) (A) (A) (A) (A) (A) (A)
                 (A) (A) (A) (A) (A) (A) (A) (A) (A) (A) (A) (A)
                 (A) (A) (A) (A) (A) (A) (A) (A) (A) (A) (A) (A)
                 (A) (A) (A) (A) (A) (A) (A) (A) (A) (A) (A) (A)
                 (A) (A) (A) (A) (A) (A) (A) (A) (A) (A) (A) (A)
                 (A) (A) (A) (A) (A) (A) (A) (A) (A) (A) (A) (A)
                 (A) (A) (A) (A) (A) (A) (A) (A) (A) (A) (A) (A)
                 (A) (A) (A) (A) (A) (A) (A) (A) (A) (A) (A) (A)
                 (A) (A) (A) (A) (A) (A) (A) (A) (A) (A) (A) (A)
                 (A) (A) (A) (A) (A) (A) (A) (A) (A) (A) (A) (A)
                 (A) (A) (A) (A) (A) (A) (A) (A) (A) (A) (A) (A)
                 (A) (A) (A) (A) (A) (A) (A) (A) (A) (A) (A) (A)
                 (A) (A) (A) (A) (A) (A) (A) (A) (A) (A) (A) (A)
                 (A) (A) (A) (A) (A) (A) (A) (A) (A) (A) (A) (A)
                 (A) (A) (A) (A) (A) (A) (A) (A) (A) (A) (A) (A)
                 (A) (A) (A) (A) (A) (A) (A) (A) (A) (A) (A) (A)
                 (A) (A) (A) (A) (A) (A) (A) (A) (A) (A) (A) (A)
                 (A) (A) (A) (A) (A) (A) (A) (A) (A) (A) (A) (A)
                 (A) (A) (A) (A) (A) (A) (A) (A) (A) (A) (A) (A)
                 (A) (A) (A) (A) (A) (A) (A) (A) (A) (A) (A) (A)
                 (A) (A) (A) (A) (A) (A) (A) (A) (A) (A) (A) (A)
                 (A) (A) (A) (A) (A) (A) (A) (A) (A) (A) (A) (A)
                 (A) (A) (A) (A) (A) (A) (A) (A) (A) (A) (A) (A)
                 (A) (A) (A) (A) (A) (A) (A) (A) (A) (A) (A) (A)
                 (A) (A) (A) (A) (A) (A) (A) (A) (A) (A) (A) (A)
                 (A) (A) (A) (A) (A) (A) (A) (A) (A) (A) (A) (A)
                 (A) (A) (A) (A) (A) (A) (A) (A) (A) (A) (A) (A)
                 (A) (A) (A) (A) (A) (A) (A) (A) (A) (A) (A) (A)
                 (A) (A) (A) (A) (A) (A) (A) (A) (A) (A) (A) (A)
                 (A) (A) (A) (A) (A) (A) (A) (A) (A) (A) (A) (A)
                 (A) (A) (A) (A) (A) (A) (A) (A) (A) (A) (A) (A)
                 (A) (A) (A) (A) (A) (A) (A) (A) (A) (A) (A) (A)
                 (A) (A) (A) (A) (A) (A) (A) (A) (A) (A) (A) (A)
                 (A) (A) (A) (A) (A) (A) (A) (A) (A) (A) (A) (A)
                 (A) (A) (A) (A) (A) (A) (A) (A) (A) (A) (A) (A)
                 (A) (A) (A) (A) (A) (A) (A) (A) (A) (A) (A) (A)
                 (A) (A) (A) (A) (A) (A) (A) (A) (A) (A) (A) (A)
                 (A) (A) (A) (A) (A) (A) (A) (A) (A) (A) (A) (A)
                 (A) (A) (A) (A) (A) (A) (A) (A) (A) (A) (A) (A)
                 (A) (A) (A)
     8 initial guesses have been made.
 Convergence on wavefunction:    0.001000000000000
 Iteration     1 Dimension     8 NMult     0 NNew      8
 CISAX will form     8 AO SS matrices at one time.
 New state      1 was old state      4
 Iteration     2 Dimension    12 NMult     8 NNew      4
 New state      1 was old state      2
 Iteration     3 Dimension    16 NMult    12 NNew      4
 Iteration     4 Dimension    20 NMult    16 NNew      4
 Iteration     5 Dimension    24 NMult    20 NNew      4
 Iteration     6 Dimension    28 NMult    24 NNew      4
 ***********************************************************************
 Excited states from <AA,BB:AA,BB> singles matrix:
 ***********************************************************************
 
 Ground to excited state transition densities written to RWF  633
 Ground to excited state transition electric dipole moments (Au):
       state          X           Y           Z        Dip. S.      Osc.
         1        -2.5871     -1.2798     -0.9422      9.2186      0.4770
 Ground to excited state transition velocity dipole moments (Au):
       state          X           Y           Z        Dip. S.      Osc.
         1         0.1947      0.0910      0.0743      0.0517      0.4441
 Ground to excited state transition magnetic dipole moments (Au):
       state          X           Y           Z
         1         0.9259     -0.1319     -1.7121
 Ground to excited state transition velocity quadrupole moments (Au):
       state          XX          YY          ZZ          XY          XZ          YZ
         1        -0.3201     -0.5816      0.1174     -0.7519     -0.3739     -0.2418
 <0|del|b> * <b|rxdel|0> + <0|del|b> * <b|delr+rdel|0>
 Rotatory Strengths (R) in cgs (10**-40 erg-esu-cm/Gauss)
       state          XX          YY          ZZ    R(velocity)    E-M Angle
         1      -733.6306    281.7855    825.9836    124.7128       84.69
 1/2[<0|r|b>*<b|rxdel|0> + (<0|rxdel|b>*<b|r|0>)*]
 Rotatory Strengths (R) in cgs (10**-40 erg-esu-cm/Gauss)
       state          XX          YY          ZZ     R(length)
         1      1693.9306   -119.4134  -1140.7508    144.5888
  1/2[<0|del|b>*<b|r|0> + (<0|r|b>*<b|del|0>)*] (Au)
       state          X           Y           Z        Dip. S.   Osc.(frdel)
         1        -0.5037     -0.1165     -0.0700      0.6902      0.4601

 Excitation energies and oscillator strengths:
 
 Excited State   1:      Singlet-A      2.1121 eV  587.01 nm  f=0.4770  <S**2>=0.000
     154 ->156         0.11214
     155 ->156         0.69527
     155 <-156        -0.12556
 This state for optimization and/or second-order correction.
 Total Energy, E(TD-HF/TD-KS) =  -1947.80242647    
 Copying the excited state density for this state as the 1-particle RhoCI density.
 SavETr:  write IOETrn=   770 NScale= 10 NData=  16 NLR=1 NState=    1 LETran=      28.

 **********************************************************************

            Population analysis using the SCF density.

 **********************************************************************

 Orbital symmetries:
       Occupied  (A) (A) (A) (A) (A) (A) (A) (A) (A) (A) (A) (A)
                 (A) (A) (A) (A) (A) (A) (A) (A) (A) (A) (A) (A)
                 (A) (A) (A) (A) (A) (A) (A) (A) (A) (A) (A) (A)
                 (A) (A) (A) (A) (A) (A) (A) (A) (A) (A) (A) (A)
                 (A) (A) (A) (A) (A) (A) (A) (A) (A) (A) (A) (A)
                 (A) (A) (A) (A) (A) (A) (A) (A) (A) (A) (A) (A)
                 (A) (A) (A) (A) (A) (A) (A) (A) (A) (A) (A) (A)
                 (A) (A) (A) (A) (A) (A) (A) (A) (A) (A) (A) (A)
                 (A) (A) (A) (A) (A) (A) (A) (A) (A) (A) (A) (A)
                 (A) (A) (A) (A) (A) (A) (A) (A) (A) (A) (A) (A)
                 (A) (A) (A) (A) (A) (A) (A) (A) (A) (A) (A) (A)
                 (A) (A) (A) (A) (A) (A) (A) (A) (A) (A) (A) (A)
                 (A) (A) (A) (A) (A) (A) (A) (A) (A) (A) (A)
       Virtual   (A) (A) (A) (A) (A) (A) (A) (A) (A) (A) (A) (A)
                 (A) (A) (A) (A) (A) (A) (A) (A) (A) (A) (A) (A)
                 (A) (A) (A) (A) (A) (A) (A) (A) (A) (A) (A) (A)
                 (A) (A) (A) (A) (A) (A) (A) (A) (A) (A) (A) (A)
                 (A) (A) (A) (A) (A) (A) (A) (A) (A) (A) (A) (A)
                 (A) (A) (A) (A) (A) (A) (A) (A) (A) (A) (A) (A)
                 (A) (A) (A) (A) (A) (A) (A) (A) (A) (A) (A) (A)
                 (A) (A) (A) (A) (A) (A) (A) (A) (A) (A) (A) (A)
                 (A) (A) (A) (A) (A) (A) (A) (A) (A) (A) (A) (A)
                 (A) (A) (A) (A) (A) (A) (A) (A) (A) (A) (A) (A)
                 (A) (A) (A) (A) (A) (A) (A) (A) (A) (A) (A) (A)
                 (A) (A) (A) (A) (A) (A) (A) (A) (A) (A) (A) (A)
                 (A) (A) (A) (A) (A) (A) (A) (A) (A) (A) (A) (A)
                 (A) (A) (A) (A) (A) (A) (A) (A) (A) (A) (A) (A)
                 (A) (A) (A) (A) (A) (A) (A) (A) (A) (A) (A) (A)
                 (A) (A) (A) (A) (A) (A) (A) (A) (A) (A) (A) (A)
                 (A) (A) (A) (A) (A) (A) (A) (A) (A) (A) (A) (A)
                 (A) (A) (A) (A) (A) (A) (A) (A) (A) (A) (A) (A)
                 (A) (A) (A) (A) (A) (A) (A) (A) (A) (A) (A) (A)
                 (A) (A) (A) (A) (A) (A) (A) (A) (A) (A) (A) (A)
                 (A) (A) (A) (A) (A) (A) (A) (A) (A) (A) (A) (A)
                 (A) (A) (A) (A) (A) (A) (A) (A) (A) (A) (A) (A)
                 (A) (A) (A) (A) (A) (A) (A) (A) (A) (A) (A) (A)
                 (A) (A) (A) (A) (A) (A) (A) (A) (A) (A) (A) (A)
                 (A) (A) (A) (A) (A) (A) (A) (A) (A) (A) (A) (A)
                 (A) (A) (A) (A) (A) (A) (A) (A) (A) (A) (A) (A)
                 (A) (A) (A) (A) (A) (A) (A) (A) (A) (A) (A) (A)
                 (A) (A) (A) (A) (A) (A) (A) (A) (A) (A) (A) (A)
                 (A) (A) (A) (A) (A) (A) (A) (A) (A) (A) (A) (A)
                 (A) (A) (A) (A) (A) (A) (A) (A) (A) (A) (A) (A)
                 (A) (A) (A) (A) (A) (A) (A) (A) (A) (A) (A) (A)
                 (A) (A) (A) (A) (A) (A) (A) (A) (A) (A) (A) (A)
                 (A) (A) (A) (A) (A) (A) (A) (A) (A) (A) (A) (A)
                 (A) (A) (A) (A) (A) (A) (A) (A) (A) (A) (A) (A)
                 (A) (A) (A) (A) (A) (A) (A) (A) (A) (A) (A) (A)
                 (A) (A) (A) (A) (A) (A) (A) (A) (A) (A) (A) (A)
                 (A) (A) (A) (A) (A) (A) (A) (A) (A) (A) (A) (A)
                 (A) (A) (A) (A) (A) (A) (A) (A) (A) (A) (A) (A)
                 (A) (A) (A) (A) (A) (A) (A) (A) (A) (A) (A) (A)
                 (A) (A) (A) (A) (A) (A) (A) (A) (A) (A) (A) (A)
                 (A) (A) (A) (A) (A) (A) (A) (A) (A) (A) (A) (A)
                 (A) (A) (A) (A) (A) (A) (A) (A) (A) (A) (A) (A)
                 (A) (A) (A) (A) (A) (A) (A) (A) (A) (A) (A) (A)
                 (A) (A) (A) (A) (A) (A) (A) (A) (A) (A) (A) (A)
                 (A) (A) (A) (A) (A) (A) (A) (A) (A) (A) (A) (A)
                 (A) (A) (A) (A) (A) (A) (A) (A) (A) (A) (A) (A)
                 (A) (A) (A) (A) (A) (A) (A) (A) (A) (A) (A) (A)
                 (A) (A) (A) (A) (A) (A) (A) (A) (A) (A) (A) (A)
                 (A) (A) (A) (A) (A) (A) (A) (A) (A) (A) (A) (A)
                 (A) (A) (A) (A) (A) (A) (A) (A) (A) (A) (A) (A)
                 (A) (A) (A) (A) (A) (A) (A) (A) (A) (A) (A) (A)
                 (A) (A) (A) (A) (A) (A) (A) (A) (A) (A) (A) (A)
                 (A) (A) (A)
 The electronic state is 1-A.
 Alpha  occ. eigenvalues --  -19.18820 -19.18658 -19.13214 -19.12171 -19.10293
 Alpha  occ. eigenvalues --  -19.09193 -14.37743 -14.37233 -14.35940 -14.29788
 Alpha  occ. eigenvalues --  -10.32809 -10.31155 -10.28860 -10.25816 -10.25665
 Alpha  occ. eigenvalues --  -10.24678 -10.24513 -10.24356 -10.23193 -10.22977
 Alpha  occ. eigenvalues --  -10.22908 -10.22722 -10.22709 -10.22136 -10.21547
 Alpha  occ. eigenvalues --  -10.21390 -10.21270 -10.21204 -10.21194 -10.21173
 Alpha  occ. eigenvalues --  -10.20990 -10.20930 -10.20758 -10.20705 -10.20564
 Alpha  occ. eigenvalues --  -10.20092 -10.20074 -10.19891 -10.19797 -10.19634
 Alpha  occ. eigenvalues --  -10.19550 -10.19538 -10.18775  -1.08551  -1.08203
 Alpha  occ. eigenvalues --   -1.03444  -1.00590  -1.00176  -0.99758  -0.99356
 Alpha  occ. eigenvalues --   -0.96759  -0.95552  -0.92708  -0.82735  -0.82204
 Alpha  occ. eigenvalues --   -0.81700  -0.81329  -0.81034  -0.79789  -0.77682
 Alpha  occ. eigenvalues --   -0.77329  -0.76019  -0.75483  -0.74547  -0.72639
 Alpha  occ. eigenvalues --   -0.71690  -0.70926  -0.70309  -0.68327  -0.67919
 Alpha  occ. eigenvalues --   -0.66619  -0.66054  -0.63435  -0.61933  -0.61176
 Alpha  occ. eigenvalues --   -0.60408  -0.59988  -0.57719  -0.57443  -0.56349
 Alpha  occ. eigenvalues --   -0.55594  -0.55187  -0.54786  -0.54096  -0.53109
 Alpha  occ. eigenvalues --   -0.52187  -0.52005  -0.51080  -0.50553  -0.49475
 Alpha  occ. eigenvalues --   -0.48716  -0.48542  -0.47991  -0.47871  -0.47755
 Alpha  occ. eigenvalues --   -0.47553  -0.47015  -0.46823  -0.46116  -0.45316
 Alpha  occ. eigenvalues --   -0.45169  -0.45004  -0.44810  -0.44457  -0.44085
 Alpha  occ. eigenvalues --   -0.43834  -0.42928  -0.42827  -0.42699  -0.42403
 Alpha  occ. eigenvalues --   -0.42115  -0.41964  -0.41492  -0.41287  -0.40919
 Alpha  occ. eigenvalues --   -0.40777  -0.40560  -0.40209  -0.39933  -0.39727
 Alpha  occ. eigenvalues --   -0.39711  -0.39234  -0.38899  -0.38651  -0.38196
 Alpha  occ. eigenvalues --   -0.37980  -0.37418  -0.37244  -0.36890  -0.36782
 Alpha  occ. eigenvalues --   -0.36658  -0.36124  -0.35321  -0.35007  -0.34236
 Alpha  occ. eigenvalues --   -0.33533  -0.32829  -0.32729  -0.32069  -0.31874
 Alpha  occ. eigenvalues --   -0.31832  -0.30407  -0.28636  -0.28389  -0.27594
 Alpha  occ. eigenvalues --   -0.27356  -0.26833  -0.26088  -0.25292  -0.25115
 Alpha  occ. eigenvalues --   -0.24462  -0.23920  -0.23514  -0.22818  -0.19090
 Alpha virt. eigenvalues --   -0.11153  -0.07362  -0.06597  -0.02186  -0.00609
 Alpha virt. eigenvalues --    0.00289   0.00678   0.01212   0.02836   0.03121
 Alpha virt. eigenvalues --    0.03262   0.03645   0.04121   0.04496   0.04841
 Alpha virt. eigenvalues --    0.05212   0.05353   0.05443   0.05969   0.06999
 Alpha virt. eigenvalues --    0.07132   0.07731   0.07827   0.08404   0.08723
 Alpha virt. eigenvalues --    0.09045   0.09263   0.09542   0.10035   0.10137
 Alpha virt. eigenvalues --    0.10476   0.10663   0.10932   0.11425   0.11624
 Alpha virt. eigenvalues --    0.11902   0.12301   0.13200   0.13246   0.13798
 Alpha virt. eigenvalues --    0.13937   0.14161   0.14485   0.15339   0.15671
 Alpha virt. eigenvalues --    0.15978   0.16020   0.16740   0.16974   0.17583
 Alpha virt. eigenvalues --    0.17798   0.17930   0.19267   0.19862   0.20360
 Alpha virt. eigenvalues --    0.20647   0.20816   0.21497   0.22086   0.22535
 Alpha virt. eigenvalues --    0.23039   0.23262   0.23675   0.24013   0.24416
 Alpha virt. eigenvalues --    0.24524   0.24914   0.25120   0.25866   0.26238
 Alpha virt. eigenvalues --    0.26502   0.27056   0.27563   0.28669   0.29039
 Alpha virt. eigenvalues --    0.29262   0.29755   0.30180   0.30703   0.31044
 Alpha virt. eigenvalues --    0.31587   0.32072   0.32249   0.33249   0.34060
 Alpha virt. eigenvalues --    0.34447   0.34819   0.34921   0.35379   0.35651
 Alpha virt. eigenvalues --    0.36013   0.36918   0.37179   0.37446   0.38677
 Alpha virt. eigenvalues --    0.38762   0.39863   0.40619   0.40865   0.41380
 Alpha virt. eigenvalues --    0.42267   0.42569   0.42848   0.43171   0.43517
 Alpha virt. eigenvalues --    0.43627   0.44036   0.44460   0.44737   0.44883
 Alpha virt. eigenvalues --    0.45291   0.45498   0.45855   0.46059   0.46426
 Alpha virt. eigenvalues --    0.46677   0.46983   0.47499   0.47613   0.48022
 Alpha virt. eigenvalues --    0.48324   0.48767   0.49262   0.49885   0.50018
 Alpha virt. eigenvalues --    0.50445   0.50794   0.51087   0.51456   0.51873
 Alpha virt. eigenvalues --    0.52164   0.52821   0.53034   0.53138   0.53317
 Alpha virt. eigenvalues --    0.53687   0.53992   0.54441   0.54851   0.54929
 Alpha virt. eigenvalues --    0.55769   0.56091   0.56185   0.56667   0.57145
 Alpha virt. eigenvalues --    0.57278   0.57670   0.57920   0.58229   0.58535
 Alpha virt. eigenvalues --    0.58677   0.59027   0.59484   0.59619   0.59765
 Alpha virt. eigenvalues --    0.60088   0.60415   0.61037   0.61203   0.61388
 Alpha virt. eigenvalues --    0.61680   0.61966   0.62594   0.63090   0.63325
 Alpha virt. eigenvalues --    0.63475   0.63695   0.63914   0.64261   0.64495
 Alpha virt. eigenvalues --    0.64696   0.64846   0.65101   0.65589   0.65644
 Alpha virt. eigenvalues --    0.65871   0.65981   0.66284   0.66499   0.66633
 Alpha virt. eigenvalues --    0.66979   0.67051   0.67467   0.67526   0.67778
 Alpha virt. eigenvalues --    0.68181   0.68435   0.68840   0.68945   0.69123
 Alpha virt. eigenvalues --    0.69325   0.69540   0.69875   0.70034   0.70522
 Alpha virt. eigenvalues --    0.70879   0.71123   0.71413   0.71603   0.71833
 Alpha virt. eigenvalues --    0.72372   0.72648   0.72986   0.73160   0.74020
 Alpha virt. eigenvalues --    0.74194   0.74541   0.74918   0.75465   0.75596
 Alpha virt. eigenvalues --    0.76048   0.76388   0.76576   0.77120   0.77648
 Alpha virt. eigenvalues --    0.77696   0.78323   0.78863   0.79470   0.79970
 Alpha virt. eigenvalues --    0.80732   0.81327   0.81429   0.82130   0.83021
 Alpha virt. eigenvalues --    0.83471   0.84334   0.84543   0.85418   0.85833
 Alpha virt. eigenvalues --    0.86312   0.87067   0.87274   0.89005   0.89366
 Alpha virt. eigenvalues --    0.90573   0.90888   0.91036   0.92279   0.92795
 Alpha virt. eigenvalues --    0.93197   0.93849   0.94464   0.95162   0.95385
 Alpha virt. eigenvalues --    0.95594   0.95814   0.96231   0.97175   0.97397
 Alpha virt. eigenvalues --    0.98112   0.98389   0.98748   0.99373   1.00268
 Alpha virt. eigenvalues --    1.00489   1.01234   1.01940   1.03347   1.04196
 Alpha virt. eigenvalues --    1.05165   1.06294   1.06915   1.07866   1.08337
 Alpha virt. eigenvalues --    1.08732   1.10036   1.10524   1.11127   1.11282
 Alpha virt. eigenvalues --    1.12310   1.12485   1.14446   1.14537   1.15338
 Alpha virt. eigenvalues --    1.15746   1.16263   1.16971   1.17298   1.18006
 Alpha virt. eigenvalues --    1.18276   1.18896   1.19206   1.19741   1.20413
 Alpha virt. eigenvalues --    1.20646   1.21014   1.21458   1.23013   1.24271
 Alpha virt. eigenvalues --    1.24961   1.25302   1.25782   1.26370   1.27014
 Alpha virt. eigenvalues --    1.28052   1.28408   1.28904   1.29415   1.29902
 Alpha virt. eigenvalues --    1.30494   1.30671   1.31156   1.31488   1.32255
 Alpha virt. eigenvalues --    1.33474   1.33804   1.34620   1.35289   1.36583
 Alpha virt. eigenvalues --    1.37744   1.38203   1.39152   1.39799   1.40836
 Alpha virt. eigenvalues --    1.41453   1.42259   1.42895   1.43366   1.43928
 Alpha virt. eigenvalues --    1.44568   1.45681   1.46517   1.46709   1.47557
 Alpha virt. eigenvalues --    1.47885   1.48556   1.48759   1.49138   1.49789
 Alpha virt. eigenvalues --    1.51196   1.51560   1.51738   1.52050   1.52840
 Alpha virt. eigenvalues --    1.53521   1.54363   1.55199   1.55335   1.55863
 Alpha virt. eigenvalues --    1.56436   1.56936   1.57649   1.57915   1.58322
 Alpha virt. eigenvalues --    1.59299   1.60393   1.61255   1.61471   1.61935
 Alpha virt. eigenvalues --    1.62272   1.63134   1.63316   1.63505   1.63792
 Alpha virt. eigenvalues --    1.63941   1.64564   1.64892   1.65207   1.65751
 Alpha virt. eigenvalues --    1.66485   1.66652   1.66980   1.67385   1.67452
 Alpha virt. eigenvalues --    1.68380   1.68851   1.69116   1.69632   1.69756
 Alpha virt. eigenvalues --    1.69997   1.70158   1.71394   1.71696   1.72276
 Alpha virt. eigenvalues --    1.72514   1.72728   1.73133   1.73591   1.74454
 Alpha virt. eigenvalues --    1.74683   1.75044   1.75306   1.76066   1.76480
 Alpha virt. eigenvalues --    1.76789   1.76835   1.77278   1.77580   1.77943
 Alpha virt. eigenvalues --    1.78541   1.78885   1.78942   1.79386   1.79739
 Alpha virt. eigenvalues --    1.79853   1.80213   1.80791   1.81494   1.81650
 Alpha virt. eigenvalues --    1.82076   1.82609   1.82887   1.83561   1.83730
 Alpha virt. eigenvalues --    1.84406   1.84991   1.85666   1.86073   1.87353
 Alpha virt. eigenvalues --    1.88151   1.88540   1.88555   1.89058   1.89237
 Alpha virt. eigenvalues --    1.89521   1.90421   1.90726   1.91495   1.92186
 Alpha virt. eigenvalues --    1.92625   1.93203   1.93314   1.94025   1.94703
 Alpha virt. eigenvalues --    1.94811   1.94982   1.95348   1.95948   1.96719
 Alpha virt. eigenvalues --    1.97075   1.97787   1.98361   1.98814   1.99244
 Alpha virt. eigenvalues --    1.99446   2.00073   2.00769   2.00921   2.01259
 Alpha virt. eigenvalues --    2.01749   2.02358   2.02706   2.03298   2.03532
 Alpha virt. eigenvalues --    2.04255   2.04674   2.05216   2.05506   2.05754
 Alpha virt. eigenvalues --    2.06504   2.07037   2.07464   2.08153   2.08600
 Alpha virt. eigenvalues --    2.08927   2.09198   2.09910   2.10255   2.10956
 Alpha virt. eigenvalues --    2.11801   2.12384   2.13014   2.13649   2.13919
 Alpha virt. eigenvalues --    2.14792   2.15634   2.16044   2.16557   2.17207
 Alpha virt. eigenvalues --    2.17413   2.18304   2.18738   2.19449   2.19771
 Alpha virt. eigenvalues --    2.20177   2.20958   2.21882   2.22063   2.23620
 Alpha virt. eigenvalues --    2.24059   2.25026   2.25206   2.26782   2.27433
 Alpha virt. eigenvalues --    2.28805   2.30489   2.30563   2.30943   2.31211
 Alpha virt. eigenvalues --    2.31518   2.33219   2.33409   2.34121   2.34896
 Alpha virt. eigenvalues --    2.35061   2.35276   2.35536   2.36016   2.36580
 Alpha virt. eigenvalues --    2.36849   2.37667   2.37937   2.38883   2.39226
 Alpha virt. eigenvalues --    2.39838   2.40615   2.41618   2.42063   2.42477
 Alpha virt. eigenvalues --    2.43758   2.44408   2.45511   2.45869   2.46517
 Alpha virt. eigenvalues --    2.47281   2.49171   2.50113   2.51394   2.52052
 Alpha virt. eigenvalues --    2.52920   2.53546   2.54201   2.55102   2.56308
 Alpha virt. eigenvalues --    2.56417   2.57677   2.58328   2.58673   2.59593
 Alpha virt. eigenvalues --    2.60567   2.60910   2.61095   2.62658   2.62933
 Alpha virt. eigenvalues --    2.63340   2.64184   2.64274   2.64751   2.65154
 Alpha virt. eigenvalues --    2.65684   2.67400   2.68063   2.68740   2.69487
 Alpha virt. eigenvalues --    2.71680   2.72123   2.72279   2.72742   2.72898
 Alpha virt. eigenvalues --    2.73286   2.74175   2.74963   2.75860   2.77763
 Alpha virt. eigenvalues --    2.78550   2.79250   2.79526   2.79918   2.80365
 Alpha virt. eigenvalues --    2.80609   2.81532   2.82271   2.82644   2.83172
 Alpha virt. eigenvalues --    2.83464   2.86244   2.86870   2.87196   2.87719
 Alpha virt. eigenvalues --    2.88194   2.88271   2.88489   2.88850   2.90377
 Alpha virt. eigenvalues --    2.90884   2.91252   2.91330   2.93210   2.93859
 Alpha virt. eigenvalues --    2.95583   2.95911   2.96312   2.97092   2.97888
 Alpha virt. eigenvalues --    2.98660   2.99500   3.00062   3.01707   3.03869
 Alpha virt. eigenvalues --    3.05308   3.06831   3.07677   3.08789   3.08952
 Alpha virt. eigenvalues --    3.12525   3.12946   3.13390   3.13707   3.14126
 Alpha virt. eigenvalues --    3.15039   3.17724   3.18473   3.20240   3.20982
 Alpha virt. eigenvalues --    3.21974   3.22743   3.23450   3.24954   3.27441
 Alpha virt. eigenvalues --    3.28128   3.34201   3.34859   3.37132   3.39177
 Alpha virt. eigenvalues --    3.40887   3.46150   3.47105   3.53485   3.54344
 Alpha virt. eigenvalues --    3.54635   3.60443   3.62944   3.63526   3.68249
 Alpha virt. eigenvalues --    3.70853   3.72386
          Condensed to atoms (all electrons):
 Mulliken charges:
               1
     1  O   -0.198177
     2  O   -0.214529
     3  O   -0.239583
     4  O   -0.228824
     5  O   -0.233795
     6  O   -0.269911
     7  N   -0.192343
     8  N   -0.176288
     9  N   -0.068580
    10  N   -0.202278
    11  C   -0.020150
    12  C    0.289866
    13  C   -0.075918
    14  C   -0.065078
    15  C   -0.045458
    16  C    0.091172
    17  C   -0.111993
    18  C    0.109084
    19  C    0.009731
    20  C   -0.182542
    21  C    0.107660
    22  C    0.134281
    23  C   -0.120262
    24  C   -0.026698
    25  C   -0.031013
    26  C   -0.155398
    27  C   -0.089190
    28  C    0.107042
    29  C    0.143663
    30  C   -0.069646
    31  C    0.050861
    32  C    0.106363
    33  C   -0.118007
    34  C    0.149558
    35  C    0.028257
    36  C   -0.034770
    37  C    0.142569
    38  C    0.024339
    39  C   -0.157673
    40  C    0.107072
    41  C   -0.051999
    42  C    0.072361
    43  C   -0.052494
    44  H    0.046540
    45  H   -0.024337
    46  H   -0.014970
    47  H    0.132539
    48  H    0.147565
    49  H   -0.003343
    50  H    0.025466
    51  H    0.041541
    52  H    0.011889
    53  H    0.025947
    54  H    0.057958
    55  H    0.045972
    56  H    0.049240
    57  H    0.035086
    58  H    0.067192
    59  H    0.043537
    60  H    0.245671
    61  H    0.018479
    62  H    0.027714
    63  H    0.026798
    64  H   -0.027887
    65  H    0.020050
    66  H    0.029975
    67  H    0.022893
    68  H    0.045612
    69  H   -0.006066
    70  H    0.024816
    71  H    0.035730
    72  H    0.213369
    73  H    0.036341
    74  H    0.041512
    75  H    0.013968
    76  H    0.026118
    77  H    0.204167
    78  H    0.021304
    79  H    0.050333
 Sum of Mulliken charges =   0.00000
 Mulliken charges with hydrogens summed into heavy atoms:
               1
     1  O   -0.198177
     2  O   -0.001160
     3  O   -0.239583
     4  O   -0.024657
     5  O   -0.233795
     6  O   -0.269911
     7  N   -0.059803
     8  N   -0.028723
     9  N    0.177091
    10  N   -0.202278
    11  C    0.026390
    12  C    0.250558
    13  C   -0.075918
    14  C   -0.065078
    15  C   -0.045458
    16  C    0.091172
    17  C   -0.111993
    18  C    0.131206
    19  C    0.009731
    20  C   -0.141001
    21  C    0.107660
    22  C    0.134281
    23  C   -0.120262
    24  C    0.069097
    25  C    0.099284
    26  C   -0.155398
    27  C    0.021539
    28  C    0.107042
    29  C    0.189855
    30  C   -0.042848
    31  C    0.043025
    32  C    0.204843
    33  C   -0.124074
    34  C    0.149558
    35  C    0.028257
    36  C    0.025775
    37  C    0.142569
    38  C    0.024339
    39  C   -0.157673
    40  C    0.107072
    41  C   -0.015658
    42  C    0.153960
    43  C    0.019143
 Electronic spatial extent (au):  <R**2>=          32337.8483
 Charge=              0.0000 electrons
 Dipole moment (field-independent basis, Debye):
    X=             -0.3654    Y=              2.1345    Z=              3.4832  Tot=              4.1016
 Quadrupole moment (field-independent basis, Debye-Ang):
   XX=           -213.7620   YY=           -250.5097   ZZ=           -260.8989
   XY=             -9.9292   XZ=             27.9014   YZ=              5.7116
 Traceless Quadrupole moment (field-independent basis, Debye-Ang):
   XX=             27.9615   YY=             -8.7862   ZZ=            -19.1753
   XY=             -9.9292   XZ=             27.9014   YZ=              5.7116
 Octapole moment (field-independent basis, Debye-Ang**2):
  XXX=             31.1906  YYY=            151.9867  ZZZ=             91.2412  XYY=            -88.9322
  XXY=            -66.8409  XXZ=             50.9520  XZZ=            -84.9729  YZZ=            -44.5623
  YYZ=             75.4849  XYZ=            -16.8402
 Hexadecapole moment (field-independent basis, Debye-Ang**3):
 XXXX=         -23627.4857 YYYY=         -11508.5057 ZZZZ=          -5042.6890 XXXY=           -142.7572
 XXXZ=            453.0979 YYYX=           -233.8186 YYYZ=            894.9337 ZZZX=              0.1486
 ZZZY=           -131.5090 XXYY=          -6013.0012 XXZZ=          -5162.1282 YYZZ=          -2852.1156
 XXYZ=            -33.7795 YYXZ=             66.3719 ZZXY=            177.0206
 N-N= 4.909267538613D+03 E-N=-1.434660443902D+04  KE= 1.926608880459D+03
 1\1\GINC-PEDRO-RYZENSSD\SP\RB3LYP TD-FC\SVP\C33H36N4O6\PADAWAN\10-Jul-
 2019\0\\# td=(NStates=1) B3LYP/SVP\\TD\\0,1\O,0,-5.2983051923,0.171851
 3001,-3.3055633891\O,0,2.922529079,2.9481105345,3.3225585203\O,0,3.244
 6452023,0.6726922783,3.3019621574\O,0,1.2905731932,-7.0769335978,1.763
 7467845\O,0,0.7106878182,-7.0197728813,-0.4501789491\O,0,1.9654300023,
 4.1072236894,-0.024474183\N,0,-2.4057911818,-0.9084658532,0.5770442315
 \N,0,-4.4192058245,0.6278170303,-1.2180037325\N,0,1.791308858,-0.71080
 30613,-0.573008739\N,0,2.6592972001,1.9836268128,-0.5129487699\C,0,-4.
 8169939457,1.2093011095,-0.0398335269\C,0,-4.4791925247,0.3574221599,1
 .1681988806\C,0,-2.9896724234,0.1026551479,1.3900843485\C,0,-2.0006951
 138,0.6543875858,2.0827390721\C,0,-0.7759514826,0.037945236,1.82119088
 13\C,0,-0.9826226373,-0.9256176709,0.8142981381\C,0,-6.3647925767,1.30
 15219081,-0.1940178156\C,0,0.5564391272,0.1761955427,2.5370083696\C,0,
 -6.707593191,0.9318854937,-1.5109319509\C,0,-0.2241381558,-1.915696870
 8,0.2212092966\C,0,1.0795108623,-1.8030628189,-0.3258913823\C,0,-5.436
 5117093,0.5186515584,-2.1569051313\C,0,1.8828741573,-2.9096045365,-0.8
 384391605\C,0,-2.1721839596,1.7178135134,3.0997586159\C,0,-7.114053397
 5,1.9865941954,0.8398445984\C,0,3.11881741,-2.3766496893,-1.3072318803
 \C,0,1.1520619788,1.5723903812,2.5016153799\C,0,2.9974062816,-0.907790
 2184,-1.0061642474\C,0,1.5413496729,-4.3153059102,-0.8836768416\C,0,-7
 .9892756485,0.7850130657,-2.1365283748\C,0,1.7178234724,-5.0369299354,
 0.5263789644\C,0,4.3604237588,-3.0132025861,-1.9027122686\C,0,3.901969
 1391,0.0287045323,-1.4151817133\C,0,2.5866112765,1.6646406384,3.070696
 9748\C,0,3.7828028062,1.4958288392,-1.0786836391\C,0,-9.2770858816,0.7
 717750213,-1.6841871813\C,0,1.1621535238,-6.458834613,0.5395347462\C,0
 ,4.7372777927,2.5183038854,-1.4259563221\C,0,4.2178674212,3.6772218824
 ,-0.971096681\C,0,2.8369024462,3.2681085123,-0.4316917162\C,0,6.003828
 3872,2.3015820296,-2.0962111499\C,0,4.5773885323,5.0905905763,-1.12212
 48844\C,0,6.7085484062,3.1470711285,-2.9673013982\H,0,-4.4851164623,2.
 4252375687,0.1301525573\H,0,-5.0477132004,-0.5233973308,1.0131425626\H
 ,0,-4.7006801872,0.9364878779,2.0774398785\H,0,-2.9296303734,-1.379994
 857,-0.2059929906\H,0,-3.4059762909,0.5663397102,-1.4859157889\H,0,0.4
 816147458,-0.0214621727,3.6119065229\H,0,1.2673251765,-0.6594958336,2.
 2716154819\H,0,-0.843304823,-2.9422521885,0.1464544638\H,0,-3.34649680
 17,1.6409406794,3.5414303106\H,0,-1.5909839578,1.5302416517,4.04058378
 3\H,0,-2.0572185212,2.8488335192,2.875949749\H,0,-6.4702409192,2.90606
 95591,1.2903971585\H,0,-7.4985525636,1.4144377722,1.8054829709\H,0,-8.
 1228807794,2.4425364237,0.6005990571\H,0,1.1682890102,2.0557381818,1.5
 026302706\H,0,0.5668007202,2.435391627,3.0821385684\H,0,1.6519908174,0
 .4075971499,-0.1218144075\H,0,2.2251107697,-4.828528376,-1.5734654087\
 H,0,0.4331313935,-4.3883887523,-1.0914919189\H,0,-7.9883041554,0.69649
 22832,-3.2769886109\H,0,1.4686298031,-4.5748417885,1.3583855262\H,0,2.
 7593369766,-5.1478312621,0.8812220606\H,0,4.3301974635,-4.2492524537,-
 1.8676558182\H,0,5.1521473362,-2.827441625,-1.2557204935\H,0,4.4115482
 511,-2.6365957152,-2.9078311054\H,0,4.9430971168,-0.2040245113,-1.8035
 270409\H,0,-9.3968692091,0.7313340306,-0.5401947057\H,0,-10.1016583309
 ,0.7317875572,-2.3947792196\H,0,3.8429107225,2.7827508437,3.8554737296
 \H,0,6.4073357392,1.2887230788,-1.6686443676\H,0,4.3302440346,5.472410
 333,-2.2794149965\H,0,4.1438123853,5.8073778077,-0.548627946\H,0,5.737
 6555371,5.1140278574,-1.2888006282\H,0,1.1491224507,-8.0683680793,1.63
 67333464\H,0,7.707051987,2.8639336997,-3.2421229745\H,0,6.4122426686,4
 .0652640977,-3.5729901881\\Version=ES64L-G09RevD.01\State=1-A\HF=-1947
 .8800453\RMSD=8.199e-09\PG=C01 [X(C33H36N4O6)]\\@


 BE NOT THE FIRST BY WHOM THE NEW ARE TRIED,
 NOR YET THE THE LAST TO LAY THE OLD ASIDE.

                          -- ALEXANDER POPE
 Job cpu time:       0 days  4 hours 35 minutes  1.3 seconds.
 File lengths (MBytes):  RWF=    769 Int=      0 D2E=      0 Chk=     58 Scr=      1
 Normal termination of Gaussian 09 at Wed Jul 10 00:57:00 2019.
