 Entering Gaussian System, Link 0=g16
 Input=Geometria-372-.com
 Output=Geometria-372-.log
 Initial command:
 /usr/local/g09/l1.exe "/home/padawan/israel-mol/dihydrobiliverdin/spectra/abs/Gau-69173.inp" -scrdir="/home/padawan/israel-mol/dihydrobiliverdin/spectra/abs/"
 Entering Link 1 = /usr/local/g09/l1.exe PID=     69175.
  
 Copyright (c) 1988,1990,1992,1993,1995,1998,2003,2009,2013,
            Gaussian, Inc.  All Rights Reserved.
  
 This is part of the Gaussian(R) 09 program.  It is based on
 the Gaussian(R) 03 system (copyright 2003, Gaussian, Inc.),
 the Gaussian(R) 98 system (copyright 1998, Gaussian, Inc.),
 the Gaussian(R) 94 system (copyright 1995, Gaussian, Inc.),
 the Gaussian 92(TM) system (copyright 1992, Gaussian, Inc.),
 the Gaussian 90(TM) system (copyright 1990, Gaussian, Inc.),
 the Gaussian 88(TM) system (copyright 1988, Gaussian, Inc.),
 the Gaussian 86(TM) system (copyright 1986, Carnegie Mellon
 University), and the Gaussian 82(TM) system (copyright 1983,
 Carnegie Mellon University). Gaussian is a federally registered
 trademark of Gaussian, Inc.
  
 This software contains proprietary and confidential information,
 including trade secrets, belonging to Gaussian, Inc.
  
 This software is provided under written license and may be
 used, copied, transmitted, or stored only in accord with that
 written license.
  
 The following legend is applicable only to US Government
 contracts under FAR:
  
                    RESTRICTED RIGHTS LEGEND
  
 Use, reproduction and disclosure by the US Government is
 subject to restrictions as set forth in subparagraphs (a)
 and (c) of the Commercial Computer Software - Restricted
 Rights clause in FAR 52.227-19.
  
 Gaussian, Inc.
 340 Quinnipiac St., Bldg. 40, Wallingford CT 06492
  
  
 ---------------------------------------------------------------
 Warning -- This program may not be used in any manner that
 competes with the business of Gaussian, Inc. or will provide
 assistance to any competitor of Gaussian, Inc.  The licensee
 of this program is prohibited from giving any competitor of
 Gaussian, Inc. access to this program.  By using this program,
 the user acknowledges that Gaussian, Inc. is engaged in the
 business of creating and licensing software in the field of
 computational chemistry and represents and warrants to the
 licensee that it is not a competitor of Gaussian, Inc. and that
 it will not use this program in any manner prohibited above.
 ---------------------------------------------------------------
  

 Cite this work as:
 Gaussian 09, Revision D.01,
 M. J. Frisch, G. W. Trucks, H. B. Schlegel, G. E. Scuseria, 
 M. A. Robb, J. R. Cheeseman, G. Scalmani, V. Barone, B. Mennucci, 
 G. A. Petersson, H. Nakatsuji, M. Caricato, X. Li, H. P. Hratchian, 
 A. F. Izmaylov, J. Bloino, G. Zheng, J. L. Sonnenberg, M. Hada, 
 M. Ehara, K. Toyota, R. Fukuda, J. Hasegawa, M. Ishida, T. Nakajima, 
 Y. Honda, O. Kitao, H. Nakai, T. Vreven, J. A. Montgomery, Jr., 
 J. E. Peralta, F. Ogliaro, M. Bearpark, J. J. Heyd, E. Brothers, 
 K. N. Kudin, V. N. Staroverov, T. Keith, R. Kobayashi, J. Normand, 
 K. Raghavachari, A. Rendell, J. C. Burant, S. S. Iyengar, J. Tomasi, 
 M. Cossi, N. Rega, J. M. Millam, M. Klene, J. E. Knox, J. B. Cross, 
 V. Bakken, C. Adamo, J. Jaramillo, R. Gomperts, R. E. Stratmann, 
 O. Yazyev, A. J. Austin, R. Cammi, C. Pomelli, J. W. Ochterski, 
 R. L. Martin, K. Morokuma, V. G. Zakrzewski, G. A. Voth, 
 P. Salvador, J. J. Dannenberg, S. Dapprich, A. D. Daniels, 
 O. Farkas, J. B. Foresman, J. V. Ortiz, J. Cioslowski, 
 and D. J. Fox, Gaussian, Inc., Wallingford CT, 2013.
 
 ******************************************
 Gaussian 09:  ES64L-G09RevD.01 24-Apr-2013
                10-Jul-2019 
 ******************************************
 %nproc=4
 Will use up to    4 processors via shared memory.
 %Mem=2GB
 --------------------------
 # td=(NStates=1) B3LYP/SVP
 --------------------------
 1/38=1/1;
 2/12=2,17=6,18=5,40=1/2;
 3/5=18,7=101,11=9,16=1,25=1,30=1,74=-5/1,2,8,3;
 4//1;
 5/5=2,38=5/2;
 8/6=1,10=1,108=1/1;
 9/41=1,42=1,70=2/14;
 6/7=2,8=2,9=2,10=2/1;
 99/5=1,9=1/99;
 --
 TD
 --
 Symbolic Z-matrix:
 Charge =  0 Multiplicity = 1
 8                    -5.29251   0.17232  -3.21683 
 8                     3.05307   2.9933    2.90525 
 8                     3.25558   0.78382   3.28906 
 8                     1.49724  -7.15003   1.68357 
 8                     0.80858  -6.9958   -0.48059 
 8                     1.76381   3.94161  -0.20912 
 7                    -2.41673  -1.00825   0.66531 
 7                    -4.42366   0.57235  -1.14759 
 7                     1.88811  -0.77031  -0.45211 
 7                     2.57291   1.83538  -0.55041 
 6                    -4.84178   1.1907    0.01679 
 6                    -4.48101   0.42022   1.26405 
 6                    -2.99405   0.02469   1.39871 
 6                    -2.01516   0.75123   2.06351 
 6                    -0.7336    0.03561   1.77858 
 6                    -1.01123  -0.89879   0.79546 
 6                    -6.24899   1.43567  -0.16092 
 6                     0.55978   0.33463   2.55561 
 6                    -6.66869   1.05477  -1.43767 
 6                    -0.24098  -1.93849   0.1353 
 6                     1.08668  -1.87783  -0.36905 
 6                    -5.51001   0.53952  -2.10125 
 6                     1.95297  -2.94352  -0.89696 
 6                    -2.25992   1.78409   3.00645 
 6                    -7.17811   1.96217   0.83572 
 6                     3.16069  -2.42311  -1.21005 
 6                     1.12848   1.70811   2.45968 
 6                     3.07944  -1.02549  -1.01367 
 6                     1.50989  -4.42816  -0.91926 
 6                    -7.92298   1.08536  -2.16043 
 6                     1.75347  -5.10411   0.45678 
 6                     4.33425  -3.09579  -1.81987 
 6                     3.93268   0.0588   -1.26722 
 6                     2.50946   1.73321   2.95947 
 6                     3.70015   1.43816  -1.08666 
 6                    -9.15119   1.009    -1.59039 
 6                     1.34773  -6.54041   0.48846 
 6                     4.59332   2.47665  -1.42839 
 6                     3.97518   3.60459  -1.15793 
 6                     2.64565   3.22954  -0.58285 
 6                     5.97998   2.24923  -1.82663 
 6                     4.40469   5.1295   -1.11231 
 6                     6.82177   3.2132   -2.36237 
 1                    -4.24623   2.1427    0.25993 
 1                    -4.97243  -0.54242   1.20587 
 1                    -4.96993   0.88606   2.10064 
 1                    -2.91224  -1.66436  -0.01432 
 1                    -3.40965   0.4167   -1.46404 
 1                     0.41099  -0.09506   3.60658 
 1                     1.412    -0.42258   2.12469 
 1                    -0.6053   -2.84208  -0.07402 
 1                    -3.40441   1.7451    3.58669 
 1                    -1.4208    1.72757   3.68039 
 1                    -2.05037   2.81652   2.58296 
 1                    -6.90052   2.55191   1.64167 
 1                    -7.2869    1.05128   1.57994 
 1                    -8.01729   2.49493   0.36663 
 1                     1.13584   2.10949   1.46098 
 1                     0.69231   2.57316   3.0311 
 1                     1.4183    0.01612  -0.34812 
 1                     1.99424  -4.66487  -1.80703 
 1                     0.56097  -4.42386  -1.28957 
 1                    -7.87307   1.15532  -3.32405 
 1                     1.25948  -4.58446   1.33477 
 1                     2.9725   -5.02795   0.7114 
 1                     4.11782  -4.229    -1.93384 
 1                     5.33933  -2.92244  -1.14281 
 1                     4.62867  -2.84652  -2.93083 
 1                     4.82607  -0.08814  -1.99811 
 1                    -9.17352   0.88592  -0.66502 
 1                    -10.14262   1.07586  -2.25579 
 1                     3.95507   3.05858   3.29095 
 1                     6.37873   1.34113  -1.428 
 1                     4.76712   5.40661  -2.24235 
 1                     3.62266   5.80118  -0.6074 
 1                     5.48737   5.10391  -0.74298 
 1                     1.25696  -8.16414   1.36197 
 1                     7.91645   2.93686  -2.66326 
 1                     6.33984   4.04652  -2.77331 
 
 Stoichiometry    C33H36N4O6
 Framework group  C1[X(C33H36N4O6)]
 Deg. of freedom   231
 Full point group                 C1      NOp   1
 Largest Abelian subgroup         C1      NOp   1
 Largest concise Abelian subgroup C1      NOp   1
                         Standard orientation:                         
 ---------------------------------------------------------------------
 Center     Atomic      Atomic             Coordinates (Angstroms)
 Number     Number       Type             X           Y           Z
 ---------------------------------------------------------------------
      1          8           0        5.315833   -0.015701   -3.184687
      2          8           0       -2.956078   -3.065999    2.927412
      3          8           0       -3.242548   -0.860843    3.281403
      4          8           0       -1.769609    7.111648    1.582810
      5          8           0       -1.062761    6.955466   -0.575340
      6          8           0       -1.613966   -4.005495   -0.167240
      7          7           0        2.375121    1.106809    0.665913
      8          7           0        4.450010   -0.421250   -1.115241
      9          7           0       -1.911191    0.695080   -0.472025
     10          7           0       -2.498440   -1.935266   -0.540283
     11          6           0        4.883762   -1.008748    0.059349
     12          6           0        4.487256   -0.236327    1.294496
     13          6           0        2.985891    0.105450    1.415815
     14          6           0        2.030606   -0.648364    2.084586
     15          6           0        0.725157    0.015524    1.783337
     16          6           0        0.973877    0.946957    0.789720
     17          6           0        6.300120   -1.203585   -0.107419
     18          6           0       -0.560889   -0.321341    2.557048
     19          6           0        6.713063   -0.823704   -1.386672
     20          6           0        0.169628    1.948849    0.111896
     21          6           0       -1.151834    1.832542   -0.398928
     22          6           0        5.540092   -0.360313   -2.063250
     23          6           0       -2.053813    2.858532   -0.945385
     24          6           0        2.307799   -1.659316    3.042185
     25          6           0        7.242114   -1.682495    0.901081
     26          6           0       -3.239540    2.289725   -1.258352
     27          6           0       -1.077759   -1.716090    2.475818
     28          6           0       -3.107776    0.898700   -1.043412
     29          6           0       -1.665878    4.358182   -0.984512
     30          6           0        7.971929   -0.816964   -2.102049
     31          6           0       -1.942553    5.042136    0.381281
     32          6           0       -4.433530    2.910561   -1.883307
     33          6           0       -3.918747   -0.219647   -1.287560
     34          6           0       -2.459834   -1.786021    2.968270
     35          6           0       -3.636390   -1.587019   -1.087846
     36          6           0        9.193039   -0.687815   -1.526287
     37          6           0       -1.590476    6.492793    0.396554
     38          6           0       -4.488433   -2.662205   -1.420980
     39          6           0       -3.830582   -3.762896   -1.132504
     40          6           0       -2.519317   -3.331468   -0.555025
     41          6           0       -5.880146   -2.491486   -1.829778
     42          6           0       -4.203598   -5.301985   -1.069477
     43          6           0       -6.682448   -3.492783   -2.357591
     44          1           0        4.322431   -1.979007    0.311530
     45          1           0        4.943028    0.743059    1.226542
     46          1           0        4.988068   -0.672997    2.139745
     47          1           0        2.850053    1.772131   -0.019440
     48          1           0        3.432846   -0.307382   -1.439273
     49          1           0       -0.434404    0.126952    3.603154
     50          1           0       -1.437968    0.398172    2.111651
     51          1           0        0.501489    2.862591   -0.107119
     52          1           0        3.446566   -1.570490    3.628172
     53          1           0        1.463136   -1.625372    3.710700
     54          1           0        2.139154   -2.704131    2.630980
     55          1           0        6.981735   -2.271796    1.713072
     56          1           0        7.312646   -0.758771    1.634004
     57          1           0        8.103238   -2.189697    0.443566
     58          1           0       -1.064270   -2.130179    1.482379
     59          1           0       -0.613291   -2.556990    3.060811
     60          1           0       -1.413214   -0.071984   -0.355253
     61          1           0       -2.153339    4.565414   -1.877932
     62          1           0       -0.715258    4.384370   -1.349503
     63          1           0        7.931614   -0.903568   -3.264924
     64          1           0       -1.434928    4.552425    1.268649
     65          1           0       -3.159431    4.924059    0.630141
     66          1           0       -4.258525    4.049473   -2.010776
     67          1           0       -5.435533    2.708696   -1.209598
     68          1           0       -4.711861    2.636376   -2.992544
     69          1           0       -4.812567   -0.115293   -2.025206
     70          1           0        9.205250   -0.552193   -0.602483
     71          1           0       10.190230   -0.726336   -2.185289
     72          1           0       -3.857335   -3.159775    3.308952
     73          1           0       -6.314633   -1.593793   -1.445164
     74          1           0       -4.548744   -5.606749   -2.197803
     75          1           0       -3.400270   -5.937682   -0.551593
     76          1           0       -5.288674   -5.311862   -0.706473
     77          1           0       -1.565121    8.129784    1.249404
     78          1           0       -7.784791   -3.261113   -2.668062
     79          1           0       -6.167537   -4.312831   -2.755022
 ---------------------------------------------------------------------
 Rotational constants (GHZ):      0.0752264      0.0450827      0.0346834
 Standard basis: SVP (5D, 7F)
 There are   825 symmetry adapted cartesian basis functions of A   symmetry.
 There are   782 symmetry adapted basis functions of A   symmetry.
   782 basis functions,  1327 primitive gaussians,   825 cartesian basis functions
   155 alpha electrons      155 beta electrons
       nuclear repulsion energy      4943.3373078165 Hartrees.
 NAtoms=   79 NActive=   79 NUniq=   79 SFac= 1.00D+00 NAtFMM=   60 NAOKFM=T Big=T
 Integral buffers will be    131072 words long.
 Regular integral format.
 Two-electron integral symmetry is turned on.
 One-electron integrals computed using PRISM.
 NBasis=   782 RedAO= T EigKep=  3.43D-04  NBF=   782
 NBsUse=   782 1.00D-06 EigRej= -1.00D+00 NBFU=   782
 ExpMin= 1.22D-01 ExpMax= 2.27D+03 ExpMxC= 3.41D+02 IAcc=1 IRadAn=         1 AccDes= 0.00D+00
 Harris functional with IExCor=  402 and IRadAn=       1 diagonalized for initial guess.
 HarFok:  IExCor=  402 AccDes= 0.00D+00 IRadAn=         1 IDoV= 1 UseB2=F ITyADJ=14
 ICtDFT=  3500011 ScaDFX=  1.000000  1.000000  1.000000  1.000000
 FoFCou: FMM=F IPFlag=           0 FMFlag=      100000 FMFlg1=        2001
         NFxFlg=           0 DoJE=T BraDBF=F KetDBF=T FulRan=T
         wScrn=  0.000000 ICntrl=     500 IOpCl=  0 I1Cent=   200000004 NGrid=           0
         NMat0=    1 NMatS0=      1 NMatT0=    0 NMatD0=    1 NMtDS0=    0 NMtDT0=    0
 Petite list used in FoFCou.
 Requested convergence on RMS density matrix=1.00D-08 within 128 cycles.
 Requested convergence on MAX density matrix=1.00D-06.
 Requested convergence on             energy=1.00D-06.
 No special actions if energy rises.
 Integral accuracy reduced to 1.0D-05 until final iterations.
 Initial convergence to 1.0D-05 achieved.  Increase integral accuracy.
 SCF Done:  E(RB3LYP) =  -1947.83968171     A.U. after   17 cycles
            NFock= 17  Conv=0.38D-08     -V/T= 2.0103
 DoSCS=F DFT=T ScalE2(SS,OS)=  1.000000  1.000000
 ExpMin= 1.22D-01 ExpMax= 2.27D+03 ExpMxC= 3.41D+02 IAcc=3 IRadAn=         5 AccDes= 0.00D+00
 HarFok:  IExCor=  205 AccDes= 0.00D+00 IRadAn=         5 IDoV=-2 UseB2=F ITyADJ=14
 ICtDFT= 12500011 ScaDFX=  1.000000  1.000000  1.000000  1.000000
 Range of M.O.s used for correlation:    44   782
 NBasis=   782 NAE=   155 NBE=   155 NFC=    43 NFV=     0
 NROrb=    739 NOA=   112 NOB=   112 NVA=   627 NVB=   627

 **** Warning!!: The smallest alpha delta epsilon is  0.81691188D-01

 Would need an additional        140608300000 words for in-memory AO integral storage.
 Orbital symmetries:
       Occupied  (A) (A) (A) (A) (A) (A) (A) (A) (A) (A) (A) (A)
                 (A) (A) (A) (A) (A) (A) (A) (A) (A) (A) (A) (A)
                 (A) (A) (A) (A) (A) (A) (A) (A) (A) (A) (A) (A)
                 (A) (A) (A) (A) (A) (A) (A) (A) (A) (A) (A) (A)
                 (A) (A) (A) (A) (A) (A) (A) (A) (A) (A) (A) (A)
                 (A) (A) (A) (A) (A) (A) (A) (A) (A) (A) (A) (A)
                 (A) (A) (A) (A) (A) (A) (A) (A) (A) (A) (A) (A)
                 (A) (A) (A) (A) (A) (A) (A) (A) (A) (A) (A) (A)
                 (A) (A) (A) (A) (A) (A) (A) (A) (A) (A) (A) (A)
                 (A) (A) (A) (A) (A) (A) (A) (A) (A) (A) (A) (A)
                 (A) (A) (A) (A) (A) (A) (A) (A) (A) (A) (A) (A)
                 (A) (A) (A) (A) (A) (A) (A) (A) (A) (A) (A) (A)
                 (A) (A) (A) (A) (A) (A) (A) (A) (A) (A) (A)
       Virtual   (A) (A) (A) (A) (A) (A) (A) (A) (A) (A) (A) (A)
                 (A) (A) (A) (A) (A) (A) (A) (A) (A) (A) (A) (A)
                 (A) (A) (A) (A) (A) (A) (A) (A) (A) (A) (A) (A)
                 (A) (A) (A) (A) (A) (A) (A) (A) (A) (A) (A) (A)
                 (A) (A) (A) (A) (A) (A) (A) (A) (A) (A) (A) (A)
                 (A) (A) (A) (A) (A) (A) (A) (A) (A) (A) (A) (A)
                 (A) (A) (A) (A) (A) (A) (A) (A) (A) (A) (A) (A)
                 (A) (A) (A) (A) (A) (A) (A) (A) (A) (A) (A) (A)
                 (A) (A) (A) (A) (A) (A) (A) (A) (A) (A) (A) (A)
                 (A) (A) (A) (A) (A) (A) (A) (A) (A) (A) (A) (A)
                 (A) (A) (A) (A) (A) (A) (A) (A) (A) (A) (A) (A)
                 (A) (A) (A) (A) (A) (A) (A) (A) (A) (A) (A) (A)
                 (A) (A) (A) (A) (A) (A) (A) (A) (A) (A) (A) (A)
                 (A) (A) (A) (A) (A) (A) (A) (A) (A) (A) (A) (A)
                 (A) (A) (A) (A) (A) (A) (A) (A) (A) (A) (A) (A)
                 (A) (A) (A) (A) (A) (A) (A) (A) (A) (A) (A) (A)
                 (A) (A) (A) (A) (A) (A) (A) (A) (A) (A) (A) (A)
                 (A) (A) (A) (A) (A) (A) (A) (A) (A) (A) (A) (A)
                 (A) (A) (A) (A) (A) (A) (A) (A) (A) (A) (A) (A)
                 (A) (A) (A) (A) (A) (A) (A) (A) (A) (A) (A) (A)
                 (A) (A) (A) (A) (A) (A) (A) (A) (A) (A) (A) (A)
                 (A) (A) (A) (A) (A) (A) (A) (A) (A) (A) (A) (A)
                 (A) (A) (A) (A) (A) (A) (A) (A) (A) (A) (A) (A)
                 (A) (A) (A) (A) (A) (A) (A) (A) (A) (A) (A) (A)
                 (A) (A) (A) (A) (A) (A) (A) (A) (A) (A) (A) (A)
                 (A) (A) (A) (A) (A) (A) (A) (A) (A) (A) (A) (A)
                 (A) (A) (A) (A) (A) (A) (A) (A) (A) (A) (A) (A)
                 (A) (A) (A) (A) (A) (A) (A) (A) (A) (A) (A) (A)
                 (A) (A) (A) (A) (A) (A) (A) (A) (A) (A) (A) (A)
                 (A) (A) (A) (A) (A) (A) (A) (A) (A) (A) (A) (A)
                 (A) (A) (A) (A) (A) (A) (A) (A) (A) (A) (A) (A)
                 (A) (A) (A) (A) (A) (A) (A) (A) (A) (A) (A) (A)
                 (A) (A) (A) (A) (A) (A) (A) (A) (A) (A) (A) (A)
                 (A) (A) (A) (A) (A) (A) (A) (A) (A) (A) (A) (A)
                 (A) (A) (A) (A) (A) (A) (A) (A) (A) (A) (A) (A)
                 (A) (A) (A) (A) (A) (A) (A) (A) (A) (A) (A) (A)
                 (A) (A) (A) (A) (A) (A) (A) (A) (A) (A) (A) (A)
                 (A) (A) (A) (A) (A) (A) (A) (A) (A) (A) (A) (A)
                 (A) (A) (A) (A) (A) (A) (A) (A) (A) (A) (A) (A)
                 (A) (A) (A) (A) (A) (A) (A) (A) (A) (A) (A) (A)
                 (A) (A) (A) (A) (A) (A) (A) (A) (A) (A) (A) (A)
                 (A) (A) (A) (A) (A) (A) (A) (A) (A) (A) (A) (A)
                 (A) (A) (A) (A) (A) (A) (A) (A) (A) (A) (A) (A)
                 (A) (A) (A) (A) (A) (A) (A) (A) (A) (A) (A) (A)
                 (A) (A) (A) (A) (A) (A) (A) (A) (A) (A) (A) (A)
                 (A) (A) (A) (A) (A) (A) (A) (A) (A) (A) (A) (A)
                 (A) (A) (A) (A) (A) (A) (A) (A) (A) (A) (A) (A)
                 (A) (A) (A) (A) (A) (A) (A) (A) (A) (A) (A) (A)
                 (A) (A) (A) (A) (A) (A) (A) (A) (A) (A) (A) (A)
                 (A) (A) (A) (A) (A) (A) (A) (A) (A) (A) (A) (A)
                 (A) (A) (A) (A) (A) (A) (A) (A) (A) (A) (A) (A)
                 (A) (A) (A) (A) (A) (A) (A) (A) (A) (A) (A) (A)
                 (A) (A) (A)
     8 initial guesses have been made.
 Convergence on wavefunction:    0.001000000000000
 Iteration     1 Dimension     8 NMult     0 NNew      8
 CISAX will form     8 AO SS matrices at one time.
 Iteration     2 Dimension    12 NMult     8 NNew      4
 Iteration     3 Dimension    16 NMult    12 NNew      4
 Iteration     4 Dimension    20 NMult    16 NNew      4
 Iteration     5 Dimension    24 NMult    20 NNew      4
 Iteration     6 Dimension    28 NMult    24 NNew      4
 ***********************************************************************
 Excited states from <AA,BB:AA,BB> singles matrix:
 ***********************************************************************
 
 Ground to excited state transition densities written to RWF  633
 Ground to excited state transition electric dipole moments (Au):
       state          X           Y           Z        Dip. S.      Osc.
         1        -2.4993     -1.3366     -0.8950      8.8343      0.4602
 Ground to excited state transition velocity dipole moments (Au):
       state          X           Y           Z        Dip. S.      Osc.
         1         0.1892      0.0949      0.0699      0.0497      0.4240
 Ground to excited state transition magnetic dipole moments (Au):
       state          X           Y           Z
         1         0.8134     -0.0233     -1.6297
 Ground to excited state transition velocity quadrupole moments (Au):
       state          XX          YY          ZZ          XY          XZ          YZ
         1        -0.3492     -0.4659      0.1021     -0.7211     -0.3470     -0.2443
 <0|del|b> * <b|rxdel|0> + <0|del|b> * <b|delr+rdel|0>
 Rotatory Strengths (R) in cgs (10**-40 erg-esu-cm/Gauss)
       state          XX          YY          ZZ    R(velocity)    E-M Angle
         1      -604.8259    199.6755    746.3246    113.7247       84.67
 1/2[<0|r|b>*<b|rxdel|0> + (<0|rxdel|b>*<b|r|0>)*]
 Rotatory Strengths (R) in cgs (10**-40 erg-esu-cm/Gauss)
       state          XX          YY          ZZ     R(length)
         1      1437.6385    -21.9879  -1031.4030    128.0825
  1/2[<0|del|b>*<b|r|0> + (<0|r|b>*<b|del|0>)*] (Au)
       state          X           Y           Z        Dip. S.   Osc.(frdel)
         1        -0.4729     -0.1269     -0.0626      0.6624      0.4416

 Excitation energies and oscillator strengths:
 
 Excited State   1:      Singlet-A      2.1265 eV  583.05 nm  f=0.4602  <S**2>=0.000
     155 ->156         0.69823
     155 <-156        -0.12199
 This state for optimization and/or second-order correction.
 Total Energy, E(TD-HF/TD-KS) =  -1947.76153525    
 Copying the excited state density for this state as the 1-particle RhoCI density.
 SavETr:  write IOETrn=   770 NScale= 10 NData=  16 NLR=1 NState=    1 LETran=      28.

 **********************************************************************

            Population analysis using the SCF density.

 **********************************************************************

 Orbital symmetries:
       Occupied  (A) (A) (A) (A) (A) (A) (A) (A) (A) (A) (A) (A)
                 (A) (A) (A) (A) (A) (A) (A) (A) (A) (A) (A) (A)
                 (A) (A) (A) (A) (A) (A) (A) (A) (A) (A) (A) (A)
                 (A) (A) (A) (A) (A) (A) (A) (A) (A) (A) (A) (A)
                 (A) (A) (A) (A) (A) (A) (A) (A) (A) (A) (A) (A)
                 (A) (A) (A) (A) (A) (A) (A) (A) (A) (A) (A) (A)
                 (A) (A) (A) (A) (A) (A) (A) (A) (A) (A) (A) (A)
                 (A) (A) (A) (A) (A) (A) (A) (A) (A) (A) (A) (A)
                 (A) (A) (A) (A) (A) (A) (A) (A) (A) (A) (A) (A)
                 (A) (A) (A) (A) (A) (A) (A) (A) (A) (A) (A) (A)
                 (A) (A) (A) (A) (A) (A) (A) (A) (A) (A) (A) (A)
                 (A) (A) (A) (A) (A) (A) (A) (A) (A) (A) (A) (A)
                 (A) (A) (A) (A) (A) (A) (A) (A) (A) (A) (A)
       Virtual   (A) (A) (A) (A) (A) (A) (A) (A) (A) (A) (A) (A)
                 (A) (A) (A) (A) (A) (A) (A) (A) (A) (A) (A) (A)
                 (A) (A) (A) (A) (A) (A) (A) (A) (A) (A) (A) (A)
                 (A) (A) (A) (A) (A) (A) (A) (A) (A) (A) (A) (A)
                 (A) (A) (A) (A) (A) (A) (A) (A) (A) (A) (A) (A)
                 (A) (A) (A) (A) (A) (A) (A) (A) (A) (A) (A) (A)
                 (A) (A) (A) (A) (A) (A) (A) (A) (A) (A) (A) (A)
                 (A) (A) (A) (A) (A) (A) (A) (A) (A) (A) (A) (A)
                 (A) (A) (A) (A) (A) (A) (A) (A) (A) (A) (A) (A)
                 (A) (A) (A) (A) (A) (A) (A) (A) (A) (A) (A) (A)
                 (A) (A) (A) (A) (A) (A) (A) (A) (A) (A) (A) (A)
                 (A) (A) (A) (A) (A) (A) (A) (A) (A) (A) (A) (A)
                 (A) (A) (A) (A) (A) (A) (A) (A) (A) (A) (A) (A)
                 (A) (A) (A) (A) (A) (A) (A) (A) (A) (A) (A) (A)
                 (A) (A) (A) (A) (A) (A) (A) (A) (A) (A) (A) (A)
                 (A) (A) (A) (A) (A) (A) (A) (A) (A) (A) (A) (A)
                 (A) (A) (A) (A) (A) (A) (A) (A) (A) (A) (A) (A)
                 (A) (A) (A) (A) (A) (A) (A) (A) (A) (A) (A) (A)
                 (A) (A) (A) (A) (A) (A) (A) (A) (A) (A) (A) (A)
                 (A) (A) (A) (A) (A) (A) (A) (A) (A) (A) (A) (A)
                 (A) (A) (A) (A) (A) (A) (A) (A) (A) (A) (A) (A)
                 (A) (A) (A) (A) (A) (A) (A) (A) (A) (A) (A) (A)
                 (A) (A) (A) (A) (A) (A) (A) (A) (A) (A) (A) (A)
                 (A) (A) (A) (A) (A) (A) (A) (A) (A) (A) (A) (A)
                 (A) (A) (A) (A) (A) (A) (A) (A) (A) (A) (A) (A)
                 (A) (A) (A) (A) (A) (A) (A) (A) (A) (A) (A) (A)
                 (A) (A) (A) (A) (A) (A) (A) (A) (A) (A) (A) (A)
                 (A) (A) (A) (A) (A) (A) (A) (A) (A) (A) (A) (A)
                 (A) (A) (A) (A) (A) (A) (A) (A) (A) (A) (A) (A)
                 (A) (A) (A) (A) (A) (A) (A) (A) (A) (A) (A) (A)
                 (A) (A) (A) (A) (A) (A) (A) (A) (A) (A) (A) (A)
                 (A) (A) (A) (A) (A) (A) (A) (A) (A) (A) (A) (A)
                 (A) (A) (A) (A) (A) (A) (A) (A) (A) (A) (A) (A)
                 (A) (A) (A) (A) (A) (A) (A) (A) (A) (A) (A) (A)
                 (A) (A) (A) (A) (A) (A) (A) (A) (A) (A) (A) (A)
                 (A) (A) (A) (A) (A) (A) (A) (A) (A) (A) (A) (A)
                 (A) (A) (A) (A) (A) (A) (A) (A) (A) (A) (A) (A)
                 (A) (A) (A) (A) (A) (A) (A) (A) (A) (A) (A) (A)
                 (A) (A) (A) (A) (A) (A) (A) (A) (A) (A) (A) (A)
                 (A) (A) (A) (A) (A) (A) (A) (A) (A) (A) (A) (A)
                 (A) (A) (A) (A) (A) (A) (A) (A) (A) (A) (A) (A)
                 (A) (A) (A) (A) (A) (A) (A) (A) (A) (A) (A) (A)
                 (A) (A) (A) (A) (A) (A) (A) (A) (A) (A) (A) (A)
                 (A) (A) (A) (A) (A) (A) (A) (A) (A) (A) (A) (A)
                 (A) (A) (A) (A) (A) (A) (A) (A) (A) (A) (A) (A)
                 (A) (A) (A) (A) (A) (A) (A) (A) (A) (A) (A) (A)
                 (A) (A) (A) (A) (A) (A) (A) (A) (A) (A) (A) (A)
                 (A) (A) (A) (A) (A) (A) (A) (A) (A) (A) (A) (A)
                 (A) (A) (A) (A) (A) (A) (A) (A) (A) (A) (A) (A)
                 (A) (A) (A) (A) (A) (A) (A) (A) (A) (A) (A) (A)
                 (A) (A) (A) (A) (A) (A) (A) (A) (A) (A) (A) (A)
                 (A) (A) (A) (A) (A) (A) (A) (A) (A) (A) (A) (A)
                 (A) (A) (A)
 The electronic state is 1-A.
 Alpha  occ. eigenvalues --  -19.20345 -19.16122 -19.13584 -19.10823 -19.10310
 Alpha  occ. eigenvalues --  -19.09509 -14.38676 -14.35756 -14.33829 -14.27589
 Alpha  occ. eigenvalues --  -10.32636 -10.30726 -10.27553 -10.25488 -10.24600
 Alpha  occ. eigenvalues --  -10.24046 -10.24004 -10.23691 -10.23359 -10.23221
 Alpha  occ. eigenvalues --  -10.22687 -10.22398 -10.21891 -10.21682 -10.21275
 Alpha  occ. eigenvalues --  -10.21232 -10.21197 -10.21149 -10.20914 -10.20847
 Alpha  occ. eigenvalues --  -10.20757 -10.20577 -10.20331 -10.20291 -10.20174
 Alpha  occ. eigenvalues --  -10.20162 -10.20089 -10.19412 -10.19146 -10.19076
 Alpha  occ. eigenvalues --  -10.18966 -10.18864 -10.18802  -1.10380  -1.06294
 Alpha  occ. eigenvalues --   -1.03111  -1.02654  -1.01812  -1.00288  -0.97196
 Alpha  occ. eigenvalues --   -0.96715  -0.94557  -0.93367  -0.83410  -0.82638
 Alpha  occ. eigenvalues --   -0.81658  -0.81316  -0.80428  -0.79821  -0.78120
 Alpha  occ. eigenvalues --   -0.77717  -0.76903  -0.75679  -0.73955  -0.72723
 Alpha  occ. eigenvalues --   -0.72330  -0.71348  -0.69994  -0.69510  -0.68607
 Alpha  occ. eigenvalues --   -0.67134  -0.66300  -0.64170  -0.61141  -0.60483
 Alpha  occ. eigenvalues --   -0.59202  -0.58566  -0.58153  -0.57996  -0.57558
 Alpha  occ. eigenvalues --   -0.56128  -0.55422  -0.55226  -0.54390  -0.53731
 Alpha  occ. eigenvalues --   -0.52567  -0.52029  -0.51663  -0.50662  -0.49991
 Alpha  occ. eigenvalues --   -0.49381  -0.49122  -0.48534  -0.48040  -0.47488
 Alpha  occ. eigenvalues --   -0.47367  -0.46669  -0.46580  -0.46320  -0.45751
 Alpha  occ. eigenvalues --   -0.45409  -0.45059  -0.44470  -0.44108  -0.43604
 Alpha  occ. eigenvalues --   -0.43312  -0.43006  -0.42908  -0.42432  -0.41975
 Alpha  occ. eigenvalues --   -0.41822  -0.41763  -0.41673  -0.41364  -0.41132
 Alpha  occ. eigenvalues --   -0.40991  -0.40595  -0.40396  -0.40306  -0.39780
 Alpha  occ. eigenvalues --   -0.39462  -0.39236  -0.38609  -0.38180  -0.38048
 Alpha  occ. eigenvalues --   -0.37833  -0.37472  -0.37356  -0.37190  -0.36914
 Alpha  occ. eigenvalues --   -0.36633  -0.36134  -0.35673  -0.35635  -0.34837
 Alpha  occ. eigenvalues --   -0.34375  -0.34069  -0.33600  -0.31744  -0.31138
 Alpha  occ. eigenvalues --   -0.30760  -0.29943  -0.29116  -0.28670  -0.27358
 Alpha  occ. eigenvalues --   -0.26733  -0.26144  -0.25572  -0.24846  -0.24743
 Alpha  occ. eigenvalues --   -0.23877  -0.23717  -0.23469  -0.22489  -0.18961
 Alpha virt. eigenvalues --   -0.10792  -0.06390  -0.06167  -0.01226  -0.00731
 Alpha virt. eigenvalues --    0.00723   0.00778   0.01110   0.01427   0.02554
 Alpha virt. eigenvalues --    0.03092   0.03610   0.04112   0.04879   0.05213
 Alpha virt. eigenvalues --    0.05834   0.06310   0.06448   0.06549   0.06602
 Alpha virt. eigenvalues --    0.07598   0.07769   0.08079   0.08537   0.08944
 Alpha virt. eigenvalues --    0.09676   0.09833   0.09967   0.10171   0.10594
 Alpha virt. eigenvalues --    0.10644   0.11334   0.11646   0.11862   0.12264
 Alpha virt. eigenvalues --    0.12413   0.12766   0.13192   0.13400   0.13526
 Alpha virt. eigenvalues --    0.14208   0.14396   0.15177   0.15812   0.16374
 Alpha virt. eigenvalues --    0.16468   0.16952   0.17517   0.18330   0.18867
 Alpha virt. eigenvalues --    0.18931   0.19318   0.19466   0.19724   0.19984
 Alpha virt. eigenvalues --    0.20928   0.21234   0.21701   0.22042   0.22549
 Alpha virt. eigenvalues --    0.23212   0.23319   0.23376   0.24127   0.24544
 Alpha virt. eigenvalues --    0.25333   0.25762   0.26359   0.26660   0.26850
 Alpha virt. eigenvalues --    0.27441   0.27587   0.28131   0.28376   0.29498
 Alpha virt. eigenvalues --    0.30111   0.30271   0.30594   0.31172   0.31747
 Alpha virt. eigenvalues --    0.32188   0.32506   0.33053   0.33945   0.34024
 Alpha virt. eigenvalues --    0.34847   0.35156   0.35456   0.36039   0.36318
 Alpha virt. eigenvalues --    0.37080   0.37242   0.37774   0.38492   0.39091
 Alpha virt. eigenvalues --    0.39459   0.40135   0.40692   0.41228   0.41387
 Alpha virt. eigenvalues --    0.41770   0.42374   0.42838   0.43108   0.43337
 Alpha virt. eigenvalues --    0.43777   0.44160   0.44461   0.45324   0.45459
 Alpha virt. eigenvalues --    0.45682   0.46003   0.46269   0.46993   0.47060
 Alpha virt. eigenvalues --    0.47158   0.47665   0.47916   0.48161   0.48315
 Alpha virt. eigenvalues --    0.49027   0.49083   0.49535   0.49842   0.50199
 Alpha virt. eigenvalues --    0.50318   0.50551   0.50839   0.51284   0.51815
 Alpha virt. eigenvalues --    0.52186   0.52490   0.53093   0.53317   0.53738
 Alpha virt. eigenvalues --    0.53994   0.54475   0.54783   0.55450   0.55705
 Alpha virt. eigenvalues --    0.55922   0.56156   0.56320   0.56532   0.57001
 Alpha virt. eigenvalues --    0.57587   0.58280   0.58454   0.58958   0.59264
 Alpha virt. eigenvalues --    0.59491   0.59855   0.60116   0.60270   0.60454
 Alpha virt. eigenvalues --    0.60809   0.61322   0.61748   0.61887   0.62048
 Alpha virt. eigenvalues --    0.62124   0.62717   0.62812   0.63008   0.63200
 Alpha virt. eigenvalues --    0.63544   0.63827   0.64177   0.64474   0.64654
 Alpha virt. eigenvalues --    0.65144   0.65313   0.65478   0.65578   0.65831
 Alpha virt. eigenvalues --    0.65873   0.66288   0.66472   0.66693   0.66862
 Alpha virt. eigenvalues --    0.67112   0.67438   0.67646   0.68121   0.68208
 Alpha virt. eigenvalues --    0.68380   0.68950   0.69201   0.69450   0.70005
 Alpha virt. eigenvalues --    0.70110   0.70568   0.70728   0.71191   0.71350
 Alpha virt. eigenvalues --    0.71834   0.72069   0.72151   0.72763   0.72784
 Alpha virt. eigenvalues --    0.73387   0.74038   0.74553   0.74779   0.74999
 Alpha virt. eigenvalues --    0.75390   0.75554   0.76141   0.76372   0.76729
 Alpha virt. eigenvalues --    0.77012   0.77289   0.77680   0.77823   0.78787
 Alpha virt. eigenvalues --    0.79138   0.79520   0.80110   0.80956   0.81166
 Alpha virt. eigenvalues --    0.81775   0.81844   0.82705   0.83121   0.83358
 Alpha virt. eigenvalues --    0.83572   0.83632   0.85095   0.85474   0.85867
 Alpha virt. eigenvalues --    0.86630   0.88044   0.88093   0.89040   0.89789
 Alpha virt. eigenvalues --    0.90237   0.91045   0.91766   0.91898   0.93761
 Alpha virt. eigenvalues --    0.94052   0.94163   0.94435   0.94641   0.95159
 Alpha virt. eigenvalues --    0.96017   0.96771   0.96906   0.97861   0.98709
 Alpha virt. eigenvalues --    0.99077   0.99874   1.00991   1.01520   1.02128
 Alpha virt. eigenvalues --    1.02324   1.02984   1.04175   1.04663   1.05463
 Alpha virt. eigenvalues --    1.06503   1.06893   1.08006   1.08099   1.08920
 Alpha virt. eigenvalues --    1.09213   1.09785   1.10676   1.10982   1.11999
 Alpha virt. eigenvalues --    1.12259   1.12838   1.13264   1.14323   1.15171
 Alpha virt. eigenvalues --    1.15534   1.15821   1.16867   1.17047   1.18721
 Alpha virt. eigenvalues --    1.18819   1.19049   1.20131   1.21125   1.21884
 Alpha virt. eigenvalues --    1.23067   1.23621   1.24138   1.24439   1.25298
 Alpha virt. eigenvalues --    1.25453   1.25900   1.26525   1.26933   1.27360
 Alpha virt. eigenvalues --    1.27825   1.28475   1.28980   1.29534   1.31114
 Alpha virt. eigenvalues --    1.31331   1.31835   1.31854   1.33308   1.33793
 Alpha virt. eigenvalues --    1.34205   1.34568   1.34946   1.35937   1.36780
 Alpha virt. eigenvalues --    1.37542   1.38524   1.38774   1.41285   1.42162
 Alpha virt. eigenvalues --    1.42484   1.42994   1.44459   1.45001   1.45070
 Alpha virt. eigenvalues --    1.45411   1.45778   1.46504   1.47479   1.47539
 Alpha virt. eigenvalues --    1.48268   1.48487   1.48864   1.49444   1.50091
 Alpha virt. eigenvalues --    1.50387   1.50795   1.51151   1.51694   1.52273
 Alpha virt. eigenvalues --    1.53481   1.53950   1.54126   1.54831   1.55524
 Alpha virt. eigenvalues --    1.56382   1.57251   1.58488   1.58820   1.58976
 Alpha virt. eigenvalues --    1.59364   1.59889   1.60010   1.60266   1.60983
 Alpha virt. eigenvalues --    1.61508   1.61894   1.62359   1.63639   1.63826
 Alpha virt. eigenvalues --    1.65023   1.65931   1.66262   1.66369   1.66710
 Alpha virt. eigenvalues --    1.67476   1.67552   1.68010   1.68354   1.69109
 Alpha virt. eigenvalues --    1.69334   1.70044   1.70286   1.70877   1.71023
 Alpha virt. eigenvalues --    1.71412   1.71846   1.72194   1.72455   1.72884
 Alpha virt. eigenvalues --    1.73403   1.74219   1.74556   1.75324   1.75641
 Alpha virt. eigenvalues --    1.75826   1.76042   1.76707   1.77057   1.77755
 Alpha virt. eigenvalues --    1.77887   1.78086   1.78246   1.78753   1.79050
 Alpha virt. eigenvalues --    1.79105   1.79788   1.80341   1.80568   1.81169
 Alpha virt. eigenvalues --    1.81346   1.81933   1.82344   1.82964   1.83401
 Alpha virt. eigenvalues --    1.84044   1.84707   1.85125   1.85303   1.85491
 Alpha virt. eigenvalues --    1.86347   1.86483   1.86837   1.86899   1.87287
 Alpha virt. eigenvalues --    1.88327   1.89320   1.89539   1.89605   1.90613
 Alpha virt. eigenvalues --    1.90795   1.91652   1.92516   1.93027   1.93359
 Alpha virt. eigenvalues --    1.93815   1.93982   1.94400   1.94828   1.95032
 Alpha virt. eigenvalues --    1.95761   1.96186   1.96365   1.97008   1.97384
 Alpha virt. eigenvalues --    1.97631   1.98137   1.98646   1.99196   1.99743
 Alpha virt. eigenvalues --    2.00030   2.00457   2.00977   2.01422   2.01657
 Alpha virt. eigenvalues --    2.02616   2.02787   2.03179   2.03915   2.04414
 Alpha virt. eigenvalues --    2.05317   2.05697   2.06535   2.06919   2.07304
 Alpha virt. eigenvalues --    2.07727   2.08735   2.08874   2.09322   2.09992
 Alpha virt. eigenvalues --    2.11021   2.11595   2.12153   2.12708   2.13352
 Alpha virt. eigenvalues --    2.14076   2.14633   2.15583   2.15828   2.16940
 Alpha virt. eigenvalues --    2.17233   2.17952   2.18526   2.19113   2.19149
 Alpha virt. eigenvalues --    2.19557   2.20422   2.20923   2.21712   2.22155
 Alpha virt. eigenvalues --    2.23092   2.23199   2.23623   2.23989   2.24254
 Alpha virt. eigenvalues --    2.25267   2.26857   2.26979   2.27801   2.28633
 Alpha virt. eigenvalues --    2.28765   2.29277   2.30029   2.30323   2.31603
 Alpha virt. eigenvalues --    2.32213   2.33008   2.33382   2.33822   2.34146
 Alpha virt. eigenvalues --    2.34416   2.36240   2.36423   2.36555   2.37009
 Alpha virt. eigenvalues --    2.37302   2.39420   2.39663   2.41276   2.42111
 Alpha virt. eigenvalues --    2.42672   2.43720   2.44072   2.44568   2.45880
 Alpha virt. eigenvalues --    2.46440   2.47463   2.48233   2.49114   2.49478
 Alpha virt. eigenvalues --    2.49686   2.50315   2.50674   2.52215   2.53103
 Alpha virt. eigenvalues --    2.54604   2.55063   2.55669   2.56505   2.57994
 Alpha virt. eigenvalues --    2.58781   2.59628   2.60613   2.61471   2.62497
 Alpha virt. eigenvalues --    2.62820   2.62942   2.63591   2.64459   2.64905
 Alpha virt. eigenvalues --    2.66123   2.66374   2.67744   2.68189   2.68819
 Alpha virt. eigenvalues --    2.69112   2.69628   2.69780   2.71074   2.71751
 Alpha virt. eigenvalues --    2.72132   2.72328   2.73094   2.73219   2.73598
 Alpha virt. eigenvalues --    2.74778   2.75321   2.75958   2.76444   2.77264
 Alpha virt. eigenvalues --    2.78024   2.78483   2.78729   2.79931   2.80316
 Alpha virt. eigenvalues --    2.80875   2.81220   2.81757   2.82152   2.83562
 Alpha virt. eigenvalues --    2.84431   2.84764   2.86319   2.87062   2.87319
 Alpha virt. eigenvalues --    2.88174   2.88787   2.88926   2.89530   2.90437
 Alpha virt. eigenvalues --    2.91742   2.93088   2.93430   2.93957   2.95903
 Alpha virt. eigenvalues --    2.96243   2.97294   2.99018   2.99531   3.00306
 Alpha virt. eigenvalues --    3.01589   3.02569   3.04551   3.05323   3.06542
 Alpha virt. eigenvalues --    3.08465   3.09355   3.09496   3.10529   3.14330
 Alpha virt. eigenvalues --    3.14829   3.15399   3.16540   3.17316   3.18068
 Alpha virt. eigenvalues --    3.19470   3.21343   3.21900   3.22242   3.22521
 Alpha virt. eigenvalues --    3.23261   3.23825   3.25401   3.26019   3.31900
 Alpha virt. eigenvalues --    3.35854   3.37006   3.37626   3.39091   3.39649
 Alpha virt. eigenvalues --    3.43308   3.49955   3.55517   3.56750   3.57652
 Alpha virt. eigenvalues --    3.60187   3.62243   3.69236   3.70548   3.71031
 Alpha virt. eigenvalues --    3.72868   3.75285
          Condensed to atoms (all electrons):
 Mulliken charges:
               1
     1  O   -0.189365
     2  O   -0.217397
     3  O   -0.271423
     4  O   -0.229370
     5  O   -0.220102
     6  O   -0.170878
     7  N   -0.145261
     8  N   -0.251826
     9  N    0.042050
    10  N   -0.242783
    11  C    0.140972
    12  C    0.188476
    13  C   -0.066540
    14  C   -0.125672
    15  C   -0.060688
    16  C    0.098518
    17  C   -0.149453
    18  C    0.007039
    19  C   -0.035370
    20  C    0.009923
    21  C   -0.034403
    22  C    0.129089
    23  C   -0.178958
    24  C    0.054112
    25  C    0.095118
    26  C   -0.067684
    27  C    0.062640
    28  C    0.125069
    29  C    0.257181
    30  C   -0.069212
    31  C   -0.041439
    32  C   -0.021972
    33  C   -0.135127
    34  C    0.130967
    35  C    0.021915
    36  C    0.037665
    37  C    0.155959
    38  C    0.054454
    39  C   -0.199211
    40  C    0.112018
    41  C   -0.039924
    42  C    0.036926
    43  C   -0.019163
    44  H    0.021295
    45  H   -0.036635
    46  H   -0.025886
    47  H    0.147526
    48  H    0.149173
    49  H    0.035645
    50  H    0.046429
    51  H   -0.082572
    52  H    0.045604
    53  H    0.002233
    54  H    0.030835
    55  H   -0.015868
    56  H    0.038039
    57  H    0.052497
    58  H    0.061799
    59  H    0.027424
    60  H    0.079984
    61  H   -0.020180
    62  H   -0.033359
    63  H    0.041323
    64  H    0.060365
    65  H    0.066688
    66  H    0.025678
    67  H    0.054716
    68  H    0.053564
    69  H   -0.001201
    70  H   -0.060777
    71  H    0.052720
    72  H    0.188886
    73  H    0.000196
    74  H    0.036752
    75  H    0.072738
    76  H    0.027700
    77  H    0.227508
    78  H    0.048573
    79  H    0.003716
 Sum of Mulliken charges =   0.00000
 Mulliken charges with hydrogens summed into heavy atoms:
               1
     1  O   -0.189365
     2  O   -0.028511
     3  O   -0.271423
     4  O   -0.001862
     5  O   -0.220102
     6  O   -0.170878
     7  N    0.002265
     8  N   -0.102653
     9  N    0.122034
    10  N   -0.242783
    11  C    0.162268
    12  C    0.125955
    13  C   -0.066540
    14  C   -0.125672
    15  C   -0.060688
    16  C    0.098518
    17  C   -0.149453
    18  C    0.089112
    19  C   -0.035370
    20  C   -0.072649
    21  C   -0.034403
    22  C    0.129089
    23  C   -0.178958
    24  C    0.132784
    25  C    0.169786
    26  C   -0.067684
    27  C    0.151863
    28  C    0.125069
    29  C    0.203643
    30  C   -0.027889
    31  C    0.085613
    32  C    0.111987
    33  C   -0.136328
    34  C    0.130967
    35  C    0.021915
    36  C    0.029607
    37  C    0.155959
    38  C    0.054454
    39  C   -0.199211
    40  C    0.112018
    41  C   -0.039727
    42  C    0.174117
    43  C    0.033125
 Electronic spatial extent (au):  <R**2>=          32003.6635
 Charge=              0.0000 electrons
 Dipole moment (field-independent basis, Debye):
    X=              0.6105    Y=              2.5672    Z=              2.9314  Tot=              3.9442
 Quadrupole moment (field-independent basis, Debye-Ang):
   XX=           -219.1992   YY=           -240.3196   ZZ=           -263.9529
   XY=             -9.6103   XZ=             32.4913   YZ=              0.0760
 Traceless Quadrupole moment (field-independent basis, Debye-Ang):
   XX=             21.9580   YY=              0.8377   ZZ=            -22.7957
   XY=             -9.6103   XZ=             32.4913   YZ=              0.0760
 Octapole moment (field-independent basis, Debye-Ang**2):
  XXX=             48.5964  YYY=            177.2370  ZZZ=             60.5937  XYY=            -89.4033
  XXY=            -75.1939  XXZ=             59.6889  XZZ=            -51.7926  YZZ=            -35.7992
  YYZ=             75.3330  XYZ=              6.9883
 Hexadecapole moment (field-independent basis, Debye-Ang**3):
 XXXX=         -23542.1186 YYYY=         -11375.2001 ZZZZ=          -4763.2843 XXXY=           -275.4624
 XXXZ=            544.8442 YYYX=           -280.0082 YYYZ=            586.8486 ZZZX=             84.9580
 ZZZY=           -156.9544 XXYY=          -6012.2507 XXZZ=          -5188.2118 YYZZ=          -2857.7070
 XXYZ=            -61.0580 YYXZ=            -39.3520 ZZXY=             58.7797
 N-N= 4.943337307816D+03 E-N=-1.441609065189D+04  KE= 1.927999271636D+03
 1\1\GINC-PEDRO-RYZENSSD\SP\RB3LYP TD-FC\SVP\C33H36N4O6\PADAWAN\10-Jul-
 2019\0\\# td=(NStates=1) B3LYP/SVP\\TD\\0,1\O,0,-5.2925146133,0.172321
 3471,-3.2168345163\O,0,3.0530721333,2.9932950529,2.9052467891\O,0,3.25
 55762954,0.7838233914,3.2890608673\O,0,1.4972438603,-7.1500309075,1.68
 35687667\O,0,0.8085776072,-6.995800484,-0.4805919904\O,0,1.7638098403,
 3.9416071277,-0.2091226479\N,0,-2.4167322759,-1.0082458312,0.665313058
 4\N,0,-4.4236562695,0.5723514837,-1.1475866908\N,0,1.888108538,-0.7703
 090119,-0.4521066488\N,0,2.5729085613,1.8353819883,-0.5504125163\C,0,-
 4.8417764239,1.1906992493,0.0167921357\C,0,-4.4810127067,0.4202184395,
 1.2640484655\C,0,-2.9940528615,0.0246873511,1.3987052106\C,0,-2.015156
 56,0.7512272697,2.0635071489\C,0,-0.7335972472,0.035605002,1.778576619
 9\C,0,-1.0112254975,-0.8987949886,0.7954562539\C,0,-6.2489909965,1.435
 6653224,-0.1609245063\C,0,0.5597794612,0.3346313862,2.5556102298\C,0,-
 6.6686893006,1.054767782,-1.4376746252\C,0,-0.24097984,-1.93848915,0.1
 353007058\C,0,1.0866815794,-1.8778302956,-0.3690456978\C,0,-5.51000905
 9,0.5395236456,-2.1012495658\C,0,1.952971167,-2.9435179278,-0.89695501
 21\C,0,-2.2599227335,1.784090141,3.0064492849\C,0,-7.1781098032,1.9621
 717532,0.8357241863\C,0,3.1606915975,-2.4231143357,-1.2100521623\C,0,1
 .1284796206,1.7081139536,2.4596811865\C,0,3.0794444854,-1.0254919886,-
 1.0136749985\C,0,1.5098865266,-4.4281571953,-0.9192603999\C,0,-7.92297
 90188,1.0853631007,-2.1604307651\C,0,1.7534670368,-5.1041066531,0.4567
 820047\C,0,4.3342511415,-3.0957908449,-1.8198739848\C,0,3.9326822104,0
 .0587975416,-1.2672169168\C,0,2.5094635618,1.733207495,2.9594658517\C,
 0,3.7001545414,1.4381630726,-1.0866644371\C,0,-9.1511932923,1.00899874
 37,-1.5903878014\C,0,1.3477320816,-6.5404127708,0.4884596387\C,0,4.593
 3233972,2.47664972,-1.4283865652\C,0,3.9751831528,3.6045946197,-1.1579
 253638\C,0,2.6456533213,3.2295446559,-0.5828468317\C,0,5.979976002,2.2
 492267941,-1.8266341922\C,0,4.4046912625,5.1295044676,-1.1123139033\C,
 0,6.8217697284,3.2131977412,-2.3623709052\H,0,-4.246232574,2.142699314
 8,0.2599255346\H,0,-4.9724256717,-0.542419233,1.2058718355\H,0,-4.9699
 271119,0.8860628354,2.1006421987\H,0,-2.9122386343,-1.6643632938,-0.01
 43238237\H,0,-3.409646658,0.4167047467,-1.4640436017\H,0,0.4109876831,
 -0.0950595325,3.6065759898\H,0,1.411999644,-0.4225821422,2.1246907895\
 H,0,-0.6053010226,-2.8420821715,-0.0740175834\H,0,-3.4044125933,1.7451
 010954,3.5866948371\H,0,-1.4207969391,1.7275713846,3.6803877634\H,0,-2
 .0503678361,2.8165202878,2.58296045\H,0,-6.9005239475,2.5519141435,1.6
 41672286\H,0,-7.2869013984,1.0512814565,1.5799404166\H,0,-8.0172902203
 ,2.4949316633,0.3666256598\H,0,1.1358357649,2.1094935574,1.4609761052\
 H,0,0.6923132714,2.5731554033,3.0311034648\H,0,1.418297448,0.016118002
 ,-0.3481170378\H,0,1.9942376824,-4.6648720104,-1.8070287651\H,0,0.5609
 741778,-4.4238622996,-1.2895717269\H,0,-7.8730726323,1.1553181658,-3.3
 240533173\H,0,1.259478888,-4.5844627506,1.3347731649\H,0,2.9724982927,
 -5.0279492739,0.7113950779\H,0,4.1178162254,-4.2290004285,-1.933842436
 8\H,0,5.3393260541,-2.9224411249,-1.1428092024\H,0,4.6286699633,-2.846
 5167073,-2.9308334056\H,0,4.8260654136,-0.0881429231,-1.9981064988\H,0
 ,-9.1735168739,0.8859194891,-0.6650171879\H,0,-10.1426224273,1.0758619
 646,-2.2557853202\H,0,3.9550719386,3.0585784264,3.2909472769\H,0,6.378
 7328789,1.3411283193,-1.4280003032\H,0,4.767117722,5.4066137534,-2.242
 3512901\H,0,3.6226602701,5.8011771876,-0.6074038236\H,0,5.4873705086,5
 .1039068453,-0.7429760457\H,0,1.2569632348,-8.1641376563,1.3619658697\
 H,0,7.9164529271,2.9368609924,-2.6632550877\H,0,6.3398354278,4.0465222
 235,-2.7733102201\\Version=ES64L-G09RevD.01\State=1-A\HF=-1947.8396817
 \RMSD=3.754e-09\PG=C01 [X(C33H36N4O6)]\\@


 A DANDELION FROM A LOVER MEANS MORE THAN AN ORCHID FROM A FRIEND.
 Job cpu time:       0 days  4 hours 45 minutes 42.3 seconds.
 File lengths (MBytes):  RWF=    769 Int=      0 D2E=      0 Chk=     58 Scr=      1
 Normal termination of Gaussian 09 at Wed Jul 10 01:34:20 2019.
