 Entering Gaussian System, Link 0=g16
 Input=Geometria-198-.com
 Output=Geometria-198-.log
 Initial command:
 /usr/local/g09/l1.exe "/home/padawan/israel-mol/dihydrobiliverdin/spectra/abs/Gau-50995.inp" -scrdir="/home/padawan/israel-mol/dihydrobiliverdin/spectra/abs/"
 Entering Link 1 = /usr/local/g09/l1.exe PID=     50997.
  
 Copyright (c) 1988,1990,1992,1993,1995,1998,2003,2009,2013,
            Gaussian, Inc.  All Rights Reserved.
  
 This is part of the Gaussian(R) 09 program.  It is based on
 the Gaussian(R) 03 system (copyright 2003, Gaussian, Inc.),
 the Gaussian(R) 98 system (copyright 1998, Gaussian, Inc.),
 the Gaussian(R) 94 system (copyright 1995, Gaussian, Inc.),
 the Gaussian 92(TM) system (copyright 1992, Gaussian, Inc.),
 the Gaussian 90(TM) system (copyright 1990, Gaussian, Inc.),
 the Gaussian 88(TM) system (copyright 1988, Gaussian, Inc.),
 the Gaussian 86(TM) system (copyright 1986, Carnegie Mellon
 University), and the Gaussian 82(TM) system (copyright 1983,
 Carnegie Mellon University). Gaussian is a federally registered
 trademark of Gaussian, Inc.
  
 This software contains proprietary and confidential information,
 including trade secrets, belonging to Gaussian, Inc.
  
 This software is provided under written license and may be
 used, copied, transmitted, or stored only in accord with that
 written license.
  
 The following legend is applicable only to US Government
 contracts under FAR:
  
                    RESTRICTED RIGHTS LEGEND
  
 Use, reproduction and disclosure by the US Government is
 subject to restrictions as set forth in subparagraphs (a)
 and (c) of the Commercial Computer Software - Restricted
 Rights clause in FAR 52.227-19.
  
 Gaussian, Inc.
 340 Quinnipiac St., Bldg. 40, Wallingford CT 06492
  
  
 ---------------------------------------------------------------
 Warning -- This program may not be used in any manner that
 competes with the business of Gaussian, Inc. or will provide
 assistance to any competitor of Gaussian, Inc.  The licensee
 of this program is prohibited from giving any competitor of
 Gaussian, Inc. access to this program.  By using this program,
 the user acknowledges that Gaussian, Inc. is engaged in the
 business of creating and licensing software in the field of
 computational chemistry and represents and warrants to the
 licensee that it is not a competitor of Gaussian, Inc. and that
 it will not use this program in any manner prohibited above.
 ---------------------------------------------------------------
  

 Cite this work as:
 Gaussian 09, Revision D.01,
 M. J. Frisch, G. W. Trucks, H. B. Schlegel, G. E. Scuseria, 
 M. A. Robb, J. R. Cheeseman, G. Scalmani, V. Barone, B. Mennucci, 
 G. A. Petersson, H. Nakatsuji, M. Caricato, X. Li, H. P. Hratchian, 
 A. F. Izmaylov, J. Bloino, G. Zheng, J. L. Sonnenberg, M. Hada, 
 M. Ehara, K. Toyota, R. Fukuda, J. Hasegawa, M. Ishida, T. Nakajima, 
 Y. Honda, O. Kitao, H. Nakai, T. Vreven, J. A. Montgomery, Jr., 
 J. E. Peralta, F. Ogliaro, M. Bearpark, J. J. Heyd, E. Brothers, 
 K. N. Kudin, V. N. Staroverov, T. Keith, R. Kobayashi, J. Normand, 
 K. Raghavachari, A. Rendell, J. C. Burant, S. S. Iyengar, J. Tomasi, 
 M. Cossi, N. Rega, J. M. Millam, M. Klene, J. E. Knox, J. B. Cross, 
 V. Bakken, C. Adamo, J. Jaramillo, R. Gomperts, R. E. Stratmann, 
 O. Yazyev, A. J. Austin, R. Cammi, C. Pomelli, J. W. Ochterski, 
 R. L. Martin, K. Morokuma, V. G. Zakrzewski, G. A. Voth, 
 P. Salvador, J. J. Dannenberg, S. Dapprich, A. D. Daniels, 
 O. Farkas, J. B. Foresman, J. V. Ortiz, J. Cioslowski, 
 and D. J. Fox, Gaussian, Inc., Wallingford CT, 2013.
 
 ******************************************
 Gaussian 09:  ES64L-G09RevD.01 24-Apr-2013
                 8-Jul-2019 
 ******************************************
 %nproc=4
 Will use up to    4 processors via shared memory.
 %Mem=2GB
 --------------------------
 # td=(NStates=1) B3LYP/SVP
 --------------------------
 1/38=1/1;
 2/12=2,17=6,18=5,40=1/2;
 3/5=18,7=101,11=9,16=1,25=1,30=1,74=-5/1,2,8,3;
 4//1;
 5/5=2,38=5/2;
 8/6=1,10=1,108=1/1;
 9/41=1,42=1,70=2/14;
 6/7=2,8=2,9=2,10=2/1;
 99/5=1,9=1/99;
 --
 TD
 --
 Symbolic Z-matrix:
 Charge =  0 Multiplicity = 1
 8                    -5.31199   0.21382  -3.35523 
 8                     2.76673   3.31988   3.26531 
 8                     3.15816   1.07338   3.31093 
 8                     1.37181  -7.20361   1.43025 
 8                     0.38541  -6.91311  -0.58919 
 8                     1.96934   4.04829  -0.11476 
 7                    -2.28184  -0.91958   0.69499 
 7                    -4.3506    0.75213  -1.30272 
 7                     1.93672  -0.63614  -0.29811 
 7                     2.7375    1.8115   -0.46418 
 6                    -4.82066   1.12261   0.01485 
 6                    -4.39099   0.14569   1.22238 
 6                    -2.95411  -0.09034   1.42756 
 6                    -1.97758   0.57035   2.27386 
 6                    -0.7167    0.05005   1.94301 
 6                    -0.91085  -0.86804   0.88685 
 6                    -6.24416   1.26175  -0.13635 
 6                     0.63225   0.33397   2.54215 
 6                    -6.62758   0.8941   -1.41489 
 6                    -0.07895  -1.88645   0.20619 
 6                     1.18517  -1.84147  -0.2086 
 6                    -5.40738   0.64739  -2.19728 
 6                     1.92198  -2.92082  -0.90419 
 6                    -2.37556   1.68474   3.36239 
 6                    -7.10488   1.80488   0.89035 
 6                     3.10117  -2.40725  -1.21935 
 6                     1.03902   1.79952   2.51715 
 6                     3.14956  -0.93225  -0.97094 
 6                     1.46266  -4.37951  -0.91667 
 6                    -7.91008   0.76074  -2.20769 
 6                     1.46448  -5.0527    0.45219 
 6                     4.30963  -3.10269  -1.93553 
 6                     4.04026   0.01971  -1.35124 
 6                     2.38876   1.99549   3.03432 
 6                     3.91418   1.33575  -1.01544 
 6                    -9.13765   0.69119  -1.70353 
 6                     0.97297  -6.47522   0.3101 
 6                     4.68942   2.42666  -1.46318 
 6                     4.06835   3.64879  -1.09829 
 6                     2.7694    3.23316  -0.4351 
 6                     5.95311   2.15684  -2.20969 
 6                     4.53081   5.09247  -1.32684 
 6                     6.87305   3.00119  -2.74146 
 1                    -4.44958   2.04922   0.20026 
 1                    -4.96223  -0.80989   0.9814 
 1                    -5.02271   0.66383   2.14209 
 1                    -2.74327  -1.60806   0.12243 
 1                    -3.44458   0.67166  -1.67195 
 1                     0.59035   0.26381   3.71984 
 1                     1.43846  -0.34947   2.1174 
 1                    -0.60225  -2.97965   0.01616 
 1                    -3.43477   1.94482   3.51967 
 1                    -1.69837   1.77058   4.23911 
 1                    -2.08024   2.67794   2.93726 
 1                    -6.68465   2.46734   1.53868 
 1                    -7.59519   1.19303   1.50414 
 1                    -7.98359   2.42189   0.54845 
 1                     1.35742   2.3187    1.42137 
 1                     0.43942   2.68293   2.92457 
 1                     1.76984   0.43874  -0.05557 
 1                     2.15846  -4.98088  -1.54969 
 1                     0.37299  -4.31808  -1.39997 
 1                    -7.86619   0.74646  -3.33912 
 1                     0.88028  -4.35021   1.14245 
 1                     2.42775  -5.07453   1.23493 
 1                     3.77269  -4.14311  -1.85067 
 1                     5.26481  -3.156    -1.33501 
 1                     4.63024  -2.77692  -3.01048 
 1                     4.87223  -0.12206  -1.93108 
 1                    -9.44359   0.57895  -0.53838 
 1                    -10.03147   0.75701  -2.27194 
 1                     3.68963   3.25857   3.56223 
 1                     6.11555   0.99434  -2.30117 
 1                     4.93294   5.21368  -2.42409 
 1                     3.69587   5.76452  -0.99934 
 1                     5.39288   5.39458  -0.62501 
 1                     1.09131  -8.18072   1.40978 
 1                     7.89795   2.67626  -3.40375 
 1                     7.02441   4.21348  -2.63628 
 
 Stoichiometry    C33H36N4O6
 Framework group  C1[X(C33H36N4O6)]
 Deg. of freedom   231
 Full point group                 C1      NOp   1
 Largest Abelian subgroup         C1      NOp   1
 Largest concise Abelian subgroup C1      NOp   1
                         Standard orientation:                         
 ---------------------------------------------------------------------
 Center     Atomic      Atomic             Coordinates (Angstroms)
 Number     Number       Type             X           Y           Z
 ---------------------------------------------------------------------
      1          8           0        5.285598   -0.269421   -3.389858
      2          8           0       -2.820682   -3.316376    3.224459
      3          8           0       -3.162896   -1.063092    3.311853
      4          8           0       -1.207799    7.205226    1.565703
      5          8           0       -0.239531    6.929166   -0.464517
      6          8           0       -2.058698   -4.002059   -0.172679
      7          7           0        2.304070    0.857568    0.698051
      8          7           0        4.324510   -0.822971   -1.341268
      9          7           0       -1.925279    0.683069   -0.274061
     10          7           0       -2.780023   -1.743349   -0.478126
     11          6           0        4.793950   -1.226753   -0.033290
     12          6           0        4.392550   -0.262242    1.193789
     13          6           0        2.962337    0.001172    1.411849
     14          6           0        1.976541   -0.653078    2.252387
     15          6           0        0.725390   -0.099849    1.938428
     16          6           0        0.933402    0.832334    0.897353
     17          6           0        6.213194   -1.393968   -0.195608
     18          6           0       -0.625952   -0.365053    2.540727
     19          6           0        6.597180   -1.012181   -1.469825
     20          6           0        0.119966    1.880372    0.239754
     21          6           0       -1.147195    1.870085   -0.168025
     22          6           0        5.378174   -0.725346   -2.240293
     23          6           0       -1.864331    2.977243   -0.840063
     24          6           0        2.356427   -1.794872    3.318764
     25          6           0        7.067772   -1.973644    0.816133
     26          6           0       -3.056194    2.494965   -1.156973
     27          6           0       -1.064634   -1.820789    2.492520
     28          6           0       -3.135227    1.017200   -0.934170
     29          6           0       -1.373484    4.425651   -0.829776
     30          6           0        7.877716   -0.892624   -2.267982
     31          6           0       -1.352817    5.074440    0.550664
     32          6           0       -4.253333    3.228933   -1.853443
     33          6           0       -4.048582    0.091597   -1.325646
     34          6           0       -2.415331   -1.996609    3.014420
     35          6           0       -3.949220   -1.232588   -1.013751
     36          6           0        9.109381   -0.858567   -1.770196
     37          6           0       -0.831320    6.488273    0.430536
     38          6           0       -4.750558   -2.298390   -1.475806
     39          6           0       -4.154128   -3.539922   -1.136202
     40          6           0       -2.842662   -3.164273   -0.473781
     41          6           0       -6.012339   -1.988136   -2.209735
     42          6           0       -4.649175   -4.968996   -1.387195
     43          6           0       -6.953455   -2.802856   -2.750591
     44          1           0        4.403876   -2.148243    0.138107
     45          1           0        4.983044    0.684857    0.966109
     46          1           0        5.018112   -0.810093    2.100387
     47          1           0        2.777077    1.545907    0.134845
     48          1           0        3.418354   -0.716405   -1.703488
     49          1           0       -0.575787   -0.316623    3.719187
     50          1           0       -1.419536    0.343075    2.132962
     51          1           0        0.665813    2.965170    0.065729
     52          1           0        3.410606   -2.080551    3.464977
     53          1           0        1.682566   -1.881504    4.197966
     54          1           0        2.037146   -2.773781    2.878090
     55          1           0        6.636958   -2.638202    1.455307
     56          1           0        7.574779   -1.383484    1.437552
     57          1           0        7.930878   -2.603399    0.458108
     58          1           0       -1.400519   -2.313524    1.389777
     59          1           0       -0.482057   -2.724019    2.880721
     60          1           0       -1.780423   -0.399283   -0.051426
     61          1           0       -2.059661    5.053025   -1.447893
     62          1           0       -0.288188    4.349199   -1.320733
     63          1           0        7.827668   -0.857413   -3.398707
     64          1           0       -0.780088    4.347388    1.224919
     65          1           0       -2.310890    5.103285    1.339535
     66          1           0       -3.693422    4.255829   -1.753645
     67          1           0       -5.203671    3.292289   -1.246256
     68          1           0       -4.587107    2.929212   -2.931965
     69          1           0       -4.880579    0.261557   -1.897820
     70          1           0        9.424362   -0.773572   -0.605154
     71          1           0        9.998286   -0.933668   -2.345122
     72          1           0       -3.740306   -3.240363    3.528045
     73          1           0       -6.149977   -0.820965   -2.279819
     74          1           0       -5.060126   -5.062080   -2.483927
     75          1           0       -3.827176   -5.664639   -1.076646
     76          1           0       -5.513571   -5.264723   -0.685523
     77          1           0       -0.906236    8.176249    1.560652
     78          1           0       -7.974822   -2.444184   -3.400806
     79          1           0       -7.130534   -4.013257   -2.665758
 ---------------------------------------------------------------------
 Rotational constants (GHZ):      0.0736151      0.0445459      0.0348652
 Standard basis: SVP (5D, 7F)
 There are   825 symmetry adapted cartesian basis functions of A   symmetry.
 There are   782 symmetry adapted basis functions of A   symmetry.
   782 basis functions,  1327 primitive gaussians,   825 cartesian basis functions
   155 alpha electrons      155 beta electrons
       nuclear repulsion energy      4908.9200560700 Hartrees.
 NAtoms=   79 NActive=   79 NUniq=   79 SFac= 1.00D+00 NAtFMM=   60 NAOKFM=T Big=T
 Integral buffers will be    131072 words long.
 Regular integral format.
 Two-electron integral symmetry is turned on.
 One-electron integrals computed using PRISM.
 NBasis=   782 RedAO= T EigKep=  3.77D-04  NBF=   782
 NBsUse=   782 1.00D-06 EigRej= -1.00D+00 NBFU=   782
 ExpMin= 1.22D-01 ExpMax= 2.27D+03 ExpMxC= 3.41D+02 IAcc=1 IRadAn=         1 AccDes= 0.00D+00
 Harris functional with IExCor=  402 and IRadAn=       1 diagonalized for initial guess.
 HarFok:  IExCor=  402 AccDes= 0.00D+00 IRadAn=         1 IDoV= 1 UseB2=F ITyADJ=14
 ICtDFT=  3500011 ScaDFX=  1.000000  1.000000  1.000000  1.000000
 FoFCou: FMM=F IPFlag=           0 FMFlag=      100000 FMFlg1=        2001
         NFxFlg=           0 DoJE=T BraDBF=F KetDBF=T FulRan=T
         wScrn=  0.000000 ICntrl=     500 IOpCl=  0 I1Cent=   200000004 NGrid=           0
         NMat0=    1 NMatS0=      1 NMatT0=    0 NMatD0=    1 NMtDS0=    0 NMtDT0=    0
 Petite list used in FoFCou.
 Requested convergence on RMS density matrix=1.00D-08 within 128 cycles.
 Requested convergence on MAX density matrix=1.00D-06.
 Requested convergence on             energy=1.00D-06.
 No special actions if energy rises.
 Integral accuracy reduced to 1.0D-05 until final iterations.
 Initial convergence to 1.0D-05 achieved.  Increase integral accuracy.
 SCF Done:  E(RB3LYP) =  -1947.85334890     A.U. after   17 cycles
            NFock= 17  Conv=0.33D-08     -V/T= 2.0110
 DoSCS=F DFT=T ScalE2(SS,OS)=  1.000000  1.000000
 ExpMin= 1.22D-01 ExpMax= 2.27D+03 ExpMxC= 3.41D+02 IAcc=3 IRadAn=         5 AccDes= 0.00D+00
 HarFok:  IExCor=  205 AccDes= 0.00D+00 IRadAn=         5 IDoV=-2 UseB2=F ITyADJ=14
 ICtDFT= 12500011 ScaDFX=  1.000000  1.000000  1.000000  1.000000
 Range of M.O.s used for correlation:    44   782
 NBasis=   782 NAE=   155 NBE=   155 NFC=    43 NFV=     0
 NROrb=    739 NOA=   112 NOB=   112 NVA=   627 NVB=   627

 **** Warning!!: The smallest alpha delta epsilon is  0.85256764D-01

 Would need an additional        140608300000 words for in-memory AO integral storage.
 Orbital symmetries:
       Occupied  (A) (A) (A) (A) (A) (A) (A) (A) (A) (A) (A) (A)
                 (A) (A) (A) (A) (A) (A) (A) (A) (A) (A) (A) (A)
                 (A) (A) (A) (A) (A) (A) (A) (A) (A) (A) (A) (A)
                 (A) (A) (A) (A) (A) (A) (A) (A) (A) (A) (A) (A)
                 (A) (A) (A) (A) (A) (A) (A) (A) (A) (A) (A) (A)
                 (A) (A) (A) (A) (A) (A) (A) (A) (A) (A) (A) (A)
                 (A) (A) (A) (A) (A) (A) (A) (A) (A) (A) (A) (A)
                 (A) (A) (A) (A) (A) (A) (A) (A) (A) (A) (A) (A)
                 (A) (A) (A) (A) (A) (A) (A) (A) (A) (A) (A) (A)
                 (A) (A) (A) (A) (A) (A) (A) (A) (A) (A) (A) (A)
                 (A) (A) (A) (A) (A) (A) (A) (A) (A) (A) (A) (A)
                 (A) (A) (A) (A) (A) (A) (A) (A) (A) (A) (A) (A)
                 (A) (A) (A) (A) (A) (A) (A) (A) (A) (A) (A)
       Virtual   (A) (A) (A) (A) (A) (A) (A) (A) (A) (A) (A) (A)
                 (A) (A) (A) (A) (A) (A) (A) (A) (A) (A) (A) (A)
                 (A) (A) (A) (A) (A) (A) (A) (A) (A) (A) (A) (A)
                 (A) (A) (A) (A) (A) (A) (A) (A) (A) (A) (A) (A)
                 (A) (A) (A) (A) (A) (A) (A) (A) (A) (A) (A) (A)
                 (A) (A) (A) (A) (A) (A) (A) (A) (A) (A) (A) (A)
                 (A) (A) (A) (A) (A) (A) (A) (A) (A) (A) (A) (A)
                 (A) (A) (A) (A) (A) (A) (A) (A) (A) (A) (A) (A)
                 (A) (A) (A) (A) (A) (A) (A) (A) (A) (A) (A) (A)
                 (A) (A) (A) (A) (A) (A) (A) (A) (A) (A) (A) (A)
                 (A) (A) (A) (A) (A) (A) (A) (A) (A) (A) (A) (A)
                 (A) (A) (A) (A) (A) (A) (A) (A) (A) (A) (A) (A)
                 (A) (A) (A) (A) (A) (A) (A) (A) (A) (A) (A) (A)
                 (A) (A) (A) (A) (A) (A) (A) (A) (A) (A) (A) (A)
                 (A) (A) (A) (A) (A) (A) (A) (A) (A) (A) (A) (A)
                 (A) (A) (A) (A) (A) (A) (A) (A) (A) (A) (A) (A)
                 (A) (A) (A) (A) (A) (A) (A) (A) (A) (A) (A) (A)
                 (A) (A) (A) (A) (A) (A) (A) (A) (A) (A) (A) (A)
                 (A) (A) (A) (A) (A) (A) (A) (A) (A) (A) (A) (A)
                 (A) (A) (A) (A) (A) (A) (A) (A) (A) (A) (A) (A)
                 (A) (A) (A) (A) (A) (A) (A) (A) (A) (A) (A) (A)
                 (A) (A) (A) (A) (A) (A) (A) (A) (A) (A) (A) (A)
                 (A) (A) (A) (A) (A) (A) (A) (A) (A) (A) (A) (A)
                 (A) (A) (A) (A) (A) (A) (A) (A) (A) (A) (A) (A)
                 (A) (A) (A) (A) (A) (A) (A) (A) (A) (A) (A) (A)
                 (A) (A) (A) (A) (A) (A) (A) (A) (A) (A) (A) (A)
                 (A) (A) (A) (A) (A) (A) (A) (A) (A) (A) (A) (A)
                 (A) (A) (A) (A) (A) (A) (A) (A) (A) (A) (A) (A)
                 (A) (A) (A) (A) (A) (A) (A) (A) (A) (A) (A) (A)
                 (A) (A) (A) (A) (A) (A) (A) (A) (A) (A) (A) (A)
                 (A) (A) (A) (A) (A) (A) (A) (A) (A) (A) (A) (A)
                 (A) (A) (A) (A) (A) (A) (A) (A) (A) (A) (A) (A)
                 (A) (A) (A) (A) (A) (A) (A) (A) (A) (A) (A) (A)
                 (A) (A) (A) (A) (A) (A) (A) (A) (A) (A) (A) (A)
                 (A) (A) (A) (A) (A) (A) (A) (A) (A) (A) (A) (A)
                 (A) (A) (A) (A) (A) (A) (A) (A) (A) (A) (A) (A)
                 (A) (A) (A) (A) (A) (A) (A) (A) (A) (A) (A) (A)
                 (A) (A) (A) (A) (A) (A) (A) (A) (A) (A) (A) (A)
                 (A) (A) (A) (A) (A) (A) (A) (A) (A) (A) (A) (A)
                 (A) (A) (A) (A) (A) (A) (A) (A) (A) (A) (A) (A)
                 (A) (A) (A) (A) (A) (A) (A) (A) (A) (A) (A) (A)
                 (A) (A) (A) (A) (A) (A) (A) (A) (A) (A) (A) (A)
                 (A) (A) (A) (A) (A) (A) (A) (A) (A) (A) (A) (A)
                 (A) (A) (A) (A) (A) (A) (A) (A) (A) (A) (A) (A)
                 (A) (A) (A) (A) (A) (A) (A) (A) (A) (A) (A) (A)
                 (A) (A) (A) (A) (A) (A) (A) (A) (A) (A) (A) (A)
                 (A) (A) (A) (A) (A) (A) (A) (A) (A) (A) (A) (A)
                 (A) (A) (A) (A) (A) (A) (A) (A) (A) (A) (A) (A)
                 (A) (A) (A) (A) (A) (A) (A) (A) (A) (A) (A) (A)
                 (A) (A) (A) (A) (A) (A) (A) (A) (A) (A) (A) (A)
                 (A) (A) (A) (A) (A) (A) (A) (A) (A) (A) (A) (A)
                 (A) (A) (A) (A) (A) (A) (A) (A) (A) (A) (A) (A)
                 (A) (A) (A)
     8 initial guesses have been made.
 Convergence on wavefunction:    0.001000000000000
 Iteration     1 Dimension     8 NMult     0 NNew      8
 CISAX will form     8 AO SS matrices at one time.
 New state      1 was old state      3
 Iteration     2 Dimension    12 NMult     8 NNew      4
 Iteration     3 Dimension    16 NMult    12 NNew      4
 Iteration     4 Dimension    20 NMult    16 NNew      4
 Iteration     5 Dimension    24 NMult    20 NNew      4
 Iteration     6 Dimension    28 NMult    24 NNew      4
 ***********************************************************************
 Excited states from <AA,BB:AA,BB> singles matrix:
 ***********************************************************************
 
 Ground to excited state transition densities written to RWF  633
 Ground to excited state transition electric dipole moments (Au):
       state          X           Y           Z        Dip. S.      Osc.
         1        -2.1206     -0.8769     -0.7019      5.7584      0.2912
 Ground to excited state transition velocity dipole moments (Au):
       state          X           Y           Z        Dip. S.      Osc.
         1         0.1554      0.0588      0.0515      0.0303      0.2660
 Ground to excited state transition magnetic dipole moments (Au):
       state          X           Y           Z
         1         0.5020      0.0479     -1.0120
 Ground to excited state transition velocity quadrupole moments (Au):
       state          XX          YY          ZZ          XY          XZ          YZ
         1        -0.4390     -0.1496      0.0282     -0.5400     -0.3695     -0.1734
 <0|del|b> * <b|rxdel|0> + <0|del|b> * <b|delr+rdel|0>
 Rotatory Strengths (R) in cgs (10**-40 erg-esu-cm/Gauss)
       state          XX          YY          ZZ    R(velocity)    E-M Angle
         1      -258.1444    124.7553    401.0636     89.2248       81.61
 1/2[<0|r|b>*<b|rxdel|0> + (<0|rxdel|b>*<b|r|0>)*]
 Rotatory Strengths (R) in cgs (10**-40 erg-esu-cm/Gauss)
       state          XX          YY          ZZ     R(length)
         1       752.7909     29.6884   -502.3239     93.3851
  1/2[<0|del|b>*<b|r|0> + (<0|r|b>*<b|del|0>)*] (Au)
       state          X           Y           Z        Dip. S.   Osc.(frdel)
         1        -0.3296     -0.0516     -0.0362      0.4173      0.2782

 Excitation energies and oscillator strengths:
 
 Excited State   1:      Singlet-A      2.0643 eV  600.62 nm  f=0.2912  <S**2>=0.000
     154 ->156         0.33618
     155 ->156         0.61733
 This state for optimization and/or second-order correction.
 Total Energy, E(TD-HF/TD-KS) =  -1947.77748834    
 Copying the excited state density for this state as the 1-particle RhoCI density.
 SavETr:  write IOETrn=   770 NScale= 10 NData=  16 NLR=1 NState=    1 LETran=      28.

 **********************************************************************

            Population analysis using the SCF density.

 **********************************************************************

 Orbital symmetries:
       Occupied  (A) (A) (A) (A) (A) (A) (A) (A) (A) (A) (A) (A)
                 (A) (A) (A) (A) (A) (A) (A) (A) (A) (A) (A) (A)
                 (A) (A) (A) (A) (A) (A) (A) (A) (A) (A) (A) (A)
                 (A) (A) (A) (A) (A) (A) (A) (A) (A) (A) (A) (A)
                 (A) (A) (A) (A) (A) (A) (A) (A) (A) (A) (A) (A)
                 (A) (A) (A) (A) (A) (A) (A) (A) (A) (A) (A) (A)
                 (A) (A) (A) (A) (A) (A) (A) (A) (A) (A) (A) (A)
                 (A) (A) (A) (A) (A) (A) (A) (A) (A) (A) (A) (A)
                 (A) (A) (A) (A) (A) (A) (A) (A) (A) (A) (A) (A)
                 (A) (A) (A) (A) (A) (A) (A) (A) (A) (A) (A) (A)
                 (A) (A) (A) (A) (A) (A) (A) (A) (A) (A) (A) (A)
                 (A) (A) (A) (A) (A) (A) (A) (A) (A) (A) (A) (A)
                 (A) (A) (A) (A) (A) (A) (A) (A) (A) (A) (A)
       Virtual   (A) (A) (A) (A) (A) (A) (A) (A) (A) (A) (A) (A)
                 (A) (A) (A) (A) (A) (A) (A) (A) (A) (A) (A) (A)
                 (A) (A) (A) (A) (A) (A) (A) (A) (A) (A) (A) (A)
                 (A) (A) (A) (A) (A) (A) (A) (A) (A) (A) (A) (A)
                 (A) (A) (A) (A) (A) (A) (A) (A) (A) (A) (A) (A)
                 (A) (A) (A) (A) (A) (A) (A) (A) (A) (A) (A) (A)
                 (A) (A) (A) (A) (A) (A) (A) (A) (A) (A) (A) (A)
                 (A) (A) (A) (A) (A) (A) (A) (A) (A) (A) (A) (A)
                 (A) (A) (A) (A) (A) (A) (A) (A) (A) (A) (A) (A)
                 (A) (A) (A) (A) (A) (A) (A) (A) (A) (A) (A) (A)
                 (A) (A) (A) (A) (A) (A) (A) (A) (A) (A) (A) (A)
                 (A) (A) (A) (A) (A) (A) (A) (A) (A) (A) (A) (A)
                 (A) (A) (A) (A) (A) (A) (A) (A) (A) (A) (A) (A)
                 (A) (A) (A) (A) (A) (A) (A) (A) (A) (A) (A) (A)
                 (A) (A) (A) (A) (A) (A) (A) (A) (A) (A) (A) (A)
                 (A) (A) (A) (A) (A) (A) (A) (A) (A) (A) (A) (A)
                 (A) (A) (A) (A) (A) (A) (A) (A) (A) (A) (A) (A)
                 (A) (A) (A) (A) (A) (A) (A) (A) (A) (A) (A) (A)
                 (A) (A) (A) (A) (A) (A) (A) (A) (A) (A) (A) (A)
                 (A) (A) (A) (A) (A) (A) (A) (A) (A) (A) (A) (A)
                 (A) (A) (A) (A) (A) (A) (A) (A) (A) (A) (A) (A)
                 (A) (A) (A) (A) (A) (A) (A) (A) (A) (A) (A) (A)
                 (A) (A) (A) (A) (A) (A) (A) (A) (A) (A) (A) (A)
                 (A) (A) (A) (A) (A) (A) (A) (A) (A) (A) (A) (A)
                 (A) (A) (A) (A) (A) (A) (A) (A) (A) (A) (A) (A)
                 (A) (A) (A) (A) (A) (A) (A) (A) (A) (A) (A) (A)
                 (A) (A) (A) (A) (A) (A) (A) (A) (A) (A) (A) (A)
                 (A) (A) (A) (A) (A) (A) (A) (A) (A) (A) (A) (A)
                 (A) (A) (A) (A) (A) (A) (A) (A) (A) (A) (A) (A)
                 (A) (A) (A) (A) (A) (A) (A) (A) (A) (A) (A) (A)
                 (A) (A) (A) (A) (A) (A) (A) (A) (A) (A) (A) (A)
                 (A) (A) (A) (A) (A) (A) (A) (A) (A) (A) (A) (A)
                 (A) (A) (A) (A) (A) (A) (A) (A) (A) (A) (A) (A)
                 (A) (A) (A) (A) (A) (A) (A) (A) (A) (A) (A) (A)
                 (A) (A) (A) (A) (A) (A) (A) (A) (A) (A) (A) (A)
                 (A) (A) (A) (A) (A) (A) (A) (A) (A) (A) (A) (A)
                 (A) (A) (A) (A) (A) (A) (A) (A) (A) (A) (A) (A)
                 (A) (A) (A) (A) (A) (A) (A) (A) (A) (A) (A) (A)
                 (A) (A) (A) (A) (A) (A) (A) (A) (A) (A) (A) (A)
                 (A) (A) (A) (A) (A) (A) (A) (A) (A) (A) (A) (A)
                 (A) (A) (A) (A) (A) (A) (A) (A) (A) (A) (A) (A)
                 (A) (A) (A) (A) (A) (A) (A) (A) (A) (A) (A) (A)
                 (A) (A) (A) (A) (A) (A) (A) (A) (A) (A) (A) (A)
                 (A) (A) (A) (A) (A) (A) (A) (A) (A) (A) (A) (A)
                 (A) (A) (A) (A) (A) (A) (A) (A) (A) (A) (A) (A)
                 (A) (A) (A) (A) (A) (A) (A) (A) (A) (A) (A) (A)
                 (A) (A) (A) (A) (A) (A) (A) (A) (A) (A) (A) (A)
                 (A) (A) (A) (A) (A) (A) (A) (A) (A) (A) (A) (A)
                 (A) (A) (A) (A) (A) (A) (A) (A) (A) (A) (A) (A)
                 (A) (A) (A) (A) (A) (A) (A) (A) (A) (A) (A) (A)
                 (A) (A) (A) (A) (A) (A) (A) (A) (A) (A) (A) (A)
                 (A) (A) (A) (A) (A) (A) (A) (A) (A) (A) (A) (A)
                 (A) (A) (A)
 The electronic state is 1-A.
 Alpha  occ. eigenvalues --  -19.18097 -19.15995 -19.14457 -19.11291 -19.10506
 Alpha  occ. eigenvalues --  -19.09208 -14.39380 -14.36410 -14.34827 -14.29125
 Alpha  occ. eigenvalues --  -10.32989 -10.30096 -10.27625 -10.26888 -10.25258
 Alpha  occ. eigenvalues --  -10.24529 -10.24462 -10.24228 -10.23579 -10.23529
 Alpha  occ. eigenvalues --  -10.23345 -10.23292 -10.23171 -10.22948 -10.22249
 Alpha  occ. eigenvalues --  -10.22239 -10.22015 -10.21962 -10.21718 -10.21710
 Alpha  occ. eigenvalues --  -10.20794 -10.20785 -10.20781 -10.20592 -10.20435
 Alpha  occ. eigenvalues --  -10.20382 -10.20364 -10.20215 -10.20163 -10.20107
 Alpha  occ. eigenvalues --  -10.20005 -10.19241 -10.18495  -1.10533  -1.06276
 Alpha  occ. eigenvalues --   -1.03636  -1.01786  -1.01310  -1.01029  -0.97480
 Alpha  occ. eigenvalues --   -0.96349  -0.94176  -0.91600  -0.83239  -0.82775
 Alpha  occ. eigenvalues --   -0.82283  -0.80946  -0.79627  -0.78863  -0.78195
 Alpha  occ. eigenvalues --   -0.77645  -0.76887  -0.76129  -0.73675  -0.73118
 Alpha  occ. eigenvalues --   -0.72700  -0.70695  -0.69775  -0.69193  -0.68071
 Alpha  occ. eigenvalues --   -0.67812  -0.66313  -0.64655  -0.60380  -0.59931
 Alpha  occ. eigenvalues --   -0.59665  -0.59180  -0.58701  -0.58009  -0.57398
 Alpha  occ. eigenvalues --   -0.56663  -0.55877  -0.54250  -0.54219  -0.52711
 Alpha  occ. eigenvalues --   -0.52422  -0.52028  -0.51383  -0.50926  -0.49591
 Alpha  occ. eigenvalues --   -0.48805  -0.48615  -0.48400  -0.47619  -0.47343
 Alpha  occ. eigenvalues --   -0.47040  -0.46860  -0.46516  -0.45690  -0.45351
 Alpha  occ. eigenvalues --   -0.45196  -0.44828  -0.44428  -0.44266  -0.43816
 Alpha  occ. eigenvalues --   -0.43185  -0.42981  -0.42830  -0.42675  -0.42173
 Alpha  occ. eigenvalues --   -0.42010  -0.41805  -0.41588  -0.41058  -0.40786
 Alpha  occ. eigenvalues --   -0.40503  -0.40474  -0.40294  -0.39911  -0.39608
 Alpha  occ. eigenvalues --   -0.39397  -0.39143  -0.39018  -0.38852  -0.38637
 Alpha  occ. eigenvalues --   -0.38627  -0.37972  -0.37830  -0.37284  -0.37017
 Alpha  occ. eigenvalues --   -0.36952  -0.36156  -0.35308  -0.34604  -0.34515
 Alpha  occ. eigenvalues --   -0.33993  -0.33451  -0.32970  -0.31800  -0.31419
 Alpha  occ. eigenvalues --   -0.31087  -0.30052  -0.29998  -0.28811  -0.28038
 Alpha  occ. eigenvalues --   -0.27116  -0.26054  -0.25942  -0.25421  -0.25064
 Alpha  occ. eigenvalues --   -0.24269  -0.23711  -0.23608  -0.21760  -0.19816
 Alpha virt. eigenvalues --   -0.11291  -0.06449  -0.05934  -0.01145  -0.00817
 Alpha virt. eigenvalues --    0.00557   0.01158   0.02066   0.02433   0.02837
 Alpha virt. eigenvalues --    0.03699   0.04055   0.04204   0.04854   0.05281
 Alpha virt. eigenvalues --    0.05395   0.05470   0.05663   0.06246   0.06754
 Alpha virt. eigenvalues --    0.07422   0.07686   0.07879   0.08335   0.08662
 Alpha virt. eigenvalues --    0.08753   0.09088   0.09307   0.09418   0.09867
 Alpha virt. eigenvalues --    0.10051   0.11226   0.11473   0.11739   0.11919
 Alpha virt. eigenvalues --    0.12003   0.12376   0.12995   0.13200   0.13297
 Alpha virt. eigenvalues --    0.13895   0.14052   0.14307   0.14779   0.15351
 Alpha virt. eigenvalues --    0.15500   0.15915   0.16198   0.16432   0.17114
 Alpha virt. eigenvalues --    0.18258   0.18834   0.19255   0.19476   0.19871
 Alpha virt. eigenvalues --    0.20568   0.20873   0.21516   0.21842   0.21957
 Alpha virt. eigenvalues --    0.22245   0.22502   0.23208   0.23874   0.24005
 Alpha virt. eigenvalues --    0.24509   0.24894   0.25147   0.25379   0.26495
 Alpha virt. eigenvalues --    0.26969   0.27603   0.28122   0.28388   0.29185
 Alpha virt. eigenvalues --    0.29517   0.30046   0.30686   0.30807   0.31413
 Alpha virt. eigenvalues --    0.31566   0.31663   0.32495   0.32725   0.33587
 Alpha virt. eigenvalues --    0.34161   0.34388   0.35239   0.35637   0.36080
 Alpha virt. eigenvalues --    0.36654   0.36887   0.37322   0.37848   0.38332
 Alpha virt. eigenvalues --    0.38479   0.39255   0.39709   0.40100   0.40942
 Alpha virt. eigenvalues --    0.41122   0.41775   0.41855   0.42829   0.43373
 Alpha virt. eigenvalues --    0.43548   0.43692   0.43857   0.44466   0.44700
 Alpha virt. eigenvalues --    0.45038   0.45483   0.45890   0.46316   0.46791
 Alpha virt. eigenvalues --    0.46855   0.47307   0.47387   0.47536   0.47986
 Alpha virt. eigenvalues --    0.48368   0.48794   0.49080   0.49343   0.49627
 Alpha virt. eigenvalues --    0.50035   0.50427   0.50666   0.50988   0.51107
 Alpha virt. eigenvalues --    0.51264   0.51857   0.52283   0.52410   0.52712
 Alpha virt. eigenvalues --    0.53219   0.53929   0.54190   0.54703   0.55366
 Alpha virt. eigenvalues --    0.55781   0.56351   0.56602   0.56737   0.56874
 Alpha virt. eigenvalues --    0.57214   0.57902   0.58161   0.58334   0.58803
 Alpha virt. eigenvalues --    0.59109   0.59463   0.59582   0.59650   0.60164
 Alpha virt. eigenvalues --    0.60358   0.60784   0.60803   0.61129   0.61686
 Alpha virt. eigenvalues --    0.61948   0.62150   0.62440   0.62855   0.62917
 Alpha virt. eigenvalues --    0.63248   0.63882   0.64205   0.64420   0.64506
 Alpha virt. eigenvalues --    0.64620   0.65143   0.65228   0.65447   0.65576
 Alpha virt. eigenvalues --    0.65765   0.66406   0.66420   0.66551   0.66925
 Alpha virt. eigenvalues --    0.67269   0.67473   0.67677   0.67891   0.68308
 Alpha virt. eigenvalues --    0.68477   0.68921   0.68960   0.69333   0.69492
 Alpha virt. eigenvalues --    0.69773   0.70005   0.70394   0.70662   0.70801
 Alpha virt. eigenvalues --    0.70883   0.71303   0.71460   0.71868   0.72375
 Alpha virt. eigenvalues --    0.72703   0.73291   0.73620   0.73752   0.74119
 Alpha virt. eigenvalues --    0.74479   0.74808   0.75257   0.75750   0.75910
 Alpha virt. eigenvalues --    0.76287   0.76527   0.77317   0.77765   0.78109
 Alpha virt. eigenvalues --    0.78638   0.79076   0.79689   0.80652   0.81433
 Alpha virt. eigenvalues --    0.81497   0.82616   0.82745   0.82938   0.83430
 Alpha virt. eigenvalues --    0.83629   0.84245   0.84660   0.84884   0.85515
 Alpha virt. eigenvalues --    0.86359   0.86519   0.87507   0.87911   0.90001
 Alpha virt. eigenvalues --    0.90040   0.91138   0.91899   0.92162   0.92963
 Alpha virt. eigenvalues --    0.93749   0.94424   0.94958   0.95385   0.95758
 Alpha virt. eigenvalues --    0.96716   0.97042   0.97263   0.98334   0.98453
 Alpha virt. eigenvalues --    0.99400   0.99822   1.00549   1.00912   1.01165
 Alpha virt. eigenvalues --    1.02043   1.02743   1.02891   1.03696   1.04261
 Alpha virt. eigenvalues --    1.04453   1.05788   1.06648   1.08296   1.08453
 Alpha virt. eigenvalues --    1.09185   1.09938   1.11364   1.11650   1.12109
 Alpha virt. eigenvalues --    1.12703   1.13868   1.14425   1.14914   1.15301
 Alpha virt. eigenvalues --    1.15775   1.17040   1.17825   1.18573   1.19371
 Alpha virt. eigenvalues --    1.19873   1.20088   1.21503   1.21683   1.22237
 Alpha virt. eigenvalues --    1.22520   1.22692   1.23621   1.23977   1.24421
 Alpha virt. eigenvalues --    1.24795   1.25249   1.26422   1.26513   1.26943
 Alpha virt. eigenvalues --    1.27807   1.27989   1.28344   1.28557   1.29145
 Alpha virt. eigenvalues --    1.30350   1.31459   1.31681   1.32614   1.33144
 Alpha virt. eigenvalues --    1.33618   1.33789   1.34495   1.35633   1.36092
 Alpha virt. eigenvalues --    1.36498   1.37431   1.37876   1.38073   1.39528
 Alpha virt. eigenvalues --    1.40964   1.41445   1.41657   1.42259   1.43316
 Alpha virt. eigenvalues --    1.43754   1.44809   1.46146   1.46488   1.47431
 Alpha virt. eigenvalues --    1.47663   1.48100   1.48792   1.49003   1.50326
 Alpha virt. eigenvalues --    1.50538   1.51138   1.51597   1.52341   1.52705
 Alpha virt. eigenvalues --    1.53123   1.53539   1.53977   1.54188   1.56316
 Alpha virt. eigenvalues --    1.56557   1.57371   1.58095   1.58357   1.59292
 Alpha virt. eigenvalues --    1.59735   1.60038   1.60321   1.60896   1.61887
 Alpha virt. eigenvalues --    1.62110   1.62511   1.63178   1.63547   1.63709
 Alpha virt. eigenvalues --    1.64233   1.64362   1.64522   1.65195   1.65573
 Alpha virt. eigenvalues --    1.66511   1.66524   1.66780   1.67258   1.67557
 Alpha virt. eigenvalues --    1.68018   1.68557   1.69085   1.69512   1.70123
 Alpha virt. eigenvalues --    1.70572   1.70748   1.71223   1.71767   1.72009
 Alpha virt. eigenvalues --    1.72714   1.73075   1.73745   1.74085   1.74642
 Alpha virt. eigenvalues --    1.75047   1.75476   1.75699   1.76454   1.76694
 Alpha virt. eigenvalues --    1.76831   1.77086   1.77835   1.77868   1.78727
 Alpha virt. eigenvalues --    1.78863   1.79156   1.79590   1.80118   1.80527
 Alpha virt. eigenvalues --    1.80985   1.81407   1.81436   1.82037   1.82610
 Alpha virt. eigenvalues --    1.83075   1.83580   1.84106   1.84157   1.84664
 Alpha virt. eigenvalues --    1.84847   1.85579   1.85880   1.86494   1.87002
 Alpha virt. eigenvalues --    1.87495   1.87899   1.88406   1.88663   1.88962
 Alpha virt. eigenvalues --    1.89323   1.89745   1.90183   1.90758   1.91074
 Alpha virt. eigenvalues --    1.91200   1.91935   1.92227   1.92510   1.93036
 Alpha virt. eigenvalues --    1.93398   1.93639   1.93925   1.94890   1.95807
 Alpha virt. eigenvalues --    1.96141   1.96897   1.97574   1.98144   1.98995
 Alpha virt. eigenvalues --    1.99267   1.99475   2.00481   2.00748   2.01287
 Alpha virt. eigenvalues --    2.01905   2.02018   2.03147   2.03512   2.04093
 Alpha virt. eigenvalues --    2.04365   2.04976   2.05445   2.05970   2.06211
 Alpha virt. eigenvalues --    2.06374   2.06582   2.07134   2.07312   2.08117
 Alpha virt. eigenvalues --    2.09427   2.09930   2.10056   2.10864   2.11246
 Alpha virt. eigenvalues --    2.12475   2.12876   2.13358   2.13480   2.13807
 Alpha virt. eigenvalues --    2.15546   2.15768   2.16549   2.16879   2.18320
 Alpha virt. eigenvalues --    2.18964   2.19085   2.19572   2.20131   2.20951
 Alpha virt. eigenvalues --    2.21157   2.21654   2.22573   2.23458   2.23978
 Alpha virt. eigenvalues --    2.24044   2.24471   2.24959   2.26085   2.27084
 Alpha virt. eigenvalues --    2.27996   2.28567   2.29572   2.30214   2.31026
 Alpha virt. eigenvalues --    2.31534   2.31916   2.33000   2.33378   2.33976
 Alpha virt. eigenvalues --    2.35062   2.35603   2.35916   2.36373   2.36835
 Alpha virt. eigenvalues --    2.37564   2.37963   2.38852   2.39009   2.39719
 Alpha virt. eigenvalues --    2.40570   2.41464   2.42633   2.43126   2.43202
 Alpha virt. eigenvalues --    2.44651   2.44808   2.45510   2.46746   2.47384
 Alpha virt. eigenvalues --    2.48171   2.48696   2.50047   2.50558   2.51422
 Alpha virt. eigenvalues --    2.51595   2.52640   2.54511   2.54704   2.55711
 Alpha virt. eigenvalues --    2.57819   2.57898   2.58478   2.58868   2.60139
 Alpha virt. eigenvalues --    2.60380   2.61395   2.61903   2.62406   2.63918
 Alpha virt. eigenvalues --    2.64495   2.64816   2.65735   2.66131   2.66663
 Alpha virt. eigenvalues --    2.67248   2.67572   2.68230   2.68370   2.68870
 Alpha virt. eigenvalues --    2.70029   2.70124   2.70708   2.70999   2.71937
 Alpha virt. eigenvalues --    2.72337   2.73219   2.73425   2.74126   2.74953
 Alpha virt. eigenvalues --    2.75477   2.75809   2.76369   2.76699   2.77211
 Alpha virt. eigenvalues --    2.77598   2.79607   2.80721   2.81166   2.81960
 Alpha virt. eigenvalues --    2.82645   2.83603   2.83787   2.84708   2.86166
 Alpha virt. eigenvalues --    2.87150   2.87615   2.88311   2.89150   2.89296
 Alpha virt. eigenvalues --    2.89688   2.90204   2.91384   2.91744   2.92465
 Alpha virt. eigenvalues --    2.92857   2.94067   2.96563   2.97521   2.97635
 Alpha virt. eigenvalues --    2.97835   2.99546   2.99902   3.01182   3.03055
 Alpha virt. eigenvalues --    3.04372   3.05531   3.07308   3.08752   3.09352
 Alpha virt. eigenvalues --    3.10047   3.11212   3.12361   3.14205   3.15795
 Alpha virt. eigenvalues --    3.16047   3.17233   3.18137   3.19107   3.21281
 Alpha virt. eigenvalues --    3.21965   3.23717   3.23852   3.24895   3.28281
 Alpha virt. eigenvalues --    3.30506   3.31443   3.37782   3.41351   3.47432
 Alpha virt. eigenvalues --    3.49935   3.50487   3.52672   3.54950   3.55791
 Alpha virt. eigenvalues --    3.58273   3.61783   3.66440   3.66513   3.70160
 Alpha virt. eigenvalues --    3.70948   3.77914
          Condensed to atoms (all electrons):
 Mulliken charges:
               1
     1  O   -0.255330
     2  O   -0.220802
     3  O   -0.266046
     4  O   -0.259650
     5  O   -0.151381
     6  O   -0.175541
     7  N    0.012004
     8  N   -0.195939
     9  N   -0.192990
    10  N   -0.390911
    11  C    0.235354
    12  C    0.049568
    13  C   -0.062631
    14  C   -0.127986
    15  C   -0.043458
    16  C    0.028473
    17  C   -0.206066
    18  C    0.090920
    19  C   -0.032540
    20  C   -0.119087
    21  C    0.103065
    22  C    0.126825
    23  C   -0.066783
    24  C    0.092076
    25  C    0.173657
    26  C   -0.103186
    27  C   -0.084725
    28  C    0.198513
    29  C    0.051198
    30  C    0.010867
    31  C   -0.099522
    32  C    0.022476
    33  C   -0.087310
    34  C    0.124850
    35  C    0.127328
    36  C   -0.069730
    37  C    0.167958
    38  C    0.026046
    39  C   -0.180479
    40  C    0.176054
    41  C    0.007536
    42  C    0.032604
    43  C   -0.161022
    44  H   -0.023095
    45  H    0.006291
    46  H    0.038526
    47  H    0.110236
    48  H    0.108453
    49  H    0.026821
    50  H    0.047062
    51  H    0.030471
    52  H    0.005625
    53  H    0.018070
    54  H    0.010498
    55  H   -0.025296
    56  H   -0.011430
    57  H    0.021216
    58  H    0.094061
    59  H    0.042076
    60  H    0.207636
    61  H    0.032215
    62  H    0.061301
    63  H    0.040776
    64  H    0.052903
    65  H    0.072439
    66  H    0.017929
    67  H    0.039965
    68  H    0.061934
    69  H   -0.086185
    70  H    0.030202
    71  H    0.016812
    72  H    0.175559
    73  H    0.031264
    74  H    0.053605
    75  H    0.037684
    76  H    0.039948
    77  H    0.203450
    78  H    0.049775
    79  H    0.056946
 Sum of Mulliken charges =   0.00000
 Mulliken charges with hydrogens summed into heavy atoms:
               1
     1  O   -0.255330
     2  O   -0.045243
     3  O   -0.266046
     4  O   -0.056200
     5  O   -0.151381
     6  O   -0.175541
     7  N    0.122241
     8  N   -0.087486
     9  N    0.014645
    10  N   -0.390911
    11  C    0.212259
    12  C    0.094385
    13  C   -0.062631
    14  C   -0.127986
    15  C   -0.043458
    16  C    0.028473
    17  C   -0.206066
    18  C    0.164804
    19  C   -0.032540
    20  C   -0.088616
    21  C    0.103065
    22  C    0.126825
    23  C   -0.066783
    24  C    0.126269
    25  C    0.158146
    26  C   -0.103186
    27  C    0.051412
    28  C    0.198513
    29  C    0.144714
    30  C    0.051643
    31  C    0.025820
    32  C    0.142305
    33  C   -0.173495
    34  C    0.124850
    35  C    0.127328
    36  C   -0.022715
    37  C    0.167958
    38  C    0.026046
    39  C   -0.180479
    40  C    0.176054
    41  C    0.038799
    42  C    0.163841
    43  C   -0.054301
 Electronic spatial extent (au):  <R**2>=          32236.0558
 Charge=              0.0000 electrons
 Dipole moment (field-independent basis, Debye):
    X=              1.1326    Y=              2.7383    Z=              3.1789  Tot=              4.3459
 Quadrupole moment (field-independent basis, Debye-Ang):
   XX=           -220.7002   YY=           -239.0748   ZZ=           -269.9833
   XY=            -11.4813   XZ=             35.5945   YZ=              2.5309
 Traceless Quadrupole moment (field-independent basis, Debye-Ang):
   XX=             22.5525   YY=              4.1780   ZZ=            -26.7306
   XY=            -11.4813   XZ=             35.5945   YZ=              2.5309
 Octapole moment (field-independent basis, Debye-Ang**2):
  XXX=             75.9440  YYY=            182.6109  ZZZ=             71.7795  XYY=            -63.1322
  XXY=           -101.5646  XXZ=             60.9972  XZZ=            -62.8908  YZZ=            -20.0420
  YYZ=             90.5025  XYZ=             -1.9157
 Hexadecapole moment (field-independent basis, Debye-Ang**3):
 XXXX=         -23260.6747 YYYY=         -11169.3812 ZZZZ=          -5336.9601 XXXY=           -163.4440
 XXXZ=            694.6469 YYYX=            -94.1819 YYYZ=            740.6605 ZZZX=             98.2898
 ZZZY=           -134.8773 XXYY=          -5944.6985 XXZZ=          -5306.5136 YYZZ=          -2871.9338
 XXYZ=            -73.0029 YYXZ=             50.0354 ZZXY=             37.5457
 N-N= 4.908920056070D+03 E-N=-1.434570937049D+04  KE= 1.926574247374D+03
 1\1\GINC-PEDRO-RYZENSSD\SP\RB3LYP TD-FC\SVP\C33H36N4O6\PADAWAN\08-Jul-
 2019\0\\# td=(NStates=1) B3LYP/SVP\\TD\\0,1\O,0,-5.3119865605,0.213815
 4965,-3.3552283556\O,0,2.7667334994,3.3198777112,3.2653127957\O,0,3.15
 81565535,1.0733823473,3.3109330545\O,0,1.371811317,-7.203606265,1.4302
 534351\O,0,0.3854052899,-6.9131122152,-0.5891928505\O,0,1.9693403933,4
 .0482877958,-0.1147632119\N,0,-2.2818387866,-0.9195769643,0.6949860257
 \N,0,-4.3505989638,0.7521294615,-1.3027222043\N,0,1.9367233994,-0.6361
 355946,-0.2981112492\N,0,2.7374950199,1.8114996001,-0.4641838934\C,0,-
 4.8206643127,1.1226124406,0.0148519417\C,0,-4.3909937048,0.1456909868,
 1.2223842991\C,0,-2.9541088671,-0.090344152,1.4275580959\C,0,-1.977582
 8026,0.5703491819,2.273858184\C,0,-0.7166955571,0.0500464461,1.9430130
 635\C,0,-0.9108454595,-0.8680419133,0.8868453928\C,0,-6.2441605135,1.2
 617479307,-0.136352049\C,0,0.632246708,0.3339713202,2.5421488837\C,0,-
 6.6275751892,0.8941017154,-1.4148923469\C,0,-0.0789536374,-1.886453946
 5,0.2061877945\C,0,1.1851714283,-1.8414666593,-0.2085996532\C,0,-5.407
 378796,0.6473944326,-2.1972791687\C,0,1.9219780677,-2.9208156576,-0.90
 41857352\C,0,-2.3755642976,1.684740206,3.3623948795\C,0,-7.1048824804,
 1.8048760236,0.8903496489\C,0,3.1011656449,-2.4072527496,-1.2193530924
 \C,0,1.0390206747,1.7995230945,2.5171469331\C,0,3.1495614971,-0.932252
 6647,-0.9709407251\C,0,1.4626618041,-4.3795123308,-0.9166701409\C,0,-7
 .9100777287,0.7607406385,-2.2076854905\C,0,1.4644781379,-5.0527015126,
 0.4521915457\C,0,4.3096286793,-3.102691535,-1.93552555\C,0,4.040262968
 5,0.0197136332,-1.3512353186\C,0,2.3887614915,1.9954937237,3.034323337
 4\C,0,3.9141759435,1.3357528316,-1.0154373144\C,0,-9.1376519382,0.6911
 869625,-1.7035291155\C,0,0.9729746059,-6.4752162511,0.3101018029\C,0,4
 .6894230072,2.4266647215,-1.4631800445\C,0,4.0683524697,3.6487890391,-
 1.0982894002\C,0,2.7693956956,3.2331550169,-0.4351020572\C,0,5.9531133
 157,2.1568375552,-2.209692498\C,0,4.5308138748,5.0924707643,-1.3268353
 554\C,0,6.8730548569,3.0011865401,-2.741458814\H,0,-4.449582909,2.0492
 199669,0.200259568\H,0,-4.9622346526,-0.8098859797,0.9813993882\H,0,-5
 .0227123904,0.6638306122,2.1420863431\H,0,-2.7432717376,-1.6080576633,
 0.1224298517\H,0,-3.4445801513,0.6716602422,-1.6719543927\H,0,0.590345
 6189,0.2638063541,3.7198373159\H,0,1.4384622902,-0.3494748315,2.117400
 0604\H,0,-0.6022507176,-2.9796459279,0.0161614345\H,0,-3.4347656286,1.
 9448210674,3.5196681344\H,0,-1.6983746969,1.7705756851,4.239113636\H,0
 ,-2.0802408234,2.6779364294,2.9372558796\H,0,-6.6846523603,2.467335685
 7,1.538681987\H,0,-7.5951922275,1.193025631,1.5041428369\H,0,-7.983586
 85,2.4218943595,0.5484538426\H,0,1.3574179231,2.3187044784,1.421372144
 8\H,0,0.4394179819,2.6829263804,2.9245728118\H,0,1.7698426026,0.438740
 2642,-0.0555677829\H,0,2.158464105,-4.9808836116,-1.5496930315\H,0,0.3
 729853789,-4.3180817216,-1.399972767\H,0,-7.8661919442,0.7464572797,-3
 .3391248245\H,0,0.8802809682,-4.3502093252,1.142453933\H,0,2.427753818
 3,-5.0745339324,1.2349274311\H,0,3.772691713,-4.1431118397,-1.85067412
 \H,0,5.2648086024,-3.1560044812,-1.3350084223\H,0,4.6302401203,-2.7769
 197476,-3.0104813704\H,0,4.8722300301,-0.1220563144,-1.9310797962\H,0,
 -9.4435938816,0.5789487921,-0.5383845247\H,0,-10.0314713122,0.75701007
 94,-2.2719369354\H,0,3.6896253939,3.2585684254,3.5622344056\H,0,6.1155
 465603,0.9943436409,-2.30116762\H,0,4.9329443046,5.2136844604,-2.42408
 94639\H,0,3.6958675909,5.7645235223,-0.9993430175\H,0,5.3928810596,5.3
 945759122,-0.6250142495\H,0,1.0913066692,-8.1807193144,1.4097806512\H,
 0,7.8979510769,2.6762649328,-3.4037491371\H,0,7.0244138857,4.213478919
 2,-2.6362765168\\Version=ES64L-G09RevD.01\State=1-A\HF=-1947.8533489\R
 MSD=3.310e-09\PG=C01 [X(C33H36N4O6)]\\@


 MYSTERY IS THE WISDOM OF BLOCKHEADS... HORACE WALPOLE 
 Job cpu time:       0 days  4 hours 39 minutes 26.0 seconds.
 File lengths (MBytes):  RWF=    769 Int=      0 D2E=      0 Chk=     58 Scr=      1
 Normal termination of Gaussian 09 at Mon Jul  8 20:59:06 2019.
