 Entering Gaussian System, Link 0=g16
 Input=Geometria-72-.com
 Output=Geometria-72-.log
 Initial command:
 /usr/local/g09/l1.exe "/home/padawan/israel-mol/dihydrobiliverdin/spectra/abs/Gau-41342.inp" -scrdir="/home/padawan/israel-mol/dihydrobiliverdin/spectra/abs/"
 Entering Link 1 = /usr/local/g09/l1.exe PID=     41344.
  
 Copyright (c) 1988,1990,1992,1993,1995,1998,2003,2009,2013,
            Gaussian, Inc.  All Rights Reserved.
  
 This is part of the Gaussian(R) 09 program.  It is based on
 the Gaussian(R) 03 system (copyright 2003, Gaussian, Inc.),
 the Gaussian(R) 98 system (copyright 1998, Gaussian, Inc.),
 the Gaussian(R) 94 system (copyright 1995, Gaussian, Inc.),
 the Gaussian 92(TM) system (copyright 1992, Gaussian, Inc.),
 the Gaussian 90(TM) system (copyright 1990, Gaussian, Inc.),
 the Gaussian 88(TM) system (copyright 1988, Gaussian, Inc.),
 the Gaussian 86(TM) system (copyright 1986, Carnegie Mellon
 University), and the Gaussian 82(TM) system (copyright 1983,
 Carnegie Mellon University). Gaussian is a federally registered
 trademark of Gaussian, Inc.
  
 This software contains proprietary and confidential information,
 including trade secrets, belonging to Gaussian, Inc.
  
 This software is provided under written license and may be
 used, copied, transmitted, or stored only in accord with that
 written license.
  
 The following legend is applicable only to US Government
 contracts under FAR:
  
                    RESTRICTED RIGHTS LEGEND
  
 Use, reproduction and disclosure by the US Government is
 subject to restrictions as set forth in subparagraphs (a)
 and (c) of the Commercial Computer Software - Restricted
 Rights clause in FAR 52.227-19.
  
 Gaussian, Inc.
 340 Quinnipiac St., Bldg. 40, Wallingford CT 06492
  
  
 ---------------------------------------------------------------
 Warning -- This program may not be used in any manner that
 competes with the business of Gaussian, Inc. or will provide
 assistance to any competitor of Gaussian, Inc.  The licensee
 of this program is prohibited from giving any competitor of
 Gaussian, Inc. access to this program.  By using this program,
 the user acknowledges that Gaussian, Inc. is engaged in the
 business of creating and licensing software in the field of
 computational chemistry and represents and warrants to the
 licensee that it is not a competitor of Gaussian, Inc. and that
 it will not use this program in any manner prohibited above.
 ---------------------------------------------------------------
  

 Cite this work as:
 Gaussian 09, Revision D.01,
 M. J. Frisch, G. W. Trucks, H. B. Schlegel, G. E. Scuseria, 
 M. A. Robb, J. R. Cheeseman, G. Scalmani, V. Barone, B. Mennucci, 
 G. A. Petersson, H. Nakatsuji, M. Caricato, X. Li, H. P. Hratchian, 
 A. F. Izmaylov, J. Bloino, G. Zheng, J. L. Sonnenberg, M. Hada, 
 M. Ehara, K. Toyota, R. Fukuda, J. Hasegawa, M. Ishida, T. Nakajima, 
 Y. Honda, O. Kitao, H. Nakai, T. Vreven, J. A. Montgomery, Jr., 
 J. E. Peralta, F. Ogliaro, M. Bearpark, J. J. Heyd, E. Brothers, 
 K. N. Kudin, V. N. Staroverov, T. Keith, R. Kobayashi, J. Normand, 
 K. Raghavachari, A. Rendell, J. C. Burant, S. S. Iyengar, J. Tomasi, 
 M. Cossi, N. Rega, J. M. Millam, M. Klene, J. E. Knox, J. B. Cross, 
 V. Bakken, C. Adamo, J. Jaramillo, R. Gomperts, R. E. Stratmann, 
 O. Yazyev, A. J. Austin, R. Cammi, C. Pomelli, J. W. Ochterski, 
 R. L. Martin, K. Morokuma, V. G. Zakrzewski, G. A. Voth, 
 P. Salvador, J. J. Dannenberg, S. Dapprich, A. D. Daniels, 
 O. Farkas, J. B. Foresman, J. V. Ortiz, J. Cioslowski, 
 and D. J. Fox, Gaussian, Inc., Wallingford CT, 2013.
 
 ******************************************
 Gaussian 09:  ES64L-G09RevD.01 24-Apr-2013
                 7-Jul-2019 
 ******************************************
 %nproc=4
 Will use up to    4 processors via shared memory.
 %Mem=2GB
 --------------------------
 # td=(NStates=1) B3LYP/SVP
 --------------------------
 1/38=1/1;
 2/12=2,17=6,18=5,40=1/2;
 3/5=18,7=101,11=9,16=1,25=1,30=1,74=-5/1,2,8,3;
 4//1;
 5/5=2,38=5/2;
 8/6=1,10=1,108=1/1;
 9/41=1,42=1,70=2/14;
 6/7=2,8=2,9=2,10=2/1;
 99/5=1,9=1/99;
 --
 TD
 --
 Symbolic Z-matrix:
 Charge =  0 Multiplicity = 1
 8                    -5.42998   0.2793   -3.39435 
 8                     2.93982   2.96029   3.24058 
 8                     3.16354   0.76036   3.34647 
 8                     1.19448  -6.93142   1.71376 
 8                     0.69697  -6.94662  -0.54995 
 8                     2.1915    4.10784  -0.03004 
 7                    -2.3546   -0.87005   0.55784 
 7                    -4.40127   0.66572  -1.30719 
 7                     1.91941  -0.65401  -0.33024 
 7                     2.72943   1.95936  -0.57091 
 6                    -4.82736   1.02863   0.04687 
 6                    -4.45885   0.14144   1.25356 
 6                    -2.99515   0.04513   1.31074 
 6                    -2.05703   0.60483   2.18435 
 6                    -0.75787   0.02318   1.84784 
 6                    -1.01358  -0.83128   0.79768 
 6                    -6.34602   1.19086  -0.14653 
 6                     0.46847   0.35586   2.65055 
 6                    -6.79247   0.7099   -1.44013 
 6                    -0.1845   -1.79274   0.14449 
 6                     1.07967  -1.74182  -0.30936 
 6                    -5.43753   0.50285  -2.18282 
 6                     1.85564  -2.78349  -0.9956 
 6                    -2.35521   1.66904   3.1714 
 6                    -7.17819   1.64993   0.98231 
 6                     3.07128  -2.31713  -1.29296 
 6                     1.07986   1.72863   2.57959 
 6                     3.08186  -0.89372  -0.95838 
 6                     1.42912  -4.24846  -0.89164 
 6                    -8.01489   0.76287  -2.08955 
 6                     1.5468   -4.98562   0.45296 
 6                     4.3253   -3.01264  -1.79492 
 6                     4.02868  -0.00442  -1.23415 
 6                     2.47077   1.71177   3.12641 
 6                     3.8184    1.37257  -1.06283 
 6                    -9.2373    0.84758  -1.57783 
 6                     1.1326   -6.37109   0.42998 
 6                     4.8304    2.47672  -1.54763 
 6                     4.39521   3.6539   -1.20259 
 6                     2.90573   3.27011  -0.57384 
 6                     6.14724   2.15568  -2.06177 
 6                     4.69871   5.08847  -1.41265 
 6                     6.89982   3.08681  -2.7606 
 1                    -4.5014    1.99372   0.29921 
 1                    -4.88523  -0.88189   0.81286 
 1                    -4.93612   0.45188   2.10412 
 1                    -2.79778  -1.36627  -0.11587 
 1                    -3.43002   0.81359  -1.70137 
 1                     0.24604   0.10428   3.70514 
 1                     1.20657  -0.36615   2.25367 
 1                    -0.62956  -2.65931  -0.08402 
 1                    -3.46234   1.79669   3.25316 
 1                    -2.08033   1.23873   4.06236 
 1                    -1.99981   2.66234   2.84662 
 1                    -6.54317   2.1691    1.73325 
 1                    -7.74912   0.66722   1.27143 
 1                    -7.99964   2.2849    0.61879 
 1                     1.19203   2.02563   1.48477 
 1                     0.39099   2.38738   3.21653 
 1                     1.81135   0.36003  -0.14018 
 1                     2.02207  -4.7318   -1.56933 
 1                     0.17393  -4.44848  -1.34077 
 1                    -7.93855   0.74917  -3.14847 
 1                     1.0253   -4.4232    1.39107 
 1                     2.48605  -4.88153   0.96072 
 1                     4.17392  -4.07956  -1.86702 
 1                     5.24323  -2.83985  -1.36682 
 1                     4.65027  -2.73756  -2.87284 
 1                     5.0661   -0.37639  -1.73717 
 1                    -9.57171   0.98232  -0.57615 
 1                    -10.12949   0.89609  -2.09004 
 1                     3.86384   3.10495   3.42992 
 1                     6.3755    1.10176  -1.70891 
 1                     4.52305   5.36198  -2.51166 
 1                     3.86466   5.68067  -0.88742 
 1                     5.69632   5.32552  -1.06477 
 1                     0.83     -7.91286   1.63127 
 1                     7.79816   2.75628  -3.25697 
 1                     6.47331   4.09422  -2.82965 
 
 Stoichiometry    C33H36N4O6
 Framework group  C1[X(C33H36N4O6)]
 Deg. of freedom   231
 Full point group                 C1      NOp   1
 Largest Abelian subgroup         C1      NOp   1
 Largest concise Abelian subgroup C1      NOp   1
                         Standard orientation:                         
 ---------------------------------------------------------------------
 Center     Atomic      Atomic             Coordinates (Angstroms)
 Number     Number       Type             X           Y           Z
 ---------------------------------------------------------------------
      1          8           0        5.392965   -0.522793   -3.421381
      2          8           0       -3.013813   -2.801916    3.316219
      3          8           0       -3.165570   -0.594247    3.380452
      4          8           0       -0.960043    6.996562    1.585557
      5          8           0       -0.477700    6.951818   -0.681045
      6          8           0       -2.325242   -4.036191    0.064100
      7          7           0        2.383293    0.801986    0.526488
      8          7           0        4.366524   -0.835183   -1.320757
      9          7           0       -1.901405    0.707624   -0.330816
     10          7           0       -2.797105   -1.882249   -0.515342
     11          6           0        4.789859   -1.185475    0.037482
     12          6           0        4.458432   -0.263618    1.228849
     13          6           0        2.999036   -0.118768    1.293164
     14          6           0        2.049273   -0.630730    2.183325
     15          6           0        0.767336   -0.013843    1.843535
     16          6           0        1.043383    0.811399    0.775305
     17          6           0        6.301126   -1.400613   -0.162075
     18          6           0       -0.463631   -0.290962    2.660143
     19          6           0        6.754084   -0.959507   -1.467563
     20          6           0        0.241403    1.786452    0.108575
     21          6           0       -1.026815    1.767809   -0.336385
     22          6           0        5.401527   -0.722994   -2.205777
     23          6           0       -1.773355    2.820650   -1.038064
     24          6           0        2.319602   -1.684763    3.189131
     25          6           0        7.125678   -1.864528    0.970371
     26          6           0       -3.005431    2.388325   -1.318738
     27          6           0       -1.119551   -1.644275    2.619814
     28          6           0       -3.059746    0.972741   -0.956332
     29          6           0       -1.299000    4.272740   -0.965392
     30          6           0        7.969705   -1.064669   -2.123352
     31          6           0       -1.383639    5.039205    0.365238
     32          6           0       -4.239694    3.114325   -1.826454
     33          6           0       -4.036670    0.109469   -1.208819
     34          6           0       -2.505433   -1.571711    3.174771
     35          6           0       -3.869848   -1.270044   -1.011909
     36          6           0        9.192193   -1.179094   -1.617619
     37          6           0       -0.925038    6.409790    0.312622
     38          6           0       -4.920288   -2.349943   -1.468772
     39          6           0       -4.521041   -3.533732   -1.103476
     40          6           0       -3.015696   -3.186393   -0.491548
     41          6           0       -6.229533   -1.996338   -1.980954
     42          6           0       -4.872185   -4.961492   -1.283575
     43          6           0       -7.016550   -2.915894   -2.656792
     44          1           0        4.434588   -2.134418    0.310653
     45          1           0        4.914660    0.736624    0.765608
     46          1           0        4.931194   -0.572873    2.082360
     47          1           0        2.837692    1.270440   -0.159523
     48          1           0        3.388338   -0.959055   -1.705965
     49          1           0       -0.226018   -0.026380    3.708217
     50          1           0       -1.180685    0.446811    2.253789
     51          1           0        0.712679    2.633539   -0.139576
     52          1           0        3.422553   -1.846668    3.266544
     53          1           0        2.064842   -1.228611    4.073187
     54          1           0        1.930077   -2.672108    2.886034
     55          1           0        6.479327   -2.348191    1.735224
     56          1           0        7.730028   -0.895459    1.236694
     57          1           0        7.923679   -2.532735    0.614275
     58          1           0       -1.248703   -1.958597    1.531718
     59          1           0       -0.448020   -2.312592    3.265247
     60          1           0       -1.824887   -0.305523   -0.121628
     61          1           0       -1.880612    4.761870   -1.648738
     62          1           0       -0.041080    4.423201   -1.426083
     63          1           0        7.886650   -1.068978   -3.181839
     64          1           0       -0.874225    4.478398    1.310926
     65          1           0       -2.322292    4.975491    0.880721
     66          1           0       -4.054398    4.174170   -1.920326
     67          1           0       -5.159793    2.979729   -1.389401
     68          1           0       -4.580711    2.829133   -2.896760
     69          1           0       -5.064918    0.505115   -1.712602
     70          1           0        9.528872   -1.305213   -0.615581
     71          1           0       10.078844   -1.266432   -2.134281
     72          1           0       -3.940720   -2.912824    3.514050
     73          1           0       -6.421198   -0.928945   -1.647366
     74          1           0       -4.712939   -5.261763   -2.378085
     75          1           0       -4.054166   -5.570173   -0.752022
     76          1           0       -5.874549   -5.159268   -0.924972
     77          1           0       -0.564593    7.963880    1.481648
     78          1           0       -7.907094   -2.566054   -3.153980
     79          1           0       -6.623310   -3.937764   -2.708758
 ---------------------------------------------------------------------
 Rotational constants (GHZ):      0.0758647      0.0434918      0.0346513
 Standard basis: SVP (5D, 7F)
 There are   825 symmetry adapted cartesian basis functions of A   symmetry.
 There are   782 symmetry adapted basis functions of A   symmetry.
   782 basis functions,  1327 primitive gaussians,   825 cartesian basis functions
   155 alpha electrons      155 beta electrons
       nuclear repulsion energy      4920.9947524880 Hartrees.
 NAtoms=   79 NActive=   79 NUniq=   79 SFac= 1.00D+00 NAtFMM=   60 NAOKFM=T Big=T
 Integral buffers will be    131072 words long.
 Regular integral format.
 Two-electron integral symmetry is turned on.
 One-electron integrals computed using PRISM.
 NBasis=   782 RedAO= T EigKep=  3.13D-04  NBF=   782
 NBsUse=   782 1.00D-06 EigRej= -1.00D+00 NBFU=   782
 ExpMin= 1.22D-01 ExpMax= 2.27D+03 ExpMxC= 3.41D+02 IAcc=1 IRadAn=         1 AccDes= 0.00D+00
 Harris functional with IExCor=  402 and IRadAn=       1 diagonalized for initial guess.
 HarFok:  IExCor=  402 AccDes= 0.00D+00 IRadAn=         1 IDoV= 1 UseB2=F ITyADJ=14
 ICtDFT=  3500011 ScaDFX=  1.000000  1.000000  1.000000  1.000000
 FoFCou: FMM=F IPFlag=           0 FMFlag=      100000 FMFlg1=        2001
         NFxFlg=           0 DoJE=T BraDBF=F KetDBF=T FulRan=T
         wScrn=  0.000000 ICntrl=     500 IOpCl=  0 I1Cent=   200000004 NGrid=           0
         NMat0=    1 NMatS0=      1 NMatT0=    0 NMatD0=    1 NMtDS0=    0 NMtDT0=    0
 Petite list used in FoFCou.
 Requested convergence on RMS density matrix=1.00D-08 within 128 cycles.
 Requested convergence on MAX density matrix=1.00D-06.
 Requested convergence on             energy=1.00D-06.
 No special actions if energy rises.
 Integral accuracy reduced to 1.0D-05 until final iterations.
 Initial convergence to 1.0D-05 achieved.  Increase integral accuracy.
 SCF Done:  E(RB3LYP) =  -1947.91298424     A.U. after   16 cycles
            NFock= 16  Conv=0.58D-08     -V/T= 2.0100
 DoSCS=F DFT=T ScalE2(SS,OS)=  1.000000  1.000000
 ExpMin= 1.22D-01 ExpMax= 2.27D+03 ExpMxC= 3.41D+02 IAcc=3 IRadAn=         5 AccDes= 0.00D+00
 HarFok:  IExCor=  205 AccDes= 0.00D+00 IRadAn=         5 IDoV=-2 UseB2=F ITyADJ=14
 ICtDFT= 12500011 ScaDFX=  1.000000  1.000000  1.000000  1.000000
 Range of M.O.s used for correlation:    44   782
 NBasis=   782 NAE=   155 NBE=   155 NFC=    43 NFV=     0
 NROrb=    739 NOA=   112 NOB=   112 NVA=   627 NVB=   627

 **** Warning!!: The smallest alpha delta epsilon is  0.95093906D-01

 Would need an additional        140608300000 words for in-memory AO integral storage.
 Orbital symmetries:
       Occupied  (A) (A) (A) (A) (A) (A) (A) (A) (A) (A) (A) (A)
                 (A) (A) (A) (A) (A) (A) (A) (A) (A) (A) (A) (A)
                 (A) (A) (A) (A) (A) (A) (A) (A) (A) (A) (A) (A)
                 (A) (A) (A) (A) (A) (A) (A) (A) (A) (A) (A) (A)
                 (A) (A) (A) (A) (A) (A) (A) (A) (A) (A) (A) (A)
                 (A) (A) (A) (A) (A) (A) (A) (A) (A) (A) (A) (A)
                 (A) (A) (A) (A) (A) (A) (A) (A) (A) (A) (A) (A)
                 (A) (A) (A) (A) (A) (A) (A) (A) (A) (A) (A) (A)
                 (A) (A) (A) (A) (A) (A) (A) (A) (A) (A) (A) (A)
                 (A) (A) (A) (A) (A) (A) (A) (A) (A) (A) (A) (A)
                 (A) (A) (A) (A) (A) (A) (A) (A) (A) (A) (A) (A)
                 (A) (A) (A) (A) (A) (A) (A) (A) (A) (A) (A) (A)
                 (A) (A) (A) (A) (A) (A) (A) (A) (A) (A) (A)
       Virtual   (A) (A) (A) (A) (A) (A) (A) (A) (A) (A) (A) (A)
                 (A) (A) (A) (A) (A) (A) (A) (A) (A) (A) (A) (A)
                 (A) (A) (A) (A) (A) (A) (A) (A) (A) (A) (A) (A)
                 (A) (A) (A) (A) (A) (A) (A) (A) (A) (A) (A) (A)
                 (A) (A) (A) (A) (A) (A) (A) (A) (A) (A) (A) (A)
                 (A) (A) (A) (A) (A) (A) (A) (A) (A) (A) (A) (A)
                 (A) (A) (A) (A) (A) (A) (A) (A) (A) (A) (A) (A)
                 (A) (A) (A) (A) (A) (A) (A) (A) (A) (A) (A) (A)
                 (A) (A) (A) (A) (A) (A) (A) (A) (A) (A) (A) (A)
                 (A) (A) (A) (A) (A) (A) (A) (A) (A) (A) (A) (A)
                 (A) (A) (A) (A) (A) (A) (A) (A) (A) (A) (A) (A)
                 (A) (A) (A) (A) (A) (A) (A) (A) (A) (A) (A) (A)
                 (A) (A) (A) (A) (A) (A) (A) (A) (A) (A) (A) (A)
                 (A) (A) (A) (A) (A) (A) (A) (A) (A) (A) (A) (A)
                 (A) (A) (A) (A) (A) (A) (A) (A) (A) (A) (A) (A)
                 (A) (A) (A) (A) (A) (A) (A) (A) (A) (A) (A) (A)
                 (A) (A) (A) (A) (A) (A) (A) (A) (A) (A) (A) (A)
                 (A) (A) (A) (A) (A) (A) (A) (A) (A) (A) (A) (A)
                 (A) (A) (A) (A) (A) (A) (A) (A) (A) (A) (A) (A)
                 (A) (A) (A) (A) (A) (A) (A) (A) (A) (A) (A) (A)
                 (A) (A) (A) (A) (A) (A) (A) (A) (A) (A) (A) (A)
                 (A) (A) (A) (A) (A) (A) (A) (A) (A) (A) (A) (A)
                 (A) (A) (A) (A) (A) (A) (A) (A) (A) (A) (A) (A)
                 (A) (A) (A) (A) (A) (A) (A) (A) (A) (A) (A) (A)
                 (A) (A) (A) (A) (A) (A) (A) (A) (A) (A) (A) (A)
                 (A) (A) (A) (A) (A) (A) (A) (A) (A) (A) (A) (A)
                 (A) (A) (A) (A) (A) (A) (A) (A) (A) (A) (A) (A)
                 (A) (A) (A) (A) (A) (A) (A) (A) (A) (A) (A) (A)
                 (A) (A) (A) (A) (A) (A) (A) (A) (A) (A) (A) (A)
                 (A) (A) (A) (A) (A) (A) (A) (A) (A) (A) (A) (A)
                 (A) (A) (A) (A) (A) (A) (A) (A) (A) (A) (A) (A)
                 (A) (A) (A) (A) (A) (A) (A) (A) (A) (A) (A) (A)
                 (A) (A) (A) (A) (A) (A) (A) (A) (A) (A) (A) (A)
                 (A) (A) (A) (A) (A) (A) (A) (A) (A) (A) (A) (A)
                 (A) (A) (A) (A) (A) (A) (A) (A) (A) (A) (A) (A)
                 (A) (A) (A) (A) (A) (A) (A) (A) (A) (A) (A) (A)
                 (A) (A) (A) (A) (A) (A) (A) (A) (A) (A) (A) (A)
                 (A) (A) (A) (A) (A) (A) (A) (A) (A) (A) (A) (A)
                 (A) (A) (A) (A) (A) (A) (A) (A) (A) (A) (A) (A)
                 (A) (A) (A) (A) (A) (A) (A) (A) (A) (A) (A) (A)
                 (A) (A) (A) (A) (A) (A) (A) (A) (A) (A) (A) (A)
                 (A) (A) (A) (A) (A) (A) (A) (A) (A) (A) (A) (A)
                 (A) (A) (A) (A) (A) (A) (A) (A) (A) (A) (A) (A)
                 (A) (A) (A) (A) (A) (A) (A) (A) (A) (A) (A) (A)
                 (A) (A) (A) (A) (A) (A) (A) (A) (A) (A) (A) (A)
                 (A) (A) (A) (A) (A) (A) (A) (A) (A) (A) (A) (A)
                 (A) (A) (A) (A) (A) (A) (A) (A) (A) (A) (A) (A)
                 (A) (A) (A) (A) (A) (A) (A) (A) (A) (A) (A) (A)
                 (A) (A) (A) (A) (A) (A) (A) (A) (A) (A) (A) (A)
                 (A) (A) (A) (A) (A) (A) (A) (A) (A) (A) (A) (A)
                 (A) (A) (A) (A) (A) (A) (A) (A) (A) (A) (A) (A)
                 (A) (A) (A) (A) (A) (A) (A) (A) (A) (A) (A) (A)
                 (A) (A) (A)
     8 initial guesses have been made.
 Convergence on wavefunction:    0.001000000000000
 Iteration     1 Dimension     8 NMult     0 NNew      8
 CISAX will form     8 AO SS matrices at one time.
 New state      1 was old state      4
 Iteration     2 Dimension    12 NMult     8 NNew      4
 Iteration     3 Dimension    16 NMult    12 NNew      4
 Iteration     4 Dimension    20 NMult    16 NNew      4
 Iteration     5 Dimension    24 NMult    20 NNew      4
 Iteration     6 Dimension    28 NMult    24 NNew      4
 ***********************************************************************
 Excited states from <AA,BB:AA,BB> singles matrix:
 ***********************************************************************
 
 Ground to excited state transition densities written to RWF  633
 Ground to excited state transition electric dipole moments (Au):
       state          X           Y           Z        Dip. S.      Osc.
         1        -2.7422     -0.7965     -0.8959      8.9570      0.5310
 Ground to excited state transition velocity dipole moments (Au):
       state          X           Y           Z        Dip. S.      Osc.
         1         0.2367      0.0659      0.0791      0.0666      0.4996
 Ground to excited state transition magnetic dipole moments (Au):
       state          X           Y           Z
         1         0.8608     -0.0312     -1.7330
 Ground to excited state transition velocity quadrupole moments (Au):
       state          XX          YY          ZZ          XY          XZ          YZ
         1        -0.2545     -0.5673      0.1340     -0.7060     -0.4308     -0.1798
 <0|del|b> * <b|rxdel|0> + <0|del|b> * <b|delr+rdel|0>
 Rotatory Strengths (R) in cgs (10**-40 erg-esu-cm/Gauss)
       state          XX          YY          ZZ    R(velocity)    E-M Angle
         1      -662.8217    317.8002    858.5331    171.1705       82.57
 1/2[<0|r|b>*<b|rxdel|0> + (<0|rxdel|b>*<b|r|0>)*]
 Rotatory Strengths (R) in cgs (10**-40 erg-esu-cm/Gauss)
       state          XX          YY          ZZ     R(length)
         1      1669.3372    -17.5679  -1098.0075    184.5873
  1/2[<0|del|b>*<b|r|0> + (<0|r|b>*<b|del|0>)*] (Au)
       state          X           Y           Z        Dip. S.   Osc.(frdel)
         1        -0.6491     -0.0525     -0.0709      0.7725      0.5150

 Excitation energies and oscillator strengths:
 
 Excited State   1:      Singlet-A      2.4196 eV  512.42 nm  f=0.5310  <S**2>=0.000
     155 ->156         0.69369
 This state for optimization and/or second-order correction.
 Total Energy, E(TD-HF/TD-KS) =  -1947.82406598    
 Copying the excited state density for this state as the 1-particle RhoCI density.
 SavETr:  write IOETrn=   770 NScale= 10 NData=  16 NLR=1 NState=    1 LETran=      28.

 **********************************************************************

            Population analysis using the SCF density.

 **********************************************************************

 Orbital symmetries:
       Occupied  (A) (A) (A) (A) (A) (A) (A) (A) (A) (A) (A) (A)
                 (A) (A) (A) (A) (A) (A) (A) (A) (A) (A) (A) (A)
                 (A) (A) (A) (A) (A) (A) (A) (A) (A) (A) (A) (A)
                 (A) (A) (A) (A) (A) (A) (A) (A) (A) (A) (A) (A)
                 (A) (A) (A) (A) (A) (A) (A) (A) (A) (A) (A) (A)
                 (A) (A) (A) (A) (A) (A) (A) (A) (A) (A) (A) (A)
                 (A) (A) (A) (A) (A) (A) (A) (A) (A) (A) (A) (A)
                 (A) (A) (A) (A) (A) (A) (A) (A) (A) (A) (A) (A)
                 (A) (A) (A) (A) (A) (A) (A) (A) (A) (A) (A) (A)
                 (A) (A) (A) (A) (A) (A) (A) (A) (A) (A) (A) (A)
                 (A) (A) (A) (A) (A) (A) (A) (A) (A) (A) (A) (A)
                 (A) (A) (A) (A) (A) (A) (A) (A) (A) (A) (A) (A)
                 (A) (A) (A) (A) (A) (A) (A) (A) (A) (A) (A)
       Virtual   (A) (A) (A) (A) (A) (A) (A) (A) (A) (A) (A) (A)
                 (A) (A) (A) (A) (A) (A) (A) (A) (A) (A) (A) (A)
                 (A) (A) (A) (A) (A) (A) (A) (A) (A) (A) (A) (A)
                 (A) (A) (A) (A) (A) (A) (A) (A) (A) (A) (A) (A)
                 (A) (A) (A) (A) (A) (A) (A) (A) (A) (A) (A) (A)
                 (A) (A) (A) (A) (A) (A) (A) (A) (A) (A) (A) (A)
                 (A) (A) (A) (A) (A) (A) (A) (A) (A) (A) (A) (A)
                 (A) (A) (A) (A) (A) (A) (A) (A) (A) (A) (A) (A)
                 (A) (A) (A) (A) (A) (A) (A) (A) (A) (A) (A) (A)
                 (A) (A) (A) (A) (A) (A) (A) (A) (A) (A) (A) (A)
                 (A) (A) (A) (A) (A) (A) (A) (A) (A) (A) (A) (A)
                 (A) (A) (A) (A) (A) (A) (A) (A) (A) (A) (A) (A)
                 (A) (A) (A) (A) (A) (A) (A) (A) (A) (A) (A) (A)
                 (A) (A) (A) (A) (A) (A) (A) (A) (A) (A) (A) (A)
                 (A) (A) (A) (A) (A) (A) (A) (A) (A) (A) (A) (A)
                 (A) (A) (A) (A) (A) (A) (A) (A) (A) (A) (A) (A)
                 (A) (A) (A) (A) (A) (A) (A) (A) (A) (A) (A) (A)
                 (A) (A) (A) (A) (A) (A) (A) (A) (A) (A) (A) (A)
                 (A) (A) (A) (A) (A) (A) (A) (A) (A) (A) (A) (A)
                 (A) (A) (A) (A) (A) (A) (A) (A) (A) (A) (A) (A)
                 (A) (A) (A) (A) (A) (A) (A) (A) (A) (A) (A) (A)
                 (A) (A) (A) (A) (A) (A) (A) (A) (A) (A) (A) (A)
                 (A) (A) (A) (A) (A) (A) (A) (A) (A) (A) (A) (A)
                 (A) (A) (A) (A) (A) (A) (A) (A) (A) (A) (A) (A)
                 (A) (A) (A) (A) (A) (A) (A) (A) (A) (A) (A) (A)
                 (A) (A) (A) (A) (A) (A) (A) (A) (A) (A) (A) (A)
                 (A) (A) (A) (A) (A) (A) (A) (A) (A) (A) (A) (A)
                 (A) (A) (A) (A) (A) (A) (A) (A) (A) (A) (A) (A)
                 (A) (A) (A) (A) (A) (A) (A) (A) (A) (A) (A) (A)
                 (A) (A) (A) (A) (A) (A) (A) (A) (A) (A) (A) (A)
                 (A) (A) (A) (A) (A) (A) (A) (A) (A) (A) (A) (A)
                 (A) (A) (A) (A) (A) (A) (A) (A) (A) (A) (A) (A)
                 (A) (A) (A) (A) (A) (A) (A) (A) (A) (A) (A) (A)
                 (A) (A) (A) (A) (A) (A) (A) (A) (A) (A) (A) (A)
                 (A) (A) (A) (A) (A) (A) (A) (A) (A) (A) (A) (A)
                 (A) (A) (A) (A) (A) (A) (A) (A) (A) (A) (A) (A)
                 (A) (A) (A) (A) (A) (A) (A) (A) (A) (A) (A) (A)
                 (A) (A) (A) (A) (A) (A) (A) (A) (A) (A) (A) (A)
                 (A) (A) (A) (A) (A) (A) (A) (A) (A) (A) (A) (A)
                 (A) (A) (A) (A) (A) (A) (A) (A) (A) (A) (A) (A)
                 (A) (A) (A) (A) (A) (A) (A) (A) (A) (A) (A) (A)
                 (A) (A) (A) (A) (A) (A) (A) (A) (A) (A) (A) (A)
                 (A) (A) (A) (A) (A) (A) (A) (A) (A) (A) (A) (A)
                 (A) (A) (A) (A) (A) (A) (A) (A) (A) (A) (A) (A)
                 (A) (A) (A) (A) (A) (A) (A) (A) (A) (A) (A) (A)
                 (A) (A) (A) (A) (A) (A) (A) (A) (A) (A) (A) (A)
                 (A) (A) (A) (A) (A) (A) (A) (A) (A) (A) (A) (A)
                 (A) (A) (A) (A) (A) (A) (A) (A) (A) (A) (A) (A)
                 (A) (A) (A) (A) (A) (A) (A) (A) (A) (A) (A) (A)
                 (A) (A) (A) (A) (A) (A) (A) (A) (A) (A) (A) (A)
                 (A) (A) (A) (A) (A) (A) (A) (A) (A) (A) (A) (A)
                 (A) (A) (A) (A) (A) (A) (A) (A) (A) (A) (A) (A)
                 (A) (A) (A)
 The electronic state is 1-A.
 Alpha  occ. eigenvalues --  -19.18863 -19.15978 -19.13908 -19.11081 -19.10087
 Alpha  occ. eigenvalues --  -19.09658 -14.37857 -14.36850 -14.36773 -14.30350
 Alpha  occ. eigenvalues --  -10.32987 -10.30573 -10.28681 -10.26431 -10.25086
 Alpha  occ. eigenvalues --  -10.24755 -10.24573 -10.24412 -10.22846 -10.22798
 Alpha  occ. eigenvalues --  -10.22690 -10.22440 -10.22431 -10.22396 -10.21816
 Alpha  occ. eigenvalues --  -10.21760 -10.21596 -10.20789 -10.20670 -10.20465
 Alpha  occ. eigenvalues --  -10.20255 -10.19998 -10.19577 -10.19498 -10.19438
 Alpha  occ. eigenvalues --  -10.19218 -10.19206 -10.19153 -10.18972 -10.18954
 Alpha  occ. eigenvalues --  -10.18875 -10.18583 -10.18347  -1.08446  -1.08206
 Alpha  occ. eigenvalues --   -1.01455  -1.01066  -1.00425  -1.00350  -0.99918
 Alpha  occ. eigenvalues --   -0.99453  -0.93843  -0.93066  -0.83763  -0.83021
 Alpha  occ. eigenvalues --   -0.82277  -0.81813  -0.80993  -0.80949  -0.79108
 Alpha  occ. eigenvalues --   -0.78307  -0.77529  -0.76352  -0.74264  -0.73468
 Alpha  occ. eigenvalues --   -0.72514  -0.70887  -0.70377  -0.69417  -0.69316
 Alpha  occ. eigenvalues --   -0.68297  -0.66838  -0.64796  -0.62465  -0.61468
 Alpha  occ. eigenvalues --   -0.60476  -0.59985  -0.58865  -0.57916  -0.56645
 Alpha  occ. eigenvalues --   -0.56477  -0.56261  -0.55640  -0.54909  -0.53658
 Alpha  occ. eigenvalues --   -0.53001  -0.52081  -0.51725  -0.51101  -0.50067
 Alpha  occ. eigenvalues --   -0.49212  -0.48663  -0.48348  -0.48219  -0.48065
 Alpha  occ. eigenvalues --   -0.47927  -0.47459  -0.46650  -0.46284  -0.46020
 Alpha  occ. eigenvalues --   -0.45818  -0.45460  -0.44994  -0.44639  -0.44333
 Alpha  occ. eigenvalues --   -0.44027  -0.43638  -0.43261  -0.42940  -0.42724
 Alpha  occ. eigenvalues --   -0.42612  -0.42550  -0.42119  -0.41887  -0.41281
 Alpha  occ. eigenvalues --   -0.41127  -0.40823  -0.40702  -0.40509  -0.39962
 Alpha  occ. eigenvalues --   -0.39675  -0.39619  -0.39274  -0.38623  -0.38607
 Alpha  occ. eigenvalues --   -0.38298  -0.38027  -0.37818  -0.37758  -0.36994
 Alpha  occ. eigenvalues --   -0.36653  -0.36276  -0.35302  -0.34620  -0.34542
 Alpha  occ. eigenvalues --   -0.34193  -0.33591  -0.32949  -0.32186  -0.31663
 Alpha  occ. eigenvalues --   -0.31365  -0.31079  -0.29420  -0.29142  -0.27880
 Alpha  occ. eigenvalues --   -0.27181  -0.27010  -0.26817  -0.25114  -0.24779
 Alpha  occ. eigenvalues --   -0.24117  -0.23723  -0.22781  -0.22659  -0.19898
 Alpha virt. eigenvalues --   -0.10389  -0.06113  -0.05245  -0.01713  -0.01284
 Alpha virt. eigenvalues --    0.01025   0.01521   0.01981   0.02345   0.02976
 Alpha virt. eigenvalues --    0.03201   0.04003   0.04206   0.04934   0.05324
 Alpha virt. eigenvalues --    0.05699   0.06514   0.06610   0.06828   0.07023
 Alpha virt. eigenvalues --    0.07410   0.07605   0.08270   0.08788   0.09298
 Alpha virt. eigenvalues --    0.09680   0.09907   0.10024   0.10105   0.10437
 Alpha virt. eigenvalues --    0.10747   0.11067   0.12149   0.12627   0.12864
 Alpha virt. eigenvalues --    0.12908   0.13209   0.13322   0.13603   0.13949
 Alpha virt. eigenvalues --    0.14056   0.15002   0.15129   0.15872   0.16403
 Alpha virt. eigenvalues --    0.16573   0.16788   0.17077   0.17519   0.17950
 Alpha virt. eigenvalues --    0.18163   0.18933   0.19537   0.20140   0.20405
 Alpha virt. eigenvalues --    0.20809   0.21214   0.21512   0.21707   0.22347
 Alpha virt. eigenvalues --    0.22788   0.23414   0.23489   0.23902   0.24145
 Alpha virt. eigenvalues --    0.24419   0.24928   0.25161   0.25507   0.26368
 Alpha virt. eigenvalues --    0.26468   0.27086   0.27907   0.28530   0.28698
 Alpha virt. eigenvalues --    0.29821   0.30355   0.31095   0.31187   0.31671
 Alpha virt. eigenvalues --    0.32045   0.32532   0.32686   0.33459   0.34429
 Alpha virt. eigenvalues --    0.34849   0.35224   0.35658   0.36068   0.36477
 Alpha virt. eigenvalues --    0.37316   0.37675   0.38472   0.38589   0.39170
 Alpha virt. eigenvalues --    0.39845   0.40307   0.40733   0.41211   0.41495
 Alpha virt. eigenvalues --    0.41983   0.42111   0.42369   0.43300   0.43653
 Alpha virt. eigenvalues --    0.43847   0.43860   0.44754   0.44913   0.45176
 Alpha virt. eigenvalues --    0.45313   0.45787   0.46023   0.46490   0.46951
 Alpha virt. eigenvalues --    0.47212   0.47389   0.48347   0.48403   0.48447
 Alpha virt. eigenvalues --    0.48571   0.49250   0.49589   0.49748   0.49850
 Alpha virt. eigenvalues --    0.50151   0.50374   0.50774   0.51116   0.51355
 Alpha virt. eigenvalues --    0.52027   0.52418   0.52741   0.53199   0.53546
 Alpha virt. eigenvalues --    0.54368   0.54579   0.55161   0.55615   0.56219
 Alpha virt. eigenvalues --    0.56670   0.56847   0.57468   0.57820   0.57958
 Alpha virt. eigenvalues --    0.58571   0.58722   0.58979   0.59307   0.59490
 Alpha virt. eigenvalues --    0.59837   0.60276   0.60607   0.60980   0.61159
 Alpha virt. eigenvalues --    0.61727   0.61935   0.62293   0.62567   0.62717
 Alpha virt. eigenvalues --    0.62763   0.63002   0.63461   0.63666   0.63860
 Alpha virt. eigenvalues --    0.64054   0.64387   0.64621   0.64729   0.65005
 Alpha virt. eigenvalues --    0.65286   0.65505   0.65762   0.65916   0.66009
 Alpha virt. eigenvalues --    0.66118   0.66565   0.66694   0.67085   0.67192
 Alpha virt. eigenvalues --    0.67479   0.67851   0.67958   0.68329   0.68494
 Alpha virt. eigenvalues --    0.68704   0.69046   0.69479   0.69876   0.70023
 Alpha virt. eigenvalues --    0.70375   0.70578   0.70860   0.71253   0.71495
 Alpha virt. eigenvalues --    0.71792   0.72301   0.72424   0.72744   0.72892
 Alpha virt. eigenvalues --    0.73020   0.73383   0.73929   0.74060   0.74380
 Alpha virt. eigenvalues --    0.74844   0.75078   0.75333   0.75928   0.76160
 Alpha virt. eigenvalues --    0.76473   0.76925   0.77155   0.78067   0.78226
 Alpha virt. eigenvalues --    0.78443   0.79268   0.79902   0.80163   0.80826
 Alpha virt. eigenvalues --    0.81508   0.81806   0.82587   0.83224   0.83758
 Alpha virt. eigenvalues --    0.84175   0.84461   0.85342   0.85730   0.85841
 Alpha virt. eigenvalues --    0.86090   0.86917   0.88493   0.88864   0.89899
 Alpha virt. eigenvalues --    0.90250   0.90567   0.91110   0.91222   0.92260
 Alpha virt. eigenvalues --    0.92931   0.93370   0.94188   0.95220   0.95441
 Alpha virt. eigenvalues --    0.96041   0.96695   0.97039   0.97415   0.98601
 Alpha virt. eigenvalues --    0.98747   0.99268   1.00007   1.00661   1.01122
 Alpha virt. eigenvalues --    1.01760   1.03653   1.03717   1.04066   1.05211
 Alpha virt. eigenvalues --    1.05459   1.06452   1.07154   1.07881   1.08513
 Alpha virt. eigenvalues --    1.09388   1.10671   1.11155   1.11254   1.12246
 Alpha virt. eigenvalues --    1.12526   1.13067   1.13799   1.14302   1.14681
 Alpha virt. eigenvalues --    1.15715   1.16731   1.17598   1.18547   1.18808
 Alpha virt. eigenvalues --    1.19338   1.19557   1.20320   1.21615   1.21791
 Alpha virt. eigenvalues --    1.22693   1.23208   1.23719   1.24417   1.24677
 Alpha virt. eigenvalues --    1.25246   1.25817   1.26305   1.26868   1.27116
 Alpha virt. eigenvalues --    1.27976   1.28216   1.29033   1.29627   1.29968
 Alpha virt. eigenvalues --    1.30491   1.31093   1.32127   1.32429   1.33317
 Alpha virt. eigenvalues --    1.33842   1.34095   1.34678   1.35101   1.36325
 Alpha virt. eigenvalues --    1.37334   1.37713   1.38501   1.39182   1.40168
 Alpha virt. eigenvalues --    1.40918   1.41711   1.42548   1.43025   1.43566
 Alpha virt. eigenvalues --    1.44643   1.45449   1.46363   1.46945   1.48072
 Alpha virt. eigenvalues --    1.48800   1.49048   1.50114   1.50294   1.50874
 Alpha virt. eigenvalues --    1.51641   1.52194   1.53008   1.53588   1.53784
 Alpha virt. eigenvalues --    1.53912   1.54434   1.55360   1.55752   1.55967
 Alpha virt. eigenvalues --    1.56326   1.57211   1.57309   1.58119   1.58585
 Alpha virt. eigenvalues --    1.59267   1.59847   1.60224   1.60267   1.60597
 Alpha virt. eigenvalues --    1.61676   1.62398   1.63342   1.63967   1.64749
 Alpha virt. eigenvalues --    1.64821   1.65480   1.66045   1.66535   1.66570
 Alpha virt. eigenvalues --    1.67248   1.67314   1.68354   1.68960   1.69642
 Alpha virt. eigenvalues --    1.69978   1.70267   1.70927   1.71331   1.71911
 Alpha virt. eigenvalues --    1.72318   1.72777   1.73156   1.73953   1.74241
 Alpha virt. eigenvalues --    1.74679   1.74940   1.75562   1.75684   1.76519
 Alpha virt. eigenvalues --    1.76964   1.77168   1.77648   1.77819   1.77854
 Alpha virt. eigenvalues --    1.78867   1.79223   1.79558   1.80096   1.80433
 Alpha virt. eigenvalues --    1.80597   1.80867   1.80971   1.81396   1.81891
 Alpha virt. eigenvalues --    1.82166   1.82411   1.82684   1.82968   1.83230
 Alpha virt. eigenvalues --    1.83876   1.83897   1.84669   1.85404   1.85742
 Alpha virt. eigenvalues --    1.86180   1.86405   1.86664   1.87718   1.87993
 Alpha virt. eigenvalues --    1.88425   1.88900   1.89380   1.89679   1.90145
 Alpha virt. eigenvalues --    1.90884   1.91332   1.91589   1.92135   1.92407
 Alpha virt. eigenvalues --    1.92655   1.93038   1.94877   1.95461   1.95595
 Alpha virt. eigenvalues --    1.95736   1.96394   1.97048   1.97159   1.98020
 Alpha virt. eigenvalues --    1.98957   1.99189   1.99826   1.99934   2.00650
 Alpha virt. eigenvalues --    2.01015   2.01263   2.02120   2.02293   2.02677
 Alpha virt. eigenvalues --    2.04038   2.04442   2.05029   2.05488   2.05778
 Alpha virt. eigenvalues --    2.06203   2.07111   2.07283   2.08143   2.08478
 Alpha virt. eigenvalues --    2.08601   2.09252   2.10140   2.10664   2.11118
 Alpha virt. eigenvalues --    2.11822   2.12206   2.12738   2.13469   2.13913
 Alpha virt. eigenvalues --    2.14571   2.14973   2.15640   2.15939   2.16805
 Alpha virt. eigenvalues --    2.17024   2.17541   2.18234   2.18897   2.19725
 Alpha virt. eigenvalues --    2.20297   2.21074   2.21427   2.21520   2.22690
 Alpha virt. eigenvalues --    2.24832   2.25818   2.26649   2.27717   2.27991
 Alpha virt. eigenvalues --    2.28514   2.29034   2.29477   2.30724   2.31224
 Alpha virt. eigenvalues --    2.31569   2.32290   2.32850   2.33368   2.34303
 Alpha virt. eigenvalues --    2.34515   2.34958   2.35581   2.36047   2.36396
 Alpha virt. eigenvalues --    2.37305   2.37742   2.38194   2.38625   2.40739
 Alpha virt. eigenvalues --    2.40802   2.41533   2.41788   2.42360   2.43082
 Alpha virt. eigenvalues --    2.43281   2.43495   2.44467   2.44931   2.45927
 Alpha virt. eigenvalues --    2.46702   2.47479   2.49988   2.50488   2.51637
 Alpha virt. eigenvalues --    2.52313   2.52964   2.53412   2.54326   2.55051
 Alpha virt. eigenvalues --    2.55530   2.55879   2.56434   2.58028   2.58847
 Alpha virt. eigenvalues --    2.59265   2.60635   2.61539   2.62915   2.63056
 Alpha virt. eigenvalues --    2.63563   2.63568   2.64239   2.64495   2.65195
 Alpha virt. eigenvalues --    2.65728   2.66498   2.67249   2.67653   2.68570
 Alpha virt. eigenvalues --    2.70526   2.70659   2.71871   2.71951   2.72351
 Alpha virt. eigenvalues --    2.72849   2.73656   2.74267   2.74934   2.75280
 Alpha virt. eigenvalues --    2.76172   2.77060   2.77400   2.77579   2.78207
 Alpha virt. eigenvalues --    2.79500   2.79768   2.80170   2.80823   2.82117
 Alpha virt. eigenvalues --    2.82446   2.82643   2.83469   2.84542   2.85182
 Alpha virt. eigenvalues --    2.85651   2.86888   2.87535   2.89081   2.89683
 Alpha virt. eigenvalues --    2.90783   2.91501   2.91697   2.92085   2.93150
 Alpha virt. eigenvalues --    2.94069   2.94293   2.95572   2.96488   2.96905
 Alpha virt. eigenvalues --    2.98051   2.98177   2.99076   3.00105   3.00843
 Alpha virt. eigenvalues --    3.01987   3.04363   3.05057   3.06049   3.06653
 Alpha virt. eigenvalues --    3.07724   3.08284   3.09403   3.09590   3.12269
 Alpha virt. eigenvalues --    3.13722   3.14063   3.15253   3.15992   3.16294
 Alpha virt. eigenvalues --    3.17795   3.18069   3.18429   3.18550   3.19433
 Alpha virt. eigenvalues --    3.23025   3.25205   3.26355   3.28072   3.29997
 Alpha virt. eigenvalues --    3.30690   3.36963   3.43112   3.43820   3.45399
 Alpha virt. eigenvalues --    3.49580   3.53697   3.56923   3.60518   3.60719
 Alpha virt. eigenvalues --    3.61833   3.63969   3.64442   3.66529   3.66885
 Alpha virt. eigenvalues --    3.70067   3.81492
          Condensed to atoms (all electrons):
 Mulliken charges:
               1
     1  O   -0.242522
     2  O   -0.173962
     3  O   -0.214785
     4  O   -0.267474
     5  O   -0.220555
     6  O   -0.219988
     7  N    0.022552
     8  N   -0.210936
     9  N   -0.050113
    10  N   -0.206601
    11  C    0.133340
    12  C    0.204291
    13  C   -0.083274
    14  C   -0.209398
    15  C   -0.084495
    16  C    0.074441
    17  C   -0.229477
    18  C    0.085148
    19  C   -0.005503
    20  C   -0.043112
    21  C    0.083974
    22  C    0.142793
    23  C   -0.064711
    24  C    0.165746
    25  C    0.066457
    26  C   -0.089936
    27  C   -0.019944
    28  C    0.098352
    29  C    0.056356
    30  C    0.010632
    31  C   -0.010238
    32  C    0.130892
    33  C   -0.178139
    34  C    0.112965
    35  C    0.083368
    36  C   -0.018901
    37  C    0.171665
    38  C   -0.001905
    39  C   -0.220989
    40  C    0.104601
    41  C   -0.040552
    42  C    0.068728
    43  C   -0.003762
    44  H   -0.008389
    45  H    0.011918
    46  H   -0.024040
    47  H    0.069892
    48  H    0.153430
    49  H    0.007509
    50  H   -0.001649
    51  H   -0.079018
    52  H   -0.026494
    53  H   -0.000761
    54  H    0.052271
    55  H    0.030242
    56  H    0.063497
    57  H    0.040987
    58  H    0.090490
    59  H    0.041000
    60  H    0.143208
    61  H   -0.005815
    62  H    0.051158
    63  H   -0.001458
    64  H    0.059373
    65  H    0.025447
    66  H    0.003519
    67  H    0.002580
    68  H    0.024005
    69  H    0.024990
    70  H   -0.015011
    71  H   -0.004419
    72  H    0.174270
    73  H    0.005869
    74  H    0.047488
    75  H    0.043352
    76  H    0.030090
    77  H    0.218967
    78  H    0.024074
    79  H    0.022400
 Sum of Mulliken charges =   0.00000
 Mulliken charges with hydrogens summed into heavy atoms:
               1
     1  O   -0.242522
     2  O    0.000308
     3  O   -0.214785
     4  O   -0.048507
     5  O   -0.220555
     6  O   -0.219988
     7  N    0.092444
     8  N   -0.057506
     9  N    0.093096
    10  N   -0.206601
    11  C    0.124951
    12  C    0.192168
    13  C   -0.083274
    14  C   -0.209398
    15  C   -0.084495
    16  C    0.074441
    17  C   -0.229477
    18  C    0.091008
    19  C   -0.005503
    20  C   -0.122130
    21  C    0.083974
    22  C    0.142793
    23  C   -0.064711
    24  C    0.190762
    25  C    0.201183
    26  C   -0.089936
    27  C    0.111546
    28  C    0.098352
    29  C    0.101699
    30  C    0.009174
    31  C    0.074582
    32  C    0.160997
    33  C   -0.153148
    34  C    0.112965
    35  C    0.083368
    36  C   -0.038332
    37  C    0.171665
    38  C   -0.001905
    39  C   -0.220989
    40  C    0.104601
    41  C   -0.034683
    42  C    0.189658
    43  C    0.042713
 Electronic spatial extent (au):  <R**2>=          32350.6903
 Charge=              0.0000 electrons
 Dipole moment (field-independent basis, Debye):
    X=              0.3594    Y=              2.4480    Z=              3.6119  Tot=              4.3781
 Quadrupole moment (field-independent basis, Debye-Ang):
   XX=           -224.0623   YY=           -249.4913   ZZ=           -267.3638
   XY=            -11.1801   XZ=             35.6458   YZ=              2.3811
 Traceless Quadrupole moment (field-independent basis, Debye-Ang):
   XX=             22.9101   YY=             -2.5189   ZZ=            -20.3913
   XY=            -11.1801   XZ=             35.6458   YZ=              2.3811
 Octapole moment (field-independent basis, Debye-Ang**2):
  XXX=              9.3940  YYY=            132.4053  ZZZ=             95.5350  XYY=            -38.8439
  XXY=            -54.5412  XXZ=            100.0534  XZZ=            -78.3104  YZZ=            -25.3454
  YYZ=             82.1912  XYZ=              6.4470
 Hexadecapole moment (field-independent basis, Debye-Ang**3):
 XXXX=         -24351.1376 YYYY=         -11386.3702 ZZZZ=          -5204.3824 XXXY=           -350.8905
 XXXZ=            698.8298 YYYX=             -1.2342 YYYZ=            807.0293 ZZZX=            148.2382
 ZZZY=           -149.4338 XXYY=          -6057.7518 XXZZ=          -5539.8606 YYZZ=          -2813.8467
 XXYZ=           -203.7376 YYXZ=             44.2031 ZZXY=            127.0840
 N-N= 4.920994752488D+03 E-N=-1.437113523649D+04  KE= 1.928537003771D+03
 1\1\GINC-PEDRO-RYZENSSD\SP\RB3LYP TD-FC\SVP\C33H36N4O6\PADAWAN\08-Jul-
 2019\0\\# td=(NStates=1) B3LYP/SVP\\TD\\0,1\O,0,-5.4299783596,0.279302
 0452,-3.394352268\O,0,2.9398208082,2.9602917526,3.2405803224\O,0,3.163
 5370915,0.7603610452,3.3464666079\O,0,1.1944835843,-6.9314190463,1.713
 761786\O,0,0.696966446,-6.9466155656,-0.5499489261\O,0,2.1915026096,4.
 1078437514,-0.0300447401\N,0,-2.3545960623,-0.8700520118,0.5578423113\
 N,0,-4.4012740313,0.6657208207,-1.3071926514\N,0,1.9194116683,-0.65400
 73817,-0.3302444625\N,0,2.7294342138,1.9593643865,-0.5709145665\C,0,-4
 .8273649828,1.0286330427,0.046865143\C,0,-4.4588504904,0.1414405618,1.
 2535574164\C,0,-2.9951529715,0.0451293953,1.3107364137\C,0,-2.05703074
 74,0.6048326303,2.1843492331\C,0,-0.7578696745,0.0231837599,1.84784354
 66\C,0,-1.0135757326,-0.8312782369,0.7976764759\C,0,-6.3460206995,1.19
 0860842,-0.1465330671\C,0,0.4684703303,0.3558635095,2.6505497238\C,0,-
 6.7924716789,0.7099032955,-1.4401348712\C,0,-0.1845041924,-1.792744575
 6,0.1444916249\C,0,1.0796708783,-1.7418166943,-0.3093597292\C,0,-5.437
 5318113,0.5028499782,-2.1828177226\C,0,1.855641434,-2.7834919252,-0.99
 56048771\C,0,-2.3552122624,1.6690386359,3.1713957796\C,0,-7.1781898112
 ,1.6499305291,0.9823088448\C,0,3.0712826566,-2.3171337377,-1.292960453
 1\C,0,1.0798647591,1.7286260048,2.5795931777\C,0,3.0818647275,-0.89371
 88113,-0.9583794689\C,0,1.4291184497,-4.2484592255,-0.8916376377\C,0,-
 8.0148882097,0.7628708515,-2.0895536774\C,0,1.5467963697,-4.9856248049
 ,0.4529616227\C,0,4.3253002464,-3.0126425301,-1.7949214895\C,0,4.02868
 18104,-0.0044187801,-1.2341536105\C,0,2.4707696924,1.7117653508,3.1264
 125464\C,0,3.8183963655,1.372566513,-1.0628320539\C,0,-9.2373019032,0.
 8475826021,-1.5778265453\C,0,1.1326005685,-6.3710858381,0.4299837911\C
 ,0,4.8303971046,2.476719727,-1.5476284893\C,0,4.395205155,3.6538995502
 ,-1.2025898303\C,0,2.9057293289,3.2701087123,-0.5738359306\C,0,6.14724
 27287,2.1556774391,-2.0617677056\C,0,4.6987106645,5.0884703642,-1.4126
 539373\C,0,6.8998175332,3.0868051019,-2.7606007282\H,0,-4.5013980905,1
 .9937244173,0.2992094629\H,0,-4.8852269518,-0.8818931804,0.8128625346\
 H,0,-4.9361237316,0.451879417,2.1041225468\H,0,-2.7977771881,-1.366273
 4848,-0.1158739787\H,0,-3.4300186952,0.8135944356,-1.701367334\H,0,0.2
 460411884,0.1042804015,3.7051358458\H,0,1.2065691009,-0.3661464986,2.2
 536736878\H,0,-0.6295634488,-2.6593138947,-0.0840185835\H,0,-3.4623383
 858,1.7966862539,3.2531614837\H,0,-2.0803328927,1.2387325008,4.0623559
 602\H,0,-1.9998127806,2.6623448703,2.8466168157\H,0,-6.5431682119,2.16
 90958617,1.7332514439\H,0,-7.7491176201,0.6672230507,1.2714295656\H,0,
 -7.9996384551,2.2849006602,0.6187908763\H,0,1.1920313844,2.0256251705,
 1.4847684844\H,0,0.3909931394,2.3873768255,3.2165320077\H,0,1.81134675
 3,0.3600323934,-0.1401762437\H,0,2.0220704656,-4.7317987031,-1.5693349
 957\H,0,0.1739254729,-4.4484847619,-1.3407668464\H,0,-7.9385491799,0.7
 491675508,-3.1484657586\H,0,1.0252954696,-4.423196624,1.3910687945\H,0
 ,2.4860496479,-4.8815346325,0.9607200104\H,0,4.173921836,-4.079555484,
 -1.8670157542\H,0,5.2432264441,-2.8398528661,-1.3668216037\H,0,4.65027
 21235,-2.7375558112,-2.8728376061\H,0,5.066099417,-0.376391748,-1.7371
 704052\H,0,-9.5717066929,0.9823191291,-0.576148301\H,0,-10.1294911142,
 0.8960939878,-2.0900387456\H,0,3.8638428157,3.1049530639,3.4299211743\
 H,0,6.3755025559,1.1017643829,-1.708908394\H,0,4.5230533155,5.36197928
 99,-2.5116582208\H,0,3.8646644705,5.6806651364,-0.8874218254\H,0,5.696
 3214036,5.3255190065,-1.0647682249\H,0,0.8300005386,-7.9128625288,1.63
 12728004\H,0,7.7981610979,2.7562829346,-3.2569744596\H,0,6.4733087752,
 4.094216993,-2.8296458537\\Version=ES64L-G09RevD.01\State=1-A\HF=-1947
 .9129842\RMSD=5.780e-09\PG=C01 [X(C33H36N4O6)]\\@


 SOME PEOPLE TRY TO PULL THE WOOL OVER YOUR EYES
 USING THE WRONG YARN.
 Job cpu time:       0 days  4 hours 32 minutes 18.9 seconds.
 File lengths (MBytes):  RWF=    769 Int=      0 D2E=      0 Chk=     58 Scr=      1
 Normal termination of Gaussian 09 at Mon Jul  8 00:09:25 2019.
