 Entering Gaussian System, Link 0=g16
 Input=Geometria-79-.com
 Output=Geometria-79-.log
 Initial command:
 /usr/local/g09/l1.exe "/home/padawan/israel-mol/dihydrobiliverdin/spectra/abs/Gau-41970.inp" -scrdir="/home/padawan/israel-mol/dihydrobiliverdin/spectra/abs/"
 Entering Link 1 = /usr/local/g09/l1.exe PID=     41972.
  
 Copyright (c) 1988,1990,1992,1993,1995,1998,2003,2009,2013,
            Gaussian, Inc.  All Rights Reserved.
  
 This is part of the Gaussian(R) 09 program.  It is based on
 the Gaussian(R) 03 system (copyright 2003, Gaussian, Inc.),
 the Gaussian(R) 98 system (copyright 1998, Gaussian, Inc.),
 the Gaussian(R) 94 system (copyright 1995, Gaussian, Inc.),
 the Gaussian 92(TM) system (copyright 1992, Gaussian, Inc.),
 the Gaussian 90(TM) system (copyright 1990, Gaussian, Inc.),
 the Gaussian 88(TM) system (copyright 1988, Gaussian, Inc.),
 the Gaussian 86(TM) system (copyright 1986, Carnegie Mellon
 University), and the Gaussian 82(TM) system (copyright 1983,
 Carnegie Mellon University). Gaussian is a federally registered
 trademark of Gaussian, Inc.
  
 This software contains proprietary and confidential information,
 including trade secrets, belonging to Gaussian, Inc.
  
 This software is provided under written license and may be
 used, copied, transmitted, or stored only in accord with that
 written license.
  
 The following legend is applicable only to US Government
 contracts under FAR:
  
                    RESTRICTED RIGHTS LEGEND
  
 Use, reproduction and disclosure by the US Government is
 subject to restrictions as set forth in subparagraphs (a)
 and (c) of the Commercial Computer Software - Restricted
 Rights clause in FAR 52.227-19.
  
 Gaussian, Inc.
 340 Quinnipiac St., Bldg. 40, Wallingford CT 06492
  
  
 ---------------------------------------------------------------
 Warning -- This program may not be used in any manner that
 competes with the business of Gaussian, Inc. or will provide
 assistance to any competitor of Gaussian, Inc.  The licensee
 of this program is prohibited from giving any competitor of
 Gaussian, Inc. access to this program.  By using this program,
 the user acknowledges that Gaussian, Inc. is engaged in the
 business of creating and licensing software in the field of
 computational chemistry and represents and warrants to the
 licensee that it is not a competitor of Gaussian, Inc. and that
 it will not use this program in any manner prohibited above.
 ---------------------------------------------------------------
  

 Cite this work as:
 Gaussian 09, Revision D.01,
 M. J. Frisch, G. W. Trucks, H. B. Schlegel, G. E. Scuseria, 
 M. A. Robb, J. R. Cheeseman, G. Scalmani, V. Barone, B. Mennucci, 
 G. A. Petersson, H. Nakatsuji, M. Caricato, X. Li, H. P. Hratchian, 
 A. F. Izmaylov, J. Bloino, G. Zheng, J. L. Sonnenberg, M. Hada, 
 M. Ehara, K. Toyota, R. Fukuda, J. Hasegawa, M. Ishida, T. Nakajima, 
 Y. Honda, O. Kitao, H. Nakai, T. Vreven, J. A. Montgomery, Jr., 
 J. E. Peralta, F. Ogliaro, M. Bearpark, J. J. Heyd, E. Brothers, 
 K. N. Kudin, V. N. Staroverov, T. Keith, R. Kobayashi, J. Normand, 
 K. Raghavachari, A. Rendell, J. C. Burant, S. S. Iyengar, J. Tomasi, 
 M. Cossi, N. Rega, J. M. Millam, M. Klene, J. E. Knox, J. B. Cross, 
 V. Bakken, C. Adamo, J. Jaramillo, R. Gomperts, R. E. Stratmann, 
 O. Yazyev, A. J. Austin, R. Cammi, C. Pomelli, J. W. Ochterski, 
 R. L. Martin, K. Morokuma, V. G. Zakrzewski, G. A. Voth, 
 P. Salvador, J. J. Dannenberg, S. Dapprich, A. D. Daniels, 
 O. Farkas, J. B. Foresman, J. V. Ortiz, J. Cioslowski, 
 and D. J. Fox, Gaussian, Inc., Wallingford CT, 2013.
 
 ******************************************
 Gaussian 09:  ES64L-G09RevD.01 24-Apr-2013
                 8-Jul-2019 
 ******************************************
 %nproc=4
 Will use up to    4 processors via shared memory.
 %Mem=2GB
 --------------------------
 # td=(NStates=1) B3LYP/SVP
 --------------------------
 1/38=1/1;
 2/12=2,17=6,18=5,40=1/2;
 3/5=18,7=101,11=9,16=1,25=1,30=1,74=-5/1,2,8,3;
 4//1;
 5/5=2,38=5/2;
 8/6=1,10=1,108=1/1;
 9/41=1,42=1,70=2/14;
 6/7=2,8=2,9=2,10=2/1;
 99/5=1,9=1/99;
 --
 TD
 --
 Symbolic Z-matrix:
 Charge =  0 Multiplicity = 1
 8                    -5.50209   0.17834  -3.33641 
 8                     2.80583   3.11706   3.46939 
 8                     3.20471   0.91158   3.66425 
 8                     1.61118  -7.06828   1.73645 
 8                     1.04752  -7.30634  -0.52737 
 8                     2.12021   4.07235  -0.01654 
 7                    -2.37831  -0.88651   0.53577 
 7                    -4.57024   0.60673  -1.2735 
 7                     1.84977  -0.74077  -0.36788 
 7                     2.71987   1.86474  -0.46454 
 6                    -4.90274   1.22776  -0.03792 
 6                    -4.53048   0.30552   1.1851 
 6                    -3.00631   0.09495   1.2527 
 6                    -2.02991   0.70327   2.06873 
 6                    -0.74933   0.17094   1.72045 
 6                    -0.98751  -0.84234   0.79683 
 6                    -6.46115   1.34149  -0.15139 
 6                     0.43229   0.29904   2.45504 
 6                    -6.71571   0.85196  -1.28462 
 6                    -0.22899  -1.86555   0.03475 
 6                     1.12508  -1.8536   -0.32351 
 6                    -5.53165   0.50674  -2.15037 
 6                     1.86547  -2.98716  -0.94025 
 6                    -2.28372   1.81034   2.99646 
 6                    -7.17197   2.13094   0.96478 
 6                     3.14216  -2.48391  -1.36428 
 6                     1.12605   1.66844   2.54373 
 6                     3.10685  -0.99879  -1.00294 
 6                     1.4038   -4.42496  -1.01211 
 6                    -7.98528   0.85925  -2.12472 
 6                     1.66431  -5.06094   0.4409 
 6                     4.20805  -3.1096   -2.01988 
 6                     3.98865   0.00881  -1.40964 
 6                     2.42508   1.75399   3.29596 
 6                     3.80286   1.35986  -1.12319 
 6                    -9.24182   0.95834  -1.51722 
 6                     1.42985  -6.54507   0.4642 
 6                     4.66911   2.39559  -1.5714 
 6                     4.17338   3.63557  -1.203 
 6                     2.81291   3.27233  -0.5225 
 6                     6.09107   2.23068  -2.11887 
 6                     4.62187   5.0069   -1.34532 
 6                     6.89724   3.15452  -2.57927 
 1                    -4.50615   2.26511   0.12236 
 1                    -5.22679  -0.45318   1.08806 
 1                    -4.52678   0.80199   2.24939 
 1                    -2.99507  -1.34992  -0.16922 
 1                    -3.65988   0.77843  -1.76029 
 1                     0.27005  -0.10165   3.45963 
 1                     1.2559   -0.27896   2.02868 
 1                    -0.75662  -2.83967   0.10581 
 1                    -3.31187   2.08824   3.33664 
 1                    -1.70014   1.55674   3.88059 
 1                    -1.9615    2.8125    2.75147 
 1                    -6.65323   3.15823   1.14895 
 1                    -7.41586   1.48585   1.77149 
 1                    -8.28662   2.50287   0.48923 
 1                     1.3104    2.18077   1.70257 
 1                     0.57299   2.28823   3.17684 
 1                     1.665     0.13265   0.00603 
 1                     1.85734  -4.99105  -1.54215 
 1                     0.45415  -4.7185   -1.18728 
 1                    -8.03708   0.88505  -3.16176 
 1                     1.14188  -4.59113   1.24423 
 1                     2.73931  -4.9998    0.6018 
 1                     3.90894  -4.19301  -2.1043 
 1                     5.16898  -2.85978  -1.43685 
 1                     4.48358  -2.82724  -3.1376 
 1                     5.05393  -0.37779  -1.76226 
 1                    -9.5428    0.84852  -0.41184 
 1                    -10.07162   0.93045  -2.19615 
 1                     3.70006   3.14602   4.08808 
 1                     6.18462   1.11027  -1.94578 
 1                     4.80965   5.30626  -2.36126 
 1                     3.77248   5.689    -0.84956 
 1                     5.58909   4.93275  -0.61358 
 1                     1.30268  -8.01399   1.72399 
 1                     8.05456   2.94193  -2.83398 
 1                     6.75297   4.315    -2.71392 
 
 Stoichiometry    C33H36N4O6
 Framework group  C1[X(C33H36N4O6)]
 Deg. of freedom   231
 Full point group                 C1      NOp   1
 Largest Abelian subgroup         C1      NOp   1
 Largest concise Abelian subgroup C1      NOp   1
                         Standard orientation:                         
 ---------------------------------------------------------------------
 Center     Atomic      Atomic             Coordinates (Angstroms)
 Number     Number       Type             X           Y           Z
 ---------------------------------------------------------------------
      1          8           0        5.507351    0.028247   -3.333041
      2          8           0       -2.715164   -3.243102    3.424539
      3          8           0       -3.179087   -1.053086    3.647763
      4          8           0       -1.820291    6.994865    1.826208
      5          8           0       -1.262267    7.279075   -0.433680
      6          8           0       -1.999132   -4.132017   -0.072823
      7          7           0        2.350714    0.949702    0.549254
      8          7           0        4.587059   -0.454426   -1.276945
      9          7           0       -1.870573    0.691170   -0.360915
     10          7           0       -2.663349   -1.937379   -0.492595
     11          6           0        4.936844   -1.081508   -0.049224
     12          6           0        4.536646   -0.186740    1.185336
     13          6           0        3.006885   -0.022124    1.253991
     14          6           0        2.048261   -0.669610    2.060913
     15          6           0        0.752786   -0.170759    1.718202
     16          6           0        0.961639    0.861113    0.808166
     17          6           0        6.498012   -1.147724   -0.162441
     18          6           0       -0.425067   -0.343262    2.449743
     19          6           0        6.738840   -0.636100   -1.288888
     20          6           0        0.173807    1.871404    0.058689
     21          6           0       -1.179055    1.824214   -0.301201
     22          6           0        5.545735   -0.314644   -2.151371
     23          6           0       -1.952128    2.943430   -0.903891
     24          6           0        2.333950   -1.780770    2.974375
     25          6           0        7.231004   -1.930422    0.944104
     26          6           0       -3.213104    2.408342   -1.335878
     27          6           0       -1.078189   -1.733574    2.519755
     28          6           0       -3.134251    0.920303   -0.993949
     29          6           0       -1.533022    4.395033   -0.956440
     30          6           0        8.008672   -0.594943   -2.127600
     31          6           0       -1.813237    5.003972    0.504469
     32          6           0       -4.296515    3.010859   -1.984433
     33          6           0       -3.985644   -0.107454   -1.414760
     34          6           0       -2.374669   -1.867243    3.269360
     35          6           0       -3.760288   -1.456066   -1.145785
     36          6           0        9.267156   -0.664883   -1.520056
     37          6           0       -1.622687    6.493940    0.547423
     38          6           0       -4.595274   -2.510940   -1.608459
     39          6           0       -4.063443   -3.740475   -1.255747
     40          6           0       -2.714773   -3.346215   -0.569049
     41          6           0       -6.021079   -2.380885   -2.155307
     42          6           0       -4.471175   -5.122458   -1.416475
     43          6           0       -6.799308   -3.321986   -2.628637
     44          1           0        4.570913   -2.132112    0.097048
     45          1           0        5.210341    0.593369    1.098994
     46          1           0        4.546830   -0.697008    2.243038
     47          1           0        2.954041    1.440292   -0.148933
     48          1           0        3.682514   -0.646505   -1.766952
     49          1           0       -0.275454    0.048843    3.459665
     50          1           0       -1.265071    0.215726    2.030061
     51          1           0        0.672412    2.859647    0.143061
     52          1           0        3.369613   -2.032651    3.312036
     53          1           0        1.742511   -1.556095    3.861095
     54          1           0        2.041619   -2.788699    2.715948
     55          1           0        6.742666   -2.974894    1.114260
     56          1           0        7.455176   -1.289047    1.759449
     57          1           0        8.356484   -2.263059    0.464971
     58          1           0       -1.246737   -2.240057    1.671766
     59          1           0       -0.507543   -2.345019    3.145321
     60          1           0       -1.660382   -0.181239    0.001748
     61          1           0       -2.002691    4.954402   -1.479541
     62          1           0       -0.592327    4.718727   -1.126705
     63          1           0        8.061965   -0.605619   -3.164830
     64          1           0       -1.277754    4.539294    1.302173
     65          1           0       -2.886088    4.909046    0.663367
     66          1           0       -4.029436    4.103627   -2.054348
     67          1           0       -5.250078    2.725195   -1.405780
     68          1           0       -4.562782    2.735163   -3.106054
     69          1           0       -5.061612    0.252150   -1.763481
     70          1           0        9.563965   -0.560714   -0.413003
     71          1           0       10.096256   -0.603636   -2.197641
     72          1           0       -3.608597   -3.306523    4.041799
     73          1           0       -6.147778   -1.266075   -1.967690
     74          1           0       -4.649304   -5.413895   -2.436455
     75          1           0       -3.602381   -5.785640   -0.928731
     76          1           0       -5.440689   -5.086454   -0.684908
     77          1           0       -1.539821    7.949344    1.826451
     78          1           0       -7.962211   -3.140303   -2.881831
     79          1           0       -6.620764   -4.475841   -2.778286
 ---------------------------------------------------------------------
 Rotational constants (GHZ):      0.0724860      0.0433614      0.0339747
 Standard basis: SVP (5D, 7F)
 There are   825 symmetry adapted cartesian basis functions of A   symmetry.
 There are   782 symmetry adapted basis functions of A   symmetry.
   782 basis functions,  1327 primitive gaussians,   825 cartesian basis functions
   155 alpha electrons      155 beta electrons
       nuclear repulsion energy      4879.5201648785 Hartrees.
 NAtoms=   79 NActive=   79 NUniq=   79 SFac= 1.00D+00 NAtFMM=   60 NAOKFM=T Big=T
 Integral buffers will be    131072 words long.
 Regular integral format.
 Two-electron integral symmetry is turned on.
 One-electron integrals computed using PRISM.
 NBasis=   782 RedAO= T EigKep=  3.44D-04  NBF=   782
 NBsUse=   782 1.00D-06 EigRej= -1.00D+00 NBFU=   782
 ExpMin= 1.22D-01 ExpMax= 2.27D+03 ExpMxC= 3.41D+02 IAcc=1 IRadAn=         1 AccDes= 0.00D+00
 Harris functional with IExCor=  402 and IRadAn=       1 diagonalized for initial guess.
 HarFok:  IExCor=  402 AccDes= 0.00D+00 IRadAn=         1 IDoV= 1 UseB2=F ITyADJ=14
 ICtDFT=  3500011 ScaDFX=  1.000000  1.000000  1.000000  1.000000
 FoFCou: FMM=F IPFlag=           0 FMFlag=      100000 FMFlg1=        2001
         NFxFlg=           0 DoJE=T BraDBF=F KetDBF=T FulRan=T
         wScrn=  0.000000 ICntrl=     500 IOpCl=  0 I1Cent=   200000004 NGrid=           0
         NMat0=    1 NMatS0=      1 NMatT0=    0 NMatD0=    1 NMtDS0=    0 NMtDT0=    0
 Petite list used in FoFCou.
 Requested convergence on RMS density matrix=1.00D-08 within 128 cycles.
 Requested convergence on MAX density matrix=1.00D-06.
 Requested convergence on             energy=1.00D-06.
 No special actions if energy rises.
 Integral accuracy reduced to 1.0D-05 until final iterations.
 Initial convergence to 1.0D-05 achieved.  Increase integral accuracy.
 SCF Done:  E(RB3LYP) =  -1947.80240378     A.U. after   17 cycles
            NFock= 17  Conv=0.34D-08     -V/T= 2.0105
 DoSCS=F DFT=T ScalE2(SS,OS)=  1.000000  1.000000
 ExpMin= 1.22D-01 ExpMax= 2.27D+03 ExpMxC= 3.41D+02 IAcc=3 IRadAn=         5 AccDes= 0.00D+00
 HarFok:  IExCor=  205 AccDes= 0.00D+00 IRadAn=         5 IDoV=-2 UseB2=F ITyADJ=14
 ICtDFT= 12500011 ScaDFX=  1.000000  1.000000  1.000000  1.000000
 Range of M.O.s used for correlation:    44   782
 NBasis=   782 NAE=   155 NBE=   155 NFC=    43 NFV=     0
 NROrb=    739 NOA=   112 NOB=   112 NVA=   627 NVB=   627

 **** Warning!!: The smallest alpha delta epsilon is  0.82318400D-01

 Would need an additional        140608300000 words for in-memory AO integral storage.
 Orbital symmetries:
       Occupied  (A) (A) (A) (A) (A) (A) (A) (A) (A) (A) (A) (A)
                 (A) (A) (A) (A) (A) (A) (A) (A) (A) (A) (A) (A)
                 (A) (A) (A) (A) (A) (A) (A) (A) (A) (A) (A) (A)
                 (A) (A) (A) (A) (A) (A) (A) (A) (A) (A) (A) (A)
                 (A) (A) (A) (A) (A) (A) (A) (A) (A) (A) (A) (A)
                 (A) (A) (A) (A) (A) (A) (A) (A) (A) (A) (A) (A)
                 (A) (A) (A) (A) (A) (A) (A) (A) (A) (A) (A) (A)
                 (A) (A) (A) (A) (A) (A) (A) (A) (A) (A) (A) (A)
                 (A) (A) (A) (A) (A) (A) (A) (A) (A) (A) (A) (A)
                 (A) (A) (A) (A) (A) (A) (A) (A) (A) (A) (A) (A)
                 (A) (A) (A) (A) (A) (A) (A) (A) (A) (A) (A) (A)
                 (A) (A) (A) (A) (A) (A) (A) (A) (A) (A) (A) (A)
                 (A) (A) (A) (A) (A) (A) (A) (A) (A) (A) (A)
       Virtual   (A) (A) (A) (A) (A) (A) (A) (A) (A) (A) (A) (A)
                 (A) (A) (A) (A) (A) (A) (A) (A) (A) (A) (A) (A)
                 (A) (A) (A) (A) (A) (A) (A) (A) (A) (A) (A) (A)
                 (A) (A) (A) (A) (A) (A) (A) (A) (A) (A) (A) (A)
                 (A) (A) (A) (A) (A) (A) (A) (A) (A) (A) (A) (A)
                 (A) (A) (A) (A) (A) (A) (A) (A) (A) (A) (A) (A)
                 (A) (A) (A) (A) (A) (A) (A) (A) (A) (A) (A) (A)
                 (A) (A) (A) (A) (A) (A) (A) (A) (A) (A) (A) (A)
                 (A) (A) (A) (A) (A) (A) (A) (A) (A) (A) (A) (A)
                 (A) (A) (A) (A) (A) (A) (A) (A) (A) (A) (A) (A)
                 (A) (A) (A) (A) (A) (A) (A) (A) (A) (A) (A) (A)
                 (A) (A) (A) (A) (A) (A) (A) (A) (A) (A) (A) (A)
                 (A) (A) (A) (A) (A) (A) (A) (A) (A) (A) (A) (A)
                 (A) (A) (A) (A) (A) (A) (A) (A) (A) (A) (A) (A)
                 (A) (A) (A) (A) (A) (A) (A) (A) (A) (A) (A) (A)
                 (A) (A) (A) (A) (A) (A) (A) (A) (A) (A) (A) (A)
                 (A) (A) (A) (A) (A) (A) (A) (A) (A) (A) (A) (A)
                 (A) (A) (A) (A) (A) (A) (A) (A) (A) (A) (A) (A)
                 (A) (A) (A) (A) (A) (A) (A) (A) (A) (A) (A) (A)
                 (A) (A) (A) (A) (A) (A) (A) (A) (A) (A) (A) (A)
                 (A) (A) (A) (A) (A) (A) (A) (A) (A) (A) (A) (A)
                 (A) (A) (A) (A) (A) (A) (A) (A) (A) (A) (A) (A)
                 (A) (A) (A) (A) (A) (A) (A) (A) (A) (A) (A) (A)
                 (A) (A) (A) (A) (A) (A) (A) (A) (A) (A) (A) (A)
                 (A) (A) (A) (A) (A) (A) (A) (A) (A) (A) (A) (A)
                 (A) (A) (A) (A) (A) (A) (A) (A) (A) (A) (A) (A)
                 (A) (A) (A) (A) (A) (A) (A) (A) (A) (A) (A) (A)
                 (A) (A) (A) (A) (A) (A) (A) (A) (A) (A) (A) (A)
                 (A) (A) (A) (A) (A) (A) (A) (A) (A) (A) (A) (A)
                 (A) (A) (A) (A) (A) (A) (A) (A) (A) (A) (A) (A)
                 (A) (A) (A) (A) (A) (A) (A) (A) (A) (A) (A) (A)
                 (A) (A) (A) (A) (A) (A) (A) (A) (A) (A) (A) (A)
                 (A) (A) (A) (A) (A) (A) (A) (A) (A) (A) (A) (A)
                 (A) (A) (A) (A) (A) (A) (A) (A) (A) (A) (A) (A)
                 (A) (A) (A) (A) (A) (A) (A) (A) (A) (A) (A) (A)
                 (A) (A) (A) (A) (A) (A) (A) (A) (A) (A) (A) (A)
                 (A) (A) (A) (A) (A) (A) (A) (A) (A) (A) (A) (A)
                 (A) (A) (A) (A) (A) (A) (A) (A) (A) (A) (A) (A)
                 (A) (A) (A) (A) (A) (A) (A) (A) (A) (A) (A) (A)
                 (A) (A) (A) (A) (A) (A) (A) (A) (A) (A) (A) (A)
                 (A) (A) (A) (A) (A) (A) (A) (A) (A) (A) (A) (A)
                 (A) (A) (A) (A) (A) (A) (A) (A) (A) (A) (A) (A)
                 (A) (A) (A) (A) (A) (A) (A) (A) (A) (A) (A) (A)
                 (A) (A) (A) (A) (A) (A) (A) (A) (A) (A) (A) (A)
                 (A) (A) (A) (A) (A) (A) (A) (A) (A) (A) (A) (A)
                 (A) (A) (A) (A) (A) (A) (A) (A) (A) (A) (A) (A)
                 (A) (A) (A) (A) (A) (A) (A) (A) (A) (A) (A) (A)
                 (A) (A) (A) (A) (A) (A) (A) (A) (A) (A) (A) (A)
                 (A) (A) (A) (A) (A) (A) (A) (A) (A) (A) (A) (A)
                 (A) (A) (A) (A) (A) (A) (A) (A) (A) (A) (A) (A)
                 (A) (A) (A) (A) (A) (A) (A) (A) (A) (A) (A) (A)
                 (A) (A) (A) (A) (A) (A) (A) (A) (A) (A) (A) (A)
                 (A) (A) (A)
     8 initial guesses have been made.
 Convergence on wavefunction:    0.001000000000000
 Iteration     1 Dimension     8 NMult     0 NNew      8
 CISAX will form     8 AO SS matrices at one time.
 New state      1 was old state      3
 Iteration     2 Dimension    12 NMult     8 NNew      4
 New state      1 was old state      2
 Iteration     3 Dimension    16 NMult    12 NNew      4
 Iteration     4 Dimension    20 NMult    16 NNew      4
 Iteration     5 Dimension    24 NMult    20 NNew      4
 Iteration     6 Dimension    28 NMult    24 NNew      4
 Iteration     7 Dimension    32 NMult    28 NNew      4
 ***********************************************************************
 Excited states from <AA,BB:AA,BB> singles matrix:
 ***********************************************************************
 
 Ground to excited state transition densities written to RWF  633
 Ground to excited state transition electric dipole moments (Au):
       state          X           Y           Z        Dip. S.      Osc.
         1        -2.4527     -0.9682     -0.8938      7.7520      0.4037
 Ground to excited state transition velocity dipole moments (Au):
       state          X           Y           Z        Dip. S.      Osc.
         1         0.1841      0.0690      0.0689      0.0434      0.3704
 Ground to excited state transition magnetic dipole moments (Au):
       state          X           Y           Z
         1         0.6962     -0.0426     -1.4501
 Ground to excited state transition velocity quadrupole moments (Au):
       state          XX          YY          ZZ          XY          XZ          YZ
         1        -0.2947     -0.4012      0.0859     -0.5868     -0.3451     -0.2175
 <0|del|b> * <b|rxdel|0> + <0|del|b> * <b|delr+rdel|0>
 Rotatory Strengths (R) in cgs (10**-40 erg-esu-cm/Gauss)
       state          XX          YY          ZZ    R(velocity)    E-M Angle
         1      -541.1513    129.4240    640.1292     76.1340       85.68
 1/2[<0|r|b>*<b|rxdel|0> + (<0|rxdel|b>*<b|r|0>)*]
 Rotatory Strengths (R) in cgs (10**-40 erg-esu-cm/Gauss)
       state          XX          YY          ZZ     R(length)
         1      1207.4743    -29.1971   -916.5807     87.2322
  1/2[<0|del|b>*<b|r|0> + (<0|r|b>*<b|del|0>)*] (Au)
       state          X           Y           Z        Dip. S.   Osc.(frdel)
         1        -0.4514     -0.0668     -0.0616      0.5799      0.3866

 Excitation energies and oscillator strengths:
 
 Excited State   1:      Singlet-A      2.1254 eV  583.34 nm  f=0.4037  <S**2>=0.000
     154 ->156         0.20664
     155 ->156         0.67016
     155 <-156        -0.11005
 This state for optimization and/or second-order correction.
 Total Energy, E(TD-HF/TD-KS) =  -1947.72429558    
 Copying the excited state density for this state as the 1-particle RhoCI density.
 SavETr:  write IOETrn=   770 NScale= 10 NData=  16 NLR=1 NState=    1 LETran=      28.

 **********************************************************************

            Population analysis using the SCF density.

 **********************************************************************

 Orbital symmetries:
       Occupied  (A) (A) (A) (A) (A) (A) (A) (A) (A) (A) (A) (A)
                 (A) (A) (A) (A) (A) (A) (A) (A) (A) (A) (A) (A)
                 (A) (A) (A) (A) (A) (A) (A) (A) (A) (A) (A) (A)
                 (A) (A) (A) (A) (A) (A) (A) (A) (A) (A) (A) (A)
                 (A) (A) (A) (A) (A) (A) (A) (A) (A) (A) (A) (A)
                 (A) (A) (A) (A) (A) (A) (A) (A) (A) (A) (A) (A)
                 (A) (A) (A) (A) (A) (A) (A) (A) (A) (A) (A) (A)
                 (A) (A) (A) (A) (A) (A) (A) (A) (A) (A) (A) (A)
                 (A) (A) (A) (A) (A) (A) (A) (A) (A) (A) (A) (A)
                 (A) (A) (A) (A) (A) (A) (A) (A) (A) (A) (A) (A)
                 (A) (A) (A) (A) (A) (A) (A) (A) (A) (A) (A) (A)
                 (A) (A) (A) (A) (A) (A) (A) (A) (A) (A) (A) (A)
                 (A) (A) (A) (A) (A) (A) (A) (A) (A) (A) (A)
       Virtual   (A) (A) (A) (A) (A) (A) (A) (A) (A) (A) (A) (A)
                 (A) (A) (A) (A) (A) (A) (A) (A) (A) (A) (A) (A)
                 (A) (A) (A) (A) (A) (A) (A) (A) (A) (A) (A) (A)
                 (A) (A) (A) (A) (A) (A) (A) (A) (A) (A) (A) (A)
                 (A) (A) (A) (A) (A) (A) (A) (A) (A) (A) (A) (A)
                 (A) (A) (A) (A) (A) (A) (A) (A) (A) (A) (A) (A)
                 (A) (A) (A) (A) (A) (A) (A) (A) (A) (A) (A) (A)
                 (A) (A) (A) (A) (A) (A) (A) (A) (A) (A) (A) (A)
                 (A) (A) (A) (A) (A) (A) (A) (A) (A) (A) (A) (A)
                 (A) (A) (A) (A) (A) (A) (A) (A) (A) (A) (A) (A)
                 (A) (A) (A) (A) (A) (A) (A) (A) (A) (A) (A) (A)
                 (A) (A) (A) (A) (A) (A) (A) (A) (A) (A) (A) (A)
                 (A) (A) (A) (A) (A) (A) (A) (A) (A) (A) (A) (A)
                 (A) (A) (A) (A) (A) (A) (A) (A) (A) (A) (A) (A)
                 (A) (A) (A) (A) (A) (A) (A) (A) (A) (A) (A) (A)
                 (A) (A) (A) (A) (A) (A) (A) (A) (A) (A) (A) (A)
                 (A) (A) (A) (A) (A) (A) (A) (A) (A) (A) (A) (A)
                 (A) (A) (A) (A) (A) (A) (A) (A) (A) (A) (A) (A)
                 (A) (A) (A) (A) (A) (A) (A) (A) (A) (A) (A) (A)
                 (A) (A) (A) (A) (A) (A) (A) (A) (A) (A) (A) (A)
                 (A) (A) (A) (A) (A) (A) (A) (A) (A) (A) (A) (A)
                 (A) (A) (A) (A) (A) (A) (A) (A) (A) (A) (A) (A)
                 (A) (A) (A) (A) (A) (A) (A) (A) (A) (A) (A) (A)
                 (A) (A) (A) (A) (A) (A) (A) (A) (A) (A) (A) (A)
                 (A) (A) (A) (A) (A) (A) (A) (A) (A) (A) (A) (A)
                 (A) (A) (A) (A) (A) (A) (A) (A) (A) (A) (A) (A)
                 (A) (A) (A) (A) (A) (A) (A) (A) (A) (A) (A) (A)
                 (A) (A) (A) (A) (A) (A) (A) (A) (A) (A) (A) (A)
                 (A) (A) (A) (A) (A) (A) (A) (A) (A) (A) (A) (A)
                 (A) (A) (A) (A) (A) (A) (A) (A) (A) (A) (A) (A)
                 (A) (A) (A) (A) (A) (A) (A) (A) (A) (A) (A) (A)
                 (A) (A) (A) (A) (A) (A) (A) (A) (A) (A) (A) (A)
                 (A) (A) (A) (A) (A) (A) (A) (A) (A) (A) (A) (A)
                 (A) (A) (A) (A) (A) (A) (A) (A) (A) (A) (A) (A)
                 (A) (A) (A) (A) (A) (A) (A) (A) (A) (A) (A) (A)
                 (A) (A) (A) (A) (A) (A) (A) (A) (A) (A) (A) (A)
                 (A) (A) (A) (A) (A) (A) (A) (A) (A) (A) (A) (A)
                 (A) (A) (A) (A) (A) (A) (A) (A) (A) (A) (A) (A)
                 (A) (A) (A) (A) (A) (A) (A) (A) (A) (A) (A) (A)
                 (A) (A) (A) (A) (A) (A) (A) (A) (A) (A) (A) (A)
                 (A) (A) (A) (A) (A) (A) (A) (A) (A) (A) (A) (A)
                 (A) (A) (A) (A) (A) (A) (A) (A) (A) (A) (A) (A)
                 (A) (A) (A) (A) (A) (A) (A) (A) (A) (A) (A) (A)
                 (A) (A) (A) (A) (A) (A) (A) (A) (A) (A) (A) (A)
                 (A) (A) (A) (A) (A) (A) (A) (A) (A) (A) (A) (A)
                 (A) (A) (A) (A) (A) (A) (A) (A) (A) (A) (A) (A)
                 (A) (A) (A) (A) (A) (A) (A) (A) (A) (A) (A) (A)
                 (A) (A) (A) (A) (A) (A) (A) (A) (A) (A) (A) (A)
                 (A) (A) (A) (A) (A) (A) (A) (A) (A) (A) (A) (A)
                 (A) (A) (A) (A) (A) (A) (A) (A) (A) (A) (A) (A)
                 (A) (A) (A) (A) (A) (A) (A) (A) (A) (A) (A) (A)
                 (A) (A) (A) (A) (A) (A) (A) (A) (A) (A) (A) (A)
                 (A) (A) (A)
 The electronic state is 1-A.
 Alpha  occ. eigenvalues --  -19.19748 -19.15525 -19.13874 -19.11761 -19.11098
 Alpha  occ. eigenvalues --  -19.10777 -14.38172 -14.37228 -14.36858 -14.28694
 Alpha  occ. eigenvalues --  -10.34161 -10.30702 -10.28560 -10.26229 -10.26107
 Alpha  occ. eigenvalues --  -10.25593 -10.25043 -10.23531 -10.23268 -10.23166
 Alpha  occ. eigenvalues --  -10.23163 -10.23133 -10.22457 -10.22363 -10.22250
 Alpha  occ. eigenvalues --  -10.22215 -10.21899 -10.21608 -10.20528 -10.20436
 Alpha  occ. eigenvalues --  -10.20431 -10.20182 -10.20124 -10.19890 -10.19762
 Alpha  occ. eigenvalues --  -10.19700 -10.19409 -10.19259 -10.19234 -10.19208
 Alpha  occ. eigenvalues --  -10.19142 -10.19012 -10.18071  -1.08038  -1.05719
 Alpha  occ. eigenvalues --   -1.04021  -1.03723  -0.98767  -0.97820  -0.97686
 Alpha  occ. eigenvalues --   -0.96545  -0.96427  -0.91402  -0.83917  -0.83156
 Alpha  occ. eigenvalues --   -0.82886  -0.81516  -0.80136  -0.79564  -0.78621
 Alpha  occ. eigenvalues --   -0.77741  -0.76553  -0.75096  -0.74168  -0.73619
 Alpha  occ. eigenvalues --   -0.72548  -0.71368  -0.70444  -0.70084  -0.68856
 Alpha  occ. eigenvalues --   -0.68326  -0.66295  -0.63736  -0.60621  -0.60287
 Alpha  occ. eigenvalues --   -0.59951  -0.59559  -0.58909  -0.58003  -0.57394
 Alpha  occ. eigenvalues --   -0.56530  -0.55781  -0.54842  -0.54342  -0.53248
 Alpha  occ. eigenvalues --   -0.52519  -0.51884  -0.51486  -0.50923  -0.50363
 Alpha  occ. eigenvalues --   -0.49397  -0.48788  -0.48399  -0.48211  -0.47617
 Alpha  occ. eigenvalues --   -0.47095  -0.46826  -0.46340  -0.45837  -0.45365
 Alpha  occ. eigenvalues --   -0.45154  -0.44898  -0.44821  -0.44782  -0.44441
 Alpha  occ. eigenvalues --   -0.43989  -0.43868  -0.43350  -0.43133  -0.42961
 Alpha  occ. eigenvalues --   -0.42393  -0.41922  -0.41835  -0.41415  -0.41224
 Alpha  occ. eigenvalues --   -0.41014  -0.40889  -0.40484  -0.40062  -0.39769
 Alpha  occ. eigenvalues --   -0.39652  -0.39377  -0.38973  -0.38635  -0.38421
 Alpha  occ. eigenvalues --   -0.38206  -0.38005  -0.37714  -0.37572  -0.37135
 Alpha  occ. eigenvalues --   -0.37108  -0.36701  -0.36534  -0.35912  -0.35302
 Alpha  occ. eigenvalues --   -0.33439  -0.32877  -0.32132  -0.32041  -0.31909
 Alpha  occ. eigenvalues --   -0.30613  -0.30018  -0.28689  -0.28525  -0.28017
 Alpha  occ. eigenvalues --   -0.27503  -0.26522  -0.26210  -0.25989  -0.25029
 Alpha  occ. eigenvalues --   -0.24754  -0.23952  -0.23421  -0.21775  -0.19335
 Alpha virt. eigenvalues --   -0.11103  -0.06190  -0.05010  -0.03095  -0.00309
 Alpha virt. eigenvalues --    0.00333   0.00920   0.01673   0.02458   0.03239
 Alpha virt. eigenvalues --    0.03484   0.03760   0.04007   0.04334   0.04643
 Alpha virt. eigenvalues --    0.05181   0.05370   0.06034   0.06256   0.06644
 Alpha virt. eigenvalues --    0.07305   0.07761   0.08172   0.08389   0.08726
 Alpha virt. eigenvalues --    0.09116   0.09205   0.09631   0.10032   0.10365
 Alpha virt. eigenvalues --    0.10886   0.11109   0.11262   0.11908   0.11960
 Alpha virt. eigenvalues --    0.12257   0.12554   0.12724   0.13047   0.13449
 Alpha virt. eigenvalues --    0.13805   0.14811   0.15082   0.15370   0.15655
 Alpha virt. eigenvalues --    0.15912   0.16174   0.16521   0.16868   0.17101
 Alpha virt. eigenvalues --    0.17627   0.18390   0.18694   0.19146   0.19555
 Alpha virt. eigenvalues --    0.19769   0.20254   0.20864   0.21517   0.22183
 Alpha virt. eigenvalues --    0.22968   0.23232   0.23501   0.23741   0.24074
 Alpha virt. eigenvalues --    0.24420   0.24764   0.25230   0.25791   0.26146
 Alpha virt. eigenvalues --    0.26240   0.26988   0.27709   0.28216   0.28548
 Alpha virt. eigenvalues --    0.28773   0.29593   0.30098   0.30409   0.30814
 Alpha virt. eigenvalues --    0.31071   0.31938   0.32301   0.32559   0.33939
 Alpha virt. eigenvalues --    0.34359   0.34872   0.35159   0.35654   0.36305
 Alpha virt. eigenvalues --    0.36505   0.36923   0.37749   0.38489   0.38917
 Alpha virt. eigenvalues --    0.39664   0.40133   0.40586   0.41031   0.41440
 Alpha virt. eigenvalues --    0.41897   0.42237   0.42385   0.43405   0.43628
 Alpha virt. eigenvalues --    0.43993   0.44739   0.44811   0.45032   0.45336
 Alpha virt. eigenvalues --    0.45768   0.46062   0.46543   0.46729   0.46961
 Alpha virt. eigenvalues --    0.47071   0.47676   0.47807   0.48276   0.48341
 Alpha virt. eigenvalues --    0.48672   0.48803   0.49599   0.49724   0.50036
 Alpha virt. eigenvalues --    0.50303   0.50959   0.51141   0.51583   0.51816
 Alpha virt. eigenvalues --    0.51965   0.52070   0.52307   0.52766   0.53132
 Alpha virt. eigenvalues --    0.53466   0.53503   0.53830   0.54318   0.54427
 Alpha virt. eigenvalues --    0.54997   0.55760   0.56028   0.56491   0.56793
 Alpha virt. eigenvalues --    0.57334   0.57668   0.57711   0.58038   0.58164
 Alpha virt. eigenvalues --    0.59127   0.59192   0.59564   0.59986   0.60165
 Alpha virt. eigenvalues --    0.60581   0.61008   0.61398   0.61601   0.61800
 Alpha virt. eigenvalues --    0.62055   0.62167   0.62951   0.63135   0.63331
 Alpha virt. eigenvalues --    0.63535   0.63887   0.64145   0.64407   0.64553
 Alpha virt. eigenvalues --    0.64974   0.65363   0.65411   0.65695   0.65767
 Alpha virt. eigenvalues --    0.65990   0.66280   0.66775   0.66803   0.67004
 Alpha virt. eigenvalues --    0.67359   0.67418   0.67746   0.68004   0.68129
 Alpha virt. eigenvalues --    0.68572   0.69093   0.69118   0.69210   0.69313
 Alpha virt. eigenvalues --    0.69696   0.70064   0.70103   0.70649   0.70789
 Alpha virt. eigenvalues --    0.71128   0.71332   0.71949   0.71976   0.72226
 Alpha virt. eigenvalues --    0.72571   0.72995   0.73392   0.73687   0.73808
 Alpha virt. eigenvalues --    0.74271   0.74478   0.74715   0.75248   0.75613
 Alpha virt. eigenvalues --    0.76184   0.76763   0.77090   0.77281   0.77784
 Alpha virt. eigenvalues --    0.78312   0.78375   0.79444   0.79914   0.80078
 Alpha virt. eigenvalues --    0.80917   0.81107   0.81345   0.82925   0.83351
 Alpha virt. eigenvalues --    0.84165   0.84948   0.85409   0.86524   0.87042
 Alpha virt. eigenvalues --    0.87554   0.88534   0.89157   0.89961   0.90180
 Alpha virt. eigenvalues --    0.90563   0.91015   0.91556   0.92335   0.93087
 Alpha virt. eigenvalues --    0.93425   0.93648   0.94663   0.95199   0.95456
 Alpha virt. eigenvalues --    0.95868   0.96130   0.96534   0.97129   0.97491
 Alpha virt. eigenvalues --    0.97684   0.99329   0.99396   0.99947   1.00912
 Alpha virt. eigenvalues --    1.01025   1.02112   1.02968   1.03311   1.04118
 Alpha virt. eigenvalues --    1.04456   1.05142   1.05863   1.06294   1.06491
 Alpha virt. eigenvalues --    1.07937   1.08473   1.09988   1.10335   1.11280
 Alpha virt. eigenvalues --    1.11704   1.11985   1.13397   1.13822   1.14511
 Alpha virt. eigenvalues --    1.14840   1.15960   1.16423   1.16746   1.17234
 Alpha virt. eigenvalues --    1.17828   1.17921   1.19188   1.20024   1.21513
 Alpha virt. eigenvalues --    1.21886   1.23004   1.23654   1.23987   1.24331
 Alpha virt. eigenvalues --    1.24686   1.25418   1.25715   1.25941   1.26232
 Alpha virt. eigenvalues --    1.26554   1.26864   1.27203   1.28566   1.29089
 Alpha virt. eigenvalues --    1.30421   1.30566   1.31362   1.32130   1.32783
 Alpha virt. eigenvalues --    1.34296   1.34671   1.35586   1.36448   1.36979
 Alpha virt. eigenvalues --    1.37451   1.37742   1.39048   1.40823   1.41877
 Alpha virt. eigenvalues --    1.41990   1.43062   1.43831   1.44267   1.44471
 Alpha virt. eigenvalues --    1.44855   1.45765   1.46455   1.46866   1.46939
 Alpha virt. eigenvalues --    1.47319   1.48047   1.48348   1.49252   1.49625
 Alpha virt. eigenvalues --    1.51116   1.51276   1.52249   1.52664   1.53193
 Alpha virt. eigenvalues --    1.53477   1.54747   1.55084   1.56029   1.56692
 Alpha virt. eigenvalues --    1.57450   1.57677   1.57898   1.58235   1.58955
 Alpha virt. eigenvalues --    1.59115   1.60148   1.60282   1.61391   1.61812
 Alpha virt. eigenvalues --    1.62570   1.63340   1.63554   1.63880   1.64305
 Alpha virt. eigenvalues --    1.64465   1.64843   1.65454   1.65947   1.66342
 Alpha virt. eigenvalues --    1.66747   1.67185   1.67526   1.68424   1.68548
 Alpha virt. eigenvalues --    1.68600   1.69254   1.69528   1.69862   1.70082
 Alpha virt. eigenvalues --    1.70463   1.70880   1.71144   1.71436   1.71946
 Alpha virt. eigenvalues --    1.72155   1.73004   1.74285   1.74593   1.74725
 Alpha virt. eigenvalues --    1.75211   1.75395   1.75773   1.76089   1.76742
 Alpha virt. eigenvalues --    1.77194   1.77574   1.77669   1.78591   1.78878
 Alpha virt. eigenvalues --    1.79165   1.79527   1.79703   1.80188   1.80396
 Alpha virt. eigenvalues --    1.81382   1.81710   1.81953   1.82479   1.82836
 Alpha virt. eigenvalues --    1.83569   1.84040   1.84303   1.84820   1.85267
 Alpha virt. eigenvalues --    1.86156   1.86944   1.87068   1.87781   1.87984
 Alpha virt. eigenvalues --    1.88537   1.88737   1.89458   1.89953   1.90331
 Alpha virt. eigenvalues --    1.90628   1.91093   1.91504   1.92133   1.92589
 Alpha virt. eigenvalues --    1.93253   1.93416   1.93852   1.94439   1.95269
 Alpha virt. eigenvalues --    1.95291   1.95641   1.95953   1.96748   1.97085
 Alpha virt. eigenvalues --    1.97814   1.98124   1.98512   1.98929   1.99163
 Alpha virt. eigenvalues --    2.00722   2.01006   2.01696   2.02040   2.02606
 Alpha virt. eigenvalues --    2.03161   2.03338   2.04087   2.04381   2.04933
 Alpha virt. eigenvalues --    2.05523   2.05991   2.06528   2.07260   2.07430
 Alpha virt. eigenvalues --    2.07682   2.08485   2.09208   2.09767   2.10124
 Alpha virt. eigenvalues --    2.10635   2.11251   2.11762   2.12199   2.12249
 Alpha virt. eigenvalues --    2.12574   2.12997   2.13855   2.14561   2.15066
 Alpha virt. eigenvalues --    2.15597   2.16101   2.16736   2.17327   2.18749
 Alpha virt. eigenvalues --    2.19309   2.19858   2.20685   2.21355   2.22049
 Alpha virt. eigenvalues --    2.22275   2.22423   2.24065   2.24550   2.25139
 Alpha virt. eigenvalues --    2.25462   2.26059   2.26866   2.27642   2.28490
 Alpha virt. eigenvalues --    2.29341   2.29791   2.30372   2.31036   2.31932
 Alpha virt. eigenvalues --    2.32433   2.32986   2.33450   2.34587   2.35874
 Alpha virt. eigenvalues --    2.36030   2.36875   2.36915   2.37949   2.39406
 Alpha virt. eigenvalues --    2.39546   2.40491   2.40811   2.41365   2.42729
 Alpha virt. eigenvalues --    2.43104   2.43529   2.44740   2.46614   2.47022
 Alpha virt. eigenvalues --    2.47202   2.47498   2.49042   2.49917   2.50255
 Alpha virt. eigenvalues --    2.51545   2.52271   2.53262   2.53578   2.54207
 Alpha virt. eigenvalues --    2.54436   2.55879   2.57129   2.58001   2.58392
 Alpha virt. eigenvalues --    2.58715   2.59585   2.60412   2.62293   2.62427
 Alpha virt. eigenvalues --    2.63052   2.63565   2.63769   2.63921   2.64165
 Alpha virt. eigenvalues --    2.64262   2.65010   2.65080   2.65832   2.67238
 Alpha virt. eigenvalues --    2.67604   2.68472   2.69832   2.70379   2.70431
 Alpha virt. eigenvalues --    2.71326   2.71682   2.72186   2.73030   2.73786
 Alpha virt. eigenvalues --    2.73954   2.74845   2.75105   2.76516   2.77148
 Alpha virt. eigenvalues --    2.77416   2.78349   2.79822   2.80455   2.81207
 Alpha virt. eigenvalues --    2.81669   2.82815   2.83037   2.84674   2.85036
 Alpha virt. eigenvalues --    2.85432   2.85689   2.85937   2.86502   2.88048
 Alpha virt. eigenvalues --    2.88596   2.89565   2.89861   2.91173   2.91627
 Alpha virt. eigenvalues --    2.92886   2.93300   2.93670   2.94028   2.94527
 Alpha virt. eigenvalues --    2.95271   2.95783   2.97279   2.98526   2.99723
 Alpha virt. eigenvalues --    3.01558   3.02125   3.03323   3.03735   3.04484
 Alpha virt. eigenvalues --    3.04683   3.06411   3.06937   3.07742   3.12335
 Alpha virt. eigenvalues --    3.12525   3.13512   3.14763   3.15638   3.16874
 Alpha virt. eigenvalues --    3.17856   3.17965   3.19585   3.20256   3.20581
 Alpha virt. eigenvalues --    3.21760   3.23648   3.25479   3.28705   3.29056
 Alpha virt. eigenvalues --    3.33976   3.35460   3.38456   3.39235   3.46178
 Alpha virt. eigenvalues --    3.47346   3.49163   3.50479   3.54493   3.56285
 Alpha virt. eigenvalues --    3.57806   3.59950   3.62898   3.67872   3.68362
 Alpha virt. eigenvalues --    3.70475   3.70542
          Condensed to atoms (all electrons):
 Mulliken charges:
               1
     1  O   -0.231674
     2  O   -0.308724
     3  O   -0.216171
     4  O   -0.215320
     5  O   -0.308379
     6  O   -0.151084
     7  N   -0.104576
     8  N   -0.111365
     9  N   -0.032733
    10  N   -0.311442
    11  C    0.023524
    12  C    0.185322
    13  C   -0.098802
    14  C   -0.109011
    15  C   -0.031329
    16  C    0.064316
    17  C   -0.137089
    18  C    0.044740
    19  C   -0.065714
    20  C   -0.061472
    21  C    0.062896
    22  C    0.110335
    23  C   -0.096197
    24  C    0.069143
    25  C    0.036348
    26  C   -0.073612
    27  C    0.107924
    28  C    0.095675
    29  C    0.333439
    30  C    0.006589
    31  C   -0.017764
    32  C    0.002277
    33  C   -0.146126
    34  C    0.121754
    35  C    0.127655
    36  C   -0.059839
    37  C    0.177820
    38  C   -0.052114
    39  C   -0.208585
    40  C    0.146917
    41  C    0.081113
    42  C    0.018147
    43  C   -0.121159
    44  H    0.025093
    45  H   -0.029926
    46  H    0.034585
    47  H    0.134846
    48  H    0.139664
    49  H    0.015724
    50  H   -0.000515
    51  H    0.011319
    52  H   -0.000005
    53  H    0.008798
    54  H    0.027827
    55  H    0.056471
    56  H    0.039671
    57  H    0.045616
    58  H    0.014474
    59  H   -0.007026
    60  H    0.106992
    61  H   -0.120910
    62  H   -0.020358
    63  H    0.001573
    64  H    0.045493
    65  H    0.042254
    66  H    0.029000
    67  H    0.051490
    68  H    0.057026
    69  H    0.024759
    70  H    0.036060
    71  H    0.015817
    72  H    0.223652
    73  H   -0.010228
    74  H    0.047957
    75  H    0.053937
    76  H    0.062373
    77  H    0.202321
    78  H    0.038640
    79  H    0.049883
 Sum of Mulliken charges =   0.00000
 Mulliken charges with hydrogens summed into heavy atoms:
               1
     1  O   -0.231674
     2  O   -0.085072
     3  O   -0.216171
     4  O   -0.012999
     5  O   -0.308379
     6  O   -0.151084
     7  N    0.030270
     8  N    0.028299
     9  N    0.074259
    10  N   -0.311442
    11  C    0.048617
    12  C    0.189982
    13  C   -0.098802
    14  C   -0.109011
    15  C   -0.031329
    16  C    0.064316
    17  C   -0.137089
    18  C    0.059949
    19  C   -0.065714
    20  C   -0.050153
    21  C    0.062896
    22  C    0.110335
    23  C   -0.096197
    24  C    0.105764
    25  C    0.178106
    26  C   -0.073612
    27  C    0.115371
    28  C    0.095675
    29  C    0.192171
    30  C    0.008162
    31  C    0.069982
    32  C    0.139794
    33  C   -0.121367
    34  C    0.121754
    35  C    0.127655
    36  C   -0.007962
    37  C    0.177820
    38  C   -0.052114
    39  C   -0.208585
    40  C    0.146917
    41  C    0.070885
    42  C    0.182414
    43  C   -0.032636
 Electronic spatial extent (au):  <R**2>=          32967.2249
 Charge=              0.0000 electrons
 Dipole moment (field-independent basis, Debye):
    X=              1.1645    Y=              1.7034    Z=              3.4595  Tot=              4.0281
 Quadrupole moment (field-independent basis, Debye-Ang):
   XX=           -228.1063   YY=           -251.8593   ZZ=           -263.8648
   XY=            -11.2120   XZ=             30.5823   YZ=              8.0112
 Traceless Quadrupole moment (field-independent basis, Debye-Ang):
   XX=             19.8372   YY=             -3.9158   ZZ=            -15.9213
   XY=            -11.2120   XZ=             30.5823   YZ=              8.0112
 Octapole moment (field-independent basis, Debye-Ang**2):
  XXX=             -1.3584  YYY=             48.9245  ZZZ=             96.6908  XYY=            -46.5733
  XXY=            -62.2257  XXZ=             87.5101  XZZ=            -58.2929  YZZ=            -25.0936
  YYZ=            103.6949  XYZ=              3.4318
 Hexadecapole moment (field-independent basis, Debye-Ang**3):
 XXXX=         -25105.9858 YYYY=         -12728.3154 ZZZZ=          -5185.6398 XXXY=           -147.8144
 XXXZ=            606.3530 YYYX=             28.7629 YYYZ=           1029.7236 ZZZX=              6.6897
 ZZZY=           -178.2090 XXYY=          -6160.6909 XXZZ=          -5521.1205 YYZZ=          -2766.6237
 XXYZ=            -82.4308 YYXZ=            -56.7903 ZZXY=             61.6594
 N-N= 4.879520164879D+03 E-N=-1.428742239465D+04  KE= 1.927554564244D+03
 1\1\GINC-PEDRO-RYZENSSD\SP\RB3LYP TD-FC\SVP\C33H36N4O6\PADAWAN\08-Jul-
 2019\0\\# td=(NStates=1) B3LYP/SVP\\TD\\0,1\O,0,-5.5020855704,0.178341
 9492,-3.3364064734\O,0,2.8058274088,3.1170574291,3.4693932037\O,0,3.20
 47112089,0.9115761667,3.664248386\O,0,1.6111752534,-7.0682827327,1.736
 4540552\O,0,1.0475215016,-7.3063415382,-0.5273666679\O,0,2.1202054798,
 4.072350202,-0.0165433899\N,0,-2.3783084335,-0.886513658,0.5357701041\
 N,0,-4.570240928,0.6067349221,-1.273499282\N,0,1.8497747046,-0.7407660
 576,-0.3678782259\N,0,2.7198732577,1.8647449246,-0.4645439294\C,0,-4.9
 027425206,1.2277629557,-0.0379233358\C,0,-4.5304776532,0.3055169694,1.
 1851005708\C,0,-3.0063140876,0.0949543778,1.2527006102\C,0,-2.02990803
 51,0.7032724742,2.068727671\C,0,-0.7493288204,0.1709385354,1.720450807
 3\C,0,-0.9875131263,-0.842339343,0.7968263909\C,0,-6.4611522126,1.3414
 859045,-0.1513935532\C,0,0.432286712,0.2990378269,2.4550401728\C,0,-6.
 7157140031,0.851957501,-1.2846193196\C,0,-0.2289886409,-1.8655518563,0
 .0347506508\C,0,1.1250754187,-1.8535978724,-0.3235111443\C,0,-5.531651
 2232,0.5067403672,-2.1503744782\C,0,1.8654724171,-2.9871622922,-0.9402
 493415\C,0,-2.2837151127,1.8103427663,2.9964582858\C,0,-7.1719691891,2
 .1309386299,0.9647770916\C,0,3.1421597443,-2.4839104153,-1.3642775849\
 C,0,1.1260493775,1.6684399862,2.5437295914\C,0,3.1068472257,-0.9987893
 183,-1.0029439254\C,0,1.4037959175,-4.4249568753,-1.0121096849\C,0,-7.
 9852752484,0.8592504894,-2.1247171937\C,0,1.6643081209,-5.0609423366,0
 .4409004165\C,0,4.2080485213,-3.109602226,-2.0198839858\C,0,3.98864780
 7,0.0088125431,-1.4096411592\C,0,2.4250751229,1.7539895733,3.295959501
 1\C,0,3.8028648124,1.3598552418,-1.1231880895\C,0,-9.2418223552,0.9583
 436782,-1.5172204846\C,0,1.4298502934,-6.5450732368,0.4641972124\C,0,4
 .669110976,2.3955916142,-1.5714008666\C,0,4.1733829728,3.635567717,-1.
 2029998713\C,0,2.812910047,3.2723289343,-0.5225007971\C,0,6.0910671111
 ,2.2306849399,-2.1188734161\C,0,4.6218729807,5.0069022074,-1.345317203
 6\C,0,6.8972372751,3.1545218736,-2.5792725954\H,0,-4.5061485656,2.2651
 115561,0.1223617782\H,0,-5.2267911082,-0.4531803091,1.0880600543\H,0,-
 4.5267827975,0.8019944285,2.2493870732\H,0,-2.9950669171,-1.3499218497
 ,-0.1692193132\H,0,-3.6598816815,0.7784309193,-1.7602932266\H,0,0.2700
 535897,-0.1016501915,3.4596312953\H,0,1.2559040344,-0.2789577798,2.028
 6811885\H,0,-0.7566161541,-2.8396719305,0.1058103994\H,0,-3.3118733393
 ,2.0882354088,3.3366398316\H,0,-1.7001448739,1.5567443019,3.8805877834
 \H,0,-1.9614989492,2.8124998858,2.7514673007\H,0,-6.653229218,3.158234
 7756,1.1489530141\H,0,-7.4158642947,1.4858549139,1.7714895716\H,0,-8.2
 86617153,2.5028724573,0.48922792\H,0,1.3104032216,2.1807706851,1.70257
 02646\H,0,0.5729913392,2.2882269105,3.1768380383\H,0,1.6650021185,0.13
 26496552,0.0060283767\H,0,1.857343993,-4.9910546287,-1.5421522774\H,0,
 0.4541534957,-4.7185017636,-1.1872814978\H,0,-8.0370790329,0.885051139
 1,-3.1617570877\H,0,1.1418771278,-4.5911334176,1.244234111\H,0,2.73931
 49744,-4.9997964586,0.6018041188\H,0,3.9089353373,-4.1930068292,-2.104
 2994825\H,0,5.1689790194,-2.8597848593,-1.4368486064\H,0,4.4835754538,
 -2.8272447801,-3.1376040827\H,0,5.0539281999,-0.377791888,-1.762262914
 5\H,0,-9.5428038026,0.8485157488,-0.4118418704\H,0,-10.0716153266,0.93
 04474231,-2.1961493566\H,0,3.700056437,3.1460171703,4.0880769899\H,0,6
 .1846234679,1.110265233,-1.9457820814\H,0,4.8096519754,5.3062637184,-2
 .3612631813\H,0,3.7724752516,5.6889959695,-0.849558039\H,0,5.589090680
 6,4.9327497296,-0.6135831064\H,0,1.3026778063,-8.0139926418,1.72399207
 23\H,0,8.0545567375,2.9419314994,-2.8339821604\H,0,6.752966741,4.31499
 90712,-2.7139242815\\Version=ES64L-G09RevD.01\State=1-A\HF=-1947.80240
 38\RMSD=3.425e-09\PG=C01 [X(C33H36N4O6)]\\@


 EVANS BOLDLY PUT 50 ATM. OF ETHYLENE IN A CELL WITH 25 ATM. OF OXYGEN.
 THE APPARATUS SUBSEQUENTLY BLEW UP, BUT LUCKILY NOT BEFORE HE
 OBTAINED THE SPECTRA SHOWN IN FIGURE 8.
 A.J.MERER AND R.S.MULLIKEN, CHEM.REV. 69, 645 (1969)
 Job cpu time:       0 days  5 hours  0 minutes 47.0 seconds.
 File lengths (MBytes):  RWF=    769 Int=      0 D2E=      0 Chk=     58 Scr=      1
 Normal termination of Gaussian 09 at Mon Jul  8 01:24:50 2019.
