 Entering Gaussian System, Link 0=g16
 Input=Geometria-314-.com
 Output=Geometria-314-.log
 Initial command:
 /usr/local/g09/l1.exe "/home/padawan/israel-mol/dihydrobiliverdin/spectra/abs/Gau-63894.inp" -scrdir="/home/padawan/israel-mol/dihydrobiliverdin/spectra/abs/"
 Entering Link 1 = /usr/local/g09/l1.exe PID=     63896.
  
 Copyright (c) 1988,1990,1992,1993,1995,1998,2003,2009,2013,
            Gaussian, Inc.  All Rights Reserved.
  
 This is part of the Gaussian(R) 09 program.  It is based on
 the Gaussian(R) 03 system (copyright 2003, Gaussian, Inc.),
 the Gaussian(R) 98 system (copyright 1998, Gaussian, Inc.),
 the Gaussian(R) 94 system (copyright 1995, Gaussian, Inc.),
 the Gaussian 92(TM) system (copyright 1992, Gaussian, Inc.),
 the Gaussian 90(TM) system (copyright 1990, Gaussian, Inc.),
 the Gaussian 88(TM) system (copyright 1988, Gaussian, Inc.),
 the Gaussian 86(TM) system (copyright 1986, Carnegie Mellon
 University), and the Gaussian 82(TM) system (copyright 1983,
 Carnegie Mellon University). Gaussian is a federally registered
 trademark of Gaussian, Inc.
  
 This software contains proprietary and confidential information,
 including trade secrets, belonging to Gaussian, Inc.
  
 This software is provided under written license and may be
 used, copied, transmitted, or stored only in accord with that
 written license.
  
 The following legend is applicable only to US Government
 contracts under FAR:
  
                    RESTRICTED RIGHTS LEGEND
  
 Use, reproduction and disclosure by the US Government is
 subject to restrictions as set forth in subparagraphs (a)
 and (c) of the Commercial Computer Software - Restricted
 Rights clause in FAR 52.227-19.
  
 Gaussian, Inc.
 340 Quinnipiac St., Bldg. 40, Wallingford CT 06492
  
  
 ---------------------------------------------------------------
 Warning -- This program may not be used in any manner that
 competes with the business of Gaussian, Inc. or will provide
 assistance to any competitor of Gaussian, Inc.  The licensee
 of this program is prohibited from giving any competitor of
 Gaussian, Inc. access to this program.  By using this program,
 the user acknowledges that Gaussian, Inc. is engaged in the
 business of creating and licensing software in the field of
 computational chemistry and represents and warrants to the
 licensee that it is not a competitor of Gaussian, Inc. and that
 it will not use this program in any manner prohibited above.
 ---------------------------------------------------------------
  

 Cite this work as:
 Gaussian 09, Revision D.01,
 M. J. Frisch, G. W. Trucks, H. B. Schlegel, G. E. Scuseria, 
 M. A. Robb, J. R. Cheeseman, G. Scalmani, V. Barone, B. Mennucci, 
 G. A. Petersson, H. Nakatsuji, M. Caricato, X. Li, H. P. Hratchian, 
 A. F. Izmaylov, J. Bloino, G. Zheng, J. L. Sonnenberg, M. Hada, 
 M. Ehara, K. Toyota, R. Fukuda, J. Hasegawa, M. Ishida, T. Nakajima, 
 Y. Honda, O. Kitao, H. Nakai, T. Vreven, J. A. Montgomery, Jr., 
 J. E. Peralta, F. Ogliaro, M. Bearpark, J. J. Heyd, E. Brothers, 
 K. N. Kudin, V. N. Staroverov, T. Keith, R. Kobayashi, J. Normand, 
 K. Raghavachari, A. Rendell, J. C. Burant, S. S. Iyengar, J. Tomasi, 
 M. Cossi, N. Rega, J. M. Millam, M. Klene, J. E. Knox, J. B. Cross, 
 V. Bakken, C. Adamo, J. Jaramillo, R. Gomperts, R. E. Stratmann, 
 O. Yazyev, A. J. Austin, R. Cammi, C. Pomelli, J. W. Ochterski, 
 R. L. Martin, K. Morokuma, V. G. Zakrzewski, G. A. Voth, 
 P. Salvador, J. J. Dannenberg, S. Dapprich, A. D. Daniels, 
 O. Farkas, J. B. Foresman, J. V. Ortiz, J. Cioslowski, 
 and D. J. Fox, Gaussian, Inc., Wallingford CT, 2013.
 
 ******************************************
 Gaussian 09:  ES64L-G09RevD.01 24-Apr-2013
                 9-Jul-2019 
 ******************************************
 %nproc=4
 Will use up to    4 processors via shared memory.
 %Mem=2GB
 --------------------------
 # td=(NStates=1) B3LYP/SVP
 --------------------------
 1/38=1/1;
 2/12=2,17=6,18=5,40=1/2;
 3/5=18,7=101,11=9,16=1,25=1,30=1,74=-5/1,2,8,3;
 4//1;
 5/5=2,38=5/2;
 8/6=1,10=1,108=1/1;
 9/41=1,42=1,70=2/14;
 6/7=2,8=2,9=2,10=2/1;
 99/5=1,9=1/99;
 --
 TD
 --
 Symbolic Z-matrix:
 Charge =  0 Multiplicity = 1
 8                    -5.4656    0.18111  -3.36421 
 8                     2.96058   3.04568   3.17733 
 8                     3.13396   0.74371   3.39134 
 8                     1.61117  -7.05481   1.64739 
 8                     0.75996  -7.06278  -0.44711 
 8                     1.92598   3.89771  -0.1557 
 7                    -2.32012  -0.82628   0.55881 
 7                    -4.4811    0.61836  -1.26008 
 7                     1.92333  -0.75308  -0.31271 
 7                     2.73677   1.77335  -0.55551 
 6                    -4.82281   1.20508  -0.0014 
 6                    -4.44817   0.27199   1.18675 
 6                    -2.92447   0.07706   1.31822 
 6                    -2.0033    0.62363   2.20158 
 6                    -0.75556   0.05503   1.78212 
 6                    -1.01178  -0.85528   0.83404 
 6                    -6.30142   1.40858  -0.20221 
 6                     0.53739   0.35846   2.47432 
 6                    -6.7046    1.00793  -1.41619 
 6                    -0.25817  -1.88579   0.11331 
 6                     1.05119  -1.83017  -0.27846 
 6                    -5.52919   0.53178  -2.18626 
 6                     1.83436  -2.99313  -0.91557 
 6                    -2.30091   1.80147   3.13028 
 6                    -7.15599   1.96469   0.94028 
 6                     3.03585  -2.44641  -1.23653 
 6                     1.09319   1.76558   2.50193 
 6                     3.07002  -1.00534  -0.9149 
 6                     1.44368  -4.33089  -0.92413 
 6                    -7.99263   0.92516  -2.15683 
 6                     1.73751  -5.02303   0.41626 
 6                     4.21566  -3.19815  -1.85425 
 6                     3.95505  -0.01231  -1.36492 
 6                     2.50131   1.79362   3.05845 
 6                     3.85201   1.39335  -1.17802 
 6                    -9.22636   0.77977  -1.53446 
 6                     1.26858  -6.54121   0.48552 
 6                     4.76528   2.48041  -1.42758 
 6                     4.17822   3.62844  -1.05123 
 6                     2.72397   3.18339  -0.54376 
 6                     6.04789   2.30869  -2.09129 
 6                     4.51832   5.07229  -1.22243 
 6                     6.93      3.35447  -2.51613 
 1                    -4.68431   2.26488   0.00369 
 1                    -5.03238  -0.63287   0.95168 
 1                    -4.93417   0.91601   2.0278 
 1                    -2.80754  -1.63758   0.06457 
 1                    -3.63023   0.79993  -1.65737 
 1                     0.31382  -0.17951   3.42374 
 1                     1.34763  -0.30754   2.00763 
 1                    -0.75025  -2.77685  -0.26234 
 1                    -3.34188   1.95119   3.29217 
 1                    -1.678     1.64717   4.0969 
 1                    -1.73458   2.75773   2.81242 
 1                    -6.54437   2.8532    1.41259 
 1                    -7.47825   1.30311   1.90655 
 1                    -8.02964   2.67935   0.59378 
 1                     1.1753    2.25804   1.47655 
 1                     0.37092   2.29617   3.1124 
 1                     1.50807   0.14973  -0.30267 
 1                     1.86317  -4.88643  -1.60892 
 1                     0.4896   -4.61961  -1.20367 
 1                    -7.98755   0.72626  -3.251 
 1                     1.0439   -4.79101   1.26711 
 1                     2.88486  -4.67144   0.8135 
 1                     4.07899  -4.19743  -1.93535 
 1                     5.21156  -2.93261  -1.33633 
 1                     4.59137  -2.63063  -2.68844 
 1                     4.87009  -0.37492  -1.93569 
 1                    -9.38977   1.00775  -0.44546 
 1                    -10.06111   0.83017  -2.20233 
 1                     3.78863   2.91829   3.80279 
 1                     6.29992   1.16632  -2.3461 
 1                     4.86883   5.27458  -2.29938 
 1                     3.5823    5.71611  -0.76685 
 1                     5.52637   5.28537  -0.40897 
 1                     1.35541  -7.95531   1.53759 
 1                     7.86429   3.09309  -3.0251 
 1                     6.55408   4.41371  -2.33126 
 
 Stoichiometry    C33H36N4O6
 Framework group  C1[X(C33H36N4O6)]
 Deg. of freedom   231
 Full point group                 C1      NOp   1
 Largest Abelian subgroup         C1      NOp   1
 Largest concise Abelian subgroup C1      NOp   1
                         Standard orientation:                         
 ---------------------------------------------------------------------
 Center     Atomic      Atomic             Coordinates (Angstroms)
 Number     Number       Type             X           Y           Z
 ---------------------------------------------------------------------
      1          8           0        5.481433   -0.114019   -3.341050
      2          8           0       -2.928085   -3.071459    3.180582
      3          8           0       -3.137119   -0.771286    3.381679
      4          8           0       -1.724930    7.040148    1.602788
      5          8           0       -0.865104    7.050032   -0.488172
      6          8           0       -1.866655   -3.925167   -0.143575
      7          7           0        2.304550    0.866184    0.563511
      8          7           0        4.494769   -0.555092   -1.238733
      9          7           0       -1.933595    0.724246   -0.325197
     10          7           0       -2.707752   -1.815428   -0.557989
     11          6           0        4.839983   -1.129988    0.024440
     12          6           0        4.446271   -0.196473    1.206070
     13          6           0        2.919255   -0.023927    1.330186
     14          6           0        2.002722   -0.579742    2.212605
     15          6           0        0.748323   -0.032275    1.784968
     16          6           0        0.994763    0.876832    0.833155
     17          6           0        6.322325   -1.312149   -0.169158
     18          6           0       -0.542806   -0.351610    2.473404
     19          6           0        6.724540   -0.911802   -1.383564
     20          6           0        0.228732    1.892044    0.103860
     21          6           0       -1.077971    1.814568   -0.293029
     22          6           0        5.545334   -0.457521   -2.161006
     23          6           0       -1.875920    2.962207   -0.939528
     24          6           0        2.314163   -1.748069    3.148754
     25          6           0        7.180365   -1.849284    0.979796
     26          6           0       -3.067649    2.395698   -1.262575
     27          6           0       -1.077400   -1.766808    2.506152
     28          6           0       -3.081411    0.955981   -0.933455
     29          6           0       -1.505459    4.305655   -0.953555
     30          6           0        8.014283   -0.813428   -2.119285
     31          6           0       -1.815365    5.000274    0.381921
     32          6           0       -4.256058    3.126268   -1.889144
     33          6           0       -3.949433   -0.052663   -1.381878
     34          6           0       -2.487281   -1.813237    3.056972
     35          6           0       -3.825959   -1.455605   -1.187120
     36          6           0        9.243041   -0.646138   -1.492586
     37          6           0       -1.369725    6.525719    0.445088
     38          6           0       -4.721644   -2.557647   -1.434698
     39          6           0       -4.118909   -3.694678   -1.049853
     40          6           0       -2.673702   -3.225037   -0.538721
     41          6           0       -6.003888   -2.408825   -2.104623
     42          6           0       -4.436435   -5.144385   -1.214816
     43          6           0       -6.868297   -3.470035   -2.527569
     44          1           0        4.717478   -2.191722    0.034566
     45          1           0        5.017737    0.715880    0.968633
     46          1           0        4.938390   -0.828652    2.052530
     47          1           0        2.781740    1.682170    0.067009
     48          1           0        3.648421   -0.751594   -1.638585
     49          1           0       -0.331401    0.194641    3.420877
     50          1           0       -1.361040    0.299612    1.999837
     51          1           0        0.708874    2.788460   -0.274454
     52          1           0        3.356582   -1.881177    3.315741
     53          1           0        1.684922   -1.598156    4.111951
     54          1           0        1.763689   -2.714438    2.833618
     55          1           0        6.580245   -2.744464    1.454258
     56          1           0        7.488513   -1.177855    1.943876
     57          1           0        8.066169   -2.552448    0.640702
     58          1           0       -1.147733   -2.265810    1.483065
     59          1           0       -0.349788   -2.283210    3.122418
     60          1           0       -1.504786   -0.172113   -0.308656
     61          1           0       -1.930400    4.851203   -1.643007
     62          1           0       -0.554673    4.607312   -1.230664
     63          1           0        8.010830   -0.620352   -3.214500
     64          1           0       -1.121933    4.783231    1.236854
     65          1           0       -2.958946    4.633457    0.776255
     66          1           0       -4.134159    4.127060   -1.974971
     67          1           0       -5.250017    2.848408   -1.373959
     68          1           0       -4.619623    2.548769   -2.721870
     69          1           0       -4.867421    0.293075   -1.958351
     70          1           0        9.405271   -0.865926   -0.401719
     71          1           0       10.081275   -0.687400   -2.156712
     72          1           0       -3.760592   -2.953343    3.801915
     73          1           0       -6.272068   -1.271744   -2.366521
     74          1           0       -4.779292   -5.357586   -2.292115
     75          1           0       -3.492724   -5.771581   -0.751952
     76          1           0       -5.444581   -5.368437   -0.404422
     77          1           0       -1.482347    7.943822    1.489292
     78          1           0       -7.804267   -3.225478   -3.041789
     79          1           0       -6.477201   -4.522483   -2.335537
 ---------------------------------------------------------------------
 Rotational constants (GHZ):      0.0743532      0.0441393      0.0344251
 Standard basis: SVP (5D, 7F)
 There are   825 symmetry adapted cartesian basis functions of A   symmetry.
 There are   782 symmetry adapted basis functions of A   symmetry.
   782 basis functions,  1327 primitive gaussians,   825 cartesian basis functions
   155 alpha electrons      155 beta electrons
       nuclear repulsion energy      4918.2090014498 Hartrees.
 NAtoms=   79 NActive=   79 NUniq=   79 SFac= 1.00D+00 NAtFMM=   60 NAOKFM=T Big=T
 Integral buffers will be    131072 words long.
 Regular integral format.
 Two-electron integral symmetry is turned on.
 One-electron integrals computed using PRISM.
 NBasis=   782 RedAO= T EigKep=  3.06D-04  NBF=   782
 NBsUse=   782 1.00D-06 EigRej= -1.00D+00 NBFU=   782
 ExpMin= 1.22D-01 ExpMax= 2.27D+03 ExpMxC= 3.41D+02 IAcc=1 IRadAn=         1 AccDes= 0.00D+00
 Harris functional with IExCor=  402 and IRadAn=       1 diagonalized for initial guess.
 HarFok:  IExCor=  402 AccDes= 0.00D+00 IRadAn=         1 IDoV= 1 UseB2=F ITyADJ=14
 ICtDFT=  3500011 ScaDFX=  1.000000  1.000000  1.000000  1.000000
 FoFCou: FMM=F IPFlag=           0 FMFlag=      100000 FMFlg1=        2001
         NFxFlg=           0 DoJE=T BraDBF=F KetDBF=T FulRan=T
         wScrn=  0.000000 ICntrl=     500 IOpCl=  0 I1Cent=   200000004 NGrid=           0
         NMat0=    1 NMatS0=      1 NMatT0=    0 NMatD0=    1 NMtDS0=    0 NMtDT0=    0
 Petite list used in FoFCou.
 Requested convergence on RMS density matrix=1.00D-08 within 128 cycles.
 Requested convergence on MAX density matrix=1.00D-06.
 Requested convergence on             energy=1.00D-06.
 No special actions if energy rises.
 Integral accuracy reduced to 1.0D-05 until final iterations.
 Initial convergence to 1.0D-05 achieved.  Increase integral accuracy.
 SCF Done:  E(RB3LYP) =  -1947.85624053     A.U. after   16 cycles
            NFock= 16  Conv=0.41D-08     -V/T= 2.0105
 DoSCS=F DFT=T ScalE2(SS,OS)=  1.000000  1.000000
 ExpMin= 1.22D-01 ExpMax= 2.27D+03 ExpMxC= 3.41D+02 IAcc=3 IRadAn=         5 AccDes= 0.00D+00
 HarFok:  IExCor=  205 AccDes= 0.00D+00 IRadAn=         5 IDoV=-2 UseB2=F ITyADJ=14
 ICtDFT= 12500011 ScaDFX=  1.000000  1.000000  1.000000  1.000000
 Range of M.O.s used for correlation:    44   782
 NBasis=   782 NAE=   155 NBE=   155 NFC=    43 NFV=     0
 NROrb=    739 NOA=   112 NOB=   112 NVA=   627 NVB=   627

 **** Warning!!: The smallest alpha delta epsilon is  0.89871471D-01

 Would need an additional        140608300000 words for in-memory AO integral storage.
 Orbital symmetries:
       Occupied  (A) (A) (A) (A) (A) (A) (A) (A) (A) (A) (A) (A)
                 (A) (A) (A) (A) (A) (A) (A) (A) (A) (A) (A) (A)
                 (A) (A) (A) (A) (A) (A) (A) (A) (A) (A) (A) (A)
                 (A) (A) (A) (A) (A) (A) (A) (A) (A) (A) (A) (A)
                 (A) (A) (A) (A) (A) (A) (A) (A) (A) (A) (A) (A)
                 (A) (A) (A) (A) (A) (A) (A) (A) (A) (A) (A) (A)
                 (A) (A) (A) (A) (A) (A) (A) (A) (A) (A) (A) (A)
                 (A) (A) (A) (A) (A) (A) (A) (A) (A) (A) (A) (A)
                 (A) (A) (A) (A) (A) (A) (A) (A) (A) (A) (A) (A)
                 (A) (A) (A) (A) (A) (A) (A) (A) (A) (A) (A) (A)
                 (A) (A) (A) (A) (A) (A) (A) (A) (A) (A) (A) (A)
                 (A) (A) (A) (A) (A) (A) (A) (A) (A) (A) (A) (A)
                 (A) (A) (A) (A) (A) (A) (A) (A) (A) (A) (A)
       Virtual   (A) (A) (A) (A) (A) (A) (A) (A) (A) (A) (A) (A)
                 (A) (A) (A) (A) (A) (A) (A) (A) (A) (A) (A) (A)
                 (A) (A) (A) (A) (A) (A) (A) (A) (A) (A) (A) (A)
                 (A) (A) (A) (A) (A) (A) (A) (A) (A) (A) (A) (A)
                 (A) (A) (A) (A) (A) (A) (A) (A) (A) (A) (A) (A)
                 (A) (A) (A) (A) (A) (A) (A) (A) (A) (A) (A) (A)
                 (A) (A) (A) (A) (A) (A) (A) (A) (A) (A) (A) (A)
                 (A) (A) (A) (A) (A) (A) (A) (A) (A) (A) (A) (A)
                 (A) (A) (A) (A) (A) (A) (A) (A) (A) (A) (A) (A)
                 (A) (A) (A) (A) (A) (A) (A) (A) (A) (A) (A) (A)
                 (A) (A) (A) (A) (A) (A) (A) (A) (A) (A) (A) (A)
                 (A) (A) (A) (A) (A) (A) (A) (A) (A) (A) (A) (A)
                 (A) (A) (A) (A) (A) (A) (A) (A) (A) (A) (A) (A)
                 (A) (A) (A) (A) (A) (A) (A) (A) (A) (A) (A) (A)
                 (A) (A) (A) (A) (A) (A) (A) (A) (A) (A) (A) (A)
                 (A) (A) (A) (A) (A) (A) (A) (A) (A) (A) (A) (A)
                 (A) (A) (A) (A) (A) (A) (A) (A) (A) (A) (A) (A)
                 (A) (A) (A) (A) (A) (A) (A) (A) (A) (A) (A) (A)
                 (A) (A) (A) (A) (A) (A) (A) (A) (A) (A) (A) (A)
                 (A) (A) (A) (A) (A) (A) (A) (A) (A) (A) (A) (A)
                 (A) (A) (A) (A) (A) (A) (A) (A) (A) (A) (A) (A)
                 (A) (A) (A) (A) (A) (A) (A) (A) (A) (A) (A) (A)
                 (A) (A) (A) (A) (A) (A) (A) (A) (A) (A) (A) (A)
                 (A) (A) (A) (A) (A) (A) (A) (A) (A) (A) (A) (A)
                 (A) (A) (A) (A) (A) (A) (A) (A) (A) (A) (A) (A)
                 (A) (A) (A) (A) (A) (A) (A) (A) (A) (A) (A) (A)
                 (A) (A) (A) (A) (A) (A) (A) (A) (A) (A) (A) (A)
                 (A) (A) (A) (A) (A) (A) (A) (A) (A) (A) (A) (A)
                 (A) (A) (A) (A) (A) (A) (A) (A) (A) (A) (A) (A)
                 (A) (A) (A) (A) (A) (A) (A) (A) (A) (A) (A) (A)
                 (A) (A) (A) (A) (A) (A) (A) (A) (A) (A) (A) (A)
                 (A) (A) (A) (A) (A) (A) (A) (A) (A) (A) (A) (A)
                 (A) (A) (A) (A) (A) (A) (A) (A) (A) (A) (A) (A)
                 (A) (A) (A) (A) (A) (A) (A) (A) (A) (A) (A) (A)
                 (A) (A) (A) (A) (A) (A) (A) (A) (A) (A) (A) (A)
                 (A) (A) (A) (A) (A) (A) (A) (A) (A) (A) (A) (A)
                 (A) (A) (A) (A) (A) (A) (A) (A) (A) (A) (A) (A)
                 (A) (A) (A) (A) (A) (A) (A) (A) (A) (A) (A) (A)
                 (A) (A) (A) (A) (A) (A) (A) (A) (A) (A) (A) (A)
                 (A) (A) (A) (A) (A) (A) (A) (A) (A) (A) (A) (A)
                 (A) (A) (A) (A) (A) (A) (A) (A) (A) (A) (A) (A)
                 (A) (A) (A) (A) (A) (A) (A) (A) (A) (A) (A) (A)
                 (A) (A) (A) (A) (A) (A) (A) (A) (A) (A) (A) (A)
                 (A) (A) (A) (A) (A) (A) (A) (A) (A) (A) (A) (A)
                 (A) (A) (A) (A) (A) (A) (A) (A) (A) (A) (A) (A)
                 (A) (A) (A) (A) (A) (A) (A) (A) (A) (A) (A) (A)
                 (A) (A) (A) (A) (A) (A) (A) (A) (A) (A) (A) (A)
                 (A) (A) (A) (A) (A) (A) (A) (A) (A) (A) (A) (A)
                 (A) (A) (A) (A) (A) (A) (A) (A) (A) (A) (A) (A)
                 (A) (A) (A) (A) (A) (A) (A) (A) (A) (A) (A) (A)
                 (A) (A) (A) (A) (A) (A) (A) (A) (A) (A) (A) (A)
                 (A) (A) (A) (A) (A) (A) (A) (A) (A) (A) (A) (A)
                 (A) (A) (A)
     8 initial guesses have been made.
 Convergence on wavefunction:    0.001000000000000
 Iteration     1 Dimension     8 NMult     0 NNew      8
 CISAX will form     8 AO SS matrices at one time.
 Iteration     2 Dimension    12 NMult     8 NNew      4
 Iteration     3 Dimension    16 NMult    12 NNew      4
 Iteration     4 Dimension    20 NMult    16 NNew      4
 Iteration     5 Dimension    24 NMult    20 NNew      4
 Iteration     6 Dimension    28 NMult    24 NNew      4
 ***********************************************************************
 Excited states from <AA,BB:AA,BB> singles matrix:
 ***********************************************************************
 
 Ground to excited state transition densities written to RWF  633
 Ground to excited state transition electric dipole moments (Au):
       state          X           Y           Z        Dip. S.      Osc.
         1        -2.2951     -1.2665     -0.8365      7.5714      0.4145
 Ground to excited state transition velocity dipole moments (Au):
       state          X           Y           Z        Dip. S.      Osc.
         1         0.1814      0.0956      0.0688      0.0468      0.3796
 Ground to excited state transition magnetic dipole moments (Au):
       state          X           Y           Z
         1         0.7271     -0.0309     -1.5276
 Ground to excited state transition velocity quadrupole moments (Au):
       state          XX          YY          ZZ          XY          XZ          YZ
         1        -0.5246     -0.3966      0.0630     -0.7875     -0.3906     -0.2808
 <0|del|b> * <b|rxdel|0> + <0|del|b> * <b|delr+rdel|0>
 Rotatory Strengths (R) in cgs (10**-40 erg-esu-cm/Gauss)
       state          XX          YY          ZZ    R(velocity)    E-M Angle
         1      -537.1986    129.4510    613.5208     68.5911       86.26
 1/2[<0|r|b>*<b|rxdel|0> + (<0|rxdel|b>*<b|r|0>)*]
 Rotatory Strengths (R) in cgs (10**-40 erg-esu-cm/Gauss)
       state          XX          YY          ZZ     R(length)
         1      1180.0890    -27.6787   -903.6651     82.9151
  1/2[<0|del|b>*<b|r|0> + (<0|r|b>*<b|del|0>)*] (Au)
       state          X           Y           Z        Dip. S.   Osc.(frdel)
         1        -0.4163     -0.1211     -0.0575      0.5949      0.3966

 Excitation energies and oscillator strengths:
 
 Excited State   1:      Singlet-A      2.2348 eV  554.79 nm  f=0.4145  <S**2>=0.000
     154 ->156         0.11403
     155 ->156         0.69208
 This state for optimization and/or second-order correction.
 Total Energy, E(TD-HF/TD-KS) =  -1947.77411354    
 Copying the excited state density for this state as the 1-particle RhoCI density.
 SavETr:  write IOETrn=   770 NScale= 10 NData=  16 NLR=1 NState=    1 LETran=      28.

 **********************************************************************

            Population analysis using the SCF density.

 **********************************************************************

 Orbital symmetries:
       Occupied  (A) (A) (A) (A) (A) (A) (A) (A) (A) (A) (A) (A)
                 (A) (A) (A) (A) (A) (A) (A) (A) (A) (A) (A) (A)
                 (A) (A) (A) (A) (A) (A) (A) (A) (A) (A) (A) (A)
                 (A) (A) (A) (A) (A) (A) (A) (A) (A) (A) (A) (A)
                 (A) (A) (A) (A) (A) (A) (A) (A) (A) (A) (A) (A)
                 (A) (A) (A) (A) (A) (A) (A) (A) (A) (A) (A) (A)
                 (A) (A) (A) (A) (A) (A) (A) (A) (A) (A) (A) (A)
                 (A) (A) (A) (A) (A) (A) (A) (A) (A) (A) (A) (A)
                 (A) (A) (A) (A) (A) (A) (A) (A) (A) (A) (A) (A)
                 (A) (A) (A) (A) (A) (A) (A) (A) (A) (A) (A) (A)
                 (A) (A) (A) (A) (A) (A) (A) (A) (A) (A) (A) (A)
                 (A) (A) (A) (A) (A) (A) (A) (A) (A) (A) (A) (A)
                 (A) (A) (A) (A) (A) (A) (A) (A) (A) (A) (A)
       Virtual   (A) (A) (A) (A) (A) (A) (A) (A) (A) (A) (A) (A)
                 (A) (A) (A) (A) (A) (A) (A) (A) (A) (A) (A) (A)
                 (A) (A) (A) (A) (A) (A) (A) (A) (A) (A) (A) (A)
                 (A) (A) (A) (A) (A) (A) (A) (A) (A) (A) (A) (A)
                 (A) (A) (A) (A) (A) (A) (A) (A) (A) (A) (A) (A)
                 (A) (A) (A) (A) (A) (A) (A) (A) (A) (A) (A) (A)
                 (A) (A) (A) (A) (A) (A) (A) (A) (A) (A) (A) (A)
                 (A) (A) (A) (A) (A) (A) (A) (A) (A) (A) (A) (A)
                 (A) (A) (A) (A) (A) (A) (A) (A) (A) (A) (A) (A)
                 (A) (A) (A) (A) (A) (A) (A) (A) (A) (A) (A) (A)
                 (A) (A) (A) (A) (A) (A) (A) (A) (A) (A) (A) (A)
                 (A) (A) (A) (A) (A) (A) (A) (A) (A) (A) (A) (A)
                 (A) (A) (A) (A) (A) (A) (A) (A) (A) (A) (A) (A)
                 (A) (A) (A) (A) (A) (A) (A) (A) (A) (A) (A) (A)
                 (A) (A) (A) (A) (A) (A) (A) (A) (A) (A) (A) (A)
                 (A) (A) (A) (A) (A) (A) (A) (A) (A) (A) (A) (A)
                 (A) (A) (A) (A) (A) (A) (A) (A) (A) (A) (A) (A)
                 (A) (A) (A) (A) (A) (A) (A) (A) (A) (A) (A) (A)
                 (A) (A) (A) (A) (A) (A) (A) (A) (A) (A) (A) (A)
                 (A) (A) (A) (A) (A) (A) (A) (A) (A) (A) (A) (A)
                 (A) (A) (A) (A) (A) (A) (A) (A) (A) (A) (A) (A)
                 (A) (A) (A) (A) (A) (A) (A) (A) (A) (A) (A) (A)
                 (A) (A) (A) (A) (A) (A) (A) (A) (A) (A) (A) (A)
                 (A) (A) (A) (A) (A) (A) (A) (A) (A) (A) (A) (A)
                 (A) (A) (A) (A) (A) (A) (A) (A) (A) (A) (A) (A)
                 (A) (A) (A) (A) (A) (A) (A) (A) (A) (A) (A) (A)
                 (A) (A) (A) (A) (A) (A) (A) (A) (A) (A) (A) (A)
                 (A) (A) (A) (A) (A) (A) (A) (A) (A) (A) (A) (A)
                 (A) (A) (A) (A) (A) (A) (A) (A) (A) (A) (A) (A)
                 (A) (A) (A) (A) (A) (A) (A) (A) (A) (A) (A) (A)
                 (A) (A) (A) (A) (A) (A) (A) (A) (A) (A) (A) (A)
                 (A) (A) (A) (A) (A) (A) (A) (A) (A) (A) (A) (A)
                 (A) (A) (A) (A) (A) (A) (A) (A) (A) (A) (A) (A)
                 (A) (A) (A) (A) (A) (A) (A) (A) (A) (A) (A) (A)
                 (A) (A) (A) (A) (A) (A) (A) (A) (A) (A) (A) (A)
                 (A) (A) (A) (A) (A) (A) (A) (A) (A) (A) (A) (A)
                 (A) (A) (A) (A) (A) (A) (A) (A) (A) (A) (A) (A)
                 (A) (A) (A) (A) (A) (A) (A) (A) (A) (A) (A) (A)
                 (A) (A) (A) (A) (A) (A) (A) (A) (A) (A) (A) (A)
                 (A) (A) (A) (A) (A) (A) (A) (A) (A) (A) (A) (A)
                 (A) (A) (A) (A) (A) (A) (A) (A) (A) (A) (A) (A)
                 (A) (A) (A) (A) (A) (A) (A) (A) (A) (A) (A) (A)
                 (A) (A) (A) (A) (A) (A) (A) (A) (A) (A) (A) (A)
                 (A) (A) (A) (A) (A) (A) (A) (A) (A) (A) (A) (A)
                 (A) (A) (A) (A) (A) (A) (A) (A) (A) (A) (A) (A)
                 (A) (A) (A) (A) (A) (A) (A) (A) (A) (A) (A) (A)
                 (A) (A) (A) (A) (A) (A) (A) (A) (A) (A) (A) (A)
                 (A) (A) (A) (A) (A) (A) (A) (A) (A) (A) (A) (A)
                 (A) (A) (A) (A) (A) (A) (A) (A) (A) (A) (A) (A)
                 (A) (A) (A) (A) (A) (A) (A) (A) (A) (A) (A) (A)
                 (A) (A) (A) (A) (A) (A) (A) (A) (A) (A) (A) (A)
                 (A) (A) (A) (A) (A) (A) (A) (A) (A) (A) (A) (A)
                 (A) (A) (A)
 The electronic state is 1-A.
 Alpha  occ. eigenvalues --  -19.20531 -19.18695 -19.14361 -19.11546 -19.11248
 Alpha  occ. eigenvalues --  -19.10410 -14.37882 -14.36533 -14.34369 -14.28209
 Alpha  occ. eigenvalues --  -10.33408 -10.31223 -10.28319 -10.26431 -10.24931
 Alpha  occ. eigenvalues --  -10.24253 -10.23954 -10.23446 -10.23055 -10.22912
 Alpha  occ. eigenvalues --  -10.22483 -10.22393 -10.22273 -10.22257 -10.21540
 Alpha  occ. eigenvalues --  -10.21509 -10.21477 -10.21025 -10.20783 -10.20706
 Alpha  occ. eigenvalues --  -10.20423 -10.20384 -10.20160 -10.19721 -10.19702
 Alpha  occ. eigenvalues --  -10.19415 -10.19316 -10.19281 -10.19042 -10.18670
 Alpha  occ. eigenvalues --  -10.18476 -10.18271 -10.18042  -1.13555  -1.07811
 Alpha  occ. eigenvalues --   -1.06365  -1.04369  -1.02018  -1.00537  -0.99398
 Alpha  occ. eigenvalues --   -0.97033  -0.94980  -0.92282  -0.84213  -0.81926
 Alpha  occ. eigenvalues --   -0.81460  -0.80832  -0.79833  -0.79166  -0.77634
 Alpha  occ. eigenvalues --   -0.76591  -0.75825  -0.74678  -0.73151  -0.72153
 Alpha  occ. eigenvalues --   -0.71666  -0.70701  -0.69869  -0.69571  -0.68765
 Alpha  occ. eigenvalues --   -0.66772  -0.66103  -0.64037  -0.61189  -0.60402
 Alpha  occ. eigenvalues --   -0.59596  -0.58532  -0.58305  -0.58026  -0.57887
 Alpha  occ. eigenvalues --   -0.56871  -0.56432  -0.54723  -0.53984  -0.52920
 Alpha  occ. eigenvalues --   -0.52479  -0.51738  -0.51215  -0.50976  -0.50406
 Alpha  occ. eigenvalues --   -0.50021  -0.49009  -0.48387  -0.47720  -0.47618
 Alpha  occ. eigenvalues --   -0.47252  -0.46834  -0.46606  -0.46149  -0.45831
 Alpha  occ. eigenvalues --   -0.45594  -0.44873  -0.44293  -0.44123  -0.43747
 Alpha  occ. eigenvalues --   -0.43397  -0.43058  -0.42970  -0.42602  -0.42282
 Alpha  occ. eigenvalues --   -0.41929  -0.41733  -0.41508  -0.41320  -0.40494
 Alpha  occ. eigenvalues --   -0.40410  -0.40236  -0.40033  -0.39645  -0.39607
 Alpha  occ. eigenvalues --   -0.39154  -0.39055  -0.38662  -0.38505  -0.38229
 Alpha  occ. eigenvalues --   -0.38093  -0.37915  -0.37782  -0.37674  -0.37022
 Alpha  occ. eigenvalues --   -0.36874  -0.36784  -0.35801  -0.34998  -0.34579
 Alpha  occ. eigenvalues --   -0.34328  -0.34038  -0.33407  -0.31563  -0.31043
 Alpha  occ. eigenvalues --   -0.30674  -0.30510  -0.29190  -0.28590  -0.28035
 Alpha  occ. eigenvalues --   -0.27034  -0.26467  -0.25796  -0.25544  -0.24373
 Alpha  occ. eigenvalues --   -0.24216  -0.23549  -0.23262  -0.21783  -0.18998
 Alpha virt. eigenvalues --   -0.10011  -0.05980  -0.05605  -0.00887   0.00026
 Alpha virt. eigenvalues --    0.00236   0.00419   0.01290   0.02571   0.03664
 Alpha virt. eigenvalues --    0.04054   0.04380   0.04599   0.04990   0.05383
 Alpha virt. eigenvalues --    0.05747   0.05930   0.06316   0.06869   0.07423
 Alpha virt. eigenvalues --    0.07754   0.08253   0.08569   0.08691   0.08815
 Alpha virt. eigenvalues --    0.09022   0.09382   0.10221   0.10488   0.10609
 Alpha virt. eigenvalues --    0.11036   0.11167   0.11463   0.11916   0.12029
 Alpha virt. eigenvalues --    0.12372   0.12789   0.13026   0.13595   0.14174
 Alpha virt. eigenvalues --    0.14643   0.14713   0.15416   0.15765   0.15868
 Alpha virt. eigenvalues --    0.16210   0.16633   0.17485   0.17961   0.18146
 Alpha virt. eigenvalues --    0.18278   0.18744   0.19050   0.19731   0.19922
 Alpha virt. eigenvalues --    0.20403   0.21407   0.21990   0.22489   0.22835
 Alpha virt. eigenvalues --    0.23018   0.23531   0.23911   0.24275   0.24573
 Alpha virt. eigenvalues --    0.25100   0.25560   0.25842   0.26422   0.26690
 Alpha virt. eigenvalues --    0.27163   0.27389   0.27761   0.28014   0.28452
 Alpha virt. eigenvalues --    0.29573   0.29780   0.30687   0.31098   0.31647
 Alpha virt. eigenvalues --    0.31802   0.32277   0.32649   0.33393   0.34073
 Alpha virt. eigenvalues --    0.34466   0.34718   0.35655   0.36835   0.37012
 Alpha virt. eigenvalues --    0.37642   0.37747   0.38154   0.38730   0.38757
 Alpha virt. eigenvalues --    0.39654   0.40049   0.40715   0.41019   0.41343
 Alpha virt. eigenvalues --    0.41815   0.42425   0.42662   0.42952   0.43303
 Alpha virt. eigenvalues --    0.43457   0.44487   0.45009   0.45492   0.45737
 Alpha virt. eigenvalues --    0.45903   0.46246   0.46318   0.46679   0.46759
 Alpha virt. eigenvalues --    0.47218   0.47783   0.47933   0.48158   0.48427
 Alpha virt. eigenvalues --    0.48574   0.48858   0.49705   0.49830   0.50242
 Alpha virt. eigenvalues --    0.50555   0.50887   0.51059   0.51461   0.51771
 Alpha virt. eigenvalues --    0.52137   0.52652   0.53066   0.53521   0.53927
 Alpha virt. eigenvalues --    0.54004   0.54239   0.54632   0.55014   0.55196
 Alpha virt. eigenvalues --    0.55694   0.56040   0.56554   0.56818   0.57237
 Alpha virt. eigenvalues --    0.57592   0.58253   0.58386   0.58540   0.59038
 Alpha virt. eigenvalues --    0.59118   0.59550   0.59632   0.60167   0.60518
 Alpha virt. eigenvalues --    0.60872   0.61123   0.61273   0.61896   0.62025
 Alpha virt. eigenvalues --    0.62497   0.62609   0.62909   0.63082   0.63577
 Alpha virt. eigenvalues --    0.63640   0.63925   0.64298   0.64650   0.64960
 Alpha virt. eigenvalues --    0.64981   0.65496   0.65608   0.65887   0.66181
 Alpha virt. eigenvalues --    0.66528   0.66725   0.66954   0.67106   0.67388
 Alpha virt. eigenvalues --    0.67675   0.67937   0.68076   0.68173   0.68489
 Alpha virt. eigenvalues --    0.68730   0.68990   0.69057   0.69224   0.69335
 Alpha virt. eigenvalues --    0.69899   0.70051   0.70392   0.70591   0.70776
 Alpha virt. eigenvalues --    0.71321   0.71604   0.72015   0.72267   0.72860
 Alpha virt. eigenvalues --    0.73047   0.73831   0.73942   0.74525   0.75156
 Alpha virt. eigenvalues --    0.75481   0.75596   0.75890   0.76149   0.76532
 Alpha virt. eigenvalues --    0.77183   0.77369   0.77628   0.78074   0.78733
 Alpha virt. eigenvalues --    0.79171   0.79480   0.79626   0.80114   0.80791
 Alpha virt. eigenvalues --    0.81300   0.81447   0.82308   0.82423   0.83239
 Alpha virt. eigenvalues --    0.83586   0.84417   0.84574   0.85269   0.86278
 Alpha virt. eigenvalues --    0.86939   0.87047   0.88514   0.89572   0.89877
 Alpha virt. eigenvalues --    0.91064   0.91561   0.92240   0.92891   0.93792
 Alpha virt. eigenvalues --    0.94140   0.94321   0.94789   0.94989   0.95758
 Alpha virt. eigenvalues --    0.95802   0.96608   0.96999   0.97142   0.97733
 Alpha virt. eigenvalues --    0.99042   0.99469   1.00105   1.01109   1.01418
 Alpha virt. eigenvalues --    1.02143   1.02700   1.03795   1.04786   1.05271
 Alpha virt. eigenvalues --    1.05764   1.06675   1.07488   1.08414   1.08650
 Alpha virt. eigenvalues --    1.09466   1.10284   1.10800   1.11311   1.12320
 Alpha virt. eigenvalues --    1.12842   1.13344   1.13951   1.14175   1.14671
 Alpha virt. eigenvalues --    1.14761   1.14970   1.16733   1.17058   1.17595
 Alpha virt. eigenvalues --    1.18563   1.19388   1.20071   1.20148   1.20634
 Alpha virt. eigenvalues --    1.20729   1.21934   1.22933   1.23169   1.23580
 Alpha virt. eigenvalues --    1.24502   1.25417   1.25923   1.26137   1.26394
 Alpha virt. eigenvalues --    1.26940   1.27755   1.28109   1.29239   1.29597
 Alpha virt. eigenvalues --    1.30124   1.30431   1.31504   1.32134   1.33125
 Alpha virt. eigenvalues --    1.33626   1.34991   1.35395   1.35662   1.36621
 Alpha virt. eigenvalues --    1.37303   1.37607   1.38481   1.39316   1.39466
 Alpha virt. eigenvalues --    1.40332   1.40974   1.42142   1.42981   1.43212
 Alpha virt. eigenvalues --    1.44418   1.45081   1.46170   1.46359   1.47190
 Alpha virt. eigenvalues --    1.47820   1.48023   1.48311   1.49219   1.49912
 Alpha virt. eigenvalues --    1.50694   1.51796   1.52068   1.52659   1.52907
 Alpha virt. eigenvalues --    1.53077   1.53931   1.54461   1.55189   1.56291
 Alpha virt. eigenvalues --    1.56493   1.57088   1.57568   1.58010   1.58676
 Alpha virt. eigenvalues --    1.59228   1.59735   1.59811   1.60625   1.60972
 Alpha virt. eigenvalues --    1.61448   1.61940   1.62519   1.62682   1.63125
 Alpha virt. eigenvalues --    1.63868   1.64764   1.65088   1.65599   1.66086
 Alpha virt. eigenvalues --    1.66493   1.66598   1.66935   1.67493   1.67996
 Alpha virt. eigenvalues --    1.68369   1.68909   1.69859   1.70003   1.70279
 Alpha virt. eigenvalues --    1.71237   1.72573   1.72919   1.73209   1.73849
 Alpha virt. eigenvalues --    1.74269   1.74498   1.74906   1.74983   1.75241
 Alpha virt. eigenvalues --    1.75657   1.75818   1.76235   1.76433   1.76857
 Alpha virt. eigenvalues --    1.77257   1.77686   1.78131   1.78329   1.79291
 Alpha virt. eigenvalues --    1.79304   1.79931   1.80451   1.80729   1.80977
 Alpha virt. eigenvalues --    1.81319   1.81805   1.82501   1.82644   1.83345
 Alpha virt. eigenvalues --    1.83584   1.83979   1.84372   1.84895   1.84955
 Alpha virt. eigenvalues --    1.85445   1.86014   1.86664   1.87081   1.87825
 Alpha virt. eigenvalues --    1.87896   1.88999   1.89763   1.89836   1.90427
 Alpha virt. eigenvalues --    1.90821   1.91157   1.91599   1.91939   1.92944
 Alpha virt. eigenvalues --    1.93266   1.93530   1.93889   1.94549   1.94570
 Alpha virt. eigenvalues --    1.95285   1.95412   1.95667   1.96451   1.96914
 Alpha virt. eigenvalues --    1.97417   1.97824   1.98905   1.99198   1.99744
 Alpha virt. eigenvalues --    2.00027   2.00961   2.01572   2.02063   2.02310
 Alpha virt. eigenvalues --    2.02633   2.03545   2.03609   2.04331   2.05177
 Alpha virt. eigenvalues --    2.05542   2.05847   2.06387   2.07163   2.07754
 Alpha virt. eigenvalues --    2.08240   2.08796   2.09717   2.10006   2.10544
 Alpha virt. eigenvalues --    2.10916   2.11735   2.12287   2.12680   2.13568
 Alpha virt. eigenvalues --    2.14032   2.14404   2.14838   2.15722   2.15875
 Alpha virt. eigenvalues --    2.16270   2.17697   2.17956   2.18898   2.19174
 Alpha virt. eigenvalues --    2.20288   2.20652   2.20886   2.21811   2.22320
 Alpha virt. eigenvalues --    2.22533   2.23108   2.24152   2.24768   2.25271
 Alpha virt. eigenvalues --    2.26245   2.26711   2.26936   2.28252   2.28369
 Alpha virt. eigenvalues --    2.28890   2.29359   2.29924   2.30494   2.30607
 Alpha virt. eigenvalues --    2.30919   2.31818   2.32208   2.33292   2.34447
 Alpha virt. eigenvalues --    2.35104   2.35451   2.36135   2.36454   2.37329
 Alpha virt. eigenvalues --    2.37740   2.39138   2.40019   2.40462   2.41010
 Alpha virt. eigenvalues --    2.41219   2.41517   2.41890   2.42298   2.43172
 Alpha virt. eigenvalues --    2.43638   2.45067   2.45258   2.45740   2.46286
 Alpha virt. eigenvalues --    2.47894   2.49405   2.51070   2.51414   2.52868
 Alpha virt. eigenvalues --    2.53409   2.53571   2.54476   2.55553   2.56753
 Alpha virt. eigenvalues --    2.57234   2.57740   2.58403   2.59096   2.59684
 Alpha virt. eigenvalues --    2.61052   2.62216   2.62432   2.63184   2.64497
 Alpha virt. eigenvalues --    2.65665   2.65899   2.66483   2.67198   2.67999
 Alpha virt. eigenvalues --    2.68702   2.69554   2.70523   2.70850   2.71187
 Alpha virt. eigenvalues --    2.72153   2.72824   2.72854   2.73809   2.74535
 Alpha virt. eigenvalues --    2.75370   2.76362   2.77358   2.78175   2.78464
 Alpha virt. eigenvalues --    2.78974   2.79449   2.80057   2.80745   2.81565
 Alpha virt. eigenvalues --    2.81820   2.83111   2.83313   2.84624   2.85086
 Alpha virt. eigenvalues --    2.86174   2.86626   2.86865   2.87405   2.88324
 Alpha virt. eigenvalues --    2.89605   2.89948   2.90566   2.91542   2.91917
 Alpha virt. eigenvalues --    2.93122   2.93364   2.94077   2.94559   2.95686
 Alpha virt. eigenvalues --    2.96316   2.97083   2.97575   2.98316   2.99946
 Alpha virt. eigenvalues --    3.00586   3.00879   3.03399   3.03664   3.03810
 Alpha virt. eigenvalues --    3.06315   3.06751   3.07939   3.10967   3.11696
 Alpha virt. eigenvalues --    3.12830   3.15294   3.15912   3.16097   3.16849
 Alpha virt. eigenvalues --    3.18478   3.19006   3.22335   3.22504   3.22925
 Alpha virt. eigenvalues --    3.23666   3.23691   3.26955   3.27395   3.27569
 Alpha virt. eigenvalues --    3.31875   3.36094   3.38987   3.39776   3.41798
 Alpha virt. eigenvalues --    3.46253   3.49612   3.51734   3.53418   3.59670
 Alpha virt. eigenvalues --    3.59773   3.60651   3.66213   3.67559   3.71422
 Alpha virt. eigenvalues --    3.74283   3.80507
          Condensed to atoms (all electrons):
 Mulliken charges:
               1
     1  O   -0.229468
     2  O   -0.195394
     3  O   -0.290287
     4  O   -0.116819
     5  O   -0.196922
     6  O   -0.114521
     7  N   -0.020910
     8  N   -0.168588
     9  N    0.009962
    10  N   -0.311118
    11  C    0.094465
    12  C    0.178574
    13  C   -0.085618
    14  C   -0.127864
    15  C   -0.133982
    16  C    0.078600
    17  C   -0.210184
    18  C    0.027292
    19  C   -0.009566
    20  C   -0.058380
    21  C    0.023420
    22  C    0.134170
    23  C   -0.068311
    24  C    0.072154
    25  C   -0.028836
    26  C   -0.152100
    27  C    0.029605
    28  C    0.113837
    29  C    0.249395
    30  C   -0.038000
    31  C   -0.130951
    32  C    0.181357
    33  C   -0.126626
    34  C    0.160915
    35  C    0.082548
    36  C   -0.028094
    37  C    0.118027
    38  C    0.100766
    39  C   -0.223380
    40  C    0.135544
    41  C   -0.089864
    42  C   -0.053444
    43  C   -0.037362
    44  H    0.017477
    45  H    0.000693
    46  H    0.014933
    47  H    0.143244
    48  H    0.098127
    49  H    0.022284
    50  H    0.018771
    51  H   -0.026871
    52  H    0.002872
    53  H    0.020411
    54  H    0.045265
    55  H    0.016782
    56  H    0.077472
    57  H    0.050114
    58  H    0.079963
    59  H    0.010357
    60  H    0.133883
    61  H   -0.057954
    62  H   -0.032532
    63  H    0.031630
    64  H    0.036466
    65  H    0.076409
    66  H   -0.000134
    67  H    0.007303
    68  H    0.001042
    69  H   -0.028151
    70  H    0.031221
    71  H    0.022240
    72  H    0.211653
    73  H    0.017460
    74  H    0.070769
    75  H    0.069945
    76  H    0.055895
    77  H    0.156885
    78  H    0.032965
    79  H    0.027067
 Sum of Mulliken charges =   0.00000
 Mulliken charges with hydrogens summed into heavy atoms:
               1
     1  O   -0.229468
     2  O    0.016259
     3  O   -0.290287
     4  O    0.040065
     5  O   -0.196922
     6  O   -0.114521
     7  N    0.122334
     8  N   -0.070461
     9  N    0.143845
    10  N   -0.311118
    11  C    0.111942
    12  C    0.194201
    13  C   -0.085618
    14  C   -0.127864
    15  C   -0.133982
    16  C    0.078600
    17  C   -0.210184
    18  C    0.068346
    19  C   -0.009566
    20  C   -0.085252
    21  C    0.023420
    22  C    0.134170
    23  C   -0.068311
    24  C    0.140702
    25  C    0.115533
    26  C   -0.152100
    27  C    0.119925
    28  C    0.113837
    29  C    0.158908
    30  C   -0.006370
    31  C   -0.018075
    32  C    0.189568
    33  C   -0.154777
    34  C    0.160915
    35  C    0.082548
    36  C    0.025366
    37  C    0.118027
    38  C    0.100766
    39  C   -0.223380
    40  C    0.135544
    41  C   -0.072403
    42  C    0.143165
    43  C    0.022669
 Electronic spatial extent (au):  <R**2>=          32412.6352
 Charge=              0.0000 electrons
 Dipole moment (field-independent basis, Debye):
    X=              0.7228    Y=              2.0829    Z=              3.3171  Tot=              3.9829
 Quadrupole moment (field-independent basis, Debye-Ang):
   XX=           -230.7992   YY=           -234.5582   ZZ=           -263.5681
   XY=            -11.6661   XZ=             30.7987   YZ=              1.8000
 Traceless Quadrupole moment (field-independent basis, Debye-Ang):
   XX=             12.1759   YY=              8.4170   ZZ=            -20.5929
   XY=            -11.6661   XZ=             30.7987   YZ=              1.8000
 Octapole moment (field-independent basis, Debye-Ang**2):
  XXX=              9.7681  YYY=            189.0067  ZZZ=             91.4364  XYY=            -65.6442
  XXY=            -71.9278  XXZ=             78.6655  XZZ=            -77.1301  YZZ=            -31.9871
  YYZ=             98.3557  XYZ=             15.2358
 Hexadecapole moment (field-independent basis, Debye-Ang**3):
 XXXX=         -24893.5474 YYYY=         -11400.3630 ZZZZ=          -4991.4838 XXXY=           -432.0554
 XXXZ=            668.2357 YYYX=           -322.3149 YYYZ=            770.5582 ZZZX=             -2.8015
 ZZZY=           -198.1860 XXYY=          -6101.2165 XXZZ=          -5308.2314 YYZZ=          -2797.6730
 XXYZ=           -141.6621 YYXZ=            -72.8629 ZZXY=             99.2763
 N-N= 4.918209001450D+03 E-N=-1.436541487652D+04  KE= 1.927703399029D+03
 1\1\GINC-PEDRO-RYZENSSD\SP\RB3LYP TD-FC\SVP\C33H36N4O6\PADAWAN\09-Jul-
 2019\0\\# td=(NStates=1) B3LYP/SVP\\TD\\0,1\O,0,-5.465601922,0.1811122
 262,-3.3642092537\O,0,2.9605828844,3.0456802914,3.1773339978\O,0,3.133
 9641342,0.74370938,3.3913410953\O,0,1.6111652524,-7.0548113855,1.64738
 51483\O,0,0.7599627457,-7.0627771817,-0.4471086421\O,0,1.9259760569,3.
 8977127383,-0.1556973053\N,0,-2.320122615,-0.8262776344,0.5588124083\N
 ,0,-4.4811020141,0.6183560842,-1.2600779399\N,0,1.9233320603,-0.753077
 2887,-0.3127127094\N,0,2.7367749479,1.7733457847,-0.5555130263\C,0,-4.
 8228145278,1.2050806875,-0.0013996835\C,0,-4.4481694223,0.2719936171,1
 .1867507358\C,0,-2.9244659028,0.0770625887,1.3182171618\C,0,-2.0032953
 738,0.6236345105,2.2015809563\C,0,-0.7555594434,0.0550269442,1.7821169
 739\C,0,-1.0117755526,-0.8552806372,0.8340401123\C,0,-6.301416239,1.40
 85826142,-0.2022086347\C,0,0.537387222,0.3584637695,2.474322101\C,0,-6
 .704602892,1.0079330985,-1.4161924769\C,0,-0.2581715592,-1.8857938805,
 0.1133085066\C,0,1.05118803,-1.8301655292,-0.2784566389\C,0,-5.5291909
 772,0.5317828715,-2.1862580666\C,0,1.8343593058,-2.9931328893,-0.91556
 68733\C,0,-2.3009068319,1.8014718792,3.1302816682\C,0,-7.155987591,1.9
 646920052,0.9402846424\C,0,3.0358491132,-2.446406665,-1.2365348106\C,0
 ,1.0931860912,1.7655797002,2.5019254109\C,0,3.0700235434,-1.0053399734
 ,-0.9148951205\C,0,1.4436799059,-4.3308874683,-0.924130887\C,0,-7.9926
 259835,0.9251570801,-2.156830405\C,0,1.7375054406,-5.0230285453,0.4162
 579523\C,0,4.2156592823,-3.1981510809,-1.8542474221\C,0,3.9550544476,-
 0.0123095692,-1.3649166868\C,0,2.5013127467,1.7936235367,3.0584457497\
 C,0,3.8520097269,1.3933485912,-1.1780235731\C,0,-9.2263608091,0.779765
 8204,-1.5344622088\C,0,1.2685841668,-6.5412128508,0.4855193446\C,0,4.7
 65280593,2.480410096,-1.4275764841\C,0,4.1782234568,3.6284370039,-1.05
 12346948\C,0,2.7239711531,3.1833900404,-0.5437629233\C,0,6.0478927937,
 2.3086927407,-2.0912906579\C,0,4.5183226257,5.0722887461,-1.2224349154
 \C,0,6.9300005515,3.3544718686,-2.5161262807\H,0,-4.6843063813,2.26488
 15331,0.003689911\H,0,-5.0323816673,-0.6328682779,0.9516764159\H,0,-4.
 9341735366,0.9160058297,2.027804915\H,0,-2.8075381642,-1.6375806156,0.
 0645740661\H,0,-3.6302287162,0.7999330695,-1.6573729346\H,0,0.31381796
 61,-0.1795079773,3.423737706\H,0,1.3476332073,-0.3075406381,2.00762908
 33\H,0,-0.7502455171,-2.7768456479,-0.2623364152\H,0,-3.3418763396,1.9
 511917045,3.2921653841\H,0,-1.6780026597,1.6471733448,4.0968994145\H,0
 ,-1.7345762569,2.7577344092,2.8124233963\H,0,-6.5443683319,2.853204272
 5,1.4125893777\H,0,-7.4782505334,1.3031066391,1.9065530779\H,0,-8.0296
 414554,2.6793501051,0.593778375\H,0,1.1752997113,2.2580384118,1.476547
 6624\H,0,0.3709211322,2.2961677046,3.1124015947\H,0,1.5080664249,0.149
 7313633,-0.3026724933\H,0,1.8631745761,-4.8864341666,-1.6089189541\H,0
 ,0.4895970401,-4.6196118746,-1.203673137\H,0,-7.9875540804,0.726255259
 5,-3.2509960116\H,0,1.0438973298,-4.7910134056,1.2671063982\H,0,2.8848
 595289,-4.6714436234,0.8134952879\H,0,4.078992343,-4.1974272712,-1.935
 3525879\H,0,5.2115632778,-2.932612142,-1.3363285544\H,0,4.5913662329,-
 2.6306251181,-2.6884391662\H,0,4.8700898161,-0.374921601,-1.9356902572
 \H,0,-9.389768499,1.0077516724,-0.4454552317\H,0,-10.0611142765,0.8301
 673951,-2.2023299747\H,0,3.7886252939,2.918294398,3.802788461\H,0,6.29
 99249981,1.1663208386,-2.3461021134\H,0,4.868827893,5.2745805501,-2.29
 93769927\H,0,3.5822962337,5.7161086808,-0.7668497682\H,0,5.5263744089,
 5.2853749921,-0.4089726454\H,0,1.3554130798,-7.9553067732,1.5375934324
 \H,0,7.8642877106,3.093086615,-3.0251012723\H,0,6.554076852,4.41370894
 22,-2.3312560147\\Version=ES64L-G09RevD.01\State=1-A\HF=-1947.8562405\
 RMSD=4.130e-09\PG=C01 [X(C33H36N4O6)]\\@


 IT IS DOUBTED WHETHER A MAN EVER BRINGS HIS FACULTIES TO BEAR WITH THEIR FULL FORCE
 ON A SUBJECT UNTIL HE WRITES UPON IT.

                          -- CICERO
 Job cpu time:       0 days  4 hours 35 minutes 55.2 seconds.
 File lengths (MBytes):  RWF=    769 Int=      0 D2E=      0 Chk=     58 Scr=      1
 Normal termination of Gaussian 09 at Tue Jul  9 15:57:53 2019.
