 Entering Gaussian System, Link 0=g16
 Input=Geometria-262-.com
 Output=Geometria-262-.log
 Initial command:
 /usr/local/g09/l1.exe "/home/padawan/israel-mol/dihydrobiliverdin/spectra/abs/Gau-57299.inp" -scrdir="/home/padawan/israel-mol/dihydrobiliverdin/spectra/abs/"
 Entering Link 1 = /usr/local/g09/l1.exe PID=     57301.
  
 Copyright (c) 1988,1990,1992,1993,1995,1998,2003,2009,2013,
            Gaussian, Inc.  All Rights Reserved.
  
 This is part of the Gaussian(R) 09 program.  It is based on
 the Gaussian(R) 03 system (copyright 2003, Gaussian, Inc.),
 the Gaussian(R) 98 system (copyright 1998, Gaussian, Inc.),
 the Gaussian(R) 94 system (copyright 1995, Gaussian, Inc.),
 the Gaussian 92(TM) system (copyright 1992, Gaussian, Inc.),
 the Gaussian 90(TM) system (copyright 1990, Gaussian, Inc.),
 the Gaussian 88(TM) system (copyright 1988, Gaussian, Inc.),
 the Gaussian 86(TM) system (copyright 1986, Carnegie Mellon
 University), and the Gaussian 82(TM) system (copyright 1983,
 Carnegie Mellon University). Gaussian is a federally registered
 trademark of Gaussian, Inc.
  
 This software contains proprietary and confidential information,
 including trade secrets, belonging to Gaussian, Inc.
  
 This software is provided under written license and may be
 used, copied, transmitted, or stored only in accord with that
 written license.
  
 The following legend is applicable only to US Government
 contracts under FAR:
  
                    RESTRICTED RIGHTS LEGEND
  
 Use, reproduction and disclosure by the US Government is
 subject to restrictions as set forth in subparagraphs (a)
 and (c) of the Commercial Computer Software - Restricted
 Rights clause in FAR 52.227-19.
  
 Gaussian, Inc.
 340 Quinnipiac St., Bldg. 40, Wallingford CT 06492
  
  
 ---------------------------------------------------------------
 Warning -- This program may not be used in any manner that
 competes with the business of Gaussian, Inc. or will provide
 assistance to any competitor of Gaussian, Inc.  The licensee
 of this program is prohibited from giving any competitor of
 Gaussian, Inc. access to this program.  By using this program,
 the user acknowledges that Gaussian, Inc. is engaged in the
 business of creating and licensing software in the field of
 computational chemistry and represents and warrants to the
 licensee that it is not a competitor of Gaussian, Inc. and that
 it will not use this program in any manner prohibited above.
 ---------------------------------------------------------------
  

 Cite this work as:
 Gaussian 09, Revision D.01,
 M. J. Frisch, G. W. Trucks, H. B. Schlegel, G. E. Scuseria, 
 M. A. Robb, J. R. Cheeseman, G. Scalmani, V. Barone, B. Mennucci, 
 G. A. Petersson, H. Nakatsuji, M. Caricato, X. Li, H. P. Hratchian, 
 A. F. Izmaylov, J. Bloino, G. Zheng, J. L. Sonnenberg, M. Hada, 
 M. Ehara, K. Toyota, R. Fukuda, J. Hasegawa, M. Ishida, T. Nakajima, 
 Y. Honda, O. Kitao, H. Nakai, T. Vreven, J. A. Montgomery, Jr., 
 J. E. Peralta, F. Ogliaro, M. Bearpark, J. J. Heyd, E. Brothers, 
 K. N. Kudin, V. N. Staroverov, T. Keith, R. Kobayashi, J. Normand, 
 K. Raghavachari, A. Rendell, J. C. Burant, S. S. Iyengar, J. Tomasi, 
 M. Cossi, N. Rega, J. M. Millam, M. Klene, J. E. Knox, J. B. Cross, 
 V. Bakken, C. Adamo, J. Jaramillo, R. Gomperts, R. E. Stratmann, 
 O. Yazyev, A. J. Austin, R. Cammi, C. Pomelli, J. W. Ochterski, 
 R. L. Martin, K. Morokuma, V. G. Zakrzewski, G. A. Voth, 
 P. Salvador, J. J. Dannenberg, S. Dapprich, A. D. Daniels, 
 O. Farkas, J. B. Foresman, J. V. Ortiz, J. Cioslowski, 
 and D. J. Fox, Gaussian, Inc., Wallingford CT, 2013.
 
 ******************************************
 Gaussian 09:  ES64L-G09RevD.01 24-Apr-2013
                 9-Jul-2019 
 ******************************************
 %nproc=4
 Will use up to    4 processors via shared memory.
 %Mem=2GB
 --------------------------
 # td=(NStates=1) B3LYP/SVP
 --------------------------
 1/38=1/1;
 2/12=2,17=6,18=5,40=1/2;
 3/5=18,7=101,11=9,16=1,25=1,30=1,74=-5/1,2,8,3;
 4//1;
 5/5=2,38=5/2;
 8/6=1,10=1,108=1/1;
 9/41=1,42=1,70=2/14;
 6/7=2,8=2,9=2,10=2/1;
 99/5=1,9=1/99;
 --
 TD
 --
 Symbolic Z-matrix:
 Charge =  0 Multiplicity = 1
 8                    -5.30854   0.3103   -3.41644 
 8                     2.66309   3.21293   3.41997 
 8                     3.17512   0.95871   3.18248 
 8                     1.69281  -7.09774   1.78581 
 8                     0.75886  -7.21467  -0.33271 
 8                     2.07109   3.95507   0.12227 
 7                    -2.32247  -0.88089   0.66963 
 7                    -4.46046   0.70652  -1.29375 
 7                     1.81765  -0.71151  -0.51541 
 7                     2.69163   1.77973  -0.56314 
 6                    -4.77735   1.22321  -0.03776 
 6                    -4.40656   0.19245   1.15794 
 6                    -2.93134   0.06609   1.38024 
 6                    -1.98507   0.62109   2.17762 
 6                    -0.72675   0.01061   1.77717 
 6                    -1.00092  -0.97758   0.82111 
 6                    -6.30184   1.36608  -0.13089 
 6                     0.56694   0.37834   2.4587 
 6                    -6.70034   0.93913  -1.3909 
 6                    -0.23633  -1.85113   0.04731 
 6                     1.01969  -1.83185  -0.37677 
 6                    -5.42217   0.73254  -2.27952 
 6                     1.84617  -2.95704  -0.93451 
 6                    -2.10914   1.62473   3.2669 
 6                    -7.1425    1.88511   0.92885 
 6                     3.0729   -2.36365  -1.35541 
 6                     0.92812   1.81224   2.36146 
 6                     3.08861  -0.99183  -1.06815 
 6                     1.39962  -4.37738  -0.92598 
 6                    -8.03208   0.93416  -2.06139 
 6                     1.69739  -5.1287    0.43776 
 6                     4.22033  -3.14538  -1.9295 
 6                     4.09422  -0.0367   -1.26695 
 6                     2.41096   1.85795   3.01548 
 6                     3.78912   1.3122   -1.16312 
 6                    -9.30453   0.96153  -1.63304 
 6                     1.30352  -6.61327   0.50181 
 6                     4.72453   2.41205  -1.51609 
 6                     4.13045   3.64357  -1.08827 
 6                     2.82067   3.21998  -0.50173 
 6                     6.00883   2.1782   -2.12488 
 6                     4.34252   5.08484  -1.19364 
 6                     6.95096   3.15334  -2.53187 
 1                    -4.4055    2.25584   0.35166 
 1                    -5.05159  -0.66775   1.19749 
 1                    -4.61634   0.64432   2.16778 
 1                    -2.9328   -1.19044  -0.13467 
 1                    -3.53272   0.55346  -1.44242 
 1                     0.34992   0.14758   3.47679 
 1                     1.59185  -0.09324   2.28699 
 1                    -0.89659  -2.85277   0.07751 
 1                    -3.28855   2.10324   3.0082 
 1                    -1.96801   1.01418   4.42177 
 1                    -1.22294   2.601     3.30086 
 1                    -6.40144   2.09929   1.97381 
 1                    -7.99171   0.88846   1.19498 
 1                    -7.65281   2.8199    0.31778 
 1                     1.03664   2.14878   1.31072 
 1                     0.39896   2.61208   2.6997 
 1                     1.38479   0.33941  -0.69598 
 1                     2.02863  -4.82225  -1.82148 
 1                     0.43849  -4.43396  -1.13019 
 1                    -7.75975   0.78954  -3.12327 
 1                     1.17001  -4.60623   1.25756 
 1                     2.77505  -5.09929   0.7549 
 1                     4.06274  -4.15637  -2.6689 
 1                     4.94271  -3.32806  -1.13192 
 1                     4.57033  -2.32635  -2.77108 
 1                     4.98917  -0.37302  -2.09614 
 1                    -9.55811   1.39511  -0.59654 
 1                    -10.08564   0.76389  -2.22117 
 1                     3.66453   3.13336   3.79353 
 1                     6.56136   1.24067  -2.1973 
 1                     4.42558   5.52559  -2.19806 
 1                     3.72277   5.55235  -0.47547 
 1                     5.3844    5.40306  -0.91898 
 1                     1.20095  -7.86407   1.74992 
 1                     7.9744    2.89971  -2.70569 
 1                     6.74815   4.12551  -2.69067 
 
 Stoichiometry    C33H36N4O6
 Framework group  C1[X(C33H36N4O6)]
 Deg. of freedom   231
 Full point group                 C1      NOp   1
 Largest Abelian subgroup         C1      NOp   1
 Largest concise Abelian subgroup C1      NOp   1
                         Standard orientation:                         
 ---------------------------------------------------------------------
 Center     Atomic      Atomic             Coordinates (Angstroms)
 Number     Number       Type             X           Y           Z
 ---------------------------------------------------------------------
      1          8           0        5.317925   -0.193671   -3.411415
      2          8           0       -2.584820   -3.261536    3.432817
      3          8           0       -3.150769   -1.021182    3.186698
      4          8           0       -1.861888    7.063297    1.760429
      5          8           0       -0.930030    7.194738   -0.358158
      6          8           0       -1.973613   -4.001541    0.138144
      7          7           0        2.302188    0.940644    0.669050
      8          7           0        4.478628   -0.602243   -1.287573
      9          7           0       -1.832116    0.667370   -0.516912
     10          7           0       -2.645941   -1.844319   -0.555643
     11          6           0        4.807260   -1.106471   -0.029540
     12          6           0        4.411239   -0.080457    1.162154
     13          6           0        2.933306    0.011229    1.383430
     14          6           0        2.000285   -0.563378    2.182521
     15          6           0        0.727834    0.015180    1.779313
     16          6           0        0.978626    1.006104    0.819665
     17          6           0        6.334783   -1.212997   -0.121558
     18          6           0       -0.556957   -0.380986    2.461732
     19          6           0        6.723499   -0.781297   -1.383007
     20          6           0        0.193616    1.858124    0.042315
     21          6           0       -1.061384    1.807070   -0.382161
     22          6           0        5.441145   -0.608817   -2.272872
     23          6           0       -1.914406    2.909981   -0.944423
     24          6           0        2.147929   -1.559671    3.275595
     25          6           0        7.187181   -1.707714    0.940439
     26          6           0       -3.126324    2.285706   -1.363558
     27          6           0       -0.883521   -1.823516    2.369726
     28          6           0       -3.109183    0.914988   -1.071173
     29          6           0       -1.502123    4.340670   -0.941046
     30          6           0        8.055045   -0.746822   -2.053010
     31          6           0       -1.818508    5.089699    0.419761
     32          6           0       -4.291942    3.037477   -1.941011
     33          6           0       -4.091455   -0.064771   -1.266771
     34          6           0       -2.365143   -1.902410    3.023355
     35          6           0       -3.754074   -1.405553   -1.157781
     36          6           0        9.327584   -0.742003   -1.624083
     37          6           0       -1.460461    6.583538    0.478401
     38          6           0       -4.662606   -2.528883   -1.506976
     39          6           0       -4.039299   -3.744156   -1.074327
     40          6           0       -2.740354   -3.287023   -0.488885
     41          6           0       -5.951875   -2.328244   -2.117129
     42          6           0       -4.216612   -5.190492   -1.174383
     43          6           0       -6.870108   -3.327264   -2.520813
     44          1           0        4.460154   -2.146277    0.363612
     45          1           0        5.035397    0.795139    1.198729
     46          1           0        4.631355   -0.523383    2.173759
     47          1           0        2.905274    1.261763   -0.136173
     48          1           0        3.547545   -0.472078   -1.437164
     49          1           0       -0.346023   -0.141285    3.479035
     50          1           0       -1.592823    0.065171    2.287868
     51          1           0        0.829597    2.875455    0.069008
     52          1           0        3.338623   -2.010648    3.019134
     53          1           0        1.991630   -0.948378    4.428124
     54          1           0        1.285432   -2.556822    3.312883
     55          1           0        6.451004   -1.935737    1.985906
     56          1           0        8.012071   -0.689943    1.203153
     57          1           0        7.720105   -2.632242    0.333063
     58          1           0       -0.983428   -2.166481    1.320213
     59          1           0       -0.335452   -2.609131    2.711157
     60          1           0       -1.374040   -0.373512   -0.693382
     61          1           0       -2.141232    4.766940   -1.838441
     62          1           0       -0.542542    4.419575   -1.145099
     63          1           0        7.779814   -0.612759   -3.115529
     64          1           0       -1.279103    4.583128    1.241705
     65          1           0       -2.895294    5.035575    0.736602
     66          1           0       -4.158354    4.049203   -2.684123
     67          1           0       -5.018873    3.205723   -1.144386
     68          1           0       -4.621766    2.207143   -2.779643
     69          1           0       -4.993847    0.246840   -2.097550
     70          1           0        9.591026   -1.165486   -0.585870
     71          1           0       10.103990   -0.527839   -2.212655
     72          1           0       -3.588057   -3.204666    3.805699
     73          1           0       -6.526748   -1.404542   -2.193260
     74          1           0       -4.288594   -5.636855   -2.177172
     75          1           0       -3.586144   -5.640287   -0.454233
     76          1           0       -5.250675   -5.532634   -0.898928
     77          1           0       -1.388567    7.841091    1.721861
     78          1           0       -7.899263   -3.098955   -2.695968
     79          1           0       -6.643909   -4.294862   -2.675900
 ---------------------------------------------------------------------
 Rotational constants (GHZ):      0.0732148      0.0443147      0.0344848
 Standard basis: SVP (5D, 7F)
 There are   825 symmetry adapted cartesian basis functions of A   symmetry.
 There are   782 symmetry adapted basis functions of A   symmetry.
   782 basis functions,  1327 primitive gaussians,   825 cartesian basis functions
   155 alpha electrons      155 beta electrons
       nuclear repulsion energy      4905.2151802450 Hartrees.
 NAtoms=   79 NActive=   79 NUniq=   79 SFac= 1.00D+00 NAtFMM=   60 NAOKFM=T Big=T
 Integral buffers will be    131072 words long.
 Regular integral format.
 Two-electron integral symmetry is turned on.
 One-electron integrals computed using PRISM.
 NBasis=   782 RedAO= T EigKep=  2.66D-04  NBF=   782
 NBsUse=   782 1.00D-06 EigRej= -1.00D+00 NBFU=   782
 ExpMin= 1.22D-01 ExpMax= 2.27D+03 ExpMxC= 3.41D+02 IAcc=1 IRadAn=         1 AccDes= 0.00D+00
 Harris functional with IExCor=  402 and IRadAn=       1 diagonalized for initial guess.
 HarFok:  IExCor=  402 AccDes= 0.00D+00 IRadAn=         1 IDoV= 1 UseB2=F ITyADJ=14
 ICtDFT=  3500011 ScaDFX=  1.000000  1.000000  1.000000  1.000000
 FoFCou: FMM=F IPFlag=           0 FMFlag=      100000 FMFlg1=        2001
         NFxFlg=           0 DoJE=T BraDBF=F KetDBF=T FulRan=T
         wScrn=  0.000000 ICntrl=     500 IOpCl=  0 I1Cent=   200000004 NGrid=           0
         NMat0=    1 NMatS0=      1 NMatT0=    0 NMatD0=    1 NMtDS0=    0 NMtDT0=    0
 Petite list used in FoFCou.
 Requested convergence on RMS density matrix=1.00D-08 within 128 cycles.
 Requested convergence on MAX density matrix=1.00D-06.
 Requested convergence on             energy=1.00D-06.
 No special actions if energy rises.
 Integral accuracy reduced to 1.0D-05 until final iterations.
 Initial convergence to 1.0D-05 achieved.  Increase integral accuracy.
 SCF Done:  E(RB3LYP) =  -1947.73296796     A.U. after   16 cycles
            NFock= 16  Conv=0.99D-08     -V/T= 2.0109
 DoSCS=F DFT=T ScalE2(SS,OS)=  1.000000  1.000000
 ExpMin= 1.22D-01 ExpMax= 2.27D+03 ExpMxC= 3.41D+02 IAcc=3 IRadAn=         5 AccDes= 0.00D+00
 HarFok:  IExCor=  205 AccDes= 0.00D+00 IRadAn=         5 IDoV=-2 UseB2=F ITyADJ=14
 ICtDFT= 12500011 ScaDFX=  1.000000  1.000000  1.000000  1.000000
 Range of M.O.s used for correlation:    44   782
 NBasis=   782 NAE=   155 NBE=   155 NFC=    43 NFV=     0
 NROrb=    739 NOA=   112 NOB=   112 NVA=   627 NVB=   627

 **** Warning!!: The smallest alpha delta epsilon is  0.83032055D-01

 Would need an additional        140608300000 words for in-memory AO integral storage.
 Orbital symmetries:
       Occupied  (A) (A) (A) (A) (A) (A) (A) (A) (A) (A) (A) (A)
                 (A) (A) (A) (A) (A) (A) (A) (A) (A) (A) (A) (A)
                 (A) (A) (A) (A) (A) (A) (A) (A) (A) (A) (A) (A)
                 (A) (A) (A) (A) (A) (A) (A) (A) (A) (A) (A) (A)
                 (A) (A) (A) (A) (A) (A) (A) (A) (A) (A) (A) (A)
                 (A) (A) (A) (A) (A) (A) (A) (A) (A) (A) (A) (A)
                 (A) (A) (A) (A) (A) (A) (A) (A) (A) (A) (A) (A)
                 (A) (A) (A) (A) (A) (A) (A) (A) (A) (A) (A) (A)
                 (A) (A) (A) (A) (A) (A) (A) (A) (A) (A) (A) (A)
                 (A) (A) (A) (A) (A) (A) (A) (A) (A) (A) (A) (A)
                 (A) (A) (A) (A) (A) (A) (A) (A) (A) (A) (A) (A)
                 (A) (A) (A) (A) (A) (A) (A) (A) (A) (A) (A) (A)
                 (A) (A) (A) (A) (A) (A) (A) (A) (A) (A) (A)
       Virtual   (A) (A) (A) (A) (A) (A) (A) (A) (A) (A) (A) (A)
                 (A) (A) (A) (A) (A) (A) (A) (A) (A) (A) (A) (A)
                 (A) (A) (A) (A) (A) (A) (A) (A) (A) (A) (A) (A)
                 (A) (A) (A) (A) (A) (A) (A) (A) (A) (A) (A) (A)
                 (A) (A) (A) (A) (A) (A) (A) (A) (A) (A) (A) (A)
                 (A) (A) (A) (A) (A) (A) (A) (A) (A) (A) (A) (A)
                 (A) (A) (A) (A) (A) (A) (A) (A) (A) (A) (A) (A)
                 (A) (A) (A) (A) (A) (A) (A) (A) (A) (A) (A) (A)
                 (A) (A) (A) (A) (A) (A) (A) (A) (A) (A) (A) (A)
                 (A) (A) (A) (A) (A) (A) (A) (A) (A) (A) (A) (A)
                 (A) (A) (A) (A) (A) (A) (A) (A) (A) (A) (A) (A)
                 (A) (A) (A) (A) (A) (A) (A) (A) (A) (A) (A) (A)
                 (A) (A) (A) (A) (A) (A) (A) (A) (A) (A) (A) (A)
                 (A) (A) (A) (A) (A) (A) (A) (A) (A) (A) (A) (A)
                 (A) (A) (A) (A) (A) (A) (A) (A) (A) (A) (A) (A)
                 (A) (A) (A) (A) (A) (A) (A) (A) (A) (A) (A) (A)
                 (A) (A) (A) (A) (A) (A) (A) (A) (A) (A) (A) (A)
                 (A) (A) (A) (A) (A) (A) (A) (A) (A) (A) (A) (A)
                 (A) (A) (A) (A) (A) (A) (A) (A) (A) (A) (A) (A)
                 (A) (A) (A) (A) (A) (A) (A) (A) (A) (A) (A) (A)
                 (A) (A) (A) (A) (A) (A) (A) (A) (A) (A) (A) (A)
                 (A) (A) (A) (A) (A) (A) (A) (A) (A) (A) (A) (A)
                 (A) (A) (A) (A) (A) (A) (A) (A) (A) (A) (A) (A)
                 (A) (A) (A) (A) (A) (A) (A) (A) (A) (A) (A) (A)
                 (A) (A) (A) (A) (A) (A) (A) (A) (A) (A) (A) (A)
                 (A) (A) (A) (A) (A) (A) (A) (A) (A) (A) (A) (A)
                 (A) (A) (A) (A) (A) (A) (A) (A) (A) (A) (A) (A)
                 (A) (A) (A) (A) (A) (A) (A) (A) (A) (A) (A) (A)
                 (A) (A) (A) (A) (A) (A) (A) (A) (A) (A) (A) (A)
                 (A) (A) (A) (A) (A) (A) (A) (A) (A) (A) (A) (A)
                 (A) (A) (A) (A) (A) (A) (A) (A) (A) (A) (A) (A)
                 (A) (A) (A) (A) (A) (A) (A) (A) (A) (A) (A) (A)
                 (A) (A) (A) (A) (A) (A) (A) (A) (A) (A) (A) (A)
                 (A) (A) (A) (A) (A) (A) (A) (A) (A) (A) (A) (A)
                 (A) (A) (A) (A) (A) (A) (A) (A) (A) (A) (A) (A)
                 (A) (A) (A) (A) (A) (A) (A) (A) (A) (A) (A) (A)
                 (A) (A) (A) (A) (A) (A) (A) (A) (A) (A) (A) (A)
                 (A) (A) (A) (A) (A) (A) (A) (A) (A) (A) (A) (A)
                 (A) (A) (A) (A) (A) (A) (A) (A) (A) (A) (A) (A)
                 (A) (A) (A) (A) (A) (A) (A) (A) (A) (A) (A) (A)
                 (A) (A) (A) (A) (A) (A) (A) (A) (A) (A) (A) (A)
                 (A) (A) (A) (A) (A) (A) (A) (A) (A) (A) (A) (A)
                 (A) (A) (A) (A) (A) (A) (A) (A) (A) (A) (A) (A)
                 (A) (A) (A) (A) (A) (A) (A) (A) (A) (A) (A) (A)
                 (A) (A) (A) (A) (A) (A) (A) (A) (A) (A) (A) (A)
                 (A) (A) (A) (A) (A) (A) (A) (A) (A) (A) (A) (A)
                 (A) (A) (A) (A) (A) (A) (A) (A) (A) (A) (A) (A)
                 (A) (A) (A) (A) (A) (A) (A) (A) (A) (A) (A) (A)
                 (A) (A) (A) (A) (A) (A) (A) (A) (A) (A) (A) (A)
                 (A) (A) (A) (A) (A) (A) (A) (A) (A) (A) (A) (A)
                 (A) (A) (A) (A) (A) (A) (A) (A) (A) (A) (A) (A)
                 (A) (A) (A) (A) (A) (A) (A) (A) (A) (A) (A) (A)
                 (A) (A) (A)
     8 initial guesses have been made.
 Convergence on wavefunction:    0.001000000000000
 Iteration     1 Dimension     8 NMult     0 NNew      8
 CISAX will form     8 AO SS matrices at one time.
 Iteration     2 Dimension    12 NMult     8 NNew      4
 Iteration     3 Dimension    16 NMult    12 NNew      4
 Iteration     4 Dimension    20 NMult    16 NNew      4
 Iteration     5 Dimension    24 NMult    20 NNew      4
 Iteration     6 Dimension    28 NMult    24 NNew      4
 ***********************************************************************
 Excited states from <AA,BB:AA,BB> singles matrix:
 ***********************************************************************
 
 Ground to excited state transition densities written to RWF  633
 Ground to excited state transition electric dipole moments (Au):
       state          X           Y           Z        Dip. S.      Osc.
         1        -2.1884     -1.0728     -0.8126      6.6006      0.3271
 Ground to excited state transition velocity dipole moments (Au):
       state          X           Y           Z        Dip. S.      Osc.
         1         0.1578      0.0719      0.0592      0.0336      0.3011
 Ground to excited state transition magnetic dipole moments (Au):
       state          X           Y           Z
         1         0.5176     -0.0620     -1.1158
 Ground to excited state transition velocity quadrupole moments (Au):
       state          XX          YY          ZZ          XY          XZ          YZ
         1        -0.6430     -0.2291      0.0438     -0.6501     -0.4265     -0.2367
 <0|del|b> * <b|rxdel|0> + <0|del|b> * <b|delr+rdel|0>
 Rotatory Strengths (R) in cgs (10**-40 erg-esu-cm/Gauss)
       state          XX          YY          ZZ    R(velocity)    E-M Angle
         1      -372.3039     79.8151    399.2434     35.5849       87.15
 1/2[<0|r|b>*<b|rxdel|0> + (<0|rxdel|b>*<b|r|0>)*]
 Rotatory Strengths (R) in cgs (10**-40 erg-esu-cm/Gauss)
       state          XX          YY          ZZ     R(length)
         1       801.0675    -47.0179   -641.2262     37.6078
  1/2[<0|del|b>*<b|r|0> + (<0|r|b>*<b|del|0>)*] (Au)
       state          X           Y           Z        Dip. S.   Osc.(frdel)
         1        -0.3454     -0.0771     -0.0481      0.4706      0.3137

 Excitation energies and oscillator strengths:
 
 Excited State   1:      Singlet-A      2.0229 eV  612.91 nm  f=0.3271  <S**2>=0.000
     154 ->156         0.27341
     155 ->156         0.64749
 This state for optimization and/or second-order correction.
 Total Energy, E(TD-HF/TD-KS) =  -1947.65862839    
 Copying the excited state density for this state as the 1-particle RhoCI density.
 SavETr:  write IOETrn=   770 NScale= 10 NData=  16 NLR=1 NState=    1 LETran=      28.

 **********************************************************************

            Population analysis using the SCF density.

 **********************************************************************

 Orbital symmetries:
       Occupied  (A) (A) (A) (A) (A) (A) (A) (A) (A) (A) (A) (A)
                 (A) (A) (A) (A) (A) (A) (A) (A) (A) (A) (A) (A)
                 (A) (A) (A) (A) (A) (A) (A) (A) (A) (A) (A) (A)
                 (A) (A) (A) (A) (A) (A) (A) (A) (A) (A) (A) (A)
                 (A) (A) (A) (A) (A) (A) (A) (A) (A) (A) (A) (A)
                 (A) (A) (A) (A) (A) (A) (A) (A) (A) (A) (A) (A)
                 (A) (A) (A) (A) (A) (A) (A) (A) (A) (A) (A) (A)
                 (A) (A) (A) (A) (A) (A) (A) (A) (A) (A) (A) (A)
                 (A) (A) (A) (A) (A) (A) (A) (A) (A) (A) (A) (A)
                 (A) (A) (A) (A) (A) (A) (A) (A) (A) (A) (A) (A)
                 (A) (A) (A) (A) (A) (A) (A) (A) (A) (A) (A) (A)
                 (A) (A) (A) (A) (A) (A) (A) (A) (A) (A) (A) (A)
                 (A) (A) (A) (A) (A) (A) (A) (A) (A) (A) (A)
       Virtual   (A) (A) (A) (A) (A) (A) (A) (A) (A) (A) (A) (A)
                 (A) (A) (A) (A) (A) (A) (A) (A) (A) (A) (A) (A)
                 (A) (A) (A) (A) (A) (A) (A) (A) (A) (A) (A) (A)
                 (A) (A) (A) (A) (A) (A) (A) (A) (A) (A) (A) (A)
                 (A) (A) (A) (A) (A) (A) (A) (A) (A) (A) (A) (A)
                 (A) (A) (A) (A) (A) (A) (A) (A) (A) (A) (A) (A)
                 (A) (A) (A) (A) (A) (A) (A) (A) (A) (A) (A) (A)
                 (A) (A) (A) (A) (A) (A) (A) (A) (A) (A) (A) (A)
                 (A) (A) (A) (A) (A) (A) (A) (A) (A) (A) (A) (A)
                 (A) (A) (A) (A) (A) (A) (A) (A) (A) (A) (A) (A)
                 (A) (A) (A) (A) (A) (A) (A) (A) (A) (A) (A) (A)
                 (A) (A) (A) (A) (A) (A) (A) (A) (A) (A) (A) (A)
                 (A) (A) (A) (A) (A) (A) (A) (A) (A) (A) (A) (A)
                 (A) (A) (A) (A) (A) (A) (A) (A) (A) (A) (A) (A)
                 (A) (A) (A) (A) (A) (A) (A) (A) (A) (A) (A) (A)
                 (A) (A) (A) (A) (A) (A) (A) (A) (A) (A) (A) (A)
                 (A) (A) (A) (A) (A) (A) (A) (A) (A) (A) (A) (A)
                 (A) (A) (A) (A) (A) (A) (A) (A) (A) (A) (A) (A)
                 (A) (A) (A) (A) (A) (A) (A) (A) (A) (A) (A) (A)
                 (A) (A) (A) (A) (A) (A) (A) (A) (A) (A) (A) (A)
                 (A) (A) (A) (A) (A) (A) (A) (A) (A) (A) (A) (A)
                 (A) (A) (A) (A) (A) (A) (A) (A) (A) (A) (A) (A)
                 (A) (A) (A) (A) (A) (A) (A) (A) (A) (A) (A) (A)
                 (A) (A) (A) (A) (A) (A) (A) (A) (A) (A) (A) (A)
                 (A) (A) (A) (A) (A) (A) (A) (A) (A) (A) (A) (A)
                 (A) (A) (A) (A) (A) (A) (A) (A) (A) (A) (A) (A)
                 (A) (A) (A) (A) (A) (A) (A) (A) (A) (A) (A) (A)
                 (A) (A) (A) (A) (A) (A) (A) (A) (A) (A) (A) (A)
                 (A) (A) (A) (A) (A) (A) (A) (A) (A) (A) (A) (A)
                 (A) (A) (A) (A) (A) (A) (A) (A) (A) (A) (A) (A)
                 (A) (A) (A) (A) (A) (A) (A) (A) (A) (A) (A) (A)
                 (A) (A) (A) (A) (A) (A) (A) (A) (A) (A) (A) (A)
                 (A) (A) (A) (A) (A) (A) (A) (A) (A) (A) (A) (A)
                 (A) (A) (A) (A) (A) (A) (A) (A) (A) (A) (A) (A)
                 (A) (A) (A) (A) (A) (A) (A) (A) (A) (A) (A) (A)
                 (A) (A) (A) (A) (A) (A) (A) (A) (A) (A) (A) (A)
                 (A) (A) (A) (A) (A) (A) (A) (A) (A) (A) (A) (A)
                 (A) (A) (A) (A) (A) (A) (A) (A) (A) (A) (A) (A)
                 (A) (A) (A) (A) (A) (A) (A) (A) (A) (A) (A) (A)
                 (A) (A) (A) (A) (A) (A) (A) (A) (A) (A) (A) (A)
                 (A) (A) (A) (A) (A) (A) (A) (A) (A) (A) (A) (A)
                 (A) (A) (A) (A) (A) (A) (A) (A) (A) (A) (A) (A)
                 (A) (A) (A) (A) (A) (A) (A) (A) (A) (A) (A) (A)
                 (A) (A) (A) (A) (A) (A) (A) (A) (A) (A) (A) (A)
                 (A) (A) (A) (A) (A) (A) (A) (A) (A) (A) (A) (A)
                 (A) (A) (A) (A) (A) (A) (A) (A) (A) (A) (A) (A)
                 (A) (A) (A) (A) (A) (A) (A) (A) (A) (A) (A) (A)
                 (A) (A) (A) (A) (A) (A) (A) (A) (A) (A) (A) (A)
                 (A) (A) (A) (A) (A) (A) (A) (A) (A) (A) (A) (A)
                 (A) (A) (A) (A) (A) (A) (A) (A) (A) (A) (A) (A)
                 (A) (A) (A) (A) (A) (A) (A) (A) (A) (A) (A) (A)
                 (A) (A) (A) (A) (A) (A) (A) (A) (A) (A) (A) (A)
                 (A) (A) (A)
 The electronic state is 1-A.
 Alpha  occ. eigenvalues --  -19.17911 -19.16399 -19.15488 -19.13221 -19.11679
 Alpha  occ. eigenvalues --  -19.11136 -14.38262 -14.36345 -14.36334 -14.29108
 Alpha  occ. eigenvalues --  -10.33295 -10.30971 -10.30105 -10.26689 -10.26403
 Alpha  occ. eigenvalues --  -10.25569 -10.25028 -10.24367 -10.24098 -10.23122
 Alpha  occ. eigenvalues --  -10.22898 -10.22692 -10.22658 -10.22602 -10.22437
 Alpha  occ. eigenvalues --  -10.22409 -10.22170 -10.22118 -10.21329 -10.21278
 Alpha  occ. eigenvalues --  -10.21157 -10.20855 -10.20811 -10.20413 -10.20394
 Alpha  occ. eigenvalues --  -10.20363 -10.19388 -10.19371 -10.19188 -10.19150
 Alpha  occ. eigenvalues --  -10.18594 -10.18013 -10.17699  -1.11380  -1.06674
 Alpha  occ. eigenvalues --   -1.03767  -1.03738  -1.01711  -1.01304  -0.97962
 Alpha  occ. eigenvalues --   -0.96836  -0.96491  -0.91344  -0.83030  -0.82370
 Alpha  occ. eigenvalues --   -0.81922  -0.81326  -0.80272  -0.79558  -0.77530
 Alpha  occ. eigenvalues --   -0.77061  -0.76402  -0.75975  -0.74881  -0.72559
 Alpha  occ. eigenvalues --   -0.71363  -0.70518  -0.69784  -0.68274  -0.67635
 Alpha  occ. eigenvalues --   -0.66958  -0.65546  -0.64627  -0.63048  -0.61157
 Alpha  occ. eigenvalues --   -0.58889  -0.58438  -0.57549  -0.56918  -0.55940
 Alpha  occ. eigenvalues --   -0.55322  -0.54959  -0.54232  -0.53701  -0.53232
 Alpha  occ. eigenvalues --   -0.52767  -0.51932  -0.51019  -0.50654  -0.49959
 Alpha  occ. eigenvalues --   -0.49515  -0.49237  -0.49167  -0.48183  -0.47762
 Alpha  occ. eigenvalues --   -0.47338  -0.46963  -0.46653  -0.46050  -0.45640
 Alpha  occ. eigenvalues --   -0.45074  -0.44655  -0.44456  -0.43994  -0.43771
 Alpha  occ. eigenvalues --   -0.43383  -0.43287  -0.43104  -0.42367  -0.42328
 Alpha  occ. eigenvalues --   -0.42151  -0.41997  -0.41607  -0.41535  -0.41249
 Alpha  occ. eigenvalues --   -0.40839  -0.40363  -0.40316  -0.39872  -0.39493
 Alpha  occ. eigenvalues --   -0.39380  -0.38958  -0.38907  -0.38348  -0.38327
 Alpha  occ. eigenvalues --   -0.38065  -0.37898  -0.37727  -0.37109  -0.36684
 Alpha  occ. eigenvalues --   -0.35904  -0.35756  -0.35368  -0.34979  -0.34472
 Alpha  occ. eigenvalues --   -0.34179  -0.33926  -0.33625  -0.31698  -0.31158
 Alpha  occ. eigenvalues --   -0.30894  -0.30580  -0.30208  -0.28799  -0.27803
 Alpha  occ. eigenvalues --   -0.27532  -0.27499  -0.26857  -0.25481  -0.24422
 Alpha  occ. eigenvalues --   -0.24304  -0.23901  -0.23636  -0.21587  -0.19732
 Alpha virt. eigenvalues --   -0.11429  -0.07422  -0.06522  -0.01354  -0.00676
 Alpha virt. eigenvalues --   -0.00485   0.00068   0.01270   0.01564   0.02664
 Alpha virt. eigenvalues --    0.02700   0.02776   0.03235   0.04337   0.04471
 Alpha virt. eigenvalues --    0.04601   0.04909   0.05595   0.05706   0.06739
 Alpha virt. eigenvalues --    0.06787   0.07231   0.07537   0.07801   0.08048
 Alpha virt. eigenvalues --    0.08936   0.09062   0.09347   0.09561   0.10131
 Alpha virt. eigenvalues --    0.10327   0.10675   0.11102   0.11161   0.11428
 Alpha virt. eigenvalues --    0.11910   0.12187   0.13081   0.13220   0.13520
 Alpha virt. eigenvalues --    0.13783   0.14547   0.14992   0.15170   0.15517
 Alpha virt. eigenvalues --    0.16210   0.16644   0.17291   0.17626   0.17828
 Alpha virt. eigenvalues --    0.17889   0.18269   0.18690   0.18885   0.19597
 Alpha virt. eigenvalues --    0.20563   0.21256   0.21544   0.21689   0.22262
 Alpha virt. eigenvalues --    0.22492   0.22910   0.23171   0.23987   0.24362
 Alpha virt. eigenvalues --    0.24529   0.24997   0.25342   0.25443   0.26172
 Alpha virt. eigenvalues --    0.26626   0.26990   0.27536   0.27878   0.28619
 Alpha virt. eigenvalues --    0.29077   0.29574   0.30188   0.30983   0.31055
 Alpha virt. eigenvalues --    0.31332   0.31899   0.32304   0.32817   0.32951
 Alpha virt. eigenvalues --    0.33677   0.34438   0.34954   0.35392   0.36251
 Alpha virt. eigenvalues --    0.36692   0.37036   0.37725   0.38051   0.38260
 Alpha virt. eigenvalues --    0.38836   0.39642   0.39902   0.40201   0.40802
 Alpha virt. eigenvalues --    0.41419   0.41897   0.42046   0.42579   0.42748
 Alpha virt. eigenvalues --    0.43158   0.43832   0.44010   0.44221   0.44648
 Alpha virt. eigenvalues --    0.44829   0.45068   0.45364   0.45591   0.45855
 Alpha virt. eigenvalues --    0.46326   0.46367   0.47285   0.47917   0.47982
 Alpha virt. eigenvalues --    0.48035   0.48587   0.48878   0.49329   0.49611
 Alpha virt. eigenvalues --    0.50304   0.50492   0.50779   0.51012   0.51434
 Alpha virt. eigenvalues --    0.51601   0.52143   0.52337   0.52530   0.52983
 Alpha virt. eigenvalues --    0.53344   0.54012   0.54159   0.54476   0.54953
 Alpha virt. eigenvalues --    0.55413   0.55671   0.55924   0.56339   0.56694
 Alpha virt. eigenvalues --    0.57028   0.57094   0.57187   0.57597   0.58026
 Alpha virt. eigenvalues --    0.58485   0.58690   0.59371   0.59451   0.59563
 Alpha virt. eigenvalues --    0.60195   0.60390   0.60870   0.61039   0.61345
 Alpha virt. eigenvalues --    0.61435   0.61841   0.61884   0.62567   0.62775
 Alpha virt. eigenvalues --    0.63236   0.63324   0.63644   0.63750   0.64364
 Alpha virt. eigenvalues --    0.64569   0.64729   0.64979   0.65224   0.65655
 Alpha virt. eigenvalues --    0.65929   0.66384   0.66612   0.66748   0.67080
 Alpha virt. eigenvalues --    0.67320   0.67678   0.68119   0.68326   0.68387
 Alpha virt. eigenvalues --    0.68589   0.68815   0.69003   0.69040   0.69409
 Alpha virt. eigenvalues --    0.69565   0.69773   0.70010   0.70462   0.70622
 Alpha virt. eigenvalues --    0.70954   0.71171   0.71471   0.71690   0.72214
 Alpha virt. eigenvalues --    0.72630   0.73015   0.73413   0.73680   0.73752
 Alpha virt. eigenvalues --    0.74594   0.74800   0.75236   0.75707   0.76071
 Alpha virt. eigenvalues --    0.76341   0.76635   0.77272   0.77598   0.77818
 Alpha virt. eigenvalues --    0.78548   0.79242   0.79661   0.80001   0.80305
 Alpha virt. eigenvalues --    0.80757   0.81340   0.81967   0.82303   0.83147
 Alpha virt. eigenvalues --    0.83318   0.84353   0.85191   0.85329   0.86073
 Alpha virt. eigenvalues --    0.86721   0.87252   0.87525   0.88168   0.88592
 Alpha virt. eigenvalues --    0.88844   0.90331   0.90740   0.91366   0.92030
 Alpha virt. eigenvalues --    0.92345   0.92908   0.93784   0.94551   0.94966
 Alpha virt. eigenvalues --    0.95248   0.95438   0.95900   0.97238   0.97789
 Alpha virt. eigenvalues --    0.97925   0.98977   0.99354   1.00299   1.01063
 Alpha virt. eigenvalues --    1.01511   1.01932   1.02994   1.03460   1.04668
 Alpha virt. eigenvalues --    1.05505   1.05840   1.06804   1.07370   1.07917
 Alpha virt. eigenvalues --    1.08982   1.09363   1.09913   1.10432   1.11138
 Alpha virt. eigenvalues --    1.11562   1.11745   1.11991   1.12694   1.13617
 Alpha virt. eigenvalues --    1.13798   1.15099   1.16187   1.17585   1.17724
 Alpha virt. eigenvalues --    1.17822   1.18766   1.19697   1.19738   1.20463
 Alpha virt. eigenvalues --    1.20810   1.21192   1.21876   1.22773   1.23612
 Alpha virt. eigenvalues --    1.23751   1.24641   1.25378   1.25632   1.26066
 Alpha virt. eigenvalues --    1.26488   1.27792   1.27923   1.28387   1.29295
 Alpha virt. eigenvalues --    1.30201   1.30311   1.31724   1.32020   1.32494
 Alpha virt. eigenvalues --    1.33380   1.33755   1.34343   1.35796   1.37847
 Alpha virt. eigenvalues --    1.38223   1.39275   1.39465   1.39819   1.40461
 Alpha virt. eigenvalues --    1.41033   1.41271   1.41925   1.42691   1.43315
 Alpha virt. eigenvalues --    1.43630   1.45070   1.45431   1.45652   1.46232
 Alpha virt. eigenvalues --    1.48014   1.48928   1.49316   1.50037   1.50644
 Alpha virt. eigenvalues --    1.51143   1.51277   1.51995   1.52377   1.52970
 Alpha virt. eigenvalues --    1.53425   1.53715   1.53806   1.54382   1.54958
 Alpha virt. eigenvalues --    1.55810   1.56390   1.56657   1.57256   1.58191
 Alpha virt. eigenvalues --    1.59599   1.60234   1.60709   1.61061   1.61379
 Alpha virt. eigenvalues --    1.61771   1.62156   1.62620   1.63177   1.63817
 Alpha virt. eigenvalues --    1.63990   1.64380   1.64684   1.65024   1.65087
 Alpha virt. eigenvalues --    1.65666   1.65973   1.66311   1.66675   1.66899
 Alpha virt. eigenvalues --    1.67191   1.67740   1.68232   1.68717   1.68927
 Alpha virt. eigenvalues --    1.69425   1.69504   1.70112   1.70567   1.70908
 Alpha virt. eigenvalues --    1.71330   1.71800   1.72577   1.73252   1.73692
 Alpha virt. eigenvalues --    1.74533   1.74801   1.74999   1.75410   1.75797
 Alpha virt. eigenvalues --    1.76020   1.76306   1.76757   1.77959   1.78536
 Alpha virt. eigenvalues --    1.79030   1.79135   1.79394   1.79445   1.79780
 Alpha virt. eigenvalues --    1.80243   1.80614   1.80655   1.81133   1.81351
 Alpha virt. eigenvalues --    1.82052   1.82530   1.82684   1.84136   1.84599
 Alpha virt. eigenvalues --    1.84762   1.85593   1.85788   1.86093   1.86669
 Alpha virt. eigenvalues --    1.87009   1.87148   1.87986   1.88276   1.88349
 Alpha virt. eigenvalues --    1.88873   1.89101   1.89248   1.89828   1.90102
 Alpha virt. eigenvalues --    1.90422   1.90490   1.91775   1.92006   1.92587
 Alpha virt. eigenvalues --    1.93182   1.93491   1.93600   1.94311   1.94538
 Alpha virt. eigenvalues --    1.95478   1.95755   1.96619   1.97024   1.97478
 Alpha virt. eigenvalues --    1.97732   1.98357   1.98673   1.99094   2.00238
 Alpha virt. eigenvalues --    2.00675   2.01316   2.01704   2.02076   2.03053
 Alpha virt. eigenvalues --    2.03926   2.04156   2.04381   2.05103   2.05301
 Alpha virt. eigenvalues --    2.05832   2.06090   2.06537   2.07623   2.07938
 Alpha virt. eigenvalues --    2.08245   2.08947   2.09350   2.10285   2.10796
 Alpha virt. eigenvalues --    2.11434   2.11581   2.12052   2.13359   2.13489
 Alpha virt. eigenvalues --    2.13786   2.14603   2.15425   2.15683   2.16196
 Alpha virt. eigenvalues --    2.17142   2.17482   2.18119   2.19578   2.20778
 Alpha virt. eigenvalues --    2.20860   2.21325   2.22323   2.23105   2.23702
 Alpha virt. eigenvalues --    2.24015   2.25033   2.25521   2.26846   2.27336
 Alpha virt. eigenvalues --    2.28113   2.28555   2.29273   2.30393   2.30741
 Alpha virt. eigenvalues --    2.31400   2.32523   2.33056   2.33980   2.34776
 Alpha virt. eigenvalues --    2.35547   2.35814   2.35903   2.36236   2.37135
 Alpha virt. eigenvalues --    2.38087   2.39032   2.39591   2.40175   2.40575
 Alpha virt. eigenvalues --    2.40870   2.41263   2.42176   2.42607   2.43677
 Alpha virt. eigenvalues --    2.44067   2.44859   2.46299   2.46456   2.48545
 Alpha virt. eigenvalues --    2.48795   2.49127   2.49417   2.50703   2.52431
 Alpha virt. eigenvalues --    2.52859   2.53337   2.53865   2.54369   2.54943
 Alpha virt. eigenvalues --    2.55401   2.56555   2.58762   2.59217   2.59754
 Alpha virt. eigenvalues --    2.60150   2.61042   2.61125   2.61483   2.61745
 Alpha virt. eigenvalues --    2.63091   2.63259   2.65648   2.66051   2.66493
 Alpha virt. eigenvalues --    2.66710   2.67438   2.68422   2.68723   2.69099
 Alpha virt. eigenvalues --    2.69611   2.70173   2.70939   2.71561   2.71869
 Alpha virt. eigenvalues --    2.72270   2.72907   2.73161   2.74342   2.75250
 Alpha virt. eigenvalues --    2.75716   2.76725   2.77291   2.77394   2.78581
 Alpha virt. eigenvalues --    2.79283   2.79727   2.81568   2.83112   2.83146
 Alpha virt. eigenvalues --    2.83453   2.83982   2.84178   2.85191   2.85386
 Alpha virt. eigenvalues --    2.86818   2.87348   2.87811   2.88230   2.89407
 Alpha virt. eigenvalues --    2.90120   2.90418   2.91677   2.92620   2.93380
 Alpha virt. eigenvalues --    2.96777   2.97236   2.98513   2.99124   2.99348
 Alpha virt. eigenvalues --    3.00800   3.01995   3.02717   3.03521   3.04215
 Alpha virt. eigenvalues --    3.05653   3.05707   3.09064   3.09985   3.10354
 Alpha virt. eigenvalues --    3.10870   3.12026   3.13876   3.15891   3.16909
 Alpha virt. eigenvalues --    3.17789   3.19401   3.19723   3.20204   3.20914
 Alpha virt. eigenvalues --    3.21506   3.22833   3.24083   3.26246   3.27820
 Alpha virt. eigenvalues --    3.33866   3.35770   3.36178   3.41344   3.41710
 Alpha virt. eigenvalues --    3.43341   3.45954   3.51280   3.52541   3.53725
 Alpha virt. eigenvalues --    3.54728   3.64161   3.64206   3.65507   3.67562
 Alpha virt. eigenvalues --    3.69957   3.84397
          Condensed to atoms (all electrons):
 Mulliken charges:
               1
     1  O   -0.217683
     2  O   -0.282552
     3  O   -0.199879
     4  O   -0.197332
     5  O   -0.152732
     6  O   -0.207015
     7  N   -0.020571
     8  N   -0.115806
     9  N   -0.169402
    10  N   -0.315897
    11  C    0.104576
    12  C    0.098806
    13  C   -0.120979
    14  C   -0.047451
    15  C   -0.111105
    16  C    0.048252
    17  C   -0.162843
    18  C    0.099636
    19  C   -0.108546
    20  C   -0.133373
    21  C    0.131493
    22  C    0.189814
    23  C   -0.111110
    24  C   -0.120428
    25  C   -0.099304
    26  C   -0.100015
    27  C    0.024343
    28  C    0.118716
    29  C    0.192076
    30  C    0.005249
    31  C   -0.031903
    32  C   -0.032543
    33  C   -0.137221
    34  C    0.158919
    35  C    0.072698
    36  C   -0.004402
    37  C    0.136103
    38  C    0.099632
    39  C   -0.172781
    40  C    0.164369
    41  C   -0.080581
    42  C    0.120535
    43  C   -0.006575
    44  H    0.032890
    45  H    0.010114
    46  H    0.008207
    47  H    0.119047
    48  H    0.083756
    49  H   -0.014892
    50  H    0.052499
    51  H    0.028011
    52  H    0.031751
    53  H    0.060785
    54  H    0.083352
    55  H    0.062717
    56  H    0.086458
    57  H    0.098045
    58  H    0.056006
    59  H   -0.030537
    60  H    0.210801
    61  H    0.027157
    62  H   -0.034692
    63  H    0.011969
    64  H    0.045043
    65  H    0.046627
    66  H    0.062691
    67  H    0.054737
    68  H    0.043897
    69  H    0.042058
    70  H    0.027358
    71  H   -0.004774
    72  H    0.204150
    73  H    0.003261
    74  H    0.030128
    75  H    0.025055
    76  H   -0.001752
    77  H    0.133711
    78  H    0.019382
    79  H   -0.020204
 Sum of Mulliken charges =   0.00000
 Mulliken charges with hydrogens summed into heavy atoms:
               1
     1  O   -0.217683
     2  O   -0.078403
     3  O   -0.199879
     4  O   -0.063621
     5  O   -0.152732
     6  O   -0.207015
     7  N    0.098476
     8  N   -0.032049
     9  N    0.041400
    10  N   -0.315897
    11  C    0.137466
    12  C    0.117128
    13  C   -0.120979
    14  C   -0.047451
    15  C   -0.111105
    16  C    0.048252
    17  C   -0.162843
    18  C    0.137243
    19  C   -0.108546
    20  C   -0.105362
    21  C    0.131493
    22  C    0.189814
    23  C   -0.111110
    24  C    0.055460
    25  C    0.147916
    26  C   -0.100015
    27  C    0.049811
    28  C    0.118716
    29  C    0.184540
    30  C    0.017218
    31  C    0.059766
    32  C    0.128783
    33  C   -0.095164
    34  C    0.158919
    35  C    0.072698
    36  C    0.018182
    37  C    0.136103
    38  C    0.099632
    39  C   -0.172781
    40  C    0.164369
    41  C   -0.077321
    42  C    0.173967
    43  C   -0.007397
 Electronic spatial extent (au):  <R**2>=          32447.5510
 Charge=              0.0000 electrons
 Dipole moment (field-independent basis, Debye):
    X=              0.5531    Y=              2.0184    Z=              1.7687  Tot=              2.7401
 Quadrupole moment (field-independent basis, Debye-Ang):
   XX=           -226.4999   YY=           -252.2591   ZZ=           -266.6826
   XY=             -2.8921   XZ=             31.7735   YZ=              6.4687
 Traceless Quadrupole moment (field-independent basis, Debye-Ang):
   XX=             21.9806   YY=             -3.7786   ZZ=            -18.2020
   XY=             -2.8921   XZ=             31.7735   YZ=              6.4687
 Octapole moment (field-independent basis, Debye-Ang**2):
  XXX=            -51.0330  YYY=             48.0004  ZZZ=             82.7000  XYY=            -60.4692
  XXY=            -76.3442  XXZ=             51.2184  XZZ=            -92.7294  YZZ=             -4.3416
  YYZ=             41.0988  XYZ=              9.1225
 Hexadecapole moment (field-independent basis, Debye-Ang**3):
 XXXX=         -24256.8064 YYYY=         -12538.9195 ZZZZ=          -5203.7987 XXXY=             92.1403
 XXXZ=            559.6995 YYYX=            215.1599 YYYZ=            712.8297 ZZZX=             19.6085
 ZZZY=            -96.6956 XXYY=          -6068.7941 XXZZ=          -5440.0719 YYZZ=          -2904.0689
 XXYZ=            -27.7321 YYXZ=             68.6427 ZZXY=            136.9857
 N-N= 4.905215180245D+03 E-N=-1.433811940609D+04  KE= 1.926775442986D+03
 1\1\GINC-PEDRO-RYZENSSD\SP\RB3LYP TD-FC\SVP\C33H36N4O6\PADAWAN\09-Jul-
 2019\0\\# td=(NStates=1) B3LYP/SVP\\TD\\0,1\O,0,-5.3085362154,0.310295
 1445,-3.4164444772\O,0,2.6630931354,3.2129270161,3.4199682612\O,0,3.17
 51182496,0.9587108802,3.1824802092\O,0,1.6928134172,-7.097735678,1.785
 8089907\O,0,0.7588626357,-7.2146723712,-0.3327072019\O,0,2.0710905684,
 3.9550684738,0.1222704914\N,0,-2.32247285,-0.8808930959,0.6696334904\N
 ,0,-4.4604599499,0.7065249011,-1.2937513072\N,0,1.8176514922,-0.711513
 1323,-0.5154129794\N,0,2.6916304334,1.7797264227,-0.5631437894\C,0,-4.
 7773499813,1.2232125007,-0.0377633198\C,0,-4.4065552609,0.1924456623,1
 .1579378545\C,0,-2.9313365899,0.0660914915,1.3802433644\C,0,-1.9850735
 517,0.6210942564,2.1776185601\C,0,-0.7267465622,0.0106125028,1.7771664
 788\C,0,-1.0009244674,-0.9775828674,0.8211088192\C,0,-6.301836281,1.36
 60783637,-0.130891503\C,0,0.5669401773,0.3783357567,2.4587005389\C,0,-
 6.7003424659,0.9391262178,-1.3908999477\C,0,-0.2363293749,-1.851130414
 1,0.0473119069\C,0,1.0196948807,-1.8318456972,-0.3767664698\C,0,-5.422
 1702751,0.7325429475,-2.2795173925\C,0,1.8461704869,-2.9570392799,-0.9
 345087675\C,0,-2.109137655,1.6247342054,3.2668953295\C,0,-7.1424962418
 ,1.8851140474,0.9288534992\C,0,3.0729028186,-2.3636483891,-1.355406697
 8\C,0,0.9281195846,1.8122443666,2.3614613645\C,0,3.0886054015,-0.99182
 86223,-1.068150446\C,0,1.3996154994,-4.3773821178,-0.925981072\C,0,-8.
 0320799289,0.9341579802,-2.0613908611\C,0,1.6973914292,-5.1286991123,0
 .4377601025\C,0,4.2203297494,-3.1453758034,-1.9295049479\C,0,4.0942183
 64,-0.0367020084,-1.2669468898\C,0,2.4109637118,1.8579499693,3.0154814
 532\C,0,3.7891234382,1.3122004763,-1.1631220829\C,0,-9.3045286259,0.96
 15339972,-1.6330420668\C,0,1.3035176602,-6.6132700565,0.5018109738\C,0
 ,4.7245265176,2.4120532603,-1.516085335\C,0,4.1304486794,3.6435685171,
 -1.0882683981\C,0,2.8206708231,3.2199836998,-0.5017287199\C,0,6.008828
 8873,2.1781996914,-2.1248840172\C,0,4.3425150449,5.0848400012,-1.19364
 20361\C,0,6.9509626477,3.1533417556,-2.5318678549\H,0,-4.4054985006,2.
 255840629,0.3516647085\H,0,-5.0515935885,-0.6677517663,1.1974909974\H,
 0,-4.6163417534,0.644318661,2.1677789124\H,0,-2.9328006905,-1.19043590
 11,-0.1346658579\H,0,-3.5327189652,0.553458422,-1.4424214394\H,0,0.349
 9215765,0.147584732,3.4767930115\H,0,1.5918476288,-0.0932392079,2.2869
 870191\H,0,-0.8965901515,-2.8527732406,0.0775075692\H,0,-3.2885510071,
 2.103236909,3.0081969873\H,0,-1.9680116606,1.0141800455,4.4217719018\H
 ,0,-1.2229350928,2.6009987357,3.3008622402\H,0,-6.4014440395,2.0992888
 81,1.9738054993\H,0,-7.9917118795,0.8884551739,1.1949819208\H,0,-7.652
 8137727,2.8199041605,0.3177807753\H,0,1.0366358449,2.1487774857,1.3107
 210797\H,0,0.3989639365,2.6120792957,2.6997003245\H,0,1.3847940977,0.3
 394103312,-0.6959818243\H,0,2.0286311217,-4.822247748,-1.8214802102\H,
 0,0.4384919296,-4.4339633097,-1.1301857883\H,0,-7.7597513001,0.7895415
 882,-3.1232732393\H,0,1.1700099411,-4.6062349278,1.2575554431\H,0,2.77
 50485478,-5.0992864076,0.7548994283\H,0,4.0627407179,-4.1563731658,-2.
 6688959422\H,0,4.9427063921,-3.328061687,-1.1319181133\H,0,4.570334129
 7,-2.3263546911,-2.77107743\H,0,4.9891717243,-0.3730214109,-2.09613630
 18\H,0,-9.5581053327,1.3951104082,-0.5965403402\H,0,-10.0856367288,0.7
 638907675,-2.2211718589\H,0,3.6645328847,3.1333559042,3.793527535\H,0,
 6.5613611417,1.2406682733,-2.1972972329\H,0,4.4255835686,5.5255856506,
 -2.1980568607\H,0,3.7227702811,5.5523523051,-0.4754706303\H,0,5.384400
 2115,5.4030567603,-0.9189836465\H,0,1.2009476333,-7.8640676493,1.74992
 46656\H,0,7.9743987217,2.899707277,-2.7056893311\H,0,6.7481462589,4.12
 55101223,-2.6906719563\\Version=ES64L-G09RevD.01\State=1-A\HF=-1947.73
 2968\RMSD=9.891e-09\PG=C01 [X(C33H36N4O6)]\\@


 I DO NOT KNOW WHAT I MAY APPEAR TO THE WORLD; BUT TO MYSELF
 I SEEM TO HAVE BEEN ONLY LIKE A BOY PLAYING ON THE SEASHORE,
 AND DIVERTING MYSELF IN NOW AND THEN FINDING A SMOOTHER PEBBLE
 OR A PRETTIER SHELL THAN ORDINARY, WHILST THE GREAT OCEAN OF
 TRUTH LAY ALL UNDISCOVERED BEFORE ME.
                                          -- NEWTON (1642-1726)
 Job cpu time:       0 days  4 hours 28 minutes 15.1 seconds.
 File lengths (MBytes):  RWF=    769 Int=      0 D2E=      0 Chk=     58 Scr=      1
 Normal termination of Gaussian 09 at Tue Jul  9 07:30:54 2019.
