 Entering Gaussian System, Link 0=g16
 Input=Geometria-150-.com
 Output=Geometria-150-.log
 Initial command:
 /usr/local/g09/l1.exe "/home/padawan/israel-mol/dihydrobiliverdin/spectra/abs/Gau-47521.inp" -scrdir="/home/padawan/israel-mol/dihydrobiliverdin/spectra/abs/"
 Entering Link 1 = /usr/local/g09/l1.exe PID=     47523.
  
 Copyright (c) 1988,1990,1992,1993,1995,1998,2003,2009,2013,
            Gaussian, Inc.  All Rights Reserved.
  
 This is part of the Gaussian(R) 09 program.  It is based on
 the Gaussian(R) 03 system (copyright 2003, Gaussian, Inc.),
 the Gaussian(R) 98 system (copyright 1998, Gaussian, Inc.),
 the Gaussian(R) 94 system (copyright 1995, Gaussian, Inc.),
 the Gaussian 92(TM) system (copyright 1992, Gaussian, Inc.),
 the Gaussian 90(TM) system (copyright 1990, Gaussian, Inc.),
 the Gaussian 88(TM) system (copyright 1988, Gaussian, Inc.),
 the Gaussian 86(TM) system (copyright 1986, Carnegie Mellon
 University), and the Gaussian 82(TM) system (copyright 1983,
 Carnegie Mellon University). Gaussian is a federally registered
 trademark of Gaussian, Inc.
  
 This software contains proprietary and confidential information,
 including trade secrets, belonging to Gaussian, Inc.
  
 This software is provided under written license and may be
 used, copied, transmitted, or stored only in accord with that
 written license.
  
 The following legend is applicable only to US Government
 contracts under FAR:
  
                    RESTRICTED RIGHTS LEGEND
  
 Use, reproduction and disclosure by the US Government is
 subject to restrictions as set forth in subparagraphs (a)
 and (c) of the Commercial Computer Software - Restricted
 Rights clause in FAR 52.227-19.
  
 Gaussian, Inc.
 340 Quinnipiac St., Bldg. 40, Wallingford CT 06492
  
  
 ---------------------------------------------------------------
 Warning -- This program may not be used in any manner that
 competes with the business of Gaussian, Inc. or will provide
 assistance to any competitor of Gaussian, Inc.  The licensee
 of this program is prohibited from giving any competitor of
 Gaussian, Inc. access to this program.  By using this program,
 the user acknowledges that Gaussian, Inc. is engaged in the
 business of creating and licensing software in the field of
 computational chemistry and represents and warrants to the
 licensee that it is not a competitor of Gaussian, Inc. and that
 it will not use this program in any manner prohibited above.
 ---------------------------------------------------------------
  

 Cite this work as:
 Gaussian 09, Revision D.01,
 M. J. Frisch, G. W. Trucks, H. B. Schlegel, G. E. Scuseria, 
 M. A. Robb, J. R. Cheeseman, G. Scalmani, V. Barone, B. Mennucci, 
 G. A. Petersson, H. Nakatsuji, M. Caricato, X. Li, H. P. Hratchian, 
 A. F. Izmaylov, J. Bloino, G. Zheng, J. L. Sonnenberg, M. Hada, 
 M. Ehara, K. Toyota, R. Fukuda, J. Hasegawa, M. Ishida, T. Nakajima, 
 Y. Honda, O. Kitao, H. Nakai, T. Vreven, J. A. Montgomery, Jr., 
 J. E. Peralta, F. Ogliaro, M. Bearpark, J. J. Heyd, E. Brothers, 
 K. N. Kudin, V. N. Staroverov, T. Keith, R. Kobayashi, J. Normand, 
 K. Raghavachari, A. Rendell, J. C. Burant, S. S. Iyengar, J. Tomasi, 
 M. Cossi, N. Rega, J. M. Millam, M. Klene, J. E. Knox, J. B. Cross, 
 V. Bakken, C. Adamo, J. Jaramillo, R. Gomperts, R. E. Stratmann, 
 O. Yazyev, A. J. Austin, R. Cammi, C. Pomelli, J. W. Ochterski, 
 R. L. Martin, K. Morokuma, V. G. Zakrzewski, G. A. Voth, 
 P. Salvador, J. J. Dannenberg, S. Dapprich, A. D. Daniels, 
 O. Farkas, J. B. Foresman, J. V. Ortiz, J. Cioslowski, 
 and D. J. Fox, Gaussian, Inc., Wallingford CT, 2013.
 
 ******************************************
 Gaussian 09:  ES64L-G09RevD.01 24-Apr-2013
                 8-Jul-2019 
 ******************************************
 %nproc=4
 Will use up to    4 processors via shared memory.
 %Mem=2GB
 --------------------------
 # td=(NStates=1) B3LYP/SVP
 --------------------------
 1/38=1/1;
 2/12=2,17=6,18=5,40=1/2;
 3/5=18,7=101,11=9,16=1,25=1,30=1,74=-5/1,2,8,3;
 4//1;
 5/5=2,38=5/2;
 8/6=1,10=1,108=1/1;
 9/41=1,42=1,70=2/14;
 6/7=2,8=2,9=2,10=2/1;
 99/5=1,9=1/99;
 --
 TD
 --
 Symbolic Z-matrix:
 Charge =  0 Multiplicity = 1
 8                    -5.1766    0.25059  -3.43663 
 8                     2.85643   3.07115   3.36156 
 8                     3.31509   0.88907   3.15387 
 8                     1.471    -7.26075   1.60444 
 8                     0.61868  -7.20812  -0.40938 
 8                     1.7471    4.01528  -0.11799 
 7                    -2.34826  -0.93099   0.57099 
 7                    -4.31392   0.76848  -1.29526 
 7                     1.77897  -0.72796  -0.35861 
 7                     2.58492   1.83041  -0.5054 
 6                    -4.68336   1.31322  -0.07678 
 6                    -4.41243   0.40408   1.14263 
 6                    -2.90289  -0.02341   1.2945 
 6                    -2.00656   0.622     2.14338 
 6                    -0.75192   0.03939   1.7889 
 6                    -1.01334  -0.98337   0.81121 
 6                    -6.24015   1.46462  -0.24427 
 6                     0.59013   0.26913   2.43511 
 6                    -6.6195    1.04329  -1.45455 
 6                    -0.2173   -2.04473   0.26686 
 6                     1.07447  -1.89937  -0.25676 
 6                    -5.34358   0.56169  -2.24403 
 6                     1.90387  -2.99037  -0.84765 
 6                    -2.22248   1.73179   3.14499 
 6                    -7.06284   1.96947   0.91734 
 6                     3.0708   -2.41093  -1.19382 
 6                     1.19642   1.61941   2.50352 
 6                     3.07294  -0.99277  -0.95991 
 6                     1.41199  -4.38041  -0.86633 
 6                    -7.90382   0.9481   -2.04558 
 6                     1.68489  -5.10856   0.50526 
 6                     4.32776  -3.03295  -1.6967 
 6                     4.00805   0.02691  -1.29042 
 6                     2.52683   1.79213   3.04637 
 6                     3.69564   1.37824  -1.09665 
 6                    -9.11245   0.8747   -1.48567 
 6                     1.26689  -6.61646   0.49614 
 6                     4.61093   2.56502  -1.52817 
 6                     3.90317   3.6485   -1.10769 
 6                     2.65832   3.24648  -0.53208 
 6                     5.96171   2.43275  -2.08154 
 6                     4.46503   5.04772  -1.13043 
 6                     6.6364    3.34165  -2.74254 
 1                    -4.28487   2.28702   0.03608 
 1                    -5.01519  -0.4285    0.90609 
 1                    -4.87382   0.9624    1.98448 
 1                    -2.73609  -1.23315  -0.31725 
 1                    -3.3047    0.79826  -1.69975 
 1                     0.45564  -0.31484   3.33389 
 1                     1.33517  -0.373     1.86812 
 1                    -0.73328  -2.93586   0.09833 
 1                    -3.11044   1.83759   3.56321 
 1                    -1.54814   1.59812   4.02604 
 1                    -1.69677   2.51087   2.63889 
 1                    -6.60914   2.54512   1.27751 
 1                    -7.32067   1.20149   1.76789 
 1                    -8.18316   2.32135   0.52349 
 1                     1.00763   2.12984   1.3434 
 1                     0.57477   2.02312   3.25467 
 1                     1.44172   0.24562  -0.26363 
 1                     2.07638  -4.9997   -1.62576 
 1                     0.37393  -4.5045   -1.39072 
 1                    -7.8273    0.89093  -3.14029 
 1                     1.09547  -4.50923   1.32025 
 1                     2.81243  -5.15883   0.92544 
 1                     4.40402  -4.25036  -1.98371 
 1                     5.14693  -3.00547  -1.13735 
 1                     4.36707  -2.63253  -2.74461 
 1                     4.92026  -0.32469  -1.70083 
 1                    -9.27421   1.03724  -0.53104 
 1                    -10.00638   0.93411  -2.01383 
 1                     3.86338   3.00441   3.37691 
 1                     6.26067   1.34826  -1.95316 
 1                     4.36645   5.24561  -2.1059 
 1                     3.96631   5.72375  -0.5207 
 1                     5.51997   4.9618   -0.95445 
 1                     1.27626  -8.33495   1.6782 
 1                     7.53544   3.08721  -3.19078 
 1                     6.19977   4.27811  -3.02566 
 
 Stoichiometry    C33H36N4O6
 Framework group  C1[X(C33H36N4O6)]
 Deg. of freedom   231
 Full point group                 C1      NOp   1
 Largest Abelian subgroup         C1      NOp   1
 Largest concise Abelian subgroup C1      NOp   1
                         Standard orientation:                         
 ---------------------------------------------------------------------
 Center     Atomic      Atomic             Coordinates (Angstroms)
 Number     Number       Type             X           Y           Z
 ---------------------------------------------------------------------
      1          8           0        5.203301   -0.213936   -3.399182
      2          8           0       -2.802232   -3.054387    3.423125
      3          8           0       -3.310738   -0.889560    3.158701
      4          8           0       -1.649184    7.260717    1.417067
      5          8           0       -0.783705    7.178418   -0.590142
      6          8           0       -1.650026   -4.057864   -0.025755
      7          7           0        2.323820    0.999307    0.562298
      8          7           0        4.340085   -0.698914   -1.250336
      9          7           0       -1.791804    0.675901   -0.384482
     10          7           0       -2.536561   -1.903649   -0.471969
     11          6           0        4.714848   -1.204456   -0.016677
     12          6           0        4.415276   -0.272069    1.178232
     13          6           0        2.895233    0.123264    1.311184
     14          6           0        2.009182   -0.521939    2.170944
     15          6           0        0.743377    0.021929    1.795236
     16          6           0        0.986611    1.026071    0.793843
     17          6           0        6.275747   -1.323133   -0.171852
     18          6           0       -0.596791   -0.223398    2.439626
     19          6           0        6.652412   -0.923036   -1.390145
     20          6           0        0.169176    2.054531    0.218922
     21          6           0       -1.115635    1.865786   -0.307972
     22          6           0        5.370328   -0.491394   -2.198325
     23          6           0       -1.966833    2.921933   -0.930339
     24          6           0        2.245047   -1.601193    3.201028
     25          6           0        7.103027   -1.779512    1.006439
     26          6           0       -3.117728    2.306700   -1.268351
     27          6           0       -1.171606   -1.585508    2.538298
     28          6           0       -3.087984    0.895103   -0.999242
     29          6           0       -1.507623    4.322316   -0.980909
     30          6           0        7.937684   -0.812190   -1.976343
     31          6           0       -1.805833    5.077529    0.370621
     32          6           0       -4.385883    2.886220   -1.793407
     33          6           0       -3.996875   -0.154252   -1.309378
     34          6           0       -2.500849   -1.776130    3.078015
     35          6           0       -3.654003   -1.492609   -1.080339
     36          6           0        9.140854   -0.696422   -1.411841
     37          6           0       -1.423311    6.594198    0.326271
     38          6           0       -4.538541   -2.710995   -1.487189
     39          6           0       -3.808090   -3.766717   -1.036027
     40          6           0       -2.576533   -3.321279   -0.463812
     41          6           0       -5.888694   -2.624403   -2.051048
     42          6           0       -4.336795   -5.178951   -1.027008
     43          6           0       -6.537846   -3.565071   -2.692901
     44          1           0        4.338654   -2.184309    0.118201
     45          1           0        4.999744    0.568404    0.924349
     46          1           0        4.884554   -0.798334    2.036223
     47          1           0        2.709815    1.288474   -0.331063
     48          1           0        3.334307   -0.762529   -1.659459
     49          1           0       -0.481485    0.385654    3.324319
     50          1           0       -1.353262    0.386727    1.852773
     51          1           0        0.665105    2.953160    0.031087
     52          1           0        3.132706   -1.675601    3.626592
     53          1           0        1.562442   -1.461723    4.074784
     54          1           0        1.740846   -2.404755    2.711600
     55          1           0        6.660807   -2.356632    1.378332
     56          1           0        7.337615   -0.984838    1.839009
     57          1           0        8.233659   -2.114469    0.627587
     58          1           0       -0.963881   -2.119887    1.392294
     59          1           0       -0.545204   -1.955714    3.302643
     60          1           0       -1.432370   -0.286797   -0.263469
     61          1           0       -2.181768    4.906749   -1.759133
     62          1           0       -0.469611    4.457877   -1.502556
     63          1           0        7.866462   -0.783953   -3.072544
     64          1           0       -1.207442    4.512639    1.203482
     65          1           0       -2.936764    5.111536    0.783258
     66          1           0       -4.488975    4.094011   -2.111027
     67          1           0       -5.207543    2.853241   -1.238024
     68          1           0       -4.409449    2.459165   -2.831232
     69          1           0       -4.914597    0.165438   -1.733381
     70          1           0        9.300611   -0.831432   -0.452600
     71          1           0       10.039107   -0.747752   -1.933475
     72          1           0       -3.810546   -3.011094    3.431306
     73          1           0       -6.213803   -1.544437   -1.951328
     74          1           0       -4.227702   -5.398536   -1.996702
     75          1           0       -3.826041   -5.827719   -0.397932
     76          1           0       -5.394512   -5.113654   -0.858984
     77          1           0       -1.480164    8.340716    1.465136
     78          1           0       -7.439891   -3.343106   -3.152234
     79          1           0       -6.077645   -4.497669   -2.950242
 ---------------------------------------------------------------------
 Rotational constants (GHZ):      0.0728667      0.0456037      0.0349139
 Standard basis: SVP (5D, 7F)
 There are   825 symmetry adapted cartesian basis functions of A   symmetry.
 There are   782 symmetry adapted basis functions of A   symmetry.
   782 basis functions,  1327 primitive gaussians,   825 cartesian basis functions
   155 alpha electrons      155 beta electrons
       nuclear repulsion energy      4931.6659607005 Hartrees.
 NAtoms=   79 NActive=   79 NUniq=   79 SFac= 1.00D+00 NAtFMM=   60 NAOKFM=T Big=T
 Integral buffers will be    131072 words long.
 Regular integral format.
 Two-electron integral symmetry is turned on.
 One-electron integrals computed using PRISM.
 NBasis=   782 RedAO= T EigKep=  3.48D-04  NBF=   782
 NBsUse=   782 1.00D-06 EigRej= -1.00D+00 NBFU=   782
 ExpMin= 1.22D-01 ExpMax= 2.27D+03 ExpMxC= 3.41D+02 IAcc=1 IRadAn=         1 AccDes= 0.00D+00
 Harris functional with IExCor=  402 and IRadAn=       1 diagonalized for initial guess.
 HarFok:  IExCor=  402 AccDes= 0.00D+00 IRadAn=         1 IDoV= 1 UseB2=F ITyADJ=14
 ICtDFT=  3500011 ScaDFX=  1.000000  1.000000  1.000000  1.000000
 FoFCou: FMM=F IPFlag=           0 FMFlag=      100000 FMFlg1=        2001
         NFxFlg=           0 DoJE=T BraDBF=F KetDBF=T FulRan=T
         wScrn=  0.000000 ICntrl=     500 IOpCl=  0 I1Cent=   200000004 NGrid=           0
         NMat0=    1 NMatS0=      1 NMatT0=    0 NMatD0=    1 NMtDS0=    0 NMtDT0=    0
 Petite list used in FoFCou.
 Requested convergence on RMS density matrix=1.00D-08 within 128 cycles.
 Requested convergence on MAX density matrix=1.00D-06.
 Requested convergence on             energy=1.00D-06.
 No special actions if energy rises.
 Integral accuracy reduced to 1.0D-05 until final iterations.
 Initial convergence to 1.0D-05 achieved.  Increase integral accuracy.
 SCF Done:  E(RB3LYP) =  -1947.78036100     A.U. after   17 cycles
            NFock= 17  Conv=0.37D-08     -V/T= 2.0100
 DoSCS=F DFT=T ScalE2(SS,OS)=  1.000000  1.000000
 ExpMin= 1.22D-01 ExpMax= 2.27D+03 ExpMxC= 3.41D+02 IAcc=3 IRadAn=         5 AccDes= 0.00D+00
 HarFok:  IExCor=  205 AccDes= 0.00D+00 IRadAn=         5 IDoV=-2 UseB2=F ITyADJ=14
 ICtDFT= 12500011 ScaDFX=  1.000000  1.000000  1.000000  1.000000
 Range of M.O.s used for correlation:    44   782
 NBasis=   782 NAE=   155 NBE=   155 NFC=    43 NFV=     0
 NROrb=    739 NOA=   112 NOB=   112 NVA=   627 NVB=   627

 **** Warning!!: The smallest alpha delta epsilon is  0.78642252D-01

 Would need an additional        140608300000 words for in-memory AO integral storage.
 Orbital symmetries:
       Occupied  (A) (A) (A) (A) (A) (A) (A) (A) (A) (A) (A) (A)
                 (A) (A) (A) (A) (A) (A) (A) (A) (A) (A) (A) (A)
                 (A) (A) (A) (A) (A) (A) (A) (A) (A) (A) (A) (A)
                 (A) (A) (A) (A) (A) (A) (A) (A) (A) (A) (A) (A)
                 (A) (A) (A) (A) (A) (A) (A) (A) (A) (A) (A) (A)
                 (A) (A) (A) (A) (A) (A) (A) (A) (A) (A) (A) (A)
                 (A) (A) (A) (A) (A) (A) (A) (A) (A) (A) (A) (A)
                 (A) (A) (A) (A) (A) (A) (A) (A) (A) (A) (A) (A)
                 (A) (A) (A) (A) (A) (A) (A) (A) (A) (A) (A) (A)
                 (A) (A) (A) (A) (A) (A) (A) (A) (A) (A) (A) (A)
                 (A) (A) (A) (A) (A) (A) (A) (A) (A) (A) (A) (A)
                 (A) (A) (A) (A) (A) (A) (A) (A) (A) (A) (A) (A)
                 (A) (A) (A) (A) (A) (A) (A) (A) (A) (A) (A)
       Virtual   (A) (A) (A) (A) (A) (A) (A) (A) (A) (A) (A) (A)
                 (A) (A) (A) (A) (A) (A) (A) (A) (A) (A) (A) (A)
                 (A) (A) (A) (A) (A) (A) (A) (A) (A) (A) (A) (A)
                 (A) (A) (A) (A) (A) (A) (A) (A) (A) (A) (A) (A)
                 (A) (A) (A) (A) (A) (A) (A) (A) (A) (A) (A) (A)
                 (A) (A) (A) (A) (A) (A) (A) (A) (A) (A) (A) (A)
                 (A) (A) (A) (A) (A) (A) (A) (A) (A) (A) (A) (A)
                 (A) (A) (A) (A) (A) (A) (A) (A) (A) (A) (A) (A)
                 (A) (A) (A) (A) (A) (A) (A) (A) (A) (A) (A) (A)
                 (A) (A) (A) (A) (A) (A) (A) (A) (A) (A) (A) (A)
                 (A) (A) (A) (A) (A) (A) (A) (A) (A) (A) (A) (A)
                 (A) (A) (A) (A) (A) (A) (A) (A) (A) (A) (A) (A)
                 (A) (A) (A) (A) (A) (A) (A) (A) (A) (A) (A) (A)
                 (A) (A) (A) (A) (A) (A) (A) (A) (A) (A) (A) (A)
                 (A) (A) (A) (A) (A) (A) (A) (A) (A) (A) (A) (A)
                 (A) (A) (A) (A) (A) (A) (A) (A) (A) (A) (A) (A)
                 (A) (A) (A) (A) (A) (A) (A) (A) (A) (A) (A) (A)
                 (A) (A) (A) (A) (A) (A) (A) (A) (A) (A) (A) (A)
                 (A) (A) (A) (A) (A) (A) (A) (A) (A) (A) (A) (A)
                 (A) (A) (A) (A) (A) (A) (A) (A) (A) (A) (A) (A)
                 (A) (A) (A) (A) (A) (A) (A) (A) (A) (A) (A) (A)
                 (A) (A) (A) (A) (A) (A) (A) (A) (A) (A) (A) (A)
                 (A) (A) (A) (A) (A) (A) (A) (A) (A) (A) (A) (A)
                 (A) (A) (A) (A) (A) (A) (A) (A) (A) (A) (A) (A)
                 (A) (A) (A) (A) (A) (A) (A) (A) (A) (A) (A) (A)
                 (A) (A) (A) (A) (A) (A) (A) (A) (A) (A) (A) (A)
                 (A) (A) (A) (A) (A) (A) (A) (A) (A) (A) (A) (A)
                 (A) (A) (A) (A) (A) (A) (A) (A) (A) (A) (A) (A)
                 (A) (A) (A) (A) (A) (A) (A) (A) (A) (A) (A) (A)
                 (A) (A) (A) (A) (A) (A) (A) (A) (A) (A) (A) (A)
                 (A) (A) (A) (A) (A) (A) (A) (A) (A) (A) (A) (A)
                 (A) (A) (A) (A) (A) (A) (A) (A) (A) (A) (A) (A)
                 (A) (A) (A) (A) (A) (A) (A) (A) (A) (A) (A) (A)
                 (A) (A) (A) (A) (A) (A) (A) (A) (A) (A) (A) (A)
                 (A) (A) (A) (A) (A) (A) (A) (A) (A) (A) (A) (A)
                 (A) (A) (A) (A) (A) (A) (A) (A) (A) (A) (A) (A)
                 (A) (A) (A) (A) (A) (A) (A) (A) (A) (A) (A) (A)
                 (A) (A) (A) (A) (A) (A) (A) (A) (A) (A) (A) (A)
                 (A) (A) (A) (A) (A) (A) (A) (A) (A) (A) (A) (A)
                 (A) (A) (A) (A) (A) (A) (A) (A) (A) (A) (A) (A)
                 (A) (A) (A) (A) (A) (A) (A) (A) (A) (A) (A) (A)
                 (A) (A) (A) (A) (A) (A) (A) (A) (A) (A) (A) (A)
                 (A) (A) (A) (A) (A) (A) (A) (A) (A) (A) (A) (A)
                 (A) (A) (A) (A) (A) (A) (A) (A) (A) (A) (A) (A)
                 (A) (A) (A) (A) (A) (A) (A) (A) (A) (A) (A) (A)
                 (A) (A) (A) (A) (A) (A) (A) (A) (A) (A) (A) (A)
                 (A) (A) (A) (A) (A) (A) (A) (A) (A) (A) (A) (A)
                 (A) (A) (A) (A) (A) (A) (A) (A) (A) (A) (A) (A)
                 (A) (A) (A) (A) (A) (A) (A) (A) (A) (A) (A) (A)
                 (A) (A) (A) (A) (A) (A) (A) (A) (A) (A) (A) (A)
                 (A) (A) (A) (A) (A) (A) (A) (A) (A) (A) (A) (A)
                 (A) (A) (A) (A) (A) (A) (A) (A) (A) (A) (A) (A)
                 (A) (A) (A)
     8 initial guesses have been made.
 Convergence on wavefunction:    0.001000000000000
 Iteration     1 Dimension     8 NMult     0 NNew      8
 CISAX will form     8 AO SS matrices at one time.
 Iteration     2 Dimension    12 NMult     8 NNew      4
 Iteration     3 Dimension    16 NMult    12 NNew      4
 Iteration     4 Dimension    20 NMult    16 NNew      4
 Iteration     5 Dimension    24 NMult    20 NNew      4
 Iteration     6 Dimension    28 NMult    24 NNew      4
 ***********************************************************************
 Excited states from <AA,BB:AA,BB> singles matrix:
 ***********************************************************************
 
 Ground to excited state transition densities written to RWF  633
 Ground to excited state transition electric dipole moments (Au):
       state          X           Y           Z        Dip. S.      Osc.
         1        -2.5510     -1.2172     -0.9428      8.8782      0.4441
 Ground to excited state transition velocity dipole moments (Au):
       state          X           Y           Z        Dip. S.      Osc.
         1         0.1846      0.0829      0.0701      0.0459      0.4076
 Ground to excited state transition magnetic dipole moments (Au):
       state          X           Y           Z
         1         0.8045     -0.0361     -1.5929
 Ground to excited state transition velocity quadrupole moments (Au):
       state          XX          YY          ZZ          XY          XZ          YZ
         1        -0.2824     -0.5032      0.0901     -0.6578     -0.3402     -0.2074
 <0|del|b> * <b|rxdel|0> + <0|del|b> * <b|delr+rdel|0>
 Rotatory Strengths (R) in cgs (10**-40 erg-esu-cm/Gauss)
       state          XX          YY          ZZ    R(velocity)    E-M Angle
         1      -624.6340    210.7375    733.5635    106.5557       84.91
 1/2[<0|r|b>*<b|rxdel|0> + (<0|rxdel|b>*<b|r|0>)*]
 Rotatory Strengths (R) in cgs (10**-40 erg-esu-cm/Gauss)
       state          XX          YY          ZZ     R(length)
         1      1451.3493    -31.1049  -1062.0071    119.4124
  1/2[<0|del|b>*<b|r|0> + (<0|r|b>*<b|del|0>)*] (Au)
       state          X           Y           Z        Dip. S.   Osc.(frdel)
         1        -0.4710     -0.1008     -0.0661      0.6380      0.4253

 Excitation energies and oscillator strengths:
 
 Excited State   1:      Singlet-A      2.0417 eV  607.25 nm  f=0.4441  <S**2>=0.000
     155 ->156         0.69936
     155 <-156        -0.12249
 This state for optimization and/or second-order correction.
 Total Energy, E(TD-HF/TD-KS) =  -1947.70532838    
 Copying the excited state density for this state as the 1-particle RhoCI density.
 SavETr:  write IOETrn=   770 NScale= 10 NData=  16 NLR=1 NState=    1 LETran=      28.

 **********************************************************************

            Population analysis using the SCF density.

 **********************************************************************

 Orbital symmetries:
       Occupied  (A) (A) (A) (A) (A) (A) (A) (A) (A) (A) (A) (A)
                 (A) (A) (A) (A) (A) (A) (A) (A) (A) (A) (A) (A)
                 (A) (A) (A) (A) (A) (A) (A) (A) (A) (A) (A) (A)
                 (A) (A) (A) (A) (A) (A) (A) (A) (A) (A) (A) (A)
                 (A) (A) (A) (A) (A) (A) (A) (A) (A) (A) (A) (A)
                 (A) (A) (A) (A) (A) (A) (A) (A) (A) (A) (A) (A)
                 (A) (A) (A) (A) (A) (A) (A) (A) (A) (A) (A) (A)
                 (A) (A) (A) (A) (A) (A) (A) (A) (A) (A) (A) (A)
                 (A) (A) (A) (A) (A) (A) (A) (A) (A) (A) (A) (A)
                 (A) (A) (A) (A) (A) (A) (A) (A) (A) (A) (A) (A)
                 (A) (A) (A) (A) (A) (A) (A) (A) (A) (A) (A) (A)
                 (A) (A) (A) (A) (A) (A) (A) (A) (A) (A) (A) (A)
                 (A) (A) (A) (A) (A) (A) (A) (A) (A) (A) (A)
       Virtual   (A) (A) (A) (A) (A) (A) (A) (A) (A) (A) (A) (A)
                 (A) (A) (A) (A) (A) (A) (A) (A) (A) (A) (A) (A)
                 (A) (A) (A) (A) (A) (A) (A) (A) (A) (A) (A) (A)
                 (A) (A) (A) (A) (A) (A) (A) (A) (A) (A) (A) (A)
                 (A) (A) (A) (A) (A) (A) (A) (A) (A) (A) (A) (A)
                 (A) (A) (A) (A) (A) (A) (A) (A) (A) (A) (A) (A)
                 (A) (A) (A) (A) (A) (A) (A) (A) (A) (A) (A) (A)
                 (A) (A) (A) (A) (A) (A) (A) (A) (A) (A) (A) (A)
                 (A) (A) (A) (A) (A) (A) (A) (A) (A) (A) (A) (A)
                 (A) (A) (A) (A) (A) (A) (A) (A) (A) (A) (A) (A)
                 (A) (A) (A) (A) (A) (A) (A) (A) (A) (A) (A) (A)
                 (A) (A) (A) (A) (A) (A) (A) (A) (A) (A) (A) (A)
                 (A) (A) (A) (A) (A) (A) (A) (A) (A) (A) (A) (A)
                 (A) (A) (A) (A) (A) (A) (A) (A) (A) (A) (A) (A)
                 (A) (A) (A) (A) (A) (A) (A) (A) (A) (A) (A) (A)
                 (A) (A) (A) (A) (A) (A) (A) (A) (A) (A) (A) (A)
                 (A) (A) (A) (A) (A) (A) (A) (A) (A) (A) (A) (A)
                 (A) (A) (A) (A) (A) (A) (A) (A) (A) (A) (A) (A)
                 (A) (A) (A) (A) (A) (A) (A) (A) (A) (A) (A) (A)
                 (A) (A) (A) (A) (A) (A) (A) (A) (A) (A) (A) (A)
                 (A) (A) (A) (A) (A) (A) (A) (A) (A) (A) (A) (A)
                 (A) (A) (A) (A) (A) (A) (A) (A) (A) (A) (A) (A)
                 (A) (A) (A) (A) (A) (A) (A) (A) (A) (A) (A) (A)
                 (A) (A) (A) (A) (A) (A) (A) (A) (A) (A) (A) (A)
                 (A) (A) (A) (A) (A) (A) (A) (A) (A) (A) (A) (A)
                 (A) (A) (A) (A) (A) (A) (A) (A) (A) (A) (A) (A)
                 (A) (A) (A) (A) (A) (A) (A) (A) (A) (A) (A) (A)
                 (A) (A) (A) (A) (A) (A) (A) (A) (A) (A) (A) (A)
                 (A) (A) (A) (A) (A) (A) (A) (A) (A) (A) (A) (A)
                 (A) (A) (A) (A) (A) (A) (A) (A) (A) (A) (A) (A)
                 (A) (A) (A) (A) (A) (A) (A) (A) (A) (A) (A) (A)
                 (A) (A) (A) (A) (A) (A) (A) (A) (A) (A) (A) (A)
                 (A) (A) (A) (A) (A) (A) (A) (A) (A) (A) (A) (A)
                 (A) (A) (A) (A) (A) (A) (A) (A) (A) (A) (A) (A)
                 (A) (A) (A) (A) (A) (A) (A) (A) (A) (A) (A) (A)
                 (A) (A) (A) (A) (A) (A) (A) (A) (A) (A) (A) (A)
                 (A) (A) (A) (A) (A) (A) (A) (A) (A) (A) (A) (A)
                 (A) (A) (A) (A) (A) (A) (A) (A) (A) (A) (A) (A)
                 (A) (A) (A) (A) (A) (A) (A) (A) (A) (A) (A) (A)
                 (A) (A) (A) (A) (A) (A) (A) (A) (A) (A) (A) (A)
                 (A) (A) (A) (A) (A) (A) (A) (A) (A) (A) (A) (A)
                 (A) (A) (A) (A) (A) (A) (A) (A) (A) (A) (A) (A)
                 (A) (A) (A) (A) (A) (A) (A) (A) (A) (A) (A) (A)
                 (A) (A) (A) (A) (A) (A) (A) (A) (A) (A) (A) (A)
                 (A) (A) (A) (A) (A) (A) (A) (A) (A) (A) (A) (A)
                 (A) (A) (A) (A) (A) (A) (A) (A) (A) (A) (A) (A)
                 (A) (A) (A) (A) (A) (A) (A) (A) (A) (A) (A) (A)
                 (A) (A) (A) (A) (A) (A) (A) (A) (A) (A) (A) (A)
                 (A) (A) (A) (A) (A) (A) (A) (A) (A) (A) (A) (A)
                 (A) (A) (A) (A) (A) (A) (A) (A) (A) (A) (A) (A)
                 (A) (A) (A) (A) (A) (A) (A) (A) (A) (A) (A) (A)
                 (A) (A) (A) (A) (A) (A) (A) (A) (A) (A) (A) (A)
                 (A) (A) (A)
 The electronic state is 1-A.
 Alpha  occ. eigenvalues --  -19.19396 -19.16682 -19.11448 -19.11439 -19.10805
 Alpha  occ. eigenvalues --  -19.10179 -14.38698 -14.36583 -14.36457 -14.29171
 Alpha  occ. eigenvalues --  -10.32736 -10.30073 -10.29959 -10.26191 -10.25345
 Alpha  occ. eigenvalues --  -10.24517 -10.24201 -10.24193 -10.23553 -10.23023
 Alpha  occ. eigenvalues --  -10.22708 -10.22399 -10.22300 -10.21706 -10.21528
 Alpha  occ. eigenvalues --  -10.21376 -10.21005 -10.20698 -10.20680 -10.20632
 Alpha  occ. eigenvalues --  -10.20623 -10.19967 -10.19822 -10.19566 -10.19548
 Alpha  occ. eigenvalues --  -10.18933 -10.18858 -10.18818 -10.18735 -10.18679
 Alpha  occ. eigenvalues --  -10.18111 -10.18039 -10.16719  -1.09493  -1.08052
 Alpha  occ. eigenvalues --   -1.01898  -1.01550  -0.99212  -0.98749  -0.97268
 Alpha  occ. eigenvalues --   -0.96841  -0.94896  -0.91295  -0.82890  -0.82687
 Alpha  occ. eigenvalues --   -0.81903  -0.81550  -0.80890  -0.79686  -0.78163
 Alpha  occ. eigenvalues --   -0.77207  -0.77179  -0.76031  -0.75273  -0.72972
 Alpha  occ. eigenvalues --   -0.72815  -0.72021  -0.70078  -0.69683  -0.68339
 Alpha  occ. eigenvalues --   -0.67427  -0.66205  -0.64640  -0.62781  -0.61709
 Alpha  occ. eigenvalues --   -0.60866  -0.59055  -0.58750  -0.58258  -0.57734
 Alpha  occ. eigenvalues --   -0.56812  -0.55460  -0.54921  -0.54246  -0.53784
 Alpha  occ. eigenvalues --   -0.52498  -0.52010  -0.51630  -0.50388  -0.49555
 Alpha  occ. eigenvalues --   -0.48691  -0.48235  -0.47943  -0.47759  -0.47507
 Alpha  occ. eigenvalues --   -0.47050  -0.46970  -0.46685  -0.46391  -0.46181
 Alpha  occ. eigenvalues --   -0.46066  -0.45825  -0.45662  -0.44993  -0.44613
 Alpha  occ. eigenvalues --   -0.44289  -0.43975  -0.43761  -0.43486  -0.43118
 Alpha  occ. eigenvalues --   -0.42493  -0.42095  -0.42010  -0.41547  -0.41165
 Alpha  occ. eigenvalues --   -0.40969  -0.40901  -0.40529  -0.40296  -0.40026
 Alpha  occ. eigenvalues --   -0.39840  -0.39533  -0.39083  -0.38928  -0.38461
 Alpha  occ. eigenvalues --   -0.38230  -0.38079  -0.37004  -0.36653  -0.36505
 Alpha  occ. eigenvalues --   -0.35696  -0.35461  -0.34813  -0.34552  -0.33726
 Alpha  occ. eigenvalues --   -0.33565  -0.33367  -0.32355  -0.31557  -0.31133
 Alpha  occ. eigenvalues --   -0.30972  -0.30776  -0.28817  -0.27320  -0.27079
 Alpha  occ. eigenvalues --   -0.26983  -0.26358  -0.26316  -0.26000  -0.24935
 Alpha  occ. eigenvalues --   -0.24731  -0.24007  -0.23923  -0.22493  -0.18876
 Alpha virt. eigenvalues --   -0.11012  -0.06343  -0.05865  -0.00937  -0.00392
 Alpha virt. eigenvalues --    0.00036   0.00104   0.01151   0.01828   0.03120
 Alpha virt. eigenvalues --    0.03428   0.03699   0.05049   0.05640   0.05728
 Alpha virt. eigenvalues --    0.05960   0.06164   0.06373   0.06879   0.07060
 Alpha virt. eigenvalues --    0.07327   0.08245   0.08472   0.08774   0.09057
 Alpha virt. eigenvalues --    0.09413   0.09876   0.10425   0.10564   0.10933
 Alpha virt. eigenvalues --    0.10993   0.11447   0.12117   0.12374   0.12707
 Alpha virt. eigenvalues --    0.12995   0.13544   0.13850   0.14141   0.14346
 Alpha virt. eigenvalues --    0.14612   0.14863   0.15006   0.15551   0.15897
 Alpha virt. eigenvalues --    0.16503   0.16777   0.17224   0.17612   0.17896
 Alpha virt. eigenvalues --    0.18382   0.18645   0.18679   0.19755   0.19921
 Alpha virt. eigenvalues --    0.20499   0.21002   0.21709   0.22326   0.22563
 Alpha virt. eigenvalues --    0.22697   0.23392   0.23633   0.24239   0.25016
 Alpha virt. eigenvalues --    0.25174   0.25448   0.26057   0.26256   0.26466
 Alpha virt. eigenvalues --    0.26608   0.27446   0.28167   0.28413   0.29048
 Alpha virt. eigenvalues --    0.29619   0.29786   0.30044   0.30768   0.31263
 Alpha virt. eigenvalues --    0.32138   0.32673   0.32912   0.33490   0.33979
 Alpha virt. eigenvalues --    0.34163   0.35486   0.35700   0.36137   0.36526
 Alpha virt. eigenvalues --    0.36742   0.36898   0.37758   0.38051   0.38710
 Alpha virt. eigenvalues --    0.39436   0.40094   0.40462   0.40933   0.41197
 Alpha virt. eigenvalues --    0.41595   0.42460   0.43153   0.43529   0.43944
 Alpha virt. eigenvalues --    0.44337   0.44606   0.44723   0.45096   0.45247
 Alpha virt. eigenvalues --    0.45491   0.45985   0.46214   0.46543   0.47057
 Alpha virt. eigenvalues --    0.47457   0.47506   0.48068   0.48152   0.48626
 Alpha virt. eigenvalues --    0.48798   0.49116   0.49383   0.49705   0.50018
 Alpha virt. eigenvalues --    0.50447   0.50643   0.51023   0.51761   0.51958
 Alpha virt. eigenvalues --    0.52399   0.52862   0.53096   0.53304   0.53518
 Alpha virt. eigenvalues --    0.53786   0.54538   0.54806   0.55236   0.55668
 Alpha virt. eigenvalues --    0.56372   0.56475   0.56890   0.56995   0.57319
 Alpha virt. eigenvalues --    0.57956   0.58396   0.58566   0.58769   0.59070
 Alpha virt. eigenvalues --    0.59440   0.59779   0.60316   0.60569   0.60790
 Alpha virt. eigenvalues --    0.61128   0.61253   0.61628   0.62116   0.62453
 Alpha virt. eigenvalues --    0.62834   0.63303   0.63390   0.63684   0.64131
 Alpha virt. eigenvalues --    0.64192   0.64327   0.64700   0.65268   0.65499
 Alpha virt. eigenvalues --    0.65734   0.65943   0.66333   0.66542   0.66773
 Alpha virt. eigenvalues --    0.67034   0.67143   0.67252   0.67475   0.67694
 Alpha virt. eigenvalues --    0.67978   0.68097   0.68641   0.68884   0.69059
 Alpha virt. eigenvalues --    0.69312   0.69706   0.70121   0.70278   0.70374
 Alpha virt. eigenvalues --    0.70692   0.70847   0.71023   0.71753   0.71883
 Alpha virt. eigenvalues --    0.72153   0.72562   0.72626   0.72892   0.72995
 Alpha virt. eigenvalues --    0.73746   0.73980   0.74397   0.74656   0.75278
 Alpha virt. eigenvalues --    0.75536   0.75940   0.76079   0.76595   0.77241
 Alpha virt. eigenvalues --    0.77814   0.78175   0.78324   0.78423   0.78911
 Alpha virt. eigenvalues --    0.79510   0.79657   0.80674   0.81304   0.81584
 Alpha virt. eigenvalues --    0.82422   0.83262   0.83591   0.83898   0.84662
 Alpha virt. eigenvalues --    0.84968   0.85330   0.85763   0.86325   0.86843
 Alpha virt. eigenvalues --    0.87544   0.88507   0.89233   0.89831   0.90758
 Alpha virt. eigenvalues --    0.91242   0.91570   0.92314   0.92495   0.93231
 Alpha virt. eigenvalues --    0.94307   0.94712   0.95069   0.95443   0.95883
 Alpha virt. eigenvalues --    0.96689   0.97122   0.97563   0.98187   0.98558
 Alpha virt. eigenvalues --    0.99354   0.99399   1.00427   1.01277   1.02098
 Alpha virt. eigenvalues --    1.02499   1.03348   1.03991   1.04189   1.04640
 Alpha virt. eigenvalues --    1.06023   1.06639   1.06940   1.07303   1.08306
 Alpha virt. eigenvalues --    1.09661   1.10036   1.10319   1.10781   1.11607
 Alpha virt. eigenvalues --    1.12388   1.13511   1.13766   1.14251   1.14368
 Alpha virt. eigenvalues --    1.14897   1.15762   1.16483   1.17400   1.17600
 Alpha virt. eigenvalues --    1.17869   1.18539   1.19583   1.20550   1.21003
 Alpha virt. eigenvalues --    1.21151   1.22119   1.22979   1.23577   1.24216
 Alpha virt. eigenvalues --    1.24404   1.24872   1.25242   1.25950   1.26195
 Alpha virt. eigenvalues --    1.26519   1.27054   1.28391   1.29023   1.29916
 Alpha virt. eigenvalues --    1.30183   1.31004   1.31381   1.32527   1.33284
 Alpha virt. eigenvalues --    1.33907   1.34257   1.34425   1.35415   1.35660
 Alpha virt. eigenvalues --    1.36395   1.38182   1.39163   1.40446   1.41071
 Alpha virt. eigenvalues --    1.42249   1.42714   1.43051   1.44230   1.44908
 Alpha virt. eigenvalues --    1.45388   1.45568   1.46695   1.48207   1.48846
 Alpha virt. eigenvalues --    1.49196   1.50116   1.50153   1.50653   1.51364
 Alpha virt. eigenvalues --    1.51856   1.52737   1.53133   1.53321   1.53782
 Alpha virt. eigenvalues --    1.55094   1.55268   1.56456   1.56819   1.57373
 Alpha virt. eigenvalues --    1.57400   1.57677   1.59148   1.59567   1.60179
 Alpha virt. eigenvalues --    1.60605   1.61211   1.62141   1.62572   1.63244
 Alpha virt. eigenvalues --    1.63586   1.63833   1.64392   1.64591   1.64776
 Alpha virt. eigenvalues --    1.65117   1.65509   1.66296   1.66926   1.67230
 Alpha virt. eigenvalues --    1.67864   1.68294   1.68819   1.69186   1.69768
 Alpha virt. eigenvalues --    1.70061   1.70802   1.71096   1.71496   1.71805
 Alpha virt. eigenvalues --    1.72359   1.72535   1.73080   1.73821   1.74154
 Alpha virt. eigenvalues --    1.74540   1.74956   1.75090   1.75606   1.76522
 Alpha virt. eigenvalues --    1.76723   1.77631   1.77973   1.78342   1.78773
 Alpha virt. eigenvalues --    1.79122   1.79387   1.79603   1.80853   1.81032
 Alpha virt. eigenvalues --    1.81060   1.81631   1.81817   1.82284   1.82478
 Alpha virt. eigenvalues --    1.82997   1.83461   1.83543   1.84044   1.84582
 Alpha virt. eigenvalues --    1.84720   1.85375   1.85597   1.85813   1.86328
 Alpha virt. eigenvalues --    1.86561   1.86920   1.87247   1.88023   1.88255
 Alpha virt. eigenvalues --    1.89095   1.89541   1.89929   1.90517   1.90689
 Alpha virt. eigenvalues --    1.91090   1.91601   1.91941   1.92307   1.93464
 Alpha virt. eigenvalues --    1.94012   1.94205   1.94377   1.94693   1.95246
 Alpha virt. eigenvalues --    1.95636   1.96314   1.96611   1.96836   1.97479
 Alpha virt. eigenvalues --    1.98048   1.98354   1.99495   1.99721   2.01155
 Alpha virt. eigenvalues --    2.01996   2.02501   2.02735   2.03322   2.03852
 Alpha virt. eigenvalues --    2.04286   2.04438   2.04783   2.05012   2.05888
 Alpha virt. eigenvalues --    2.07248   2.07359   2.07824   2.08553   2.09262
 Alpha virt. eigenvalues --    2.09650   2.09760   2.10047   2.10696   2.11160
 Alpha virt. eigenvalues --    2.11374   2.11703   2.12562   2.13585   2.14214
 Alpha virt. eigenvalues --    2.14648   2.15162   2.15535   2.15757   2.16249
 Alpha virt. eigenvalues --    2.16998   2.18298   2.18363   2.19692   2.20847
 Alpha virt. eigenvalues --    2.21051   2.21553   2.22079   2.22880   2.23207
 Alpha virt. eigenvalues --    2.24167   2.24797   2.26305   2.26798   2.27311
 Alpha virt. eigenvalues --    2.28703   2.29036   2.29470   2.29741   2.30835
 Alpha virt. eigenvalues --    2.31123   2.32011   2.32341   2.32680   2.33344
 Alpha virt. eigenvalues --    2.34041   2.35534   2.35860   2.36433   2.36874
 Alpha virt. eigenvalues --    2.37211   2.37834   2.38338   2.39258   2.40733
 Alpha virt. eigenvalues --    2.41159   2.42566   2.42815   2.44233   2.44433
 Alpha virt. eigenvalues --    2.44996   2.46075   2.46664   2.47285   2.47553
 Alpha virt. eigenvalues --    2.47900   2.49102   2.49955   2.51024   2.51340
 Alpha virt. eigenvalues --    2.51680   2.53136   2.54734   2.55649   2.56682
 Alpha virt. eigenvalues --    2.57499   2.58583   2.59134   2.60051   2.60985
 Alpha virt. eigenvalues --    2.61346   2.61779   2.62145   2.63268   2.63794
 Alpha virt. eigenvalues --    2.64372   2.64590   2.64807   2.65337   2.65884
 Alpha virt. eigenvalues --    2.66912   2.67237   2.69036   2.69252   2.69354
 Alpha virt. eigenvalues --    2.70254   2.70636   2.71267   2.71496   2.71905
 Alpha virt. eigenvalues --    2.72412   2.73231   2.73767   2.74731   2.75587
 Alpha virt. eigenvalues --    2.76240   2.77018   2.77311   2.77888   2.77952
 Alpha virt. eigenvalues --    2.79189   2.79503   2.79919   2.80273   2.80907
 Alpha virt. eigenvalues --    2.82074   2.82799   2.84037   2.84779   2.85960
 Alpha virt. eigenvalues --    2.86363   2.87013   2.88468   2.89205   2.89533
 Alpha virt. eigenvalues --    2.90767   2.91715   2.92796   2.93658   2.95247
 Alpha virt. eigenvalues --    2.96287   2.96572   2.97788   2.97966   2.98589
 Alpha virt. eigenvalues --    2.98964   2.99629   3.00364   3.01684   3.02370
 Alpha virt. eigenvalues --    3.05253   3.06032   3.06541   3.07385   3.08631
 Alpha virt. eigenvalues --    3.09263   3.09672   3.10810   3.11656   3.12391
 Alpha virt. eigenvalues --    3.13607   3.14308   3.15999   3.17157   3.17816
 Alpha virt. eigenvalues --    3.19109   3.20152   3.21304   3.22347   3.22907
 Alpha virt. eigenvalues --    3.23532   3.25948   3.26700   3.28737   3.30334
 Alpha virt. eigenvalues --    3.38846   3.39213   3.40695   3.45148   3.48947
 Alpha virt. eigenvalues --    3.49598   3.50863   3.51992   3.53701   3.54784
 Alpha virt. eigenvalues --    3.55339   3.62002   3.63319   3.65231   3.66751
 Alpha virt. eigenvalues --    3.76556   3.87971
          Condensed to atoms (all electrons):
 Mulliken charges:
               1
     1  O   -0.235522
     2  O   -0.206200
     3  O   -0.228054
     4  O   -0.213471
     5  O   -0.286721
     6  O   -0.246672
     7  N    0.052554
     8  N   -0.235399
     9  N   -0.124501
    10  N   -0.289675
    11  C    0.081243
    12  C    0.224709
    13  C   -0.157904
    14  C   -0.168837
    15  C   -0.111339
    16  C    0.016450
    17  C   -0.223811
    18  C    0.049505
    19  C   -0.021887
    20  C   -0.078967
    21  C    0.080989
    22  C    0.189517
    23  C   -0.043287
    24  C    0.205803
    25  C    0.242614
    26  C   -0.087478
    27  C    0.032457
    28  C    0.099519
    29  C    0.035768
    30  C   -0.034400
    31  C   -0.074474
    32  C    0.052285
    33  C   -0.088131
    34  C    0.113479
    35  C    0.114350
    36  C    0.060055
    37  C    0.155117
    38  C   -0.003565
    39  C   -0.221067
    40  C    0.158867
    41  C   -0.013250
    42  C    0.217064
    43  C    0.022854
    44  H    0.007633
    45  H   -0.034437
    46  H   -0.000305
    47  H    0.121703
    48  H    0.158938
    49  H    0.003201
    50  H    0.007814
    51  H   -0.028748
    52  H   -0.031268
    53  H    0.006594
    54  H    0.035098
    55  H   -0.146802
    56  H    0.050060
    57  H    0.054451
    58  H    0.133846
    59  H   -0.014635
    60  H    0.157116
    61  H    0.026572
    62  H    0.062671
    63  H    0.008473
    64  H    0.068432
    65  H    0.068471
    66  H    0.019781
    67  H    0.011967
    68  H    0.040022
    69  H   -0.040311
    70  H   -0.047606
    71  H    0.008193
    72  H    0.191888
    73  H    0.003044
    74  H   -0.007659
    75  H    0.004855
    76  H    0.010483
    77  H    0.259367
    78  H    0.003774
    79  H    0.016738
 Sum of Mulliken charges =   0.00000
 Mulliken charges with hydrogens summed into heavy atoms:
               1
     1  O   -0.235522
     2  O   -0.014312
     3  O   -0.228054
     4  O    0.045896
     5  O   -0.286721
     6  O   -0.246672
     7  N    0.174257
     8  N   -0.076460
     9  N    0.032615
    10  N   -0.289675
    11  C    0.088877
    12  C    0.189968
    13  C   -0.157904
    14  C   -0.168837
    15  C   -0.111339
    16  C    0.016450
    17  C   -0.223811
    18  C    0.060519
    19  C   -0.021887
    20  C   -0.107715
    21  C    0.080989
    22  C    0.189517
    23  C   -0.043287
    24  C    0.216226
    25  C    0.200323
    26  C   -0.087478
    27  C    0.151668
    28  C    0.099519
    29  C    0.125011
    30  C   -0.025926
    31  C    0.062429
    32  C    0.124055
    33  C   -0.128443
    34  C    0.113479
    35  C    0.114350
    36  C    0.020642
    37  C    0.155117
    38  C   -0.003565
    39  C   -0.221067
    40  C    0.158867
    41  C   -0.010206
    42  C    0.224742
    43  C    0.043366
 Electronic spatial extent (au):  <R**2>=          31970.1653
 Charge=              0.0000 electrons
 Dipole moment (field-independent basis, Debye):
    X=              0.1213    Y=              2.6747    Z=              2.7937  Tot=              3.8695
 Quadrupole moment (field-independent basis, Debye-Ang):
   XX=           -215.0532   YY=           -245.3945   ZZ=           -263.7406
   XY=            -14.8048   XZ=             34.8061   YZ=             12.1883
 Traceless Quadrupole moment (field-independent basis, Debye-Ang):
   XX=             26.3429   YY=             -3.9984   ZZ=            -22.3445
   XY=            -14.8048   XZ=             34.8061   YZ=             12.1883
 Octapole moment (field-independent basis, Debye-Ang**2):
  XXX=             28.4353  YYY=            200.5176  ZZZ=             78.2128  XYY=           -116.3626
  XXY=            -68.2769  XXZ=             61.8331  XZZ=            -65.8904  YZZ=            -13.6330
  YYZ=            112.7712  XYZ=            -23.2803
 Hexadecapole moment (field-independent basis, Debye-Ang**3):
 XXXX=         -22718.0919 YYYY=         -11404.5162 ZZZZ=          -4979.2137 XXXY=           -298.2530
 XXXZ=            748.2379 YYYX=           -495.8797 YYYZ=           1239.3204 ZZZX=            224.6577
 ZZZY=            -45.1825 XXYY=          -5860.9482 XXZZ=          -5157.5168 YYZZ=          -2862.6746
 XXYZ=            -34.8085 YYXZ=            -56.5777 ZZXY=             64.7332
 N-N= 4.931665960701D+03 E-N=-1.439290898099D+04  KE= 1.928549177072D+03
 1\1\GINC-PEDRO-RYZENSSD\SP\RB3LYP TD-FC\SVP\C33H36N4O6\PADAWAN\08-Jul-
 2019\0\\# td=(NStates=1) B3LYP/SVP\\TD\\0,1\O,0,-5.1766030221,0.250589
 1739,-3.4366264954\O,0,2.8564324693,3.0711528387,3.3615624206\O,0,3.31
 5092247,0.8890739165,3.1538673479\O,0,1.471001236,-7.2607519796,1.6044
 408539\O,0,0.6186786173,-7.2081217162,-0.4093848697\O,0,1.7470981691,4
 .0152844954,-0.117993535\N,0,-2.3482554282,-0.9309881054,0.5709936265\
 N,0,-4.3139152954,0.7684810967,-1.2952614582\N,0,1.7789676239,-0.72796
 47775,-0.3586072988\N,0,2.5849197624,1.8304114912,-0.5053980148\C,0,-4
 .6833605824,1.3132215016,-0.0767772212\C,0,-4.412425848,0.4040768254,1
 .1426263233\C,0,-2.9028937456,-0.0234074583,1.2945047906\C,0,-2.006555
 6999,0.6220043474,2.1433751357\C,0,-0.7519190794,0.03938538,1.78889765
 2\C,0,-1.0133357086,-0.9833734464,0.8112078291\C,0,-6.2401501124,1.464
 6182177,-0.2442728411\C,0,0.5901324965,0.2691348366,2.4351081796\C,0,-
 6.6195043821,1.0432866339,-1.4545463123\C,0,-0.2172974717,-2.044729774
 1,0.2668638621\C,0,1.0744703582,-1.8993724498,-0.2567644696\C,0,-5.343
 5824163,0.5616858618,-2.2440338442\C,0,1.9038662565,-2.9903726133,-0.8
 476500816\C,0,-2.2224789891,1.7317949115,3.1449931393\C,0,-7.062838276
 ,1.9694724832,0.9173423481\C,0,3.0708026086,-2.4109331176,-1.193820539
 2\C,0,1.1964164142,1.6194050827,2.50351557\C,0,3.0729438354,-0.9927687
 163,-0.959909622\C,0,1.4119867366,-4.3804124208,-0.8663251064\C,0,-7.9
 038171026,0.9480993743,-2.0455792799\C,0,1.6848901791,-5.1085570981,0.
 5052568522\C,0,4.3277604924,-3.0329545613,-1.6967016676\C,0,4.00804974
 72,0.0269143532,-1.290419237\C,0,2.5268252979,1.7921333876,3.046374542
 6\C,0,3.6956440903,1.37823708,-1.0966454352\C,0,-9.1124494179,0.874695
 3133,-1.4856673293\C,0,1.2668939978,-6.6164603755,0.4961404067\C,0,4.6
 109251574,2.5650185569,-1.5281665432\C,0,3.9031659511,3.6484990101,-1.
 1076903403\C,0,2.6583245885,3.246476349,-0.5320817552\C,0,5.9617141758
 ,2.4327451459,-2.0815396828\C,0,4.4650272961,5.0477162888,-1.130425714
 5\C,0,6.6364011915,3.3416505865,-2.742538922\H,0,-4.2848664373,2.28702
 37473,0.0360831503\H,0,-5.0151899481,-0.4284978409,0.9060918575\H,0,-4
 .873817501,0.9624004691,1.9844805826\H,0,-2.7360910195,-1.2331501725,-
 0.3172541167\H,0,-3.3046961629,0.7982629025,-1.699747172\H,0,0.4556421
 485,-0.3148415107,3.3338887211\H,0,1.3351719612,-0.3729971837,1.868115
 1319\H,0,-0.7332838209,-2.9358615495,0.0983296514\H,0,-3.1104431963,1.
 8375903443,3.5632124888\H,0,-1.5481396734,1.5981184393,4.0260423288\H,
 0,-1.6967724765,2.5108697228,2.6388860426\H,0,-6.6091448096,2.54512346
 44,1.2775058694\H,0,-7.3206747758,1.201486477,1.7678892115\H,0,-8.1831
 56807,2.3213543055,0.5234913463\H,0,1.0076329446,2.1298355916,1.343404
 348\H,0,0.5747715173,2.0231203998,3.2546658211\H,0,1.4417197903,0.2456
 209523,-0.263628589\H,0,2.0763758962,-4.9996954927,-1.6257606383\H,0,0
 .3739254729,-4.5045003634,-1.3907218419\H,0,-7.8272980548,0.8909317272
 ,-3.1402949415\H,0,1.0954724873,-4.5092252268,1.3202517128\H,0,2.81243
 22861,-5.1588323622,0.925436482\H,0,4.4040248463,-4.2503625648,-1.9837
 074233\H,0,5.1469268142,-3.0054694277,-1.1373486564\H,0,4.3670738037,-
 2.6325253081,-2.7446147838\H,0,4.9202648336,-0.3246865775,-1.700826770
 9\H,0,-9.2742069429,1.0372446217,-0.5310437906\H,0,-10.006378803,0.934
 1077892,-2.0138311248\H,0,3.8633827697,3.0044130099,3.3769058728\H,0,6
 .2606710727,1.3482590324,-1.9531628195\H,0,4.366447655,5.2456076528,-2
 .1058976448\H,0,3.9663146356,5.7237494448,-0.5206951527\H,0,5.51997376
 89,4.9618026349,-0.9544471928\H,0,1.276255164,-8.334954738,1.678197492
 8\H,0,7.5354448263,3.0872060269,-3.19077784\H,0,6.1997714214,4.2781053
 818,-3.0256554546\\Version=ES64L-G09RevD.01\State=1-A\HF=-1947.780361\
 RMSD=3.746e-09\PG=C01 [X(C33H36N4O6)]\\@


 FROM WHENCE IT HAPPENS, THAT THEY WHICH TRUST TO BOOKS, DO AS THEY THAT CAST UP MANY LITTLE SUMMS INTO GREATER,
 WITHOUT CONSIDERING WETHER THOSE LITTLE SUMMES WERE RIGHTLY CAST UP OR NOT...
 AND AT LAST FINDING THE ERROUR VISIBLE, AND NOT MISTRUSTING THEIR FIRST GROUNDS,
 KNOW NOT WHICH WAY TO CLEERE THEMSELVES...
 BUT SPEND TIME IN FLUTTERING OVER THEIR BOOKES....
 AS BIRDS THAT ENTERING BY THE CHIMNEY, AND FINDING THEMSELVES INCLOSED IN A CHAMBER,
 FLUTTER AT THE FALSE LIGHT OF A GLASSE WINDOW,
 FOR WANT OF WIT TO CONSIDER WHICH WAY THEY CAME IN....
           LEVIATHAN
 Job cpu time:       0 days  4 hours 31 minutes 34.2 seconds.
 File lengths (MBytes):  RWF=    769 Int=      0 D2E=      0 Chk=     58 Scr=      1
 Normal termination of Gaussian 09 at Mon Jul  8 12:54:03 2019.
