 Entering Gaussian System, Link 0=g16
 Input=Geometria-323-.com
 Output=Geometria-323-.log
 Initial command:
 /usr/local/g09/l1.exe "/home/padawan/israel-mol/dihydrobiliverdin/spectra/abs/Gau-64526.inp" -scrdir="/home/padawan/israel-mol/dihydrobiliverdin/spectra/abs/"
 Entering Link 1 = /usr/local/g09/l1.exe PID=     64528.
  
 Copyright (c) 1988,1990,1992,1993,1995,1998,2003,2009,2013,
            Gaussian, Inc.  All Rights Reserved.
  
 This is part of the Gaussian(R) 09 program.  It is based on
 the Gaussian(R) 03 system (copyright 2003, Gaussian, Inc.),
 the Gaussian(R) 98 system (copyright 1998, Gaussian, Inc.),
 the Gaussian(R) 94 system (copyright 1995, Gaussian, Inc.),
 the Gaussian 92(TM) system (copyright 1992, Gaussian, Inc.),
 the Gaussian 90(TM) system (copyright 1990, Gaussian, Inc.),
 the Gaussian 88(TM) system (copyright 1988, Gaussian, Inc.),
 the Gaussian 86(TM) system (copyright 1986, Carnegie Mellon
 University), and the Gaussian 82(TM) system (copyright 1983,
 Carnegie Mellon University). Gaussian is a federally registered
 trademark of Gaussian, Inc.
  
 This software contains proprietary and confidential information,
 including trade secrets, belonging to Gaussian, Inc.
  
 This software is provided under written license and may be
 used, copied, transmitted, or stored only in accord with that
 written license.
  
 The following legend is applicable only to US Government
 contracts under FAR:
  
                    RESTRICTED RIGHTS LEGEND
  
 Use, reproduction and disclosure by the US Government is
 subject to restrictions as set forth in subparagraphs (a)
 and (c) of the Commercial Computer Software - Restricted
 Rights clause in FAR 52.227-19.
  
 Gaussian, Inc.
 340 Quinnipiac St., Bldg. 40, Wallingford CT 06492
  
  
 ---------------------------------------------------------------
 Warning -- This program may not be used in any manner that
 competes with the business of Gaussian, Inc. or will provide
 assistance to any competitor of Gaussian, Inc.  The licensee
 of this program is prohibited from giving any competitor of
 Gaussian, Inc. access to this program.  By using this program,
 the user acknowledges that Gaussian, Inc. is engaged in the
 business of creating and licensing software in the field of
 computational chemistry and represents and warrants to the
 licensee that it is not a competitor of Gaussian, Inc. and that
 it will not use this program in any manner prohibited above.
 ---------------------------------------------------------------
  

 Cite this work as:
 Gaussian 09, Revision D.01,
 M. J. Frisch, G. W. Trucks, H. B. Schlegel, G. E. Scuseria, 
 M. A. Robb, J. R. Cheeseman, G. Scalmani, V. Barone, B. Mennucci, 
 G. A. Petersson, H. Nakatsuji, M. Caricato, X. Li, H. P. Hratchian, 
 A. F. Izmaylov, J. Bloino, G. Zheng, J. L. Sonnenberg, M. Hada, 
 M. Ehara, K. Toyota, R. Fukuda, J. Hasegawa, M. Ishida, T. Nakajima, 
 Y. Honda, O. Kitao, H. Nakai, T. Vreven, J. A. Montgomery, Jr., 
 J. E. Peralta, F. Ogliaro, M. Bearpark, J. J. Heyd, E. Brothers, 
 K. N. Kudin, V. N. Staroverov, T. Keith, R. Kobayashi, J. Normand, 
 K. Raghavachari, A. Rendell, J. C. Burant, S. S. Iyengar, J. Tomasi, 
 M. Cossi, N. Rega, J. M. Millam, M. Klene, J. E. Knox, J. B. Cross, 
 V. Bakken, C. Adamo, J. Jaramillo, R. Gomperts, R. E. Stratmann, 
 O. Yazyev, A. J. Austin, R. Cammi, C. Pomelli, J. W. Ochterski, 
 R. L. Martin, K. Morokuma, V. G. Zakrzewski, G. A. Voth, 
 P. Salvador, J. J. Dannenberg, S. Dapprich, A. D. Daniels, 
 O. Farkas, J. B. Foresman, J. V. Ortiz, J. Cioslowski, 
 and D. J. Fox, Gaussian, Inc., Wallingford CT, 2013.
 
 ******************************************
 Gaussian 09:  ES64L-G09RevD.01 24-Apr-2013
                 9-Jul-2019 
 ******************************************
 %nproc=4
 Will use up to    4 processors via shared memory.
 %Mem=2GB
 --------------------------
 # td=(NStates=1) B3LYP/SVP
 --------------------------
 1/38=1/1;
 2/12=2,17=6,18=5,40=1/2;
 3/5=18,7=101,11=9,16=1,25=1,30=1,74=-5/1,2,8,3;
 4//1;
 5/5=2,38=5/2;
 8/6=1,10=1,108=1/1;
 9/41=1,42=1,70=2/14;
 6/7=2,8=2,9=2,10=2/1;
 99/5=1,9=1/99;
 --
 TD
 --
 Symbolic Z-matrix:
 Charge =  0 Multiplicity = 1
 8                    -5.3175    0.38735  -3.35834 
 8                     2.64481   3.17383   3.32529 
 8                     3.07774   1.04887   3.48969 
 8                     1.67818  -7.15073   1.62535 
 8                     0.45666  -7.15382  -0.29599 
 8                     2.01362   4.01329  -0.10422 
 7                    -2.2724   -0.94635   0.5735 
 7                    -4.45781   0.62689  -1.28837 
 7                     1.91129  -0.70593  -0.48042 
 7                     2.6874    1.84466  -0.59804 
 6                    -4.89611   1.07451   0.03051 
 6                    -4.51198   0.18341   1.26334 
 6                    -3.04154  -0.00747   1.39525 
 6                    -2.07745   0.62246   2.07822 
 6                    -0.71953   0.08155   1.8236 
 6                    -0.97549  -0.92954   0.81416 
 6                    -6.27644   1.44446  -0.14648 
 6                     0.41352   0.38249   2.57659 
 6                    -6.65255   1.07415  -1.37398 
 6                    -0.10545  -1.87528   0.13513 
 6                     1.1411   -1.83646  -0.35252 
 6                    -5.40053   0.62269  -2.17956 
 6                     1.92683  -2.94336  -0.95293 
 6                    -2.25279   1.52961   3.22805 
 6                    -7.179     1.93538   0.94762 
 6                     3.09094  -2.42359  -1.37656 
 6                     0.9616    1.86294   2.43002 
 6                     3.1665   -0.88443  -1.03806 
 6                     1.40887  -4.43826  -0.91663 
 6                    -7.93572   1.03657  -2.07166 
 6                     1.85047  -5.12222   0.45884 
 6                     4.26489  -3.2296   -1.97191 
 6                     4.08362   0.01994  -1.45142 
 6                     2.30349   1.91498   3.09444 
 6                     3.95172   1.29946  -1.11191 
 6                    -9.14767   0.83434  -1.57538 
 6                     1.2295   -6.55517   0.46309 
 6                     4.72906   2.46509  -1.46809 
 6                     4.09614   3.66732  -1.21766 
 6                     2.76644   3.24174  -0.5486 
 6                     6.02029   2.16565  -2.09245 
 6                     4.62566   5.05904  -1.24782 
 6                     6.88065   3.15618  -2.60338 
 1                    -4.19137   2.04718   0.34223 
 1                    -4.81245  -0.81974   0.99297 
 1                    -4.76973   0.63944   2.31506 
 1                    -2.6028   -1.74565  -0.19557 
 1                    -3.49904   0.55844  -1.77779 
 1                     0.20278   0.26897   3.67571 
 1                     1.46022  -0.29303   2.3758 
 1                    -0.68942  -2.7523   -0.35678 
 1                    -3.27487   1.35192   3.62833 
 1                    -1.5927    1.39263   4.18231 
 1                    -2.1719    2.6716    2.9595 
 1                    -6.67639   2.68797   1.53194 
 1                    -7.55607   1.02025   1.71864 
 1                    -7.9829    2.37593   0.38282 
 1                     1.13695   2.26102   1.43625 
 1                     0.39244   2.54046   2.95686 
 1                     1.70345   0.23978  -0.09349 
 1                     1.7544   -5.05535  -1.86686 
 1                     0.38016  -4.43163  -1.08919 
 1                    -7.83044   1.10675  -3.08909 
 1                     1.67801  -4.5604    1.29573 
 1                     3.06378  -5.38629   0.17055 
 1                     3.97609  -4.24707  -2.14779 
 1                     5.25041  -2.98006  -1.40558 
 1                     4.39043  -2.8868   -2.93491 
 1                     5.07626  -0.47343  -1.81654 
 1                    -9.27252   0.73196  -0.37854 
 1                    -10.17998   0.88009  -2.16947 
 1                     3.4986    3.1113    3.9089 
 1                     6.25812   1.01595  -2.05478 
 1                     4.74175   5.52747  -2.20527 
 1                     3.82476   5.71865  -0.65196 
 1                     5.58075   5.12512  -0.68241 
 1                     1.34651  -8.13852   1.62626 
 1                     7.84694   2.96727  -2.77303 
 1                     6.52468   4.1981   -2.64773 
 
 Stoichiometry    C33H36N4O6
 Framework group  C1[X(C33H36N4O6)]
 Deg. of freedom   231
 Full point group                 C1      NOp   1
 Largest Abelian subgroup         C1      NOp   1
 Largest concise Abelian subgroup C1      NOp   1
                         Standard orientation:                         
 ---------------------------------------------------------------------
 Center     Atomic      Atomic             Coordinates (Angstroms)
 Number     Number       Type             X           Y           Z
 ---------------------------------------------------------------------
      1          8           0        5.296131   -0.294691   -3.407085
      2          8           0       -2.552144   -3.219262    3.351994
      3          8           0       -3.022964   -1.102477    3.517741
      4          8           0       -1.792925    7.119106    1.630802
      5          8           0       -0.589135    7.142210   -0.301566
      6          8           0       -1.936577   -4.051605   -0.082088
      7          7           0        2.262537    0.987688    0.550640
      8          7           0        4.459836   -0.547280   -1.329102
      9          7           0       -1.925342    0.668183   -0.464933
     10          7           0       -2.654969   -1.896541   -0.572395
     11          6           0        4.918311   -0.984861   -0.013712
     12          6           0        4.528876   -0.099349    1.221469
     13          6           0        3.056401    0.064383    1.366509
     14          6           0        2.110413   -0.582392    2.058969
     15          6           0        0.740421   -0.067133    1.816044
     16          6           0        0.968402    0.947135    0.803089
     17          6           0        6.303617   -1.329364   -0.202793
     18          6           0       -0.379974   -0.388011    2.579664
     19          6           0        6.661638   -0.953838   -1.434104
     20          6           0        0.074819    1.875624    0.130846
     21          6           0       -1.175156    1.812987   -0.345415
     22          6           0        5.394199   -0.526817   -2.228822
     23          6           0       -1.986723    2.904279   -0.940002
     24          6           0        2.312987   -1.484539    3.208263
     25          6           0        7.225015   -1.801932    0.883655
     26          6           0       -3.144774    2.362407   -1.352403
     27          6           0       -0.901761   -1.878586    2.439875
     28          6           0       -3.188656    0.822573   -1.011359
     29          6           0       -1.496313    4.408586   -0.910225
     30          6           0        7.937516   -0.893406   -2.143463
     31          6           0       -1.938060    5.086133    0.468371
     32          6           0       -4.338841    3.145659   -1.938041
     33          6           0       -4.092519   -0.099240   -1.415268
     34          6           0       -2.236376   -1.954606    3.116524
     35          6           0       -3.933804   -1.375615   -1.075418
     36          6           0        9.149950   -0.668028   -1.658456
     37          6           0       -1.343808    6.530374    0.465232
     38          6           0       -4.692549   -2.555967   -1.423107
     39          6           0       -4.035159   -3.745894   -1.176978
     40          6           0       -2.707586   -3.294771   -0.520548
     41          6           0       -5.994727   -2.281414   -2.036072
     42          6           0       -4.538994   -5.147242   -1.200631
     43          6           0       -6.841128   -3.288456   -2.537954
     44          1           0        4.234611   -1.970017    0.305581
     45          1           0        4.808200    0.908834    0.947164
     46          1           0        4.804574   -0.549053    2.271362
     47          1           0        2.571049    1.791921   -0.222377
     48          1           0        3.495560   -0.497321   -1.809877
     49          1           0       -0.161419   -0.269078    3.676685
     50          1           0       -1.440818    0.267677    2.387566
     51          1           0        0.637918    2.762653   -0.367411
     52          1           0        3.335173   -1.287348    3.599021
     53          1           0        1.659143   -1.358510    4.168310
     54          1           0        2.250893   -2.628195    2.941843
     55          1           0        6.741790   -2.562913    1.473437
     56          1           0        7.591990   -0.878893    1.650113
     57          1           0        8.031806   -2.228264    0.312111
     58          1           0       -1.078677   -2.281226    1.448229
     59          1           0       -0.315362   -2.544695    2.962342
     60          1           0       -1.696467   -0.272972   -0.078761
     61          1           0       -1.861851    5.017843   -1.858030
     62          1           0       -0.469263    4.420822   -1.092119
     63          1           0        7.824340   -0.966941   -3.159807
     64          1           0       -1.747620    4.528771    1.304338
     65          1           0       -3.158630    5.327229    0.190795
     66          1           0       -4.070596    4.168069   -2.117778
     67          1           0       -5.314375    2.878643   -1.362473
     68          1           0       -4.466704    2.799252   -2.899448
     69          1           0       -5.097424    0.375116   -1.771956
     70          1           0        9.283711   -0.561694   -0.462928
     71          1           0       10.177499   -0.695428   -2.261846
     72          1           0       -3.401620   -3.171787    3.943262
     73          1           0       -6.253523   -1.136274   -1.997642
     74          1           0       -4.655025   -5.619069   -2.156417
     75          1           0       -3.720609   -5.791046   -0.611272
     76          1           0       -5.487525   -5.230261   -0.626489
     77          1           0       -1.479668    8.112878    1.627498
     78          1           0       -7.812258   -3.117754   -2.699048
     79          1           0       -6.466288   -4.323643   -2.584273
 ---------------------------------------------------------------------
 Rotational constants (GHZ):      0.0726150      0.0441981      0.0344131
 Standard basis: SVP (5D, 7F)
 There are   825 symmetry adapted cartesian basis functions of A   symmetry.
 There are   782 symmetry adapted basis functions of A   symmetry.
   782 basis functions,  1327 primitive gaussians,   825 cartesian basis functions
   155 alpha electrons      155 beta electrons
       nuclear repulsion energy      4892.0768464947 Hartrees.
 NAtoms=   79 NActive=   79 NUniq=   79 SFac= 1.00D+00 NAtFMM=   60 NAOKFM=T Big=T
 Integral buffers will be    131072 words long.
 Regular integral format.
 Two-electron integral symmetry is turned on.
 One-electron integrals computed using PRISM.
 NBasis=   782 RedAO= T EigKep=  3.10D-04  NBF=   782
 NBsUse=   782 1.00D-06 EigRej= -1.00D+00 NBFU=   782
 ExpMin= 1.22D-01 ExpMax= 2.27D+03 ExpMxC= 3.41D+02 IAcc=1 IRadAn=         1 AccDes= 0.00D+00
 Harris functional with IExCor=  402 and IRadAn=       1 diagonalized for initial guess.
 HarFok:  IExCor=  402 AccDes= 0.00D+00 IRadAn=         1 IDoV= 1 UseB2=F ITyADJ=14
 ICtDFT=  3500011 ScaDFX=  1.000000  1.000000  1.000000  1.000000
 FoFCou: FMM=F IPFlag=           0 FMFlag=      100000 FMFlg1=        2001
         NFxFlg=           0 DoJE=T BraDBF=F KetDBF=T FulRan=T
         wScrn=  0.000000 ICntrl=     500 IOpCl=  0 I1Cent=   200000004 NGrid=           0
         NMat0=    1 NMatS0=      1 NMatT0=    0 NMatD0=    1 NMtDS0=    0 NMtDT0=    0
 Petite list used in FoFCou.
 Requested convergence on RMS density matrix=1.00D-08 within 128 cycles.
 Requested convergence on MAX density matrix=1.00D-06.
 Requested convergence on             energy=1.00D-06.
 No special actions if energy rises.
 Integral accuracy reduced to 1.0D-05 until final iterations.
 Initial convergence to 1.0D-05 achieved.  Increase integral accuracy.
 SCF Done:  E(RB3LYP) =  -1947.82912631     A.U. after   17 cycles
            NFock= 17  Conv=0.29D-08     -V/T= 2.0108
 DoSCS=F DFT=T ScalE2(SS,OS)=  1.000000  1.000000
 ExpMin= 1.22D-01 ExpMax= 2.27D+03 ExpMxC= 3.41D+02 IAcc=3 IRadAn=         5 AccDes= 0.00D+00
 HarFok:  IExCor=  205 AccDes= 0.00D+00 IRadAn=         5 IDoV=-2 UseB2=F ITyADJ=14
 ICtDFT= 12500011 ScaDFX=  1.000000  1.000000  1.000000  1.000000
 Range of M.O.s used for correlation:    44   782
 NBasis=   782 NAE=   155 NBE=   155 NFC=    43 NFV=     0
 NROrb=    739 NOA=   112 NOB=   112 NVA=   627 NVB=   627

 **** Warning!!: The smallest alpha delta epsilon is  0.83034809D-01

 Would need an additional        140608300000 words for in-memory AO integral storage.
 Orbital symmetries:
       Occupied  (A) (A) (A) (A) (A) (A) (A) (A) (A) (A) (A) (A)
                 (A) (A) (A) (A) (A) (A) (A) (A) (A) (A) (A) (A)
                 (A) (A) (A) (A) (A) (A) (A) (A) (A) (A) (A) (A)
                 (A) (A) (A) (A) (A) (A) (A) (A) (A) (A) (A) (A)
                 (A) (A) (A) (A) (A) (A) (A) (A) (A) (A) (A) (A)
                 (A) (A) (A) (A) (A) (A) (A) (A) (A) (A) (A) (A)
                 (A) (A) (A) (A) (A) (A) (A) (A) (A) (A) (A) (A)
                 (A) (A) (A) (A) (A) (A) (A) (A) (A) (A) (A) (A)
                 (A) (A) (A) (A) (A) (A) (A) (A) (A) (A) (A) (A)
                 (A) (A) (A) (A) (A) (A) (A) (A) (A) (A) (A) (A)
                 (A) (A) (A) (A) (A) (A) (A) (A) (A) (A) (A) (A)
                 (A) (A) (A) (A) (A) (A) (A) (A) (A) (A) (A) (A)
                 (A) (A) (A) (A) (A) (A) (A) (A) (A) (A) (A)
       Virtual   (A) (A) (A) (A) (A) (A) (A) (A) (A) (A) (A) (A)
                 (A) (A) (A) (A) (A) (A) (A) (A) (A) (A) (A) (A)
                 (A) (A) (A) (A) (A) (A) (A) (A) (A) (A) (A) (A)
                 (A) (A) (A) (A) (A) (A) (A) (A) (A) (A) (A) (A)
                 (A) (A) (A) (A) (A) (A) (A) (A) (A) (A) (A) (A)
                 (A) (A) (A) (A) (A) (A) (A) (A) (A) (A) (A) (A)
                 (A) (A) (A) (A) (A) (A) (A) (A) (A) (A) (A) (A)
                 (A) (A) (A) (A) (A) (A) (A) (A) (A) (A) (A) (A)
                 (A) (A) (A) (A) (A) (A) (A) (A) (A) (A) (A) (A)
                 (A) (A) (A) (A) (A) (A) (A) (A) (A) (A) (A) (A)
                 (A) (A) (A) (A) (A) (A) (A) (A) (A) (A) (A) (A)
                 (A) (A) (A) (A) (A) (A) (A) (A) (A) (A) (A) (A)
                 (A) (A) (A) (A) (A) (A) (A) (A) (A) (A) (A) (A)
                 (A) (A) (A) (A) (A) (A) (A) (A) (A) (A) (A) (A)
                 (A) (A) (A) (A) (A) (A) (A) (A) (A) (A) (A) (A)
                 (A) (A) (A) (A) (A) (A) (A) (A) (A) (A) (A) (A)
                 (A) (A) (A) (A) (A) (A) (A) (A) (A) (A) (A) (A)
                 (A) (A) (A) (A) (A) (A) (A) (A) (A) (A) (A) (A)
                 (A) (A) (A) (A) (A) (A) (A) (A) (A) (A) (A) (A)
                 (A) (A) (A) (A) (A) (A) (A) (A) (A) (A) (A) (A)
                 (A) (A) (A) (A) (A) (A) (A) (A) (A) (A) (A) (A)
                 (A) (A) (A) (A) (A) (A) (A) (A) (A) (A) (A) (A)
                 (A) (A) (A) (A) (A) (A) (A) (A) (A) (A) (A) (A)
                 (A) (A) (A) (A) (A) (A) (A) (A) (A) (A) (A) (A)
                 (A) (A) (A) (A) (A) (A) (A) (A) (A) (A) (A) (A)
                 (A) (A) (A) (A) (A) (A) (A) (A) (A) (A) (A) (A)
                 (A) (A) (A) (A) (A) (A) (A) (A) (A) (A) (A) (A)
                 (A) (A) (A) (A) (A) (A) (A) (A) (A) (A) (A) (A)
                 (A) (A) (A) (A) (A) (A) (A) (A) (A) (A) (A) (A)
                 (A) (A) (A) (A) (A) (A) (A) (A) (A) (A) (A) (A)
                 (A) (A) (A) (A) (A) (A) (A) (A) (A) (A) (A) (A)
                 (A) (A) (A) (A) (A) (A) (A) (A) (A) (A) (A) (A)
                 (A) (A) (A) (A) (A) (A) (A) (A) (A) (A) (A) (A)
                 (A) (A) (A) (A) (A) (A) (A) (A) (A) (A) (A) (A)
                 (A) (A) (A) (A) (A) (A) (A) (A) (A) (A) (A) (A)
                 (A) (A) (A) (A) (A) (A) (A) (A) (A) (A) (A) (A)
                 (A) (A) (A) (A) (A) (A) (A) (A) (A) (A) (A) (A)
                 (A) (A) (A) (A) (A) (A) (A) (A) (A) (A) (A) (A)
                 (A) (A) (A) (A) (A) (A) (A) (A) (A) (A) (A) (A)
                 (A) (A) (A) (A) (A) (A) (A) (A) (A) (A) (A) (A)
                 (A) (A) (A) (A) (A) (A) (A) (A) (A) (A) (A) (A)
                 (A) (A) (A) (A) (A) (A) (A) (A) (A) (A) (A) (A)
                 (A) (A) (A) (A) (A) (A) (A) (A) (A) (A) (A) (A)
                 (A) (A) (A) (A) (A) (A) (A) (A) (A) (A) (A) (A)
                 (A) (A) (A) (A) (A) (A) (A) (A) (A) (A) (A) (A)
                 (A) (A) (A) (A) (A) (A) (A) (A) (A) (A) (A) (A)
                 (A) (A) (A) (A) (A) (A) (A) (A) (A) (A) (A) (A)
                 (A) (A) (A) (A) (A) (A) (A) (A) (A) (A) (A) (A)
                 (A) (A) (A) (A) (A) (A) (A) (A) (A) (A) (A) (A)
                 (A) (A) (A) (A) (A) (A) (A) (A) (A) (A) (A) (A)
                 (A) (A) (A) (A) (A) (A) (A) (A) (A) (A) (A) (A)
                 (A) (A) (A) (A) (A) (A) (A) (A) (A) (A) (A) (A)
                 (A) (A) (A)
     8 initial guesses have been made.
 Convergence on wavefunction:    0.001000000000000
 Iteration     1 Dimension     8 NMult     0 NNew      8
 CISAX will form     8 AO SS matrices at one time.
 New state      1 was old state      3
 Iteration     2 Dimension    12 NMult     8 NNew      4
 New state      1 was old state      2
 Iteration     3 Dimension    16 NMult    12 NNew      4
 Iteration     4 Dimension    20 NMult    16 NNew      4
 Iteration     5 Dimension    24 NMult    20 NNew      4
 Iteration     6 Dimension    28 NMult    24 NNew      4
 ***********************************************************************
 Excited states from <AA,BB:AA,BB> singles matrix:
 ***********************************************************************
 
 Ground to excited state transition densities written to RWF  633
 Ground to excited state transition electric dipole moments (Au):
       state          X           Y           Z        Dip. S.      Osc.
         1         1.3889      0.6439      0.5578      2.6550      0.1248
 Ground to excited state transition velocity dipole moments (Au):
       state          X           Y           Z        Dip. S.      Osc.
         1        -0.0962     -0.0391     -0.0382      0.0122      0.1157
 Ground to excited state transition magnetic dipole moments (Au):
       state          X           Y           Z
         1        -0.3099      0.0242      0.5300
 Ground to excited state transition velocity quadrupole moments (Au):
       state          XX          YY          ZZ          XY          XZ          YZ
         1         0.4309      0.0296     -0.0356      0.3548      0.2753      0.1262
 <0|del|b> * <b|rxdel|0> + <0|del|b> * <b|delr+rdel|0>
 Rotatory Strengths (R) in cgs (10**-40 erg-esu-cm/Gauss)
       state          XX          YY          ZZ    R(velocity)    E-M Angle
         1      -120.3732     55.0284    151.6367     28.7640       82.73
 1/2[<0|r|b>*<b|rxdel|0> + (<0|rxdel|b>*<b|r|0>)*]
 Rotatory Strengths (R) in cgs (10**-40 erg-esu-cm/Gauss)
       state          XX          YY          ZZ     R(length)
         1       304.4053    -11.0143   -209.0715     28.1065
  1/2[<0|del|b>*<b|r|0> + (<0|r|b>*<b|del|0>)*] (Au)
       state          X           Y           Z        Dip. S.   Osc.(frdel)
         1        -0.1336     -0.0252     -0.0213      0.1800      0.1200

 Excitation energies and oscillator strengths:
 
 Excited State   1:      Singlet-A      1.9188 eV  646.16 nm  f=0.1248  <S**2>=0.000
     154 ->156         0.40635
     155 ->156         0.57371
 This state for optimization and/or second-order correction.
 Total Energy, E(TD-HF/TD-KS) =  -1947.75861238    
 Copying the excited state density for this state as the 1-particle RhoCI density.
 SavETr:  write IOETrn=   770 NScale= 10 NData=  16 NLR=1 NState=    1 LETran=      28.

 **********************************************************************

            Population analysis using the SCF density.

 **********************************************************************

 Orbital symmetries:
       Occupied  (A) (A) (A) (A) (A) (A) (A) (A) (A) (A) (A) (A)
                 (A) (A) (A) (A) (A) (A) (A) (A) (A) (A) (A) (A)
                 (A) (A) (A) (A) (A) (A) (A) (A) (A) (A) (A) (A)
                 (A) (A) (A) (A) (A) (A) (A) (A) (A) (A) (A) (A)
                 (A) (A) (A) (A) (A) (A) (A) (A) (A) (A) (A) (A)
                 (A) (A) (A) (A) (A) (A) (A) (A) (A) (A) (A) (A)
                 (A) (A) (A) (A) (A) (A) (A) (A) (A) (A) (A) (A)
                 (A) (A) (A) (A) (A) (A) (A) (A) (A) (A) (A) (A)
                 (A) (A) (A) (A) (A) (A) (A) (A) (A) (A) (A) (A)
                 (A) (A) (A) (A) (A) (A) (A) (A) (A) (A) (A) (A)
                 (A) (A) (A) (A) (A) (A) (A) (A) (A) (A) (A) (A)
                 (A) (A) (A) (A) (A) (A) (A) (A) (A) (A) (A) (A)
                 (A) (A) (A) (A) (A) (A) (A) (A) (A) (A) (A)
       Virtual   (A) (A) (A) (A) (A) (A) (A) (A) (A) (A) (A) (A)
                 (A) (A) (A) (A) (A) (A) (A) (A) (A) (A) (A) (A)
                 (A) (A) (A) (A) (A) (A) (A) (A) (A) (A) (A) (A)
                 (A) (A) (A) (A) (A) (A) (A) (A) (A) (A) (A) (A)
                 (A) (A) (A) (A) (A) (A) (A) (A) (A) (A) (A) (A)
                 (A) (A) (A) (A) (A) (A) (A) (A) (A) (A) (A) (A)
                 (A) (A) (A) (A) (A) (A) (A) (A) (A) (A) (A) (A)
                 (A) (A) (A) (A) (A) (A) (A) (A) (A) (A) (A) (A)
                 (A) (A) (A) (A) (A) (A) (A) (A) (A) (A) (A) (A)
                 (A) (A) (A) (A) (A) (A) (A) (A) (A) (A) (A) (A)
                 (A) (A) (A) (A) (A) (A) (A) (A) (A) (A) (A) (A)
                 (A) (A) (A) (A) (A) (A) (A) (A) (A) (A) (A) (A)
                 (A) (A) (A) (A) (A) (A) (A) (A) (A) (A) (A) (A)
                 (A) (A) (A) (A) (A) (A) (A) (A) (A) (A) (A) (A)
                 (A) (A) (A) (A) (A) (A) (A) (A) (A) (A) (A) (A)
                 (A) (A) (A) (A) (A) (A) (A) (A) (A) (A) (A) (A)
                 (A) (A) (A) (A) (A) (A) (A) (A) (A) (A) (A) (A)
                 (A) (A) (A) (A) (A) (A) (A) (A) (A) (A) (A) (A)
                 (A) (A) (A) (A) (A) (A) (A) (A) (A) (A) (A) (A)
                 (A) (A) (A) (A) (A) (A) (A) (A) (A) (A) (A) (A)
                 (A) (A) (A) (A) (A) (A) (A) (A) (A) (A) (A) (A)
                 (A) (A) (A) (A) (A) (A) (A) (A) (A) (A) (A) (A)
                 (A) (A) (A) (A) (A) (A) (A) (A) (A) (A) (A) (A)
                 (A) (A) (A) (A) (A) (A) (A) (A) (A) (A) (A) (A)
                 (A) (A) (A) (A) (A) (A) (A) (A) (A) (A) (A) (A)
                 (A) (A) (A) (A) (A) (A) (A) (A) (A) (A) (A) (A)
                 (A) (A) (A) (A) (A) (A) (A) (A) (A) (A) (A) (A)
                 (A) (A) (A) (A) (A) (A) (A) (A) (A) (A) (A) (A)
                 (A) (A) (A) (A) (A) (A) (A) (A) (A) (A) (A) (A)
                 (A) (A) (A) (A) (A) (A) (A) (A) (A) (A) (A) (A)
                 (A) (A) (A) (A) (A) (A) (A) (A) (A) (A) (A) (A)
                 (A) (A) (A) (A) (A) (A) (A) (A) (A) (A) (A) (A)
                 (A) (A) (A) (A) (A) (A) (A) (A) (A) (A) (A) (A)
                 (A) (A) (A) (A) (A) (A) (A) (A) (A) (A) (A) (A)
                 (A) (A) (A) (A) (A) (A) (A) (A) (A) (A) (A) (A)
                 (A) (A) (A) (A) (A) (A) (A) (A) (A) (A) (A) (A)
                 (A) (A) (A) (A) (A) (A) (A) (A) (A) (A) (A) (A)
                 (A) (A) (A) (A) (A) (A) (A) (A) (A) (A) (A) (A)
                 (A) (A) (A) (A) (A) (A) (A) (A) (A) (A) (A) (A)
                 (A) (A) (A) (A) (A) (A) (A) (A) (A) (A) (A) (A)
                 (A) (A) (A) (A) (A) (A) (A) (A) (A) (A) (A) (A)
                 (A) (A) (A) (A) (A) (A) (A) (A) (A) (A) (A) (A)
                 (A) (A) (A) (A) (A) (A) (A) (A) (A) (A) (A) (A)
                 (A) (A) (A) (A) (A) (A) (A) (A) (A) (A) (A) (A)
                 (A) (A) (A) (A) (A) (A) (A) (A) (A) (A) (A) (A)
                 (A) (A) (A) (A) (A) (A) (A) (A) (A) (A) (A) (A)
                 (A) (A) (A) (A) (A) (A) (A) (A) (A) (A) (A) (A)
                 (A) (A) (A) (A) (A) (A) (A) (A) (A) (A) (A) (A)
                 (A) (A) (A) (A) (A) (A) (A) (A) (A) (A) (A) (A)
                 (A) (A) (A) (A) (A) (A) (A) (A) (A) (A) (A) (A)
                 (A) (A) (A) (A) (A) (A) (A) (A) (A) (A) (A) (A)
                 (A) (A) (A) (A) (A) (A) (A) (A) (A) (A) (A) (A)
                 (A) (A) (A)
 The electronic state is 1-A.
 Alpha  occ. eigenvalues --  -19.18968 -19.16669 -19.14523 -19.10830 -19.10358
 Alpha  occ. eigenvalues --  -19.09571 -14.39091 -14.37590 -14.36443 -14.28397
 Alpha  occ. eigenvalues --  -10.33921 -10.30134 -10.27609 -10.26471 -10.26380
 Alpha  occ. eigenvalues --  -10.25781 -10.24867 -10.24188 -10.23728 -10.23450
 Alpha  occ. eigenvalues --  -10.23405 -10.23346 -10.22795 -10.22643 -10.22112
 Alpha  occ. eigenvalues --  -10.21796 -10.21539 -10.21129 -10.21041 -10.20885
 Alpha  occ. eigenvalues --  -10.20844 -10.20713 -10.20376 -10.20336 -10.19785
 Alpha  occ. eigenvalues --  -10.19305 -10.19261 -10.19249 -10.19239 -10.19191
 Alpha  occ. eigenvalues --  -10.19128 -10.18877 -10.18368  -1.08581  -1.08517
 Alpha  occ. eigenvalues --   -1.03859  -1.03661  -0.99905  -0.98468  -0.97851
 Alpha  occ. eigenvalues --   -0.97436  -0.95575  -0.89632  -0.83235  -0.82774
 Alpha  occ. eigenvalues --   -0.82099  -0.81642  -0.80734  -0.78575  -0.78051
 Alpha  occ. eigenvalues --   -0.77776  -0.76910  -0.75945  -0.73741  -0.72784
 Alpha  occ. eigenvalues --   -0.71592  -0.71112  -0.69940  -0.69227  -0.68017
 Alpha  occ. eigenvalues --   -0.66994  -0.66345  -0.64348  -0.60691  -0.60156
 Alpha  occ. eigenvalues --   -0.59492  -0.58929  -0.57828  -0.57638  -0.57113
 Alpha  occ. eigenvalues --   -0.56306  -0.55568  -0.54523  -0.54211  -0.53072
 Alpha  occ. eigenvalues --   -0.51753  -0.51431  -0.50570  -0.50094  -0.49341
 Alpha  occ. eigenvalues --   -0.48891  -0.48677  -0.48452  -0.47899  -0.47667
 Alpha  occ. eigenvalues --   -0.46976  -0.46598  -0.46547  -0.46184  -0.45584
 Alpha  occ. eigenvalues --   -0.45236  -0.45145  -0.43937  -0.43698  -0.43531
 Alpha  occ. eigenvalues --   -0.43089  -0.42870  -0.42615  -0.42564  -0.42511
 Alpha  occ. eigenvalues --   -0.42402  -0.42036  -0.41894  -0.41608  -0.41298
 Alpha  occ. eigenvalues --   -0.40937  -0.40741  -0.40502  -0.40124  -0.40063
 Alpha  occ. eigenvalues --   -0.39898  -0.39413  -0.39273  -0.39101  -0.38923
 Alpha  occ. eigenvalues --   -0.38676  -0.38264  -0.37769  -0.37381  -0.36770
 Alpha  occ. eigenvalues --   -0.36509  -0.36142  -0.36016  -0.35608  -0.35454
 Alpha  occ. eigenvalues --   -0.34245  -0.34089  -0.32901  -0.31969  -0.31497
 Alpha  occ. eigenvalues --   -0.31222  -0.30244  -0.29559  -0.27930  -0.27042
 Alpha  occ. eigenvalues --   -0.26716  -0.26501  -0.26381  -0.25434  -0.25099
 Alpha  occ. eigenvalues --   -0.24336  -0.23555  -0.23078  -0.21028  -0.19700
 Alpha virt. eigenvalues --   -0.11397  -0.06328  -0.05322  -0.02129  -0.01567
 Alpha virt. eigenvalues --    0.00236   0.01804   0.02025   0.02091   0.02185
 Alpha virt. eigenvalues --    0.02541   0.03158   0.03584   0.04465   0.04695
 Alpha virt. eigenvalues --    0.04891   0.05416   0.05709   0.06239   0.06970
 Alpha virt. eigenvalues --    0.07497   0.07644   0.07742   0.08024   0.08732
 Alpha virt. eigenvalues --    0.09006   0.09699   0.09797   0.10098   0.10431
 Alpha virt. eigenvalues --    0.10603   0.10870   0.11045   0.11778   0.11862
 Alpha virt. eigenvalues --    0.12093   0.12557   0.12597   0.13087   0.13226
 Alpha virt. eigenvalues --    0.13380   0.14182   0.14474   0.14894   0.15424
 Alpha virt. eigenvalues --    0.15692   0.16130   0.16693   0.16790   0.17055
 Alpha virt. eigenvalues --    0.17974   0.18361   0.18633   0.19036   0.19642
 Alpha virt. eigenvalues --    0.20006   0.20418   0.20520   0.21590   0.21958
 Alpha virt. eigenvalues --    0.22586   0.23319   0.23581   0.24122   0.24204
 Alpha virt. eigenvalues --    0.24797   0.25204   0.25501   0.26069   0.26470
 Alpha virt. eigenvalues --    0.26922   0.27593   0.28232   0.29230   0.29387
 Alpha virt. eigenvalues --    0.29984   0.30141   0.30359   0.30440   0.31230
 Alpha virt. eigenvalues --    0.31578   0.31908   0.32466   0.33590   0.34140
 Alpha virt. eigenvalues --    0.34407   0.34829   0.35725   0.36276   0.36706
 Alpha virt. eigenvalues --    0.37450   0.37787   0.38131   0.38817   0.38973
 Alpha virt. eigenvalues --    0.39161   0.39719   0.40788   0.40877   0.41217
 Alpha virt. eigenvalues --    0.41564   0.41903   0.42265   0.42841   0.43122
 Alpha virt. eigenvalues --    0.43138   0.43693   0.44125   0.44572   0.44956
 Alpha virt. eigenvalues --    0.45455   0.45632   0.45736   0.46044   0.46704
 Alpha virt. eigenvalues --    0.47092   0.47287   0.47508   0.47869   0.48297
 Alpha virt. eigenvalues --    0.48739   0.48938   0.48967   0.49373   0.49635
 Alpha virt. eigenvalues --    0.49960   0.50484   0.50870   0.51023   0.51238
 Alpha virt. eigenvalues --    0.51662   0.51751   0.52162   0.52261   0.52851
 Alpha virt. eigenvalues --    0.53566   0.53741   0.53963   0.54245   0.54578
 Alpha virt. eigenvalues --    0.55029   0.55613   0.55946   0.56318   0.56747
 Alpha virt. eigenvalues --    0.57571   0.57669   0.57765   0.57953   0.58563
 Alpha virt. eigenvalues --    0.59232   0.59563   0.59783   0.59891   0.60196
 Alpha virt. eigenvalues --    0.60446   0.60659   0.60910   0.61396   0.61667
 Alpha virt. eigenvalues --    0.61924   0.62157   0.62244   0.62508   0.62791
 Alpha virt. eigenvalues --    0.62988   0.63451   0.63512   0.64147   0.64240
 Alpha virt. eigenvalues --    0.64422   0.64721   0.64925   0.65298   0.65518
 Alpha virt. eigenvalues --    0.65617   0.66394   0.66638   0.66728   0.66897
 Alpha virt. eigenvalues --    0.67253   0.67871   0.68348   0.68451   0.68612
 Alpha virt. eigenvalues --    0.68927   0.69141   0.69415   0.69632   0.70147
 Alpha virt. eigenvalues --    0.70253   0.70301   0.70597   0.70766   0.71028
 Alpha virt. eigenvalues --    0.71679   0.71721   0.71940   0.72181   0.72521
 Alpha virt. eigenvalues --    0.72764   0.72920   0.73227   0.73871   0.74116
 Alpha virt. eigenvalues --    0.74124   0.74940   0.75370   0.75852   0.76543
 Alpha virt. eigenvalues --    0.76874   0.77160   0.77516   0.77542   0.77940
 Alpha virt. eigenvalues --    0.78520   0.79314   0.79468   0.79943   0.80798
 Alpha virt. eigenvalues --    0.81526   0.82157   0.82545   0.82717   0.83568
 Alpha virt. eigenvalues --    0.84040   0.84724   0.84828   0.85468   0.85752
 Alpha virt. eigenvalues --    0.86304   0.87097   0.87753   0.88575   0.89066
 Alpha virt. eigenvalues --    0.90152   0.90726   0.91125   0.91370   0.92516
 Alpha virt. eigenvalues --    0.93425   0.93745   0.94309   0.94684   0.94944
 Alpha virt. eigenvalues --    0.95818   0.96088   0.96541   0.96901   0.97572
 Alpha virt. eigenvalues --    0.98516   0.98849   0.99080   0.99631   1.00108
 Alpha virt. eigenvalues --    1.01236   1.01728   1.02290   1.03273   1.03592
 Alpha virt. eigenvalues --    1.04308   1.04760   1.05980   1.06975   1.07368
 Alpha virt. eigenvalues --    1.08321   1.09240   1.09398   1.09870   1.11120
 Alpha virt. eigenvalues --    1.11244   1.12063   1.12718   1.13985   1.14496
 Alpha virt. eigenvalues --    1.14924   1.15743   1.15986   1.16595   1.17601
 Alpha virt. eigenvalues --    1.18584   1.18871   1.20006   1.20628   1.21873
 Alpha virt. eigenvalues --    1.22147   1.23086   1.23869   1.24295   1.24836
 Alpha virt. eigenvalues --    1.25480   1.26203   1.26714   1.27924   1.28285
 Alpha virt. eigenvalues --    1.28441   1.28734   1.29490   1.29883   1.30785
 Alpha virt. eigenvalues --    1.31999   1.32553   1.32793   1.33056   1.33503
 Alpha virt. eigenvalues --    1.34079   1.35012   1.35312   1.36902   1.37302
 Alpha virt. eigenvalues --    1.37541   1.38580   1.38920   1.40663   1.40858
 Alpha virt. eigenvalues --    1.41564   1.42472   1.42742   1.43780   1.45205
 Alpha virt. eigenvalues --    1.45956   1.46686   1.47048   1.47572   1.48313
 Alpha virt. eigenvalues --    1.49583   1.49934   1.50286   1.50868   1.50996
 Alpha virt. eigenvalues --    1.51214   1.51765   1.51901   1.52406   1.52810
 Alpha virt. eigenvalues --    1.53299   1.53403   1.53893   1.55494   1.55789
 Alpha virt. eigenvalues --    1.56564   1.56847   1.57074   1.57969   1.58512
 Alpha virt. eigenvalues --    1.58960   1.59357   1.59992   1.60619   1.61430
 Alpha virt. eigenvalues --    1.61440   1.61854   1.62072   1.63167   1.63376
 Alpha virt. eigenvalues --    1.63916   1.64291   1.64512   1.65242   1.65595
 Alpha virt. eigenvalues --    1.65880   1.66176   1.66457   1.67018   1.67403
 Alpha virt. eigenvalues --    1.68023   1.68246   1.68672   1.69308   1.69528
 Alpha virt. eigenvalues --    1.70119   1.70634   1.71274   1.71377   1.71929
 Alpha virt. eigenvalues --    1.72040   1.72402   1.72649   1.73183   1.73807
 Alpha virt. eigenvalues --    1.74367   1.75174   1.75332   1.75589   1.76124
 Alpha virt. eigenvalues --    1.76454   1.76558   1.77046   1.77098   1.77419
 Alpha virt. eigenvalues --    1.78192   1.78538   1.78701   1.79738   1.80028
 Alpha virt. eigenvalues --    1.80458   1.80806   1.81004   1.81483   1.82008
 Alpha virt. eigenvalues --    1.82615   1.82782   1.82997   1.83593   1.83803
 Alpha virt. eigenvalues --    1.84187   1.84684   1.85221   1.85911   1.86257
 Alpha virt. eigenvalues --    1.86439   1.86777   1.87739   1.88360   1.88998
 Alpha virt. eigenvalues --    1.89557   1.89715   1.90476   1.91360   1.91821
 Alpha virt. eigenvalues --    1.91962   1.92379   1.92814   1.93753   1.94229
 Alpha virt. eigenvalues --    1.94473   1.95321   1.95681   1.95931   1.96220
 Alpha virt. eigenvalues --    1.96600   1.97217   1.97550   1.97779   1.98060
 Alpha virt. eigenvalues --    1.98699   1.99372   2.00001   2.00597   2.00767
 Alpha virt. eigenvalues --    2.01406   2.01914   2.02318   2.02918   2.03431
 Alpha virt. eigenvalues --    2.03582   2.04322   2.04699   2.05207   2.05974
 Alpha virt. eigenvalues --    2.06498   2.06640   2.07211   2.08166   2.08882
 Alpha virt. eigenvalues --    2.09743   2.10027   2.10723   2.10967   2.11123
 Alpha virt. eigenvalues --    2.11309   2.12185   2.12641   2.13588   2.13957
 Alpha virt. eigenvalues --    2.15130   2.15571   2.16755   2.16849   2.17428
 Alpha virt. eigenvalues --    2.17810   2.18134   2.18918   2.19703   2.20649
 Alpha virt. eigenvalues --    2.21332   2.21975   2.22664   2.23043   2.23952
 Alpha virt. eigenvalues --    2.25323   2.25678   2.26905   2.27397   2.28036
 Alpha virt. eigenvalues --    2.28488   2.28703   2.29994   2.30580   2.30708
 Alpha virt. eigenvalues --    2.31233   2.32275   2.33943   2.34305   2.35023
 Alpha virt. eigenvalues --    2.35670   2.36442   2.37761   2.37933   2.38748
 Alpha virt. eigenvalues --    2.38905   2.39887   2.40986   2.41186   2.41462
 Alpha virt. eigenvalues --    2.42261   2.43169   2.43421   2.43868   2.44045
 Alpha virt. eigenvalues --    2.44589   2.46203   2.47357   2.47778   2.48383
 Alpha virt. eigenvalues --    2.48991   2.49734   2.50239   2.50715   2.51937
 Alpha virt. eigenvalues --    2.52743   2.54173   2.54530   2.55166   2.55557
 Alpha virt. eigenvalues --    2.55872   2.56901   2.57968   2.59333   2.60045
 Alpha virt. eigenvalues --    2.60411   2.61213   2.61501   2.61993   2.62485
 Alpha virt. eigenvalues --    2.62988   2.64115   2.64491   2.64836   2.65577
 Alpha virt. eigenvalues --    2.66165   2.66520   2.67451   2.69207   2.70072
 Alpha virt. eigenvalues --    2.70612   2.71715   2.72114   2.72350   2.73235
 Alpha virt. eigenvalues --    2.73546   2.74490   2.74845   2.75158   2.75608
 Alpha virt. eigenvalues --    2.77239   2.78206   2.78271   2.78882   2.79737
 Alpha virt. eigenvalues --    2.80342   2.80744   2.82085   2.82729   2.83313
 Alpha virt. eigenvalues --    2.84389   2.84950   2.85612   2.86074   2.86416
 Alpha virt. eigenvalues --    2.87462   2.88860   2.89100   2.90558   2.90865
 Alpha virt. eigenvalues --    2.91348   2.92566   2.93827   2.93881   2.94361
 Alpha virt. eigenvalues --    2.95457   2.96934   2.97922   2.98111   2.98729
 Alpha virt. eigenvalues --    2.99494   3.00358   3.01898   3.02527   3.02787
 Alpha virt. eigenvalues --    3.03486   3.05825   3.06044   3.07040   3.08268
 Alpha virt. eigenvalues --    3.08911   3.12104   3.12482   3.13610   3.14439
 Alpha virt. eigenvalues --    3.15392   3.16808   3.18202   3.19230   3.20232
 Alpha virt. eigenvalues --    3.23027   3.23191   3.25037   3.26301   3.27881
 Alpha virt. eigenvalues --    3.32623   3.34507   3.35783   3.37316   3.40607
 Alpha virt. eigenvalues --    3.44629   3.48109   3.52835   3.56121   3.56853
 Alpha virt. eigenvalues --    3.58050   3.58814   3.61879   3.67924   3.70084
 Alpha virt. eigenvalues --    3.72385   3.74099
          Condensed to atoms (all electrons):
 Mulliken charges:
               1
     1  O   -0.219052
     2  O   -0.193477
     3  O   -0.268151
     4  O   -0.244459
     5  O   -0.240154
     6  O   -0.157252
     7  N   -0.162017
     8  N   -0.146624
     9  N   -0.077900
    10  N   -0.400432
    11  C    0.051863
    12  C    0.245598
    13  C   -0.083264
    14  C   -0.099906
    15  C    0.019298
    16  C    0.040964
    17  C   -0.133471
    18  C   -0.094271
    19  C   -0.092769
    20  C   -0.097990
    21  C    0.083901
    22  C    0.087602
    23  C   -0.062520
    24  C    0.004974
    25  C    0.071169
    26  C   -0.190113
    27  C    0.078851
    28  C    0.108122
    29  C    0.078456
    30  C    0.044237
    31  C   -0.011012
    32  C    0.147664
    33  C   -0.117256
    34  C    0.096051
    35  C    0.152101
    36  C   -0.099113
    37  C    0.180363
    38  C    0.040833
    39  C   -0.188093
    40  C    0.152998
    41  C   -0.068142
    42  C    0.041177
    43  C    0.023977
    44  H    0.032738
    45  H   -0.018879
    46  H    0.034524
    47  H    0.167972
    48  H    0.154777
    49  H    0.014328
    50  H    0.059074
    51  H    0.000809
    52  H   -0.000532
    53  H    0.035585
    54  H    0.047596
    55  H    0.012224
    56  H    0.062101
    57  H    0.035085
    58  H    0.064099
    59  H   -0.006913
    60  H    0.158921
    61  H    0.037940
    62  H   -0.004613
    63  H   -0.018965
    64  H    0.041671
    65  H    0.085044
    66  H   -0.000311
    67  H    0.050800
    68  H   -0.001604
    69  H    0.019952
    70  H    0.035135
    71  H    0.055219
    72  H    0.200117
    73  H    0.009318
    74  H    0.033859
    75  H    0.040853
    76  H    0.036125
    77  H    0.212236
    78  H   -0.009747
    79  H    0.020705
 Sum of Mulliken charges =   0.00000
 Mulliken charges with hydrogens summed into heavy atoms:
               1
     1  O   -0.219052
     2  O    0.006640
     3  O   -0.268151
     4  O   -0.032223
     5  O   -0.240154
     6  O   -0.157252
     7  N    0.005955
     8  N    0.008153
     9  N    0.081021
    10  N   -0.400432
    11  C    0.084601
    12  C    0.261242
    13  C   -0.083264
    14  C   -0.099906
    15  C    0.019298
    16  C    0.040964
    17  C   -0.133471
    18  C   -0.020869
    19  C   -0.092769
    20  C   -0.097181
    21  C    0.083901
    22  C    0.087602
    23  C   -0.062520
    24  C    0.087622
    25  C    0.180579
    26  C   -0.190113
    27  C    0.136038
    28  C    0.108122
    29  C    0.111782
    30  C    0.025272
    31  C    0.115702
    32  C    0.196549
    33  C   -0.097304
    34  C    0.096051
    35  C    0.152101
    36  C   -0.008759
    37  C    0.180363
    38  C    0.040833
    39  C   -0.188093
    40  C    0.152998
    41  C   -0.058824
    42  C    0.152015
    43  C    0.034935
 Electronic spatial extent (au):  <R**2>=          32561.0612
 Charge=              0.0000 electrons
 Dipole moment (field-independent basis, Debye):
    X=             -0.2294    Y=              3.5017    Z=              3.2587  Tot=              4.7889
 Quadrupole moment (field-independent basis, Debye-Ang):
   XX=           -227.0854   YY=           -246.6152   ZZ=           -264.5622
   XY=            -12.4396   XZ=             32.0466   YZ=             -1.6877
 Traceless Quadrupole moment (field-independent basis, Debye-Ang):
   XX=             19.0022   YY=             -0.5276   ZZ=            -18.4746
   XY=            -12.4396   XZ=             32.0466   YZ=             -1.6877
 Octapole moment (field-independent basis, Debye-Ang**2):
  XXX=            -22.0433  YYY=            126.3981  ZZZ=            106.6118  XYY=           -103.5634
  XXY=            -38.5439  XXZ=             69.1186  XZZ=            -61.4771  YZZ=            -16.9908
  YYZ=             70.8815  XYZ=             15.2143
 Hexadecapole moment (field-independent basis, Debye-Ang**3):
 XXXX=         -24278.4871 YYYY=         -11941.7343 ZZZZ=          -5168.2584 XXXY=           -107.4571
 XXXZ=            485.0838 YYYX=           -298.1861 YYYZ=            722.8320 ZZZX=             77.4118
 ZZZY=           -217.1351 XXYY=          -6092.5742 XXZZ=          -5463.8539 YYZZ=          -2807.8415
 XXYZ=           -118.5638 YYXZ=             -0.0887 ZZXY=             65.7623
 N-N= 4.892076846495D+03 E-N=-1.431247812843D+04  KE= 1.927007895872D+03
 1\1\GINC-PEDRO-RYZENSSD\SP\RB3LYP TD-FC\SVP\C33H36N4O6\PADAWAN\09-Jul-
 2019\0\\# td=(NStates=1) B3LYP/SVP\\TD\\0,1\O,0,-5.3174971115,0.387352
 8503,-3.3583386667\O,0,2.6448113072,3.1738331067,3.3252887933\O,0,3.07
 77385117,1.0488698961,3.4896909303\O,0,1.6781819541,-7.1507309775,1.62
 53529451\O,0,0.4566624156,-7.1538162856,-0.2959935306\O,0,2.0136248218
 ,4.0132942964,-0.1042221578\N,0,-2.2723978425,-0.9463496416,0.57350387
 75\N,0,-4.4578096849,0.6268869373,-1.2883707692\N,0,1.9112908562,-0.70
 59325743,-0.48041948\N,0,2.6874000104,1.8446629164,-0.5980372787\C,0,-
 4.8961118575,1.0745076302,0.0305135079\C,0,-4.511975803,0.1834147592,1
 .2633383945\C,0,-3.04153761,-0.0074658642,1.3952548656\C,0,-2.07745278
 96,0.6224643934,2.0782186201\C,0,-0.7195258401,0.0815495965,1.82360112
 23\C,0,-0.9754919242,-0.9295380629,0.8141581241\C,0,-6.2764437418,1.44
 44562015,-0.1464830621\C,0,0.4135248358,0.3824861717,2.576592328\C,0,-
 6.6525476865,1.0741497202,-1.3739782555\C,0,-0.1054462866,-1.875282829
 4,0.1351306888\C,0,1.1410970209,-1.8364561582,-0.3525240456\C,0,-5.400
 5281109,0.6226919624,-2.1795573965\C,0,1.9268285528,-2.9433579118,-0.9
 529306097\C,0,-2.2527920204,1.5296146935,3.2280514451\C,0,-7.178999892
 2,1.9353790739,0.9476153754\C,0,3.0909446228,-2.4235943837,-1.37655881
 3\C,0,0.9616029329,1.8629394361,2.4300182202\C,0,3.1665031913,-0.88442
 78822,-1.0380574367\C,0,1.4088664245,-4.4382582054,-0.9166301369\C,0,-
 7.9357202929,1.0365682212,-2.0716618882\C,0,1.8504667368,-5.1222184642
 ,0.4588422107\C,0,4.2648942058,-3.2296042262,-1.9719091883\C,0,4.08361
 73039,0.0199436562,-1.4514153366\C,0,2.3034929647,1.9149756719,3.09443
 9349\C,0,3.9517196979,1.2994592022,-1.1119069614\C,0,-9.1476729403,0.8
 343412779,-1.5753763002\C,0,1.2295002584,-6.5551742469,0.4630871014\C,
 0,4.7290569706,2.4650885639,-1.4680905356\C,0,4.096135248,3.6673208923
 ,-1.2176613374\C,0,2.7664353995,3.241735875,-0.5486034073\C,0,6.020290
 0334,2.1656484362,-2.0924507739\C,0,4.6256633597,5.0590374209,-1.24781
 74536\C,0,6.880645616,3.1561820396,-2.6033750056\H,0,-4.1913670874,2.0
 471797629,0.3422337654\H,0,-4.8124496741,-0.8197369648,0.9929705454\H,
 0,-4.7697270919,0.6394381729,2.3150636409\H,0,-2.6027976902,-1.7456514
 226,-0.1955719485\H,0,-3.4990355969,0.5584389201,-1.7777949768\H,0,0.2
 02776862,0.2689668702,3.6757129035\H,0,1.4602244664,-0.2930291869,2.37
 57959\H,0,-0.6894194344,-2.7523031936,-0.3567758592\H,0,-3.274869639,1
 .3519217775,3.6283290005\H,0,-1.5927041298,1.3926278903,4.1823079554\H
 ,0,-2.1718999893,2.6715957954,2.9594981038\H,0,-6.6763915343,2.6879677
 489,1.5319413129\H,0,-7.5560683151,1.0202483532,1.718644287\H,0,-7.982
 896781,2.3759297631,0.3828172789\H,0,1.1369458759,2.2610187099,1.43625
 3633\H,0,0.3924432844,2.540462134,2.9568560401\H,0,1.7034459629,0.2397
 803682,-0.0934915753\H,0,1.754403699,-5.0553510583,-1.8668647487\H,0,0
 .380156096,-4.4316330767,-1.0891916889\H,0,-7.8304383688,1.1067533093,
 -3.089089821\H,0,1.6780107412,-4.5604003443,1.2957292605\H,0,3.0637774
 206,-5.3862851075,0.1705509935\H,0,3.976092053,-4.2470722357,-2.147793
 832\H,0,5.2504071622,-2.9800568865,-1.405575479\H,0,4.3904261389,-2.88
 68007357,-2.9349138137\H,0,5.0762604331,-0.4734314519,-1.816538342\H,0
 ,-9.2725167739,0.7319640936,-0.3785385401\H,0,-10.1799761627,0.8800923
 876,-2.1694666884\H,0,3.498596291,3.111303699,3.9088990721\H,0,6.25812
 08177,1.0159458011,-2.0547829815\H,0,4.7417451847,5.5274658386,-2.2052
 675818\H,0,3.8247604801,5.7186489348,-0.651958279\H,0,5.5807498465,5.1
 251189665,-0.6824099891\H,0,1.3465121897,-8.138515094,1.6262622993\H,0
 ,7.8469359754,2.9672740337,-2.7730260648\H,0,6.5246839127,4.198097381,
 -2.6477276619\\Version=ES64L-G09RevD.01\State=1-A\HF=-1947.8291263\RMS
 D=2.920e-09\PG=C01 [X(C33H36N4O6)]\\@


 MORNING PEOPLE ARE USUALLY ADMIRED AS EARLY BIRDS.
 RECALL BEN FRANKLIN'S APHORISM THAT THE EARLY BIRD GETS THE WORM.
 I IDENTIFY WITH THE WORM. --  CRAIG JAGGER, MINNEAPOLIS, KS.
 Job cpu time:       0 days  4 hours 12 minutes 59.5 seconds.
 File lengths (MBytes):  RWF=    769 Int=      0 D2E=      0 Chk=     58 Scr=      1
 Normal termination of Gaussian 09 at Tue Jul  9 17:38:37 2019.
