 Entering Gaussian System, Link 0=g16
 Input=Geometria-81-.com
 Output=Geometria-81-.log
 Initial command:
 /usr/local/g09/l1.exe "/home/padawan/israel-mol/dihydrobiliverdin/spectra/abs/Gau-42075.inp" -scrdir="/home/padawan/israel-mol/dihydrobiliverdin/spectra/abs/"
 Entering Link 1 = /usr/local/g09/l1.exe PID=     42077.
  
 Copyright (c) 1988,1990,1992,1993,1995,1998,2003,2009,2013,
            Gaussian, Inc.  All Rights Reserved.
  
 This is part of the Gaussian(R) 09 program.  It is based on
 the Gaussian(R) 03 system (copyright 2003, Gaussian, Inc.),
 the Gaussian(R) 98 system (copyright 1998, Gaussian, Inc.),
 the Gaussian(R) 94 system (copyright 1995, Gaussian, Inc.),
 the Gaussian 92(TM) system (copyright 1992, Gaussian, Inc.),
 the Gaussian 90(TM) system (copyright 1990, Gaussian, Inc.),
 the Gaussian 88(TM) system (copyright 1988, Gaussian, Inc.),
 the Gaussian 86(TM) system (copyright 1986, Carnegie Mellon
 University), and the Gaussian 82(TM) system (copyright 1983,
 Carnegie Mellon University). Gaussian is a federally registered
 trademark of Gaussian, Inc.
  
 This software contains proprietary and confidential information,
 including trade secrets, belonging to Gaussian, Inc.
  
 This software is provided under written license and may be
 used, copied, transmitted, or stored only in accord with that
 written license.
  
 The following legend is applicable only to US Government
 contracts under FAR:
  
                    RESTRICTED RIGHTS LEGEND
  
 Use, reproduction and disclosure by the US Government is
 subject to restrictions as set forth in subparagraphs (a)
 and (c) of the Commercial Computer Software - Restricted
 Rights clause in FAR 52.227-19.
  
 Gaussian, Inc.
 340 Quinnipiac St., Bldg. 40, Wallingford CT 06492
  
  
 ---------------------------------------------------------------
 Warning -- This program may not be used in any manner that
 competes with the business of Gaussian, Inc. or will provide
 assistance to any competitor of Gaussian, Inc.  The licensee
 of this program is prohibited from giving any competitor of
 Gaussian, Inc. access to this program.  By using this program,
 the user acknowledges that Gaussian, Inc. is engaged in the
 business of creating and licensing software in the field of
 computational chemistry and represents and warrants to the
 licensee that it is not a competitor of Gaussian, Inc. and that
 it will not use this program in any manner prohibited above.
 ---------------------------------------------------------------
  

 Cite this work as:
 Gaussian 09, Revision D.01,
 M. J. Frisch, G. W. Trucks, H. B. Schlegel, G. E. Scuseria, 
 M. A. Robb, J. R. Cheeseman, G. Scalmani, V. Barone, B. Mennucci, 
 G. A. Petersson, H. Nakatsuji, M. Caricato, X. Li, H. P. Hratchian, 
 A. F. Izmaylov, J. Bloino, G. Zheng, J. L. Sonnenberg, M. Hada, 
 M. Ehara, K. Toyota, R. Fukuda, J. Hasegawa, M. Ishida, T. Nakajima, 
 Y. Honda, O. Kitao, H. Nakai, T. Vreven, J. A. Montgomery, Jr., 
 J. E. Peralta, F. Ogliaro, M. Bearpark, J. J. Heyd, E. Brothers, 
 K. N. Kudin, V. N. Staroverov, T. Keith, R. Kobayashi, J. Normand, 
 K. Raghavachari, A. Rendell, J. C. Burant, S. S. Iyengar, J. Tomasi, 
 M. Cossi, N. Rega, J. M. Millam, M. Klene, J. E. Knox, J. B. Cross, 
 V. Bakken, C. Adamo, J. Jaramillo, R. Gomperts, R. E. Stratmann, 
 O. Yazyev, A. J. Austin, R. Cammi, C. Pomelli, J. W. Ochterski, 
 R. L. Martin, K. Morokuma, V. G. Zakrzewski, G. A. Voth, 
 P. Salvador, J. J. Dannenberg, S. Dapprich, A. D. Daniels, 
 O. Farkas, J. B. Foresman, J. V. Ortiz, J. Cioslowski, 
 and D. J. Fox, Gaussian, Inc., Wallingford CT, 2013.
 
 ******************************************
 Gaussian 09:  ES64L-G09RevD.01 24-Apr-2013
                 8-Jul-2019 
 ******************************************
 %nproc=4
 Will use up to    4 processors via shared memory.
 %Mem=2GB
 --------------------------
 # td=(NStates=1) B3LYP/SVP
 --------------------------
 1/38=1/1;
 2/12=2,17=6,18=5,40=1/2;
 3/5=18,7=101,11=9,16=1,25=1,30=1,74=-5/1,2,8,3;
 4//1;
 5/5=2,38=5/2;
 8/6=1,10=1,108=1/1;
 9/41=1,42=1,70=2/14;
 6/7=2,8=2,9=2,10=2/1;
 99/5=1,9=1/99;
 --
 TD
 --
 Symbolic Z-matrix:
 Charge =  0 Multiplicity = 1
 8                    -5.32532   0.28927  -3.38238 
 8                     2.7367    3.09035   3.26856 
 8                     3.28536   0.92696   3.05947 
 8                     1.72611  -7.26099   1.45682 
 8                     0.35187  -6.96436  -0.37721 
 8                     1.83622   4.05318  -0.23656 
 7                    -2.39449  -1.1174    0.67868 
 7                    -4.35837   0.52204  -1.27411 
 7                     1.89128  -0.66447  -0.40762 
 7                     2.6956    1.9265   -0.47853 
 6                    -4.79385   1.22328  -0.07195 
 6                    -4.42231   0.225     1.24259 
 6                    -3.03308  -0.03568   1.39934 
 6                    -2.03793   0.64455   2.13931 
 6                    -0.82069   0.10185   1.76459 
 6                    -1.03317  -0.9283    0.94472 
 6                    -6.26645   1.33872  -0.21357 
 6                     0.5247    0.40748   2.41413 
 6                    -6.60745   1.02199  -1.49431 
 6                    -0.2242   -1.95617   0.29029 
 6                     1.06176  -1.78862  -0.36573 
 6                    -5.35755   0.54977  -2.19663 
 6                     1.89383  -2.9181   -0.84974 
 6                    -2.24352   1.6672    3.15767 
 6                    -7.06573   1.89751   0.94591 
 6                     3.07983  -2.3514   -1.31147 
 6                     0.99179   1.81975   2.38747 
 6                     3.03934  -0.92743  -0.89354 
 6                     1.44767  -4.30483  -0.86155 
 6                    -7.95359   0.95069  -2.07916 
 6                     1.74349  -5.05956   0.42739 
 6                     4.24907  -3.1722   -1.80057 
 6                     4.13848   0.00193  -1.11429 
 6                     2.45632   1.83731   2.94739 
 6                     3.77906   1.38381  -0.86751 
 6                    -9.15777   0.91174  -1.43013 
 6                     1.22626  -6.55154   0.37009 
 6                     4.70706   2.4068   -1.47433 
 6                     4.15528   3.61083  -1.11538 
 6                     2.77309   3.29085  -0.69309 
 6                     6.01139   2.18001  -2.05121 
 6                     4.48141   5.02927  -1.21681 
 6                     6.92877   3.19401  -2.44669 
 1                    -4.22894   2.14344  -0.0486 
 1                    -4.93479  -0.72748   0.9398 
 1                    -4.94894   0.77166   2.17765 
 1                    -2.676    -1.63078  -0.1598 
 1                    -3.36904   0.73255  -1.44733 
 1                     0.57245  -0.10015   3.56738 
 1                     1.37536  -0.0931    1.85364 
 1                    -0.67283  -2.97425   0.20847 
 1                    -3.27984   1.71341   3.66398 
 1                    -1.38645   1.33923   3.88969 
 1                    -2.01035   2.81388   2.70075 
 1                    -6.42956   2.50213   1.57755 
 1                    -7.69789   1.12314   1.50643 
 1                    -8.01587   2.62048   0.67057 
 1                     1.05015   2.0731    1.25362 
 1                     0.53214   2.7754    2.90467 
 1                     1.44668   0.14724  -0.04757 
 1                     1.82781  -4.80608  -1.85274 
 1                     0.28356  -4.31827  -1.11465 
 1                    -8.01764   0.86095  -3.09963 
 1                     1.23767  -4.53518   1.2965 
 1                     2.83217  -4.94474   0.86722 
 1                     3.96962  -4.30576  -1.90334 
 1                     5.23371  -2.98792  -1.23663 
 1                     4.58731  -2.7719   -2.71323 
 1                     5.11246  -0.33246  -1.6251 
 1                    -9.27021   0.90955  -0.43326 
 1                    -10.2791   0.82816  -2.0058 
 1                     3.86471   3.03187   3.41179 
 1                     6.28933   1.1279   -2.00204 
 1                     4.69161   5.19914  -2.49459 
 1                     3.75453   5.94026  -0.97262 
 1                     5.451     5.19234  -0.78736 
 1                     1.26735  -8.16894   1.2807 
 1                     8.0655    3.07574  -2.80305 
 1                     6.7107    4.24483  -2.38571 
 
 Stoichiometry    C33H36N4O6
 Framework group  C1[X(C33H36N4O6)]
 Deg. of freedom   231
 Full point group                 C1      NOp   1
 Largest Abelian subgroup         C1      NOp   1
 Largest concise Abelian subgroup C1      NOp   1
                         Standard orientation:                         
 ---------------------------------------------------------------------
 Center     Atomic      Atomic             Coordinates (Angstroms)
 Number     Number       Type             X           Y           Z
 ---------------------------------------------------------------------
      1          8           0        5.326662   -0.279797   -3.384059
      2          8           0       -2.711437   -3.080779    3.295816
      3          8           0       -3.274529   -0.922785    3.069924
      4          8           0       -1.770624    7.262209    1.400667
      5          8           0       -0.395910    6.960006   -0.432092
      6          8           0       -1.807386   -4.065604   -0.202264
      7          7           0        2.389820    1.139902    0.668118
      8          7           0        4.362936   -0.502088   -1.273183
      9          7           0       -1.893722    0.650061   -0.410929
     10          7           0       -2.680979   -1.946640   -0.460475
     11          6           0        4.803987   -1.190824   -0.065830
     12          6           0        4.426899   -0.184546    1.241007
     13          6           0        3.036102    0.068208    1.396841
     14          6           0        2.046051   -0.612634    2.143063
     15          6           0        0.824957   -0.080988    1.765040
     16          6           0        1.029986    0.943961    0.936802
     17          6           0        6.277206   -1.297671   -0.207768
     18          6           0       -0.517865   -0.390283    2.418132
     19          6           0        6.615096   -0.988946   -1.491282
     20          6           0        0.213733    1.961217    0.274867
     21          6           0       -1.071608    1.779958   -0.378703
     22          6           0        5.361553   -0.530603   -2.196294
     23          6           0       -1.911493    2.900019   -0.871016
     24          6           0        2.259193   -1.625743    3.169378
     25          6           0        7.081068   -1.841901    0.955456
     26          6           0       -3.094099    2.321843   -1.327211
     27          6           0       -0.975644   -1.805767    2.403145
     28          6           0       -3.043878    0.901559   -0.897965
     29          6           0       -1.474511    4.289532   -0.894272
     30          6           0        7.960273   -0.913439   -2.077818
     31          6           0       -1.774285    5.052562    0.388856
     32          6           0       -4.269117    3.130984   -1.821861
     33          6           0       -4.137035   -0.036766   -1.110364
     34          6           0       -2.439585   -1.828515    2.964422
     35          6           0       -3.768306   -1.414227   -0.852868
     36          6           0        9.164684   -0.861366   -1.430133
     37          6           0       -1.266964    6.547416    0.319214
     38          6           0       -4.690015   -2.448133   -1.450721
     39          6           0       -4.130012   -3.645586   -1.082639
     40          6           0       -2.749626   -3.313141   -0.664077
     41          6           0       -5.996263   -2.234560   -2.028289
     42          6           0       -4.446850   -5.066919   -1.172474
     43          6           0       -6.907243   -3.257710   -2.414894
     44          1           0        4.245181   -2.114470   -0.034660
     45          1           0        4.932846    0.768841    0.930193
     46          1           0        4.957862   -0.720240    2.179959
     47          1           0        2.667268    1.648418   -0.174672
     48          1           0        3.374884   -0.720494   -1.443887
     49          1           0       -0.568062    0.126213    3.567340
     50          1           0       -1.372253    0.100182    1.854390
     51          1           0        0.655568    2.981542    0.184551
     52          1           0        3.296194   -1.661072    3.675166
     53          1           0        1.400558   -1.297600    3.899473
     54          1           0        2.033239   -2.777549    2.721818
     55          1           0        6.449400   -2.445643    1.592438
     56          1           0        7.708549   -1.058931    1.509254
     57          1           0        8.035743   -2.560774    0.685095
     58          1           0       -1.033227   -2.068548    1.271394
     59          1           0       -0.509288   -2.754205    2.927565
     60          1           0       -1.443491   -0.155798   -0.044782
     61          1           0       -1.858735    4.780324   -1.889109
     62          1           0       -0.310712    4.308624   -1.148452
     63          1           0        8.022918   -0.831430   -3.099024
     64          1           0       -1.264329    4.538481    1.261697
     65          1           0       -2.861843    4.934080    0.830507
     66          1           0       -3.997235    4.265505   -1.933906
     67          1           0       -5.252066    2.944724   -1.255635
     68          1           0       -4.605421    2.721187   -2.731011
     69          1           0       -5.113606    0.287103   -1.623004
     70          1           0        9.277887   -0.850477   -0.433410
     71          1           0       10.284975   -0.774992   -2.007395
     72          1           0       -3.839697   -3.028587    3.439521
     73          1           0       -6.281108   -1.183944   -1.987284
     74          1           0       -4.656934   -5.248369   -2.448672
     75          1           0       -3.713784   -5.971114   -0.921630
     76          1           0       -5.415001   -5.232936   -0.740916
     77          1           0       -1.318014    8.171725    1.216922
     78          1           0       -8.045007   -3.149797   -2.771229
     79          1           0       -6.682195   -4.306555   -2.345716
 ---------------------------------------------------------------------
 Rotational constants (GHZ):      0.0747847      0.0449513      0.0346541
 Standard basis: SVP (5D, 7F)
 There are   825 symmetry adapted cartesian basis functions of A   symmetry.
 There are   782 symmetry adapted basis functions of A   symmetry.
   782 basis functions,  1327 primitive gaussians,   825 cartesian basis functions
   155 alpha electrons      155 beta electrons
       nuclear repulsion energy      4923.8902325156 Hartrees.
 NAtoms=   79 NActive=   79 NUniq=   79 SFac= 1.00D+00 NAtFMM=   60 NAOKFM=T Big=T
 Integral buffers will be    131072 words long.
 Regular integral format.
 Two-electron integral symmetry is turned on.
 One-electron integrals computed using PRISM.
 NBasis=   782 RedAO= T EigKep=  2.81D-04  NBF=   782
 NBsUse=   782 1.00D-06 EigRej= -1.00D+00 NBFU=   782
 ExpMin= 1.22D-01 ExpMax= 2.27D+03 ExpMxC= 3.41D+02 IAcc=1 IRadAn=         1 AccDes= 0.00D+00
 Harris functional with IExCor=  402 and IRadAn=       1 diagonalized for initial guess.
 HarFok:  IExCor=  402 AccDes= 0.00D+00 IRadAn=         1 IDoV= 1 UseB2=F ITyADJ=14
 ICtDFT=  3500011 ScaDFX=  1.000000  1.000000  1.000000  1.000000
 FoFCou: FMM=F IPFlag=           0 FMFlag=      100000 FMFlg1=        2001
         NFxFlg=           0 DoJE=T BraDBF=F KetDBF=T FulRan=T
         wScrn=  0.000000 ICntrl=     500 IOpCl=  0 I1Cent=   200000004 NGrid=           0
         NMat0=    1 NMatS0=      1 NMatT0=    0 NMatD0=    1 NMtDS0=    0 NMtDT0=    0
 Petite list used in FoFCou.
 Requested convergence on RMS density matrix=1.00D-08 within 128 cycles.
 Requested convergence on MAX density matrix=1.00D-06.
 Requested convergence on             energy=1.00D-06.
 No special actions if energy rises.
 Integral accuracy reduced to 1.0D-05 until final iterations.
 EnCoef did     2 forward-backward iterations
 Initial convergence to 1.0D-05 achieved.  Increase integral accuracy.
 SCF Done:  E(RB3LYP) =  -1947.83002366     A.U. after   19 cycles
            NFock= 19  Conv=0.70D-08     -V/T= 2.0114
 DoSCS=F DFT=T ScalE2(SS,OS)=  1.000000  1.000000
 ExpMin= 1.22D-01 ExpMax= 2.27D+03 ExpMxC= 3.41D+02 IAcc=3 IRadAn=         5 AccDes= 0.00D+00
 HarFok:  IExCor=  205 AccDes= 0.00D+00 IRadAn=         5 IDoV=-2 UseB2=F ITyADJ=14
 ICtDFT= 12500011 ScaDFX=  1.000000  1.000000  1.000000  1.000000
 Range of M.O.s used for correlation:    44   782
 NBasis=   782 NAE=   155 NBE=   155 NFC=    43 NFV=     0
 NROrb=    739 NOA=   112 NOB=   112 NVA=   627 NVB=   627

 **** Warning!!: The smallest alpha delta epsilon is  0.83128135D-01

 Would need an additional        140608300000 words for in-memory AO integral storage.
 Orbital symmetries:
       Occupied  (A) (A) (A) (A) (A) (A) (A) (A) (A) (A) (A) (A)
                 (A) (A) (A) (A) (A) (A) (A) (A) (A) (A) (A) (A)
                 (A) (A) (A) (A) (A) (A) (A) (A) (A) (A) (A) (A)
                 (A) (A) (A) (A) (A) (A) (A) (A) (A) (A) (A) (A)
                 (A) (A) (A) (A) (A) (A) (A) (A) (A) (A) (A) (A)
                 (A) (A) (A) (A) (A) (A) (A) (A) (A) (A) (A) (A)
                 (A) (A) (A) (A) (A) (A) (A) (A) (A) (A) (A) (A)
                 (A) (A) (A) (A) (A) (A) (A) (A) (A) (A) (A) (A)
                 (A) (A) (A) (A) (A) (A) (A) (A) (A) (A) (A) (A)
                 (A) (A) (A) (A) (A) (A) (A) (A) (A) (A) (A) (A)
                 (A) (A) (A) (A) (A) (A) (A) (A) (A) (A) (A) (A)
                 (A) (A) (A) (A) (A) (A) (A) (A) (A) (A) (A) (A)
                 (A) (A) (A) (A) (A) (A) (A) (A) (A) (A) (A)
       Virtual   (A) (A) (A) (A) (A) (A) (A) (A) (A) (A) (A) (A)
                 (A) (A) (A) (A) (A) (A) (A) (A) (A) (A) (A) (A)
                 (A) (A) (A) (A) (A) (A) (A) (A) (A) (A) (A) (A)
                 (A) (A) (A) (A) (A) (A) (A) (A) (A) (A) (A) (A)
                 (A) (A) (A) (A) (A) (A) (A) (A) (A) (A) (A) (A)
                 (A) (A) (A) (A) (A) (A) (A) (A) (A) (A) (A) (A)
                 (A) (A) (A) (A) (A) (A) (A) (A) (A) (A) (A) (A)
                 (A) (A) (A) (A) (A) (A) (A) (A) (A) (A) (A) (A)
                 (A) (A) (A) (A) (A) (A) (A) (A) (A) (A) (A) (A)
                 (A) (A) (A) (A) (A) (A) (A) (A) (A) (A) (A) (A)
                 (A) (A) (A) (A) (A) (A) (A) (A) (A) (A) (A) (A)
                 (A) (A) (A) (A) (A) (A) (A) (A) (A) (A) (A) (A)
                 (A) (A) (A) (A) (A) (A) (A) (A) (A) (A) (A) (A)
                 (A) (A) (A) (A) (A) (A) (A) (A) (A) (A) (A) (A)
                 (A) (A) (A) (A) (A) (A) (A) (A) (A) (A) (A) (A)
                 (A) (A) (A) (A) (A) (A) (A) (A) (A) (A) (A) (A)
                 (A) (A) (A) (A) (A) (A) (A) (A) (A) (A) (A) (A)
                 (A) (A) (A) (A) (A) (A) (A) (A) (A) (A) (A) (A)
                 (A) (A) (A) (A) (A) (A) (A) (A) (A) (A) (A) (A)
                 (A) (A) (A) (A) (A) (A) (A) (A) (A) (A) (A) (A)
                 (A) (A) (A) (A) (A) (A) (A) (A) (A) (A) (A) (A)
                 (A) (A) (A) (A) (A) (A) (A) (A) (A) (A) (A) (A)
                 (A) (A) (A) (A) (A) (A) (A) (A) (A) (A) (A) (A)
                 (A) (A) (A) (A) (A) (A) (A) (A) (A) (A) (A) (A)
                 (A) (A) (A) (A) (A) (A) (A) (A) (A) (A) (A) (A)
                 (A) (A) (A) (A) (A) (A) (A) (A) (A) (A) (A) (A)
                 (A) (A) (A) (A) (A) (A) (A) (A) (A) (A) (A) (A)
                 (A) (A) (A) (A) (A) (A) (A) (A) (A) (A) (A) (A)
                 (A) (A) (A) (A) (A) (A) (A) (A) (A) (A) (A) (A)
                 (A) (A) (A) (A) (A) (A) (A) (A) (A) (A) (A) (A)
                 (A) (A) (A) (A) (A) (A) (A) (A) (A) (A) (A) (A)
                 (A) (A) (A) (A) (A) (A) (A) (A) (A) (A) (A) (A)
                 (A) (A) (A) (A) (A) (A) (A) (A) (A) (A) (A) (A)
                 (A) (A) (A) (A) (A) (A) (A) (A) (A) (A) (A) (A)
                 (A) (A) (A) (A) (A) (A) (A) (A) (A) (A) (A) (A)
                 (A) (A) (A) (A) (A) (A) (A) (A) (A) (A) (A) (A)
                 (A) (A) (A) (A) (A) (A) (A) (A) (A) (A) (A) (A)
                 (A) (A) (A) (A) (A) (A) (A) (A) (A) (A) (A) (A)
                 (A) (A) (A) (A) (A) (A) (A) (A) (A) (A) (A) (A)
                 (A) (A) (A) (A) (A) (A) (A) (A) (A) (A) (A) (A)
                 (A) (A) (A) (A) (A) (A) (A) (A) (A) (A) (A) (A)
                 (A) (A) (A) (A) (A) (A) (A) (A) (A) (A) (A) (A)
                 (A) (A) (A) (A) (A) (A) (A) (A) (A) (A) (A) (A)
                 (A) (A) (A) (A) (A) (A) (A) (A) (A) (A) (A) (A)
                 (A) (A) (A) (A) (A) (A) (A) (A) (A) (A) (A) (A)
                 (A) (A) (A) (A) (A) (A) (A) (A) (A) (A) (A) (A)
                 (A) (A) (A) (A) (A) (A) (A) (A) (A) (A) (A) (A)
                 (A) (A) (A) (A) (A) (A) (A) (A) (A) (A) (A) (A)
                 (A) (A) (A) (A) (A) (A) (A) (A) (A) (A) (A) (A)
                 (A) (A) (A) (A) (A) (A) (A) (A) (A) (A) (A) (A)
                 (A) (A) (A) (A) (A) (A) (A) (A) (A) (A) (A) (A)
                 (A) (A) (A) (A) (A) (A) (A) (A) (A) (A) (A) (A)
                 (A) (A) (A)
     8 initial guesses have been made.
 Convergence on wavefunction:    0.001000000000000
 Iteration     1 Dimension     8 NMult     0 NNew      8
 CISAX will form     8 AO SS matrices at one time.
 Iteration     2 Dimension    12 NMult     8 NNew      4
 Iteration     3 Dimension    16 NMult    12 NNew      4
 Iteration     4 Dimension    20 NMult    16 NNew      4
 Iteration     5 Dimension    24 NMult    20 NNew      4
 Iteration     6 Dimension    28 NMult    24 NNew      4
 ***********************************************************************
 Excited states from <AA,BB:AA,BB> singles matrix:
 ***********************************************************************
 
 Ground to excited state transition densities written to RWF  633
 Ground to excited state transition electric dipole moments (Au):
       state          X           Y           Z        Dip. S.      Osc.
         1        -2.6745     -1.1171     -0.8683      9.1548      0.4658
 Ground to excited state transition velocity dipole moments (Au):
       state          X           Y           Z        Dip. S.      Osc.
         1         0.1959      0.0793      0.0644      0.0488      0.4264
 Ground to excited state transition magnetic dipole moments (Au):
       state          X           Y           Z
         1         0.6666      0.0460     -1.5009
 Ground to excited state transition velocity quadrupole moments (Au):
       state          XX          YY          ZZ          XY          XZ          YZ
         1        -0.3653     -0.4184      0.0835     -0.7453     -0.4233     -0.2367
 <0|del|b> * <b|rxdel|0> + <0|del|b> * <b|delr+rdel|0>
 Rotatory Strengths (R) in cgs (10**-40 erg-esu-cm/Gauss)
       state          XX          YY          ZZ    R(velocity)    E-M Angle
         1      -497.7999    164.7468    681.3367    116.0945       84.06
 1/2[<0|r|b>*<b|rxdel|0> + (<0|rxdel|b>*<b|r|0>)*]
 Rotatory Strengths (R) in cgs (10**-40 erg-esu-cm/Gauss)
       state          XX          YY          ZZ     R(length)
         1      1260.7099     36.3518   -921.6467    125.1383
  1/2[<0|del|b>*<b|r|0> + (<0|r|b>*<b|del|0>)*] (Au)
       state          X           Y           Z        Dip. S.   Osc.(frdel)
         1        -0.5240     -0.0885     -0.0559      0.6684      0.4456

 Excitation energies and oscillator strengths:
 
 Excited State   1:      Singlet-A      2.0769 eV  596.97 nm  f=0.4658  <S**2>=0.000
     154 ->156         0.16324
     155 ->156         0.68020
 This state for optimization and/or second-order correction.
 Total Energy, E(TD-HF/TD-KS) =  -1947.75369893    
 Copying the excited state density for this state as the 1-particle RhoCI density.
 SavETr:  write IOETrn=   770 NScale= 10 NData=  16 NLR=1 NState=    1 LETran=      28.

 **********************************************************************

            Population analysis using the SCF density.

 **********************************************************************

 Orbital symmetries:
       Occupied  (A) (A) (A) (A) (A) (A) (A) (A) (A) (A) (A) (A)
                 (A) (A) (A) (A) (A) (A) (A) (A) (A) (A) (A) (A)
                 (A) (A) (A) (A) (A) (A) (A) (A) (A) (A) (A) (A)
                 (A) (A) (A) (A) (A) (A) (A) (A) (A) (A) (A) (A)
                 (A) (A) (A) (A) (A) (A) (A) (A) (A) (A) (A) (A)
                 (A) (A) (A) (A) (A) (A) (A) (A) (A) (A) (A) (A)
                 (A) (A) (A) (A) (A) (A) (A) (A) (A) (A) (A) (A)
                 (A) (A) (A) (A) (A) (A) (A) (A) (A) (A) (A) (A)
                 (A) (A) (A) (A) (A) (A) (A) (A) (A) (A) (A) (A)
                 (A) (A) (A) (A) (A) (A) (A) (A) (A) (A) (A) (A)
                 (A) (A) (A) (A) (A) (A) (A) (A) (A) (A) (A) (A)
                 (A) (A) (A) (A) (A) (A) (A) (A) (A) (A) (A) (A)
                 (A) (A) (A) (A) (A) (A) (A) (A) (A) (A) (A)
       Virtual   (A) (A) (A) (A) (A) (A) (A) (A) (A) (A) (A) (A)
                 (A) (A) (A) (A) (A) (A) (A) (A) (A) (A) (A) (A)
                 (A) (A) (A) (A) (A) (A) (A) (A) (A) (A) (A) (A)
                 (A) (A) (A) (A) (A) (A) (A) (A) (A) (A) (A) (A)
                 (A) (A) (A) (A) (A) (A) (A) (A) (A) (A) (A) (A)
                 (A) (A) (A) (A) (A) (A) (A) (A) (A) (A) (A) (A)
                 (A) (A) (A) (A) (A) (A) (A) (A) (A) (A) (A) (A)
                 (A) (A) (A) (A) (A) (A) (A) (A) (A) (A) (A) (A)
                 (A) (A) (A) (A) (A) (A) (A) (A) (A) (A) (A) (A)
                 (A) (A) (A) (A) (A) (A) (A) (A) (A) (A) (A) (A)
                 (A) (A) (A) (A) (A) (A) (A) (A) (A) (A) (A) (A)
                 (A) (A) (A) (A) (A) (A) (A) (A) (A) (A) (A) (A)
                 (A) (A) (A) (A) (A) (A) (A) (A) (A) (A) (A) (A)
                 (A) (A) (A) (A) (A) (A) (A) (A) (A) (A) (A) (A)
                 (A) (A) (A) (A) (A) (A) (A) (A) (A) (A) (A) (A)
                 (A) (A) (A) (A) (A) (A) (A) (A) (A) (A) (A) (A)
                 (A) (A) (A) (A) (A) (A) (A) (A) (A) (A) (A) (A)
                 (A) (A) (A) (A) (A) (A) (A) (A) (A) (A) (A) (A)
                 (A) (A) (A) (A) (A) (A) (A) (A) (A) (A) (A) (A)
                 (A) (A) (A) (A) (A) (A) (A) (A) (A) (A) (A) (A)
                 (A) (A) (A) (A) (A) (A) (A) (A) (A) (A) (A) (A)
                 (A) (A) (A) (A) (A) (A) (A) (A) (A) (A) (A) (A)
                 (A) (A) (A) (A) (A) (A) (A) (A) (A) (A) (A) (A)
                 (A) (A) (A) (A) (A) (A) (A) (A) (A) (A) (A) (A)
                 (A) (A) (A) (A) (A) (A) (A) (A) (A) (A) (A) (A)
                 (A) (A) (A) (A) (A) (A) (A) (A) (A) (A) (A) (A)
                 (A) (A) (A) (A) (A) (A) (A) (A) (A) (A) (A) (A)
                 (A) (A) (A) (A) (A) (A) (A) (A) (A) (A) (A) (A)
                 (A) (A) (A) (A) (A) (A) (A) (A) (A) (A) (A) (A)
                 (A) (A) (A) (A) (A) (A) (A) (A) (A) (A) (A) (A)
                 (A) (A) (A) (A) (A) (A) (A) (A) (A) (A) (A) (A)
                 (A) (A) (A) (A) (A) (A) (A) (A) (A) (A) (A) (A)
                 (A) (A) (A) (A) (A) (A) (A) (A) (A) (A) (A) (A)
                 (A) (A) (A) (A) (A) (A) (A) (A) (A) (A) (A) (A)
                 (A) (A) (A) (A) (A) (A) (A) (A) (A) (A) (A) (A)
                 (A) (A) (A) (A) (A) (A) (A) (A) (A) (A) (A) (A)
                 (A) (A) (A) (A) (A) (A) (A) (A) (A) (A) (A) (A)
                 (A) (A) (A) (A) (A) (A) (A) (A) (A) (A) (A) (A)
                 (A) (A) (A) (A) (A) (A) (A) (A) (A) (A) (A) (A)
                 (A) (A) (A) (A) (A) (A) (A) (A) (A) (A) (A) (A)
                 (A) (A) (A) (A) (A) (A) (A) (A) (A) (A) (A) (A)
                 (A) (A) (A) (A) (A) (A) (A) (A) (A) (A) (A) (A)
                 (A) (A) (A) (A) (A) (A) (A) (A) (A) (A) (A) (A)
                 (A) (A) (A) (A) (A) (A) (A) (A) (A) (A) (A) (A)
                 (A) (A) (A) (A) (A) (A) (A) (A) (A) (A) (A) (A)
                 (A) (A) (A) (A) (A) (A) (A) (A) (A) (A) (A) (A)
                 (A) (A) (A) (A) (A) (A) (A) (A) (A) (A) (A) (A)
                 (A) (A) (A) (A) (A) (A) (A) (A) (A) (A) (A) (A)
                 (A) (A) (A) (A) (A) (A) (A) (A) (A) (A) (A) (A)
                 (A) (A) (A) (A) (A) (A) (A) (A) (A) (A) (A) (A)
                 (A) (A) (A) (A) (A) (A) (A) (A) (A) (A) (A) (A)
                 (A) (A) (A) (A) (A) (A) (A) (A) (A) (A) (A) (A)
                 (A) (A) (A)
 The electronic state is 1-A.
 Alpha  occ. eigenvalues --  -19.19901 -19.18161 -19.15048 -19.11452 -19.09973
 Alpha  occ. eigenvalues --  -19.09948 -14.38564 -14.38226 -14.35985 -14.28583
 Alpha  occ. eigenvalues --  -10.34168 -10.30636 -10.28779 -10.26187 -10.26001
 Alpha  occ. eigenvalues --  -10.25380 -10.25027 -10.23585 -10.23519 -10.23388
 Alpha  occ. eigenvalues --  -10.23228 -10.22893 -10.22786 -10.22682 -10.22502
 Alpha  occ. eigenvalues --  -10.22289 -10.21948 -10.21605 -10.21565 -10.21339
 Alpha  occ. eigenvalues --  -10.21309 -10.21219 -10.21172 -10.20803 -10.20726
 Alpha  occ. eigenvalues --  -10.20579 -10.20476 -10.20133 -10.19981 -10.19765
 Alpha  occ. eigenvalues --  -10.19577 -10.19518 -10.19073  -1.09401  -1.07754
 Alpha  occ. eigenvalues --   -1.02838  -1.01665  -1.01310  -0.98615  -0.97674
 Alpha  occ. eigenvalues --   -0.97626  -0.95186  -0.92431  -0.83727  -0.82647
 Alpha  occ. eigenvalues --   -0.82305  -0.81286  -0.80349  -0.79322  -0.77601
 Alpha  occ. eigenvalues --   -0.77022  -0.76225  -0.75327  -0.73658  -0.72371
 Alpha  occ. eigenvalues --   -0.71616  -0.71357  -0.69586  -0.68679  -0.68346
 Alpha  occ. eigenvalues --   -0.66409  -0.65583  -0.62942  -0.62018  -0.60892
 Alpha  occ. eigenvalues --   -0.59563  -0.59390  -0.58723  -0.58034  -0.57307
 Alpha  occ. eigenvalues --   -0.55762  -0.55524  -0.54959  -0.54510  -0.53006
 Alpha  occ. eigenvalues --   -0.52576  -0.52015  -0.50756  -0.50266  -0.49709
 Alpha  occ. eigenvalues --   -0.49568  -0.48889  -0.47995  -0.47655  -0.47224
 Alpha  occ. eigenvalues --   -0.46802  -0.46721  -0.46403  -0.46168  -0.45562
 Alpha  occ. eigenvalues --   -0.45008  -0.44823  -0.44330  -0.43913  -0.43655
 Alpha  occ. eigenvalues --   -0.43305  -0.43240  -0.43046  -0.42838  -0.42307
 Alpha  occ. eigenvalues --   -0.42052  -0.41844  -0.41806  -0.41249  -0.41140
 Alpha  occ. eigenvalues --   -0.40840  -0.40474  -0.40292  -0.40162  -0.39871
 Alpha  occ. eigenvalues --   -0.39600  -0.39212  -0.39091  -0.38789  -0.38572
 Alpha  occ. eigenvalues --   -0.38076  -0.37813  -0.37437  -0.37387  -0.37247
 Alpha  occ. eigenvalues --   -0.36444  -0.36055  -0.35045  -0.34086  -0.33946
 Alpha  occ. eigenvalues --   -0.33736  -0.33540  -0.32848  -0.32521  -0.31701
 Alpha  occ. eigenvalues --   -0.30668  -0.30566  -0.30010  -0.28485  -0.27465
 Alpha  occ. eigenvalues --   -0.26901  -0.26573  -0.25995  -0.25818  -0.25376
 Alpha  occ. eigenvalues --   -0.24573  -0.23827  -0.23156  -0.21777  -0.19357
 Alpha virt. eigenvalues --   -0.11044  -0.07276  -0.06092  -0.02381  -0.01573
 Alpha virt. eigenvalues --   -0.00556   0.00456   0.00759   0.01925   0.02266
 Alpha virt. eigenvalues --    0.02817   0.03517   0.03767   0.04015   0.04554
 Alpha virt. eigenvalues --    0.05011   0.05471   0.05503   0.05816   0.06365
 Alpha virt. eigenvalues --    0.06700   0.06816   0.06990   0.07462   0.07778
 Alpha virt. eigenvalues --    0.07925   0.08534   0.09089   0.09817   0.10062
 Alpha virt. eigenvalues --    0.10265   0.10427   0.11145   0.11436   0.11626
 Alpha virt. eigenvalues --    0.11939   0.12200   0.12799   0.12926   0.13030
 Alpha virt. eigenvalues --    0.13226   0.13535   0.14084   0.14481   0.14564
 Alpha virt. eigenvalues --    0.14974   0.16244   0.16643   0.16882   0.17118
 Alpha virt. eigenvalues --    0.17614   0.18569   0.18881   0.19259   0.19417
 Alpha virt. eigenvalues --    0.20028   0.20687   0.21242   0.21581   0.22138
 Alpha virt. eigenvalues --    0.22702   0.23081   0.23847   0.24213   0.24412
 Alpha virt. eigenvalues --    0.24922   0.24964   0.25324   0.25493   0.25884
 Alpha virt. eigenvalues --    0.26426   0.26945   0.27863   0.28021   0.28506
 Alpha virt. eigenvalues --    0.28678   0.29654   0.30062   0.30441   0.31149
 Alpha virt. eigenvalues --    0.31272   0.31775   0.32160   0.33170   0.33923
 Alpha virt. eigenvalues --    0.34359   0.34623   0.35181   0.35481   0.36186
 Alpha virt. eigenvalues --    0.36364   0.36619   0.37394   0.38050   0.38386
 Alpha virt. eigenvalues --    0.39347   0.39728   0.40325   0.40848   0.41278
 Alpha virt. eigenvalues --    0.41476   0.41816   0.42188   0.42644   0.42929
 Alpha virt. eigenvalues --    0.43283   0.43599   0.43663   0.44374   0.44552
 Alpha virt. eigenvalues --    0.45255   0.45524   0.45765   0.46285   0.46468
 Alpha virt. eigenvalues --    0.46603   0.47078   0.47304   0.47847   0.48259
 Alpha virt. eigenvalues --    0.48562   0.48901   0.49191   0.49564   0.49691
 Alpha virt. eigenvalues --    0.50170   0.50445   0.50832   0.50917   0.51198
 Alpha virt. eigenvalues --    0.51600   0.52116   0.52372   0.52436   0.52891
 Alpha virt. eigenvalues --    0.53334   0.53503   0.53997   0.54347   0.54838
 Alpha virt. eigenvalues --    0.55206   0.55317   0.55617   0.56019   0.56227
 Alpha virt. eigenvalues --    0.56415   0.57211   0.57418   0.57799   0.58087
 Alpha virt. eigenvalues --    0.58529   0.58653   0.58793   0.59198   0.59333
 Alpha virt. eigenvalues --    0.59848   0.60271   0.60658   0.60820   0.61116
 Alpha virt. eigenvalues --    0.61427   0.61562   0.61819   0.61936   0.62259
 Alpha virt. eigenvalues --    0.62560   0.62738   0.62984   0.63258   0.63460
 Alpha virt. eigenvalues --    0.64069   0.64269   0.64512   0.64820   0.64975
 Alpha virt. eigenvalues --    0.65221   0.65442   0.65804   0.66010   0.66152
 Alpha virt. eigenvalues --    0.66458   0.66770   0.66935   0.67161   0.67366
 Alpha virt. eigenvalues --    0.67684   0.67853   0.68098   0.68522   0.68780
 Alpha virt. eigenvalues --    0.69038   0.69270   0.69364   0.69780   0.70107
 Alpha virt. eigenvalues --    0.70649   0.70883   0.70974   0.71193   0.71786
 Alpha virt. eigenvalues --    0.72149   0.72281   0.73374   0.73477   0.74237
 Alpha virt. eigenvalues --    0.74383   0.74856   0.75123   0.75586   0.75729
 Alpha virt. eigenvalues --    0.76121   0.76424   0.76657   0.77027   0.77649
 Alpha virt. eigenvalues --    0.78162   0.79128   0.79514   0.80115   0.80412
 Alpha virt. eigenvalues --    0.80831   0.81289   0.81905   0.82105   0.82978
 Alpha virt. eigenvalues --    0.83473   0.84281   0.84973   0.85045   0.85922
 Alpha virt. eigenvalues --    0.86470   0.87090   0.87658   0.89163   0.89399
 Alpha virt. eigenvalues --    0.89942   0.90025   0.90951   0.92228   0.92533
 Alpha virt. eigenvalues --    0.93365   0.93749   0.94334   0.94890   0.95104
 Alpha virt. eigenvalues --    0.96208   0.96603   0.96794   0.97215   0.97905
 Alpha virt. eigenvalues --    0.98024   0.98366   0.99505   0.99542   1.01106
 Alpha virt. eigenvalues --    1.01266   1.01917   1.02979   1.03701   1.04325
 Alpha virt. eigenvalues --    1.04802   1.05325   1.05496   1.06238   1.07841
 Alpha virt. eigenvalues --    1.07997   1.08530   1.09770   1.10401   1.10883
 Alpha virt. eigenvalues --    1.11371   1.12079   1.12431   1.12925   1.13870
 Alpha virt. eigenvalues --    1.14005   1.15226   1.15384   1.16091   1.16808
 Alpha virt. eigenvalues --    1.17095   1.17226   1.19210   1.19485   1.20000
 Alpha virt. eigenvalues --    1.20538   1.21303   1.21404   1.21941   1.22560
 Alpha virt. eigenvalues --    1.23578   1.24081   1.24692   1.25015   1.25367
 Alpha virt. eigenvalues --    1.26520   1.26944   1.27378   1.28110   1.28710
 Alpha virt. eigenvalues --    1.29072   1.29783   1.30260   1.31585   1.32438
 Alpha virt. eigenvalues --    1.33326   1.34011   1.34314   1.35656   1.36288
 Alpha virt. eigenvalues --    1.37056   1.38502   1.39104   1.40003   1.41245
 Alpha virt. eigenvalues --    1.42043   1.42130   1.42851   1.44166   1.44420
 Alpha virt. eigenvalues --    1.44541   1.44937   1.45473   1.46491   1.46992
 Alpha virt. eigenvalues --    1.48081   1.48693   1.48808   1.49084   1.49748
 Alpha virt. eigenvalues --    1.50145   1.51068   1.51380   1.52440   1.53173
 Alpha virt. eigenvalues --    1.53574   1.54358   1.54444   1.55124   1.55413
 Alpha virt. eigenvalues --    1.55672   1.56871   1.57732   1.58342   1.58607
 Alpha virt. eigenvalues --    1.59840   1.60100   1.60265   1.60537   1.60714
 Alpha virt. eigenvalues --    1.60982   1.61678   1.61899   1.62614   1.62929
 Alpha virt. eigenvalues --    1.63544   1.64438   1.64951   1.65235   1.65335
 Alpha virt. eigenvalues --    1.65688   1.66069   1.66290   1.66534   1.67100
 Alpha virt. eigenvalues --    1.67438   1.68017   1.68047   1.68441   1.69021
 Alpha virt. eigenvalues --    1.69538   1.69987   1.70300   1.71252   1.71607
 Alpha virt. eigenvalues --    1.71844   1.72475   1.72692   1.73359   1.73573
 Alpha virt. eigenvalues --    1.74171   1.74588   1.75041   1.75196   1.75963
 Alpha virt. eigenvalues --    1.76188   1.76395   1.76943   1.76992   1.77792
 Alpha virt. eigenvalues --    1.78166   1.78248   1.78571   1.79751   1.79941
 Alpha virt. eigenvalues --    1.80061   1.80687   1.80897   1.81203   1.81633
 Alpha virt. eigenvalues --    1.82257   1.82678   1.82758   1.83699   1.83970
 Alpha virt. eigenvalues --    1.84324   1.84775   1.85464   1.85814   1.86540
 Alpha virt. eigenvalues --    1.86935   1.87162   1.87678   1.88211   1.88712
 Alpha virt. eigenvalues --    1.88879   1.89259   1.89620   1.89820   1.90338
 Alpha virt. eigenvalues --    1.90870   1.91271   1.92076   1.92098   1.92962
 Alpha virt. eigenvalues --    1.93245   1.93797   1.94149   1.94645   1.95225
 Alpha virt. eigenvalues --    1.95330   1.95528   1.96439   1.96830   1.97175
 Alpha virt. eigenvalues --    1.97700   1.97949   1.98437   1.99684   2.00078
 Alpha virt. eigenvalues --    2.00443   2.01143   2.02174   2.02558   2.02601
 Alpha virt. eigenvalues --    2.03046   2.03888   2.04819   2.04996   2.05430
 Alpha virt. eigenvalues --    2.05704   2.06126   2.06491   2.06826   2.07187
 Alpha virt. eigenvalues --    2.08150   2.08210   2.08570   2.09697   2.09809
 Alpha virt. eigenvalues --    2.10254   2.10697   2.11281   2.11999   2.13324
 Alpha virt. eigenvalues --    2.13698   2.14868   2.15333   2.16139   2.16975
 Alpha virt. eigenvalues --    2.17574   2.18206   2.18695   2.19625   2.20114
 Alpha virt. eigenvalues --    2.20962   2.22007   2.22301   2.23231   2.23563
 Alpha virt. eigenvalues --    2.24070   2.24399   2.25044   2.25686   2.26347
 Alpha virt. eigenvalues --    2.26956   2.27146   2.27788   2.28805   2.29005
 Alpha virt. eigenvalues --    2.30358   2.30958   2.32100   2.32371   2.32567
 Alpha virt. eigenvalues --    2.32853   2.33441   2.33710   2.34549   2.35503
 Alpha virt. eigenvalues --    2.36096   2.36385   2.36625   2.37228   2.37469
 Alpha virt. eigenvalues --    2.38251   2.38922   2.40054   2.40515   2.41032
 Alpha virt. eigenvalues --    2.41667   2.41935   2.43126   2.44385   2.44954
 Alpha virt. eigenvalues --    2.45967   2.46115   2.47688   2.48517   2.49510
 Alpha virt. eigenvalues --    2.51510   2.52221   2.52689   2.53501   2.55344
 Alpha virt. eigenvalues --    2.57012   2.57610   2.58336   2.58527   2.59911
 Alpha virt. eigenvalues --    2.60493   2.61214   2.62156   2.63128   2.63291
 Alpha virt. eigenvalues --    2.63759   2.64100   2.65150   2.65354   2.65973
 Alpha virt. eigenvalues --    2.66075   2.67172   2.67585   2.68552   2.68738
 Alpha virt. eigenvalues --    2.69454   2.70159   2.70748   2.70981   2.71842
 Alpha virt. eigenvalues --    2.72552   2.73303   2.73852   2.75560   2.76113
 Alpha virt. eigenvalues --    2.76322   2.76555   2.77204   2.78397   2.78501
 Alpha virt. eigenvalues --    2.79151   2.79892   2.80086   2.81167   2.81707
 Alpha virt. eigenvalues --    2.82494   2.82678   2.83839   2.84432   2.85155
 Alpha virt. eigenvalues --    2.86274   2.86984   2.87149   2.88271   2.88909
 Alpha virt. eigenvalues --    2.89190   2.89773   2.90649   2.91284   2.92697
 Alpha virt. eigenvalues --    2.93519   2.94395   2.94713   2.95410   2.96266
 Alpha virt. eigenvalues --    2.97891   2.98775   2.99290   2.99859   2.99923
 Alpha virt. eigenvalues --    3.03006   3.03582   3.03829   3.05151   3.05372
 Alpha virt. eigenvalues --    3.06071   3.08298   3.09203   3.12360   3.14971
 Alpha virt. eigenvalues --    3.15096   3.15859   3.16835   3.17688   3.18069
 Alpha virt. eigenvalues --    3.19454   3.19670   3.23558   3.25882   3.26366
 Alpha virt. eigenvalues --    3.32278   3.35359   3.37297   3.37769   3.38661
 Alpha virt. eigenvalues --    3.40129   3.43501   3.46482   3.51363   3.53815
 Alpha virt. eigenvalues --    3.58257   3.61271   3.62804   3.67090   3.68272
 Alpha virt. eigenvalues --    3.68373   3.70481
          Condensed to atoms (all electrons):
 Mulliken charges:
               1
     1  O   -0.209946
     2  O   -0.225213
     3  O   -0.271620
     4  O   -0.228115
     5  O   -0.226353
     6  O   -0.271689
     7  N   -0.144265
     8  N   -0.176012
     9  N    0.044541
    10  N   -0.194929
    11  C    0.020646
    12  C    0.104440
    13  C   -0.026894
    14  C   -0.084049
    15  C   -0.036304
    16  C    0.085987
    17  C   -0.117598
    18  C   -0.037372
    19  C   -0.020445
    20  C   -0.102486
    21  C    0.029418
    22  C    0.138622
    23  C   -0.079383
    24  C   -0.022426
    25  C    0.016528
    26  C   -0.131542
    27  C   -0.080858
    28  C    0.078182
    29  C    0.001211
    30  C    0.032727
    31  C   -0.035988
    32  C    0.084941
    33  C   -0.143480
    34  C    0.161945
    35  C    0.084038
    36  C   -0.042536
    37  C    0.186725
    38  C   -0.018226
    39  C   -0.148870
    40  C    0.145459
    41  C    0.010114
    42  C    0.002202
    43  C   -0.067456
    44  H    0.028861
    45  H    0.002266
    46  H    0.032056
    47  H    0.133422
    48  H    0.136354
    49  H    0.044055
    50  H    0.025981
    51  H    0.020617
    52  H    0.031732
    53  H    0.050675
    54  H    0.062724
    55  H    0.028909
    56  H    0.055543
    57  H    0.046990
    58  H    0.100188
    59  H    0.054557
    60  H    0.138632
    61  H    0.040866
    62  H    0.042256
    63  H   -0.021479
    64  H    0.054904
    65  H    0.056072
    66  H    0.045095
    67  H    0.033280
    68  H    0.002841
    69  H    0.019524
    70  H   -0.029893
    71  H    0.055305
    72  H    0.234592
    73  H   -0.015925
    74  H    0.041200
    75  H    0.070993
    76  H    0.026568
    77  H    0.203277
    78  H    0.051400
    79  H    0.011895
 Sum of Mulliken charges =   0.00000
 Mulliken charges with hydrogens summed into heavy atoms:
               1
     1  O   -0.209946
     2  O    0.009379
     3  O   -0.271620
     4  O   -0.024838
     5  O   -0.226353
     6  O   -0.271689
     7  N   -0.010843
     8  N   -0.039658
     9  N    0.183172
    10  N   -0.194929
    11  C    0.049507
    12  C    0.138762
    13  C   -0.026894
    14  C   -0.084049
    15  C   -0.036304
    16  C    0.085987
    17  C   -0.117598
    18  C    0.032664
    19  C   -0.020445
    20  C   -0.081869
    21  C    0.029418
    22  C    0.138622
    23  C   -0.079383
    24  C    0.122706
    25  C    0.147970
    26  C   -0.131542
    27  C    0.073887
    28  C    0.078182
    29  C    0.084333
    30  C    0.011247
    31  C    0.074987
    32  C    0.166157
    33  C   -0.123957
    34  C    0.161945
    35  C    0.084038
    36  C   -0.017124
    37  C    0.186725
    38  C   -0.018226
    39  C   -0.148870
    40  C    0.145459
    41  C   -0.005811
    42  C    0.140964
    43  C   -0.004161
 Electronic spatial extent (au):  <R**2>=          32101.7133
 Charge=              0.0000 electrons
 Dipole moment (field-independent basis, Debye):
    X=             -0.1196    Y=              2.8454    Z=              3.0538  Tot=              4.1756
 Quadrupole moment (field-independent basis, Debye-Ang):
   XX=           -222.8317   YY=           -245.5949   ZZ=           -269.9237
   XY=            -10.3887   XZ=             33.2576   YZ=             -1.1514
 Traceless Quadrupole moment (field-independent basis, Debye-Ang):
   XX=             23.2851   YY=              0.5219   ZZ=            -23.8070
   XY=            -10.3887   XZ=             33.2576   YZ=             -1.1514
 Octapole moment (field-independent basis, Debye-Ang**2):
  XXX=             10.2681  YYY=            163.9038  ZZZ=             83.7171  XYY=            -93.3732
  XXY=            -80.8013  XXZ=             83.6100  XZZ=            -65.4090  YZZ=             -7.8014
  YYZ=             53.5498  XYZ=              9.1397
 Hexadecapole moment (field-independent basis, Debye-Ang**3):
 XXXX=         -23538.6163 YYYY=         -11538.8716 ZZZZ=          -4949.1759 XXXY=             56.8141
 XXXZ=            740.3097 YYYX=           -160.4230 YYYZ=            493.6199 ZZZX=             74.6457
 ZZZY=           -122.3024 XXYY=          -6073.3178 XXZZ=          -5391.2965 YYZZ=          -2898.8840
 XXYZ=           -188.2906 YYXZ=             57.2260 ZZXY=             47.6471
 N-N= 4.923890232516D+03 E-N=-1.437492798897D+04  KE= 1.925910718161D+03
 1\1\GINC-PEDRO-RYZENSSD\SP\RB3LYP TD-FC\SVP\C33H36N4O6\PADAWAN\08-Jul-
 2019\0\\# td=(NStates=1) B3LYP/SVP\\TD\\0,1\O,0,-5.3253178936,0.289273
 0423,-3.3823810709\O,0,2.7367004961,3.0903547589,3.2685631207\O,0,3.28
 53592737,0.9269577049,3.059467908\O,0,1.7261067466,-7.2609920036,1.456
 8160914\O,0,0.3518719366,-6.9643573397,-0.3772116524\O,0,1.836217081,4
 .0531782848,-0.2365553911\N,0,-2.3944900517,-1.1173967463,0.6786843955
 \N,0,-4.3583697409,0.5220364522,-1.274109343\N,0,1.891278855,-0.664468
 4278,-0.4076222003\N,0,2.6956008305,1.9265011002,-0.4785253275\C,0,-4.
 7938516315,1.2232825077,-0.0719467382\C,0,-4.4223068361,0.2249989176,1
 .2425863193\C,0,-3.0330767639,-0.0356786855,1.3993352736\C,0,-2.037928
 8372,0.6445466017,2.1393147297\C,0,-0.8206859561,0.1018516267,1.764585
 2207\C,0,-1.0331676918,-0.9282979389,0.9447211804\C,0,-6.2664527427,1.
 3387156275,-0.2135697708\C,0,0.5246959529,0.407478671,2.4141260814\C,0
 ,-6.607453177,1.0219945047,-1.4943102887\C,0,-0.2241981618,-1.95617091
 82,0.2902862043\C,0,1.0617590871,-1.7886213747,-0.3657253657\C,0,-5.35
 75538135,0.5497746707,-2.1966291037\C,0,1.8938252524,-2.9180953855,-0.
 8497402906\C,0,-2.2435210933,1.6671984518,3.1576744074\C,0,-7.06572856
 51,1.8975052865,0.9459052044\C,0,3.0798335117,-2.351397164,-1.31147230
 43\C,0,0.9917859512,1.8197451167,2.3874739658\C,0,3.039340475,-0.92743
 21826,-0.8935429853\C,0,1.4476703049,-4.3048348631,-0.8615546294\C,0,-
 7.9535920801,0.9506896334,-2.0791626383\C,0,1.7434860387,-5.0595621986
 ,0.4273890654\C,0,4.2490726237,-3.1721984856,-1.8005720546\C,0,4.13848
 27905,0.001931855,-1.1142916243\C,0,2.4563182472,1.8373079051,2.947394
 6446\C,0,3.7790624321,1.3838076371,-0.867512522\C,0,-9.1577739504,0.91
 17390177,-1.4301317758\C,0,1.2262599344,-6.5515438839,0.3700878015\C,0
 ,4.7070647714,2.4068027353,-1.4743311596\C,0,4.1552811626,3.6108252427
 ,-1.1153811094\C,0,2.7730860646,3.2908507865,-0.6930878558\C,0,6.01138
 91433,2.1800098724,-2.0512066495\C,0,4.4814089343,5.0292744446,-1.2168
 143533\C,0,6.9287704284,3.194005822,-2.446689337\H,0,-4.2289408448,2.1
 434393888,-0.0485953175\H,0,-4.9347919083,-0.7274777389,0.9397952278\H
 ,0,-4.9489350127,0.7716613952,2.1776498995\H,0,-2.6759950099,-1.630779
 9355,-0.1597983711\H,0,-3.3690425976,0.7325463308,-1.4473319305\H,0,0.
 5724538297,-0.1001500415,3.5673820704\H,0,1.3753559796,-0.0930991939,1
 .8536436848\H,0,-0.6728277753,-2.9742453878,0.2084706655\H,0,-3.279840
 136,1.7134079261,3.6639825659\H,0,-1.3864535048,1.3392325508,3.8896886
 935\H,0,-2.0103538347,2.8138800238,2.7007522292\H,0,-6.4295568508,2.50
 2129165,1.5775458734\H,0,-7.6978924975,1.1231386423,1.5064330659\H,0,-
 8.0158700783,2.6204842185,0.6705660538\H,0,1.050147196,2.073099918,1.2
 536153691\H,0,0.5321372538,2.7753956274,2.9046708216\H,0,1.4466802863,
 0.1472411143,-0.0475669828\H,0,1.8278110397,-4.8060761308,-1.852743336
 5\H,0,0.283556436,-4.3182717406,-1.1146542351\H,0,-8.0176370887,0.8609
 487289,-3.0996308751\H,0,1.2376667068,-4.5351778221,1.2964993375\H,0,2
 .8321742603,-4.9447409531,0.8672206605\H,0,3.9696214059,-4.3057581043,
 -1.9033393865\H,0,5.233705492,-2.9879176726,-1.2366285844\H,0,4.587305
 8269,-2.7718992455,-2.7132316455\H,0,5.1124640535,-0.3324573545,-1.625
 0991981\H,0,-9.2702065429,0.9095518524,-0.4332640126\H,0,-10.279096074
 7,0.8281571941,-2.0058003217\H,0,3.8647129027,3.0318657552,3.411789361
 1\H,0,6.289333939,1.1278969962,-2.002037707\H,0,4.6916101712,5.1991430
 063,-2.4945865137\H,0,3.7545334574,5.940261096,-0.9726203452\H,0,5.450
 9968712,5.1923356882,-0.7873604841\H,0,1.2673542739,-8.1689381363,1.28
 06977429\H,0,8.0654978316,3.0757448808,-2.8030490671\H,0,6.7107025146,
 4.2448320545,-2.3857114602\\Version=ES64L-G09RevD.01\State=1-A\HF=-194
 7.8300237\RMSD=7.033e-09\PG=C01 [X(C33H36N4O6)]\\@


 A politician is a person who can make waves and then
 make you think he's the only one who can save the ship.
 -- Ivern Ball
 Job cpu time:       0 days  4 hours 44 minutes 17.0 seconds.
 File lengths (MBytes):  RWF=    769 Int=      0 D2E=      0 Chk=     58 Scr=      1
 Normal termination of Gaussian 09 at Mon Jul  8 01:37:43 2019.
