 Entering Gaussian System, Link 0=g16
 Input=Geometria-52-.com
 Output=Geometria-52-.log
 Initial command:
 /usr/local/g09/l1.exe "/home/padawan/israel-mol/dihydrobiliverdin/spectra/abs/Gau-39847.inp" -scrdir="/home/padawan/israel-mol/dihydrobiliverdin/spectra/abs/"
 Entering Link 1 = /usr/local/g09/l1.exe PID=     39849.
  
 Copyright (c) 1988,1990,1992,1993,1995,1998,2003,2009,2013,
            Gaussian, Inc.  All Rights Reserved.
  
 This is part of the Gaussian(R) 09 program.  It is based on
 the Gaussian(R) 03 system (copyright 2003, Gaussian, Inc.),
 the Gaussian(R) 98 system (copyright 1998, Gaussian, Inc.),
 the Gaussian(R) 94 system (copyright 1995, Gaussian, Inc.),
 the Gaussian 92(TM) system (copyright 1992, Gaussian, Inc.),
 the Gaussian 90(TM) system (copyright 1990, Gaussian, Inc.),
 the Gaussian 88(TM) system (copyright 1988, Gaussian, Inc.),
 the Gaussian 86(TM) system (copyright 1986, Carnegie Mellon
 University), and the Gaussian 82(TM) system (copyright 1983,
 Carnegie Mellon University). Gaussian is a federally registered
 trademark of Gaussian, Inc.
  
 This software contains proprietary and confidential information,
 including trade secrets, belonging to Gaussian, Inc.
  
 This software is provided under written license and may be
 used, copied, transmitted, or stored only in accord with that
 written license.
  
 The following legend is applicable only to US Government
 contracts under FAR:
  
                    RESTRICTED RIGHTS LEGEND
  
 Use, reproduction and disclosure by the US Government is
 subject to restrictions as set forth in subparagraphs (a)
 and (c) of the Commercial Computer Software - Restricted
 Rights clause in FAR 52.227-19.
  
 Gaussian, Inc.
 340 Quinnipiac St., Bldg. 40, Wallingford CT 06492
  
  
 ---------------------------------------------------------------
 Warning -- This program may not be used in any manner that
 competes with the business of Gaussian, Inc. or will provide
 assistance to any competitor of Gaussian, Inc.  The licensee
 of this program is prohibited from giving any competitor of
 Gaussian, Inc. access to this program.  By using this program,
 the user acknowledges that Gaussian, Inc. is engaged in the
 business of creating and licensing software in the field of
 computational chemistry and represents and warrants to the
 licensee that it is not a competitor of Gaussian, Inc. and that
 it will not use this program in any manner prohibited above.
 ---------------------------------------------------------------
  

 Cite this work as:
 Gaussian 09, Revision D.01,
 M. J. Frisch, G. W. Trucks, H. B. Schlegel, G. E. Scuseria, 
 M. A. Robb, J. R. Cheeseman, G. Scalmani, V. Barone, B. Mennucci, 
 G. A. Petersson, H. Nakatsuji, M. Caricato, X. Li, H. P. Hratchian, 
 A. F. Izmaylov, J. Bloino, G. Zheng, J. L. Sonnenberg, M. Hada, 
 M. Ehara, K. Toyota, R. Fukuda, J. Hasegawa, M. Ishida, T. Nakajima, 
 Y. Honda, O. Kitao, H. Nakai, T. Vreven, J. A. Montgomery, Jr., 
 J. E. Peralta, F. Ogliaro, M. Bearpark, J. J. Heyd, E. Brothers, 
 K. N. Kudin, V. N. Staroverov, T. Keith, R. Kobayashi, J. Normand, 
 K. Raghavachari, A. Rendell, J. C. Burant, S. S. Iyengar, J. Tomasi, 
 M. Cossi, N. Rega, J. M. Millam, M. Klene, J. E. Knox, J. B. Cross, 
 V. Bakken, C. Adamo, J. Jaramillo, R. Gomperts, R. E. Stratmann, 
 O. Yazyev, A. J. Austin, R. Cammi, C. Pomelli, J. W. Ochterski, 
 R. L. Martin, K. Morokuma, V. G. Zakrzewski, G. A. Voth, 
 P. Salvador, J. J. Dannenberg, S. Dapprich, A. D. Daniels, 
 O. Farkas, J. B. Foresman, J. V. Ortiz, J. Cioslowski, 
 and D. J. Fox, Gaussian, Inc., Wallingford CT, 2013.
 
 ******************************************
 Gaussian 09:  ES64L-G09RevD.01 24-Apr-2013
                 7-Jul-2019 
 ******************************************
 %nproc=4
 Will use up to    4 processors via shared memory.
 %Mem=2GB
 --------------------------
 # td=(NStates=1) B3LYP/SVP
 --------------------------
 1/38=1/1;
 2/12=2,17=6,18=5,40=1/2;
 3/5=18,7=101,11=9,16=1,25=1,30=1,74=-5/1,2,8,3;
 4//1;
 5/5=2,38=5/2;
 8/6=1,10=1,108=1/1;
 9/41=1,42=1,70=2/14;
 6/7=2,8=2,9=2,10=2/1;
 99/5=1,9=1/99;
 --
 TD
 --
 Symbolic Z-matrix:
 Charge =  0 Multiplicity = 1
 8                    -5.31633   0.37985  -3.3845 
 8                     2.63155   3.2926    3.66937 
 8                     3.15997   1.0594    3.55698 
 8                     1.60575  -7.20411   1.53492 
 8                     0.40691  -7.06748  -0.40633 
 8                     2.068     3.96275  -0.08849 
 7                    -2.3552   -0.80777   0.57407 
 7                    -4.35863   0.74819  -1.2554 
 7                     1.86531  -0.72207  -0.4689 
 7                     2.77299   1.76889  -0.51652 
 6                    -4.8551    1.24256  -0.01805 
 6                    -4.48394   0.31283   1.2348 
 6                    -3.00007   0.25179   1.35303 
 6                    -1.94408   0.79439   2.12098 
 6                    -0.72985   0.18952   1.82706 
 6                    -1.0892   -0.8058    0.82574 
 6                    -6.40642   1.23903  -0.11041 
 6                     0.60925   0.39087   2.48073 
 6                    -6.73312   0.71597  -1.35137 
 6                    -0.20225  -1.77264   0.06019 
 6                     1.04674  -1.8249   -0.49439 
 6                    -5.39828   0.57975  -2.1579 
 6                     1.85548  -2.93402  -0.97858 
 6                    -2.19981   1.87474   3.02941 
 6                    -7.25236   1.81052   0.94906 
 6                     3.03175  -2.36176  -1.51768 
 6                     1.0986    1.84913   2.48157 
 6                     3.085    -0.97999  -1.16932 
 6                     1.28148  -4.45408  -0.95943 
 6                    -7.98727   0.52006  -2.11409 
 6                     1.63322  -5.16323   0.41976 
 6                     4.18831  -3.04573  -2.07024 
 6                     4.11076  -0.01378  -1.35719 
 6                     2.40007   1.94219   3.24409 
 6                     3.85978   1.36994  -1.05487 
 6                    -9.19716   0.43884  -1.46294 
 6                     1.19506  -6.56412   0.42063 
 6                     4.93176   2.3903   -1.46249 
 6                     4.22925   3.54766  -1.07796 
 6                     2.84101   3.22723  -0.51672 
 6                     6.26552   2.16193  -1.9587 
 6                     4.69057   4.98847  -1.13629 
 6                     6.94799   3.03157  -2.87758 
 1                    -4.65159   2.31652   0.23896 
 1                    -4.8139   -0.74974   0.99608 
 1                    -4.89496   0.63129   2.16392 
 1                    -2.89191  -1.35602   0.07233 
 1                    -3.3833    0.86225  -1.72685 
 1                     0.3857    0.22655   3.46759 
 1                     1.48466  -0.24182   2.1938 
 1                    -0.80684  -2.62834  -0.19078 
 1                    -3.3917    2.1313    3.28286 
 1                    -1.78698   1.51685   3.87033 
 1                    -1.78798   2.73777   2.64888 
 1                    -6.65641   2.76896   1.42452 
 1                    -7.35608   1.0903    1.85529 
 1                    -8.37681   2.20977   0.68399 
 1                     1.26986   2.43167   1.52649 
 1                     0.27318   2.65639   2.85863 
 1                     1.68216   0.32584  -0.33232 
 1                     1.72832  -4.98062  -1.63869 
 1                     0.19886  -4.54428  -0.8388 
 1                    -7.80376   0.46111  -3.35424 
 1                     1.10904  -4.59311   1.39484 
 1                     2.66162  -5.22852   0.60833 
 1                     3.9747   -4.28532  -2.24134 
 1                     5.0156   -2.97375  -1.27553 
 1                     4.24292  -2.64709  -3.0902 
 1                     4.94176  -0.36127  -2.06453 
 1                    -9.47956   0.35113  -0.41412 
 1                    -10.02741   0.26543  -2.1236 
 1                     3.50953   3.36388   4.31756 
 1                     6.7581    1.12657  -1.52382 
 1                     3.91597   5.54467  -2.09663 
 1                     4.40281   5.71088  -0.08007 
 1                     5.79891   5.0756   -1.42478 
 1                     1.43843  -8.27354   1.38019 
 1                     7.82559   2.81151  -3.01183 
 1                     6.40288   4.17095  -2.93175 
 
 Stoichiometry    C33H36N4O6
 Framework group  C1[X(C33H36N4O6)]
 Deg. of freedom   231
 Full point group                 C1      NOp   1
 Largest Abelian subgroup         C1      NOp   1
 Largest concise Abelian subgroup C1      NOp   1
                         Standard orientation:                         
 ---------------------------------------------------------------------
 Center     Atomic      Atomic             Coordinates (Angstroms)
 Number     Number       Type             X           Y           Z
 ---------------------------------------------------------------------
      1          8           0        5.286397   -0.348514   -3.432034
      2          8           0       -2.680546   -3.389139    3.545962
      3          8           0       -3.161801   -1.142533    3.531511
      4          8           0       -1.443314    7.164582    1.849704
      5          8           0       -0.259013    7.085040   -0.103624
      6          8           0       -2.153386   -3.911266   -0.240554
      7          7           0        2.374466    0.732568    0.593008
      8          7           0        4.333500   -0.786413   -1.313976
      9          7           0       -1.852922    0.780147   -0.424196
     10          7           0       -2.813852   -1.686865   -0.570822
     11          6           0        4.826514   -1.343108   -0.101977
     12          6           0        4.482619   -0.459645    1.191476
     13          6           0        3.001107   -0.372391    1.322176
     14          6           0        1.938269   -0.924639    2.073633
     15          6           0        0.735535   -0.282391    1.813696
     16          6           0        1.110211    0.746640    0.852889
     17          6           0        6.376989   -1.368376   -0.204552
     18          6           0       -0.603721   -0.482957    2.467291
     19          6           0        6.707532   -0.800243   -1.424493
     20          6           0        0.239647    1.763530    0.134836
     21          6           0       -1.011152    1.865550   -0.408618
     22          6           0        5.371221   -0.601862   -2.215541
     23          6           0       -1.798841    3.010992   -0.840097
     24          6           0        2.176168   -2.047643    2.933898
     25          6           0        7.216705   -2.001936    0.824118
     26          6           0       -2.990187    2.487011   -1.394940
     27          6           0       -1.124079   -1.929301    2.409862
     28          6           0       -3.070894    1.093157   -1.104873
     29          6           0       -1.192412    4.516437   -0.760659
     30          6           0        7.961105   -0.598691   -2.186693
     31          6           0       -1.520860    5.173802    0.649581
     32          6           0       -4.135082    3.218004   -1.910324
     33          6           0       -4.118137    0.157619   -1.326447
     34          6           0       -2.422771   -2.027105    3.176525
     35          6           0       -3.895002   -1.242644   -1.084518
     36          6           0        9.176237   -0.570659   -1.540859
     37          6           0       -1.052890    6.563839    0.706646
     38          6           0       -4.990885   -2.221996   -1.527620
     39          6           0       -4.311018   -3.409158   -1.197033
     40          6           0       -2.913003   -3.142138   -0.632133
     41          6           0       -6.322346   -1.944737   -2.004747
     42          6           0       -4.803335   -4.836158   -1.313029
     43          6           0       -7.028583   -2.760096   -2.954909
     44          1           0        4.601626   -2.422451    0.110834
     45          1           0        4.833792    0.604885    0.995616
     46          1           0        4.892160   -0.825765    2.103536
     47          1           0        2.919823    1.290142    0.111259
     48          1           0        3.353225   -0.859810   -1.783242
     49          1           0       -0.370946   -0.365336    3.458679
     50          1           0       -1.467074    0.179639    2.213226
     51          1           0        0.860902    2.616149   -0.083854
     52          1           0        3.363771   -2.339786    3.168258
     53          1           0        1.775998   -1.717063    3.791935
     54          1           0        1.743792   -2.884909    2.520050
     55          1           0        6.603212   -2.966871    1.262700
     56          1           0        7.341071   -1.323089    1.759230
     57          1           0        8.330804   -2.413232    0.534862
     58          1           0       -1.313316   -2.467126    1.432215
     59          1           0       -0.313903   -2.769038    2.746929
     60          1           0       -1.691404   -0.276239   -0.333212
     61          1           0       -1.631862    5.080582   -1.414056
     62          1           0       -0.107421    4.578600   -0.643616
     63          1           0        7.771658   -0.483417   -3.421984
     64          1           0       -1.003299    4.551972    1.596170
     65          1           0       -2.546515    5.252717    0.847670
     66          1           0       -3.896058    4.458948   -2.030377
     67          1           0       -4.959074    3.129895   -1.113809
     68          1           0       -4.204152    2.864160   -2.945813
     69          1           0       -4.945640    0.552202   -2.012879
     70          1           0        9.466564   -0.533415   -0.491204
     71          1           0       10.006132   -0.386971   -2.199194
     72          1           0       -3.556046   -3.469270    4.196462
     73          1           0       -6.790153   -0.918565   -1.523238
     74          1           0       -4.046412   -5.367395   -2.301191
     75          1           0       -4.524903   -5.608557   -0.290216
     76          1           0       -5.914950   -4.887602   -1.597475
     77          1           0       -1.254098    8.235842    1.739131
     78          1           0       -7.902054   -2.516089   -3.073831
     79          1           0       -6.508253   -3.907407   -3.060798
 ---------------------------------------------------------------------
 Rotational constants (GHZ):      0.0728249      0.0435698      0.0342635
 Standard basis: SVP (5D, 7F)
 There are   825 symmetry adapted cartesian basis functions of A   symmetry.
 There are   782 symmetry adapted basis functions of A   symmetry.
   782 basis functions,  1327 primitive gaussians,   825 cartesian basis functions
   155 alpha electrons      155 beta electrons
       nuclear repulsion energy      4871.7759524267 Hartrees.
 NAtoms=   79 NActive=   79 NUniq=   79 SFac= 1.00D+00 NAtFMM=   60 NAOKFM=T Big=T
 Integral buffers will be    131072 words long.
 Regular integral format.
 Two-electron integral symmetry is turned on.
 One-electron integrals computed using PRISM.
 NBasis=   782 RedAO= T EigKep=  2.86D-04  NBF=   782
 NBsUse=   782 1.00D-06 EigRej= -1.00D+00 NBFU=   782
 ExpMin= 1.22D-01 ExpMax= 2.27D+03 ExpMxC= 3.41D+02 IAcc=1 IRadAn=         1 AccDes= 0.00D+00
 Harris functional with IExCor=  402 and IRadAn=       1 diagonalized for initial guess.
 HarFok:  IExCor=  402 AccDes= 0.00D+00 IRadAn=         1 IDoV= 1 UseB2=F ITyADJ=14
 ICtDFT=  3500011 ScaDFX=  1.000000  1.000000  1.000000  1.000000
 FoFCou: FMM=F IPFlag=           0 FMFlag=      100000 FMFlg1=        2001
         NFxFlg=           0 DoJE=T BraDBF=F KetDBF=T FulRan=T
         wScrn=  0.000000 ICntrl=     500 IOpCl=  0 I1Cent=   200000004 NGrid=           0
         NMat0=    1 NMatS0=      1 NMatT0=    0 NMatD0=    1 NMtDS0=    0 NMtDT0=    0
 Petite list used in FoFCou.
 Requested convergence on RMS density matrix=1.00D-08 within 128 cycles.
 Requested convergence on MAX density matrix=1.00D-06.
 Requested convergence on             energy=1.00D-06.
 No special actions if energy rises.
 Integral accuracy reduced to 1.0D-05 until final iterations.
 Initial convergence to 1.0D-05 achieved.  Increase integral accuracy.
 SCF Done:  E(RB3LYP) =  -1947.73168758     A.U. after   16 cycles
            NFock= 16  Conv=0.75D-08     -V/T= 2.0113
 DoSCS=F DFT=T ScalE2(SS,OS)=  1.000000  1.000000
 ExpMin= 1.22D-01 ExpMax= 2.27D+03 ExpMxC= 3.41D+02 IAcc=3 IRadAn=         5 AccDes= 0.00D+00
 HarFok:  IExCor=  205 AccDes= 0.00D+00 IRadAn=         5 IDoV=-2 UseB2=F ITyADJ=14
 ICtDFT= 12500011 ScaDFX=  1.000000  1.000000  1.000000  1.000000
 Range of M.O.s used for correlation:    44   782
 NBasis=   782 NAE=   155 NBE=   155 NFC=    43 NFV=     0
 NROrb=    739 NOA=   112 NOB=   112 NVA=   627 NVB=   627

 **** Warning!!: The smallest alpha delta epsilon is  0.79975650D-01

 Would need an additional        140608300000 words for in-memory AO integral storage.
 Orbital symmetries:
       Occupied  (A) (A) (A) (A) (A) (A) (A) (A) (A) (A) (A) (A)
                 (A) (A) (A) (A) (A) (A) (A) (A) (A) (A) (A) (A)
                 (A) (A) (A) (A) (A) (A) (A) (A) (A) (A) (A) (A)
                 (A) (A) (A) (A) (A) (A) (A) (A) (A) (A) (A) (A)
                 (A) (A) (A) (A) (A) (A) (A) (A) (A) (A) (A) (A)
                 (A) (A) (A) (A) (A) (A) (A) (A) (A) (A) (A) (A)
                 (A) (A) (A) (A) (A) (A) (A) (A) (A) (A) (A) (A)
                 (A) (A) (A) (A) (A) (A) (A) (A) (A) (A) (A) (A)
                 (A) (A) (A) (A) (A) (A) (A) (A) (A) (A) (A) (A)
                 (A) (A) (A) (A) (A) (A) (A) (A) (A) (A) (A) (A)
                 (A) (A) (A) (A) (A) (A) (A) (A) (A) (A) (A) (A)
                 (A) (A) (A) (A) (A) (A) (A) (A) (A) (A) (A) (A)
                 (A) (A) (A) (A) (A) (A) (A) (A) (A) (A) (A)
       Virtual   (A) (A) (A) (A) (A) (A) (A) (A) (A) (A) (A) (A)
                 (A) (A) (A) (A) (A) (A) (A) (A) (A) (A) (A) (A)
                 (A) (A) (A) (A) (A) (A) (A) (A) (A) (A) (A) (A)
                 (A) (A) (A) (A) (A) (A) (A) (A) (A) (A) (A) (A)
                 (A) (A) (A) (A) (A) (A) (A) (A) (A) (A) (A) (A)
                 (A) (A) (A) (A) (A) (A) (A) (A) (A) (A) (A) (A)
                 (A) (A) (A) (A) (A) (A) (A) (A) (A) (A) (A) (A)
                 (A) (A) (A) (A) (A) (A) (A) (A) (A) (A) (A) (A)
                 (A) (A) (A) (A) (A) (A) (A) (A) (A) (A) (A) (A)
                 (A) (A) (A) (A) (A) (A) (A) (A) (A) (A) (A) (A)
                 (A) (A) (A) (A) (A) (A) (A) (A) (A) (A) (A) (A)
                 (A) (A) (A) (A) (A) (A) (A) (A) (A) (A) (A) (A)
                 (A) (A) (A) (A) (A) (A) (A) (A) (A) (A) (A) (A)
                 (A) (A) (A) (A) (A) (A) (A) (A) (A) (A) (A) (A)
                 (A) (A) (A) (A) (A) (A) (A) (A) (A) (A) (A) (A)
                 (A) (A) (A) (A) (A) (A) (A) (A) (A) (A) (A) (A)
                 (A) (A) (A) (A) (A) (A) (A) (A) (A) (A) (A) (A)
                 (A) (A) (A) (A) (A) (A) (A) (A) (A) (A) (A) (A)
                 (A) (A) (A) (A) (A) (A) (A) (A) (A) (A) (A) (A)
                 (A) (A) (A) (A) (A) (A) (A) (A) (A) (A) (A) (A)
                 (A) (A) (A) (A) (A) (A) (A) (A) (A) (A) (A) (A)
                 (A) (A) (A) (A) (A) (A) (A) (A) (A) (A) (A) (A)
                 (A) (A) (A) (A) (A) (A) (A) (A) (A) (A) (A) (A)
                 (A) (A) (A) (A) (A) (A) (A) (A) (A) (A) (A) (A)
                 (A) (A) (A) (A) (A) (A) (A) (A) (A) (A) (A) (A)
                 (A) (A) (A) (A) (A) (A) (A) (A) (A) (A) (A) (A)
                 (A) (A) (A) (A) (A) (A) (A) (A) (A) (A) (A) (A)
                 (A) (A) (A) (A) (A) (A) (A) (A) (A) (A) (A) (A)
                 (A) (A) (A) (A) (A) (A) (A) (A) (A) (A) (A) (A)
                 (A) (A) (A) (A) (A) (A) (A) (A) (A) (A) (A) (A)
                 (A) (A) (A) (A) (A) (A) (A) (A) (A) (A) (A) (A)
                 (A) (A) (A) (A) (A) (A) (A) (A) (A) (A) (A) (A)
                 (A) (A) (A) (A) (A) (A) (A) (A) (A) (A) (A) (A)
                 (A) (A) (A) (A) (A) (A) (A) (A) (A) (A) (A) (A)
                 (A) (A) (A) (A) (A) (A) (A) (A) (A) (A) (A) (A)
                 (A) (A) (A) (A) (A) (A) (A) (A) (A) (A) (A) (A)
                 (A) (A) (A) (A) (A) (A) (A) (A) (A) (A) (A) (A)
                 (A) (A) (A) (A) (A) (A) (A) (A) (A) (A) (A) (A)
                 (A) (A) (A) (A) (A) (A) (A) (A) (A) (A) (A) (A)
                 (A) (A) (A) (A) (A) (A) (A) (A) (A) (A) (A) (A)
                 (A) (A) (A) (A) (A) (A) (A) (A) (A) (A) (A) (A)
                 (A) (A) (A) (A) (A) (A) (A) (A) (A) (A) (A) (A)
                 (A) (A) (A) (A) (A) (A) (A) (A) (A) (A) (A) (A)
                 (A) (A) (A) (A) (A) (A) (A) (A) (A) (A) (A) (A)
                 (A) (A) (A) (A) (A) (A) (A) (A) (A) (A) (A) (A)
                 (A) (A) (A) (A) (A) (A) (A) (A) (A) (A) (A) (A)
                 (A) (A) (A) (A) (A) (A) (A) (A) (A) (A) (A) (A)
                 (A) (A) (A) (A) (A) (A) (A) (A) (A) (A) (A) (A)
                 (A) (A) (A) (A) (A) (A) (A) (A) (A) (A) (A) (A)
                 (A) (A) (A) (A) (A) (A) (A) (A) (A) (A) (A) (A)
                 (A) (A) (A) (A) (A) (A) (A) (A) (A) (A) (A) (A)
                 (A) (A) (A) (A) (A) (A) (A) (A) (A) (A) (A) (A)
                 (A) (A) (A)
     8 initial guesses have been made.
 Convergence on wavefunction:    0.001000000000000
 Iteration     1 Dimension     8 NMult     0 NNew      8
 CISAX will form     8 AO SS matrices at one time.
 Iteration     2 Dimension    12 NMult     8 NNew      4
 Iteration     3 Dimension    16 NMult    12 NNew      4
 Iteration     4 Dimension    20 NMult    16 NNew      4
 Iteration     5 Dimension    24 NMult    20 NNew      4
 Iteration     6 Dimension    28 NMult    24 NNew      4
 ***********************************************************************
 Excited states from <AA,BB:AA,BB> singles matrix:
 ***********************************************************************
 
 Ground to excited state transition densities written to RWF  633
 Ground to excited state transition electric dipole moments (Au):
       state          X           Y           Z        Dip. S.      Osc.
         1        -2.6653     -0.8501     -0.9577      8.7435      0.4310
 Ground to excited state transition velocity dipole moments (Au):
       state          X           Y           Z        Dip. S.      Osc.
         1         0.1897      0.0561      0.0687      0.0439      0.3956
 Ground to excited state transition magnetic dipole moments (Au):
       state          X           Y           Z
         1         0.7224     -0.0161     -1.5396
 Ground to excited state transition velocity quadrupole moments (Au):
       state          XX          YY          ZZ          XY          XZ          YZ
         1        -0.3175     -0.4500      0.0657     -0.6352     -0.4182     -0.2396
 <0|del|b> * <b|rxdel|0> + <0|del|b> * <b|delr+rdel|0>
 Rotatory Strengths (R) in cgs (10**-40 erg-esu-cm/Gauss)
       state          XX          YY          ZZ    R(velocity)    E-M Angle
         1      -606.6216    140.9939    756.3365     96.9030       85.11
 1/2[<0|r|b>*<b|rxdel|0> + (<0|rxdel|b>*<b|r|0>)*]
 Rotatory Strengths (R) in cgs (10**-40 erg-esu-cm/Gauss)
       state          XX          YY          ZZ     R(length)
         1      1361.6340     -9.6877  -1042.6802    103.0887
  1/2[<0|del|b>*<b|r|0> + (<0|r|b>*<b|del|0>)*] (Au)
       state          X           Y           Z        Dip. S.   Osc.(frdel)
         1        -0.5057     -0.0477     -0.0658      0.6192      0.4128

 Excitation energies and oscillator strengths:
 
 Excited State   1:      Singlet-A      2.0119 eV  616.24 nm  f=0.4310  <S**2>=0.000
     155 ->156         0.70043
     155 <-156        -0.10153
 This state for optimization and/or second-order correction.
 Total Energy, E(TD-HF/TD-KS) =  -1947.65775002    
 Copying the excited state density for this state as the 1-particle RhoCI density.
 SavETr:  write IOETrn=   770 NScale= 10 NData=  16 NLR=1 NState=    1 LETran=      28.

 **********************************************************************

            Population analysis using the SCF density.

 **********************************************************************

 Orbital symmetries:
       Occupied  (A) (A) (A) (A) (A) (A) (A) (A) (A) (A) (A) (A)
                 (A) (A) (A) (A) (A) (A) (A) (A) (A) (A) (A) (A)
                 (A) (A) (A) (A) (A) (A) (A) (A) (A) (A) (A) (A)
                 (A) (A) (A) (A) (A) (A) (A) (A) (A) (A) (A) (A)
                 (A) (A) (A) (A) (A) (A) (A) (A) (A) (A) (A) (A)
                 (A) (A) (A) (A) (A) (A) (A) (A) (A) (A) (A) (A)
                 (A) (A) (A) (A) (A) (A) (A) (A) (A) (A) (A) (A)
                 (A) (A) (A) (A) (A) (A) (A) (A) (A) (A) (A) (A)
                 (A) (A) (A) (A) (A) (A) (A) (A) (A) (A) (A) (A)
                 (A) (A) (A) (A) (A) (A) (A) (A) (A) (A) (A) (A)
                 (A) (A) (A) (A) (A) (A) (A) (A) (A) (A) (A) (A)
                 (A) (A) (A) (A) (A) (A) (A) (A) (A) (A) (A) (A)
                 (A) (A) (A) (A) (A) (A) (A) (A) (A) (A) (A)
       Virtual   (A) (A) (A) (A) (A) (A) (A) (A) (A) (A) (A) (A)
                 (A) (A) (A) (A) (A) (A) (A) (A) (A) (A) (A) (A)
                 (A) (A) (A) (A) (A) (A) (A) (A) (A) (A) (A) (A)
                 (A) (A) (A) (A) (A) (A) (A) (A) (A) (A) (A) (A)
                 (A) (A) (A) (A) (A) (A) (A) (A) (A) (A) (A) (A)
                 (A) (A) (A) (A) (A) (A) (A) (A) (A) (A) (A) (A)
                 (A) (A) (A) (A) (A) (A) (A) (A) (A) (A) (A) (A)
                 (A) (A) (A) (A) (A) (A) (A) (A) (A) (A) (A) (A)
                 (A) (A) (A) (A) (A) (A) (A) (A) (A) (A) (A) (A)
                 (A) (A) (A) (A) (A) (A) (A) (A) (A) (A) (A) (A)
                 (A) (A) (A) (A) (A) (A) (A) (A) (A) (A) (A) (A)
                 (A) (A) (A) (A) (A) (A) (A) (A) (A) (A) (A) (A)
                 (A) (A) (A) (A) (A) (A) (A) (A) (A) (A) (A) (A)
                 (A) (A) (A) (A) (A) (A) (A) (A) (A) (A) (A) (A)
                 (A) (A) (A) (A) (A) (A) (A) (A) (A) (A) (A) (A)
                 (A) (A) (A) (A) (A) (A) (A) (A) (A) (A) (A) (A)
                 (A) (A) (A) (A) (A) (A) (A) (A) (A) (A) (A) (A)
                 (A) (A) (A) (A) (A) (A) (A) (A) (A) (A) (A) (A)
                 (A) (A) (A) (A) (A) (A) (A) (A) (A) (A) (A) (A)
                 (A) (A) (A) (A) (A) (A) (A) (A) (A) (A) (A) (A)
                 (A) (A) (A) (A) (A) (A) (A) (A) (A) (A) (A) (A)
                 (A) (A) (A) (A) (A) (A) (A) (A) (A) (A) (A) (A)
                 (A) (A) (A) (A) (A) (A) (A) (A) (A) (A) (A) (A)
                 (A) (A) (A) (A) (A) (A) (A) (A) (A) (A) (A) (A)
                 (A) (A) (A) (A) (A) (A) (A) (A) (A) (A) (A) (A)
                 (A) (A) (A) (A) (A) (A) (A) (A) (A) (A) (A) (A)
                 (A) (A) (A) (A) (A) (A) (A) (A) (A) (A) (A) (A)
                 (A) (A) (A) (A) (A) (A) (A) (A) (A) (A) (A) (A)
                 (A) (A) (A) (A) (A) (A) (A) (A) (A) (A) (A) (A)
                 (A) (A) (A) (A) (A) (A) (A) (A) (A) (A) (A) (A)
                 (A) (A) (A) (A) (A) (A) (A) (A) (A) (A) (A) (A)
                 (A) (A) (A) (A) (A) (A) (A) (A) (A) (A) (A) (A)
                 (A) (A) (A) (A) (A) (A) (A) (A) (A) (A) (A) (A)
                 (A) (A) (A) (A) (A) (A) (A) (A) (A) (A) (A) (A)
                 (A) (A) (A) (A) (A) (A) (A) (A) (A) (A) (A) (A)
                 (A) (A) (A) (A) (A) (A) (A) (A) (A) (A) (A) (A)
                 (A) (A) (A) (A) (A) (A) (A) (A) (A) (A) (A) (A)
                 (A) (A) (A) (A) (A) (A) (A) (A) (A) (A) (A) (A)
                 (A) (A) (A) (A) (A) (A) (A) (A) (A) (A) (A) (A)
                 (A) (A) (A) (A) (A) (A) (A) (A) (A) (A) (A) (A)
                 (A) (A) (A) (A) (A) (A) (A) (A) (A) (A) (A) (A)
                 (A) (A) (A) (A) (A) (A) (A) (A) (A) (A) (A) (A)
                 (A) (A) (A) (A) (A) (A) (A) (A) (A) (A) (A) (A)
                 (A) (A) (A) (A) (A) (A) (A) (A) (A) (A) (A) (A)
                 (A) (A) (A) (A) (A) (A) (A) (A) (A) (A) (A) (A)
                 (A) (A) (A) (A) (A) (A) (A) (A) (A) (A) (A) (A)
                 (A) (A) (A) (A) (A) (A) (A) (A) (A) (A) (A) (A)
                 (A) (A) (A) (A) (A) (A) (A) (A) (A) (A) (A) (A)
                 (A) (A) (A) (A) (A) (A) (A) (A) (A) (A) (A) (A)
                 (A) (A) (A) (A) (A) (A) (A) (A) (A) (A) (A) (A)
                 (A) (A) (A) (A) (A) (A) (A) (A) (A) (A) (A) (A)
                 (A) (A) (A) (A) (A) (A) (A) (A) (A) (A) (A) (A)
                 (A) (A) (A)
 The electronic state is 1-A.
 Alpha  occ. eigenvalues --  -19.19719 -19.15759 -19.12989 -19.12562 -19.12206
 Alpha  occ. eigenvalues --  -19.10606 -14.37458 -14.37019 -14.35021 -14.29534
 Alpha  occ. eigenvalues --  -10.32564 -10.30988 -10.29092 -10.27862 -10.25947
 Alpha  occ. eigenvalues --  -10.24146 -10.23753 -10.23736 -10.23595 -10.23567
 Alpha  occ. eigenvalues --  -10.23125 -10.22829 -10.22678 -10.22373 -10.22224
 Alpha  occ. eigenvalues --  -10.22159 -10.21987 -10.21863 -10.21741 -10.21433
 Alpha  occ. eigenvalues --  -10.21114 -10.20884 -10.20849 -10.20844 -10.20770
 Alpha  occ. eigenvalues --  -10.20484 -10.20164 -10.19664 -10.19261 -10.19112
 Alpha  occ. eigenvalues --  -10.19068 -10.18915 -10.18747  -1.08604  -1.06739
 Alpha  occ. eigenvalues --   -1.05451  -1.01451  -0.99417  -0.99196  -0.96665
 Alpha  occ. eigenvalues --   -0.96397  -0.94177  -0.93079  -0.82946  -0.81631
 Alpha  occ. eigenvalues --   -0.81463  -0.80858  -0.79936  -0.79558  -0.77695
 Alpha  occ. eigenvalues --   -0.77217  -0.75738  -0.74734  -0.73561  -0.72753
 Alpha  occ. eigenvalues --   -0.71479  -0.70333  -0.69054  -0.68292  -0.67998
 Alpha  occ. eigenvalues --   -0.67367  -0.65365  -0.63289  -0.60983  -0.60332
 Alpha  occ. eigenvalues --   -0.59288  -0.58435  -0.58158  -0.56914  -0.55761
 Alpha  occ. eigenvalues --   -0.55276  -0.54844  -0.54578  -0.53545  -0.52638
 Alpha  occ. eigenvalues --   -0.52113  -0.51504  -0.50589  -0.50334  -0.49696
 Alpha  occ. eigenvalues --   -0.49034  -0.48232  -0.47804  -0.47666  -0.46987
 Alpha  occ. eigenvalues --   -0.46612  -0.46431  -0.46144  -0.45638  -0.45485
 Alpha  occ. eigenvalues --   -0.45260  -0.45136  -0.44685  -0.44294  -0.44105
 Alpha  occ. eigenvalues --   -0.43562  -0.43313  -0.42694  -0.42572  -0.42355
 Alpha  occ. eigenvalues --   -0.42165  -0.41756  -0.41607  -0.40978  -0.40674
 Alpha  occ. eigenvalues --   -0.40606  -0.40105  -0.39813  -0.39574  -0.39264
 Alpha  occ. eigenvalues --   -0.38831  -0.38605  -0.38134  -0.37854  -0.37676
 Alpha  occ. eigenvalues --   -0.37484  -0.37450  -0.37277  -0.37105  -0.36658
 Alpha  occ. eigenvalues --   -0.36193  -0.35726  -0.35446  -0.35064  -0.34699
 Alpha  occ. eigenvalues --   -0.34336  -0.33554  -0.32338  -0.31774  -0.31367
 Alpha  occ. eigenvalues --   -0.30476  -0.30190  -0.29490  -0.28482  -0.28350
 Alpha  occ. eigenvalues --   -0.27263  -0.27169  -0.25788  -0.25270  -0.25152
 Alpha  occ. eigenvalues --   -0.24491  -0.23734  -0.22848  -0.22256  -0.18580
 Alpha virt. eigenvalues --   -0.10582  -0.07012  -0.05877  -0.02032  -0.01958
 Alpha virt. eigenvalues --    0.00364   0.00754   0.00899   0.01336   0.02624
 Alpha virt. eigenvalues --    0.03190   0.03505   0.04052   0.04200   0.04473
 Alpha virt. eigenvalues --    0.05136   0.05264   0.05761   0.06049   0.06232
 Alpha virt. eigenvalues --    0.07023   0.07102   0.07308   0.07922   0.08164
 Alpha virt. eigenvalues --    0.08610   0.08695   0.08711   0.09410   0.09908
 Alpha virt. eigenvalues --    0.10277   0.10760   0.10886   0.11506   0.12007
 Alpha virt. eigenvalues --    0.12182   0.12885   0.13018   0.13157   0.14048
 Alpha virt. eigenvalues --    0.14089   0.14272   0.14521   0.15170   0.15272
 Alpha virt. eigenvalues --    0.15779   0.16027   0.16243   0.16371   0.16820
 Alpha virt. eigenvalues --    0.17157   0.17471   0.18296   0.18552   0.19345
 Alpha virt. eigenvalues --    0.20497   0.21136   0.21571   0.21775   0.22050
 Alpha virt. eigenvalues --    0.22233   0.22747   0.23106   0.23428   0.24061
 Alpha virt. eigenvalues --    0.24405   0.24684   0.24985   0.24990   0.25815
 Alpha virt. eigenvalues --    0.26227   0.27014   0.27584   0.27945   0.28014
 Alpha virt. eigenvalues --    0.28849   0.29110   0.29146   0.29679   0.30453
 Alpha virt. eigenvalues --    0.30933   0.31894   0.32230   0.32891   0.32998
 Alpha virt. eigenvalues --    0.33839   0.34357   0.34520   0.35644   0.36318
 Alpha virt. eigenvalues --    0.36695   0.37536   0.38160   0.39004   0.39143
 Alpha virt. eigenvalues --    0.39548   0.39960   0.40286   0.41070   0.41384
 Alpha virt. eigenvalues --    0.41693   0.42648   0.42956   0.43425   0.43974
 Alpha virt. eigenvalues --    0.44184   0.44458   0.44557   0.44846   0.45094
 Alpha virt. eigenvalues --    0.45317   0.45805   0.46031   0.46297   0.46508
 Alpha virt. eigenvalues --    0.46687   0.47166   0.47385   0.48062   0.48195
 Alpha virt. eigenvalues --    0.48488   0.48770   0.48853   0.49016   0.49306
 Alpha virt. eigenvalues --    0.49576   0.49898   0.50357   0.50577   0.51223
 Alpha virt. eigenvalues --    0.51753   0.51900   0.51962   0.52255   0.52599
 Alpha virt. eigenvalues --    0.53210   0.53270   0.53770   0.54138   0.54459
 Alpha virt. eigenvalues --    0.54961   0.55030   0.55460   0.56156   0.56350
 Alpha virt. eigenvalues --    0.56611   0.56781   0.57166   0.57667   0.57830
 Alpha virt. eigenvalues --    0.58205   0.58636   0.59098   0.59394   0.59530
 Alpha virt. eigenvalues --    0.59639   0.59972   0.60429   0.60683   0.60960
 Alpha virt. eigenvalues --    0.61320   0.61423   0.61689   0.62059   0.62203
 Alpha virt. eigenvalues --    0.62371   0.62895   0.63318   0.63507   0.63886
 Alpha virt. eigenvalues --    0.64377   0.64600   0.64680   0.64964   0.65388
 Alpha virt. eigenvalues --    0.65542   0.65567   0.65831   0.66123   0.66661
 Alpha virt. eigenvalues --    0.67149   0.67198   0.67320   0.67584   0.67791
 Alpha virt. eigenvalues --    0.68017   0.68360   0.68494   0.68805   0.68898
 Alpha virt. eigenvalues --    0.69390   0.69791   0.70102   0.70540   0.70622
 Alpha virt. eigenvalues --    0.71299   0.71602   0.71868   0.72150   0.72371
 Alpha virt. eigenvalues --    0.72697   0.73239   0.73523   0.73770   0.74159
 Alpha virt. eigenvalues --    0.74522   0.74654   0.74912   0.75671   0.75780
 Alpha virt. eigenvalues --    0.76437   0.76882   0.77214   0.77388   0.77445
 Alpha virt. eigenvalues --    0.78143   0.78645   0.78944   0.79193   0.79901
 Alpha virt. eigenvalues --    0.80483   0.80771   0.81753   0.82299   0.82500
 Alpha virt. eigenvalues --    0.82969   0.83502   0.84074   0.84379   0.85227
 Alpha virt. eigenvalues --    0.85586   0.86249   0.86833   0.87421   0.89224
 Alpha virt. eigenvalues --    0.89586   0.90222   0.90776   0.91106   0.92054
 Alpha virt. eigenvalues --    0.92553   0.93083   0.93441   0.94004   0.94293
 Alpha virt. eigenvalues --    0.94775   0.95821   0.96415   0.96694   0.97648
 Alpha virt. eigenvalues --    0.97894   0.98284   0.98967   0.99247   1.00258
 Alpha virt. eigenvalues --    1.00352   1.02137   1.02495   1.03254   1.04193
 Alpha virt. eigenvalues --    1.05041   1.05593   1.06446   1.07934   1.08531
 Alpha virt. eigenvalues --    1.08865   1.09088   1.10371   1.10629   1.11209
 Alpha virt. eigenvalues --    1.11776   1.12770   1.13341   1.13538   1.14040
 Alpha virt. eigenvalues --    1.15401   1.15653   1.16139   1.17232   1.18423
 Alpha virt. eigenvalues --    1.19321   1.20229   1.20636   1.21107   1.21438
 Alpha virt. eigenvalues --    1.22228   1.22726   1.23658   1.24030   1.24450
 Alpha virt. eigenvalues --    1.25305   1.25419   1.26252   1.26486   1.27979
 Alpha virt. eigenvalues --    1.27992   1.29397   1.29793   1.30427   1.31164
 Alpha virt. eigenvalues --    1.31500   1.32181   1.32610   1.32891   1.33322
 Alpha virt. eigenvalues --    1.33819   1.34979   1.35301   1.36509   1.37092
 Alpha virt. eigenvalues --    1.38074   1.38347   1.38922   1.40001   1.40795
 Alpha virt. eigenvalues --    1.41149   1.41961   1.42903   1.43162   1.43551
 Alpha virt. eigenvalues --    1.44400   1.44716   1.45255   1.45407   1.46222
 Alpha virt. eigenvalues --    1.46913   1.47201   1.47430   1.48154   1.48802
 Alpha virt. eigenvalues --    1.49305   1.50312   1.50769   1.50995   1.51953
 Alpha virt. eigenvalues --    1.53043   1.53359   1.53968   1.54704   1.55073
 Alpha virt. eigenvalues --    1.55254   1.55902   1.56210   1.57192   1.57378
 Alpha virt. eigenvalues --    1.57971   1.58419   1.59120   1.60029   1.60763
 Alpha virt. eigenvalues --    1.60874   1.61317   1.61850   1.62174   1.63090
 Alpha virt. eigenvalues --    1.63648   1.63732   1.64205   1.64680   1.64981
 Alpha virt. eigenvalues --    1.65406   1.65757   1.65905   1.66311   1.66780
 Alpha virt. eigenvalues --    1.66901   1.68004   1.68387   1.69067   1.69465
 Alpha virt. eigenvalues --    1.69793   1.69825   1.70160   1.70535   1.70971
 Alpha virt. eigenvalues --    1.71117   1.71269   1.71479   1.72406   1.72982
 Alpha virt. eigenvalues --    1.73369   1.73630   1.73965   1.74180   1.74675
 Alpha virt. eigenvalues --    1.75585   1.75692   1.76367   1.76922   1.77106
 Alpha virt. eigenvalues --    1.77836   1.78603   1.79095   1.79478   1.79608
 Alpha virt. eigenvalues --    1.80397   1.80751   1.80903   1.81367   1.81802
 Alpha virt. eigenvalues --    1.82152   1.82631   1.83027   1.83273   1.83581
 Alpha virt. eigenvalues --    1.83948   1.84455   1.84607   1.84918   1.85916
 Alpha virt. eigenvalues --    1.85975   1.86946   1.87423   1.87673   1.88315
 Alpha virt. eigenvalues --    1.88549   1.88996   1.89660   1.90089   1.90681
 Alpha virt. eigenvalues --    1.91203   1.91418   1.91696   1.92025   1.92501
 Alpha virt. eigenvalues --    1.93094   1.93140   1.94289   1.94569   1.94979
 Alpha virt. eigenvalues --    1.95554   1.96387   1.96544   1.96875   1.97050
 Alpha virt. eigenvalues --    1.97953   1.98881   1.99555   2.00195   2.00576
 Alpha virt. eigenvalues --    2.01380   2.01567   2.02229   2.03595   2.03994
 Alpha virt. eigenvalues --    2.04269   2.04427   2.05203   2.05674   2.05908
 Alpha virt. eigenvalues --    2.06600   2.07158   2.07358   2.07783   2.08313
 Alpha virt. eigenvalues --    2.08702   2.08882   2.09731   2.10274   2.10620
 Alpha virt. eigenvalues --    2.11170   2.11772   2.12549   2.12905   2.13799
 Alpha virt. eigenvalues --    2.14255   2.14558   2.14816   2.15189   2.15270
 Alpha virt. eigenvalues --    2.16138   2.16486   2.18213   2.18943   2.19212
 Alpha virt. eigenvalues --    2.20652   2.21485   2.21877   2.22931   2.23480
 Alpha virt. eigenvalues --    2.23818   2.24834   2.25598   2.25849   2.26468
 Alpha virt. eigenvalues --    2.26879   2.27875   2.28465   2.29128   2.29695
 Alpha virt. eigenvalues --    2.30469   2.30887   2.31240   2.32906   2.33448
 Alpha virt. eigenvalues --    2.33755   2.34255   2.34921   2.34993   2.35501
 Alpha virt. eigenvalues --    2.36232   2.37783   2.38429   2.38900   2.40310
 Alpha virt. eigenvalues --    2.41206   2.42429   2.43775   2.44407   2.44710
 Alpha virt. eigenvalues --    2.45123   2.45711   2.45935   2.46432   2.47031
 Alpha virt. eigenvalues --    2.48445   2.49503   2.49543   2.49951   2.50666
 Alpha virt. eigenvalues --    2.51643   2.52050   2.52189   2.53105   2.53904
 Alpha virt. eigenvalues --    2.55695   2.56691   2.57910   2.59019   2.59212
 Alpha virt. eigenvalues --    2.60145   2.60280   2.61357   2.61456   2.61871
 Alpha virt. eigenvalues --    2.62841   2.63844   2.64018   2.64822   2.65014
 Alpha virt. eigenvalues --    2.66169   2.67086   2.67934   2.68873   2.69525
 Alpha virt. eigenvalues --    2.70100   2.70439   2.71054   2.71519   2.71677
 Alpha virt. eigenvalues --    2.72094   2.72629   2.72736   2.73977   2.74372
 Alpha virt. eigenvalues --    2.75002   2.75835   2.76845   2.78422   2.78713
 Alpha virt. eigenvalues --    2.78936   2.79293   2.80429   2.80921   2.81831
 Alpha virt. eigenvalues --    2.82091   2.82708   2.83214   2.83828   2.85493
 Alpha virt. eigenvalues --    2.86267   2.86540   2.86976   2.87459   2.88256
 Alpha virt. eigenvalues --    2.88677   2.89431   2.91842   2.92467   2.92988
 Alpha virt. eigenvalues --    2.93552   2.95194   2.97645   2.98641   2.99306
 Alpha virt. eigenvalues --    3.00263   3.00371   3.00804   3.01743   3.03345
 Alpha virt. eigenvalues --    3.04087   3.06787   3.07363   3.09120   3.10621
 Alpha virt. eigenvalues --    3.11543   3.12722   3.12940   3.14464   3.14501
 Alpha virt. eigenvalues --    3.15608   3.16609   3.18537   3.19273   3.20311
 Alpha virt. eigenvalues --    3.22843   3.24185   3.24522   3.26666   3.27449
 Alpha virt. eigenvalues --    3.28243   3.28359   3.35948   3.41639   3.42368
 Alpha virt. eigenvalues --    3.44222   3.48333   3.48632   3.55026   3.57364
 Alpha virt. eigenvalues --    3.59136   3.59994   3.62439   3.65806   3.66394
 Alpha virt. eigenvalues --    3.68158   3.72152
          Condensed to atoms (all electrons):
 Mulliken charges:
               1
     1  O   -0.252379
     2  O   -0.316273
     3  O   -0.213396
     4  O   -0.240669
     5  O   -0.265974
     6  O   -0.110249
     7  N    0.026145
     8  N   -0.203123
     9  N   -0.153001
    10  N   -0.278930
    11  C    0.088967
    12  C    0.186054
    13  C   -0.086565
    14  C   -0.158416
    15  C   -0.088396
    16  C   -0.012559
    17  C   -0.137649
    18  C    0.190912
    19  C   -0.055573
    20  C   -0.054535
    21  C    0.097976
    22  C    0.143117
    23  C   -0.077266
    24  C    0.124298
    25  C   -0.037967
    26  C   -0.136467
    27  C   -0.113446
    28  C    0.084341
    29  C    0.235891
    30  C   -0.056632
    31  C   -0.064491
    32  C    0.016562
    33  C   -0.129376
    34  C    0.178293
    35  C    0.068816
    36  C   -0.031064
    37  C    0.152665
    38  C    0.044551
    39  C   -0.178549
    40  C    0.172444
    41  C   -0.119995
    42  C   -0.084044
    43  C    0.050609
    44  H    0.027163
    45  H    0.004727
    46  H   -0.006214
    47  H    0.053977
    48  H    0.172424
    49  H   -0.021978
    50  H    0.038836
    51  H   -0.031135
    52  H    0.009783
    53  H   -0.007476
    54  H    0.033461
    55  H    0.036662
    56  H    0.054923
    57  H    0.070683
    58  H    0.070389
    59  H    0.038967
    60  H    0.172170
    61  H   -0.047669
    62  H    0.027663
    63  H    0.083569
    64  H    0.085846
    65  H    0.017260
    66  H    0.027623
    67  H    0.067606
    68  H    0.045908
    69  H    0.005704
    70  H    0.029656
    71  H    0.018155
    72  H    0.223504
    73  H    0.052634
    74  H    0.058029
    75  H    0.072658
    76  H    0.048089
    77  H    0.239635
    78  H   -0.052122
    79  H    0.074232
 Sum of Mulliken charges =   0.00000
 Mulliken charges with hydrogens summed into heavy atoms:
               1
     1  O   -0.252379
     2  O   -0.092770
     3  O   -0.213396
     4  O   -0.001033
     5  O   -0.265974
     6  O   -0.110249
     7  N    0.080122
     8  N   -0.030699
     9  N    0.019170
    10  N   -0.278930
    11  C    0.116130
    12  C    0.184568
    13  C   -0.086565
    14  C   -0.158416
    15  C   -0.088396
    16  C   -0.012559
    17  C   -0.137649
    18  C    0.207769
    19  C   -0.055573
    20  C   -0.085670
    21  C    0.097976
    22  C    0.143117
    23  C   -0.077266
    24  C    0.160065
    25  C    0.124302
    26  C   -0.136467
    27  C   -0.004090
    28  C    0.084341
    29  C    0.215884
    30  C    0.026938
    31  C    0.038614
    32  C    0.157698
    33  C   -0.123673
    34  C    0.178293
    35  C    0.068816
    36  C    0.016747
    37  C    0.152665
    38  C    0.044551
    39  C   -0.178549
    40  C    0.172444
    41  C   -0.067361
    42  C    0.094733
    43  C    0.072719
 Electronic spatial extent (au):  <R**2>=          32753.4358
 Charge=              0.0000 electrons
 Dipole moment (field-independent basis, Debye):
    X=              0.3639    Y=              1.9037    Z=              3.5775  Tot=              4.0688
 Quadrupole moment (field-independent basis, Debye-Ang):
   XX=           -224.1400   YY=           -241.5981   ZZ=           -266.0959
   XY=            -15.0635   XZ=             31.0053   YZ=              2.3930
 Traceless Quadrupole moment (field-independent basis, Debye-Ang):
   XX=             19.8047   YY=              2.3466   ZZ=            -22.1513
   XY=            -15.0635   XZ=             31.0053   YZ=              2.3930
 Octapole moment (field-independent basis, Debye-Ang**2):
  XXX=             19.4441  YYY=            180.1563  ZZZ=            106.2509  XYY=           -113.0610
  XXY=            -44.4463  XXZ=            104.7240  XZZ=            -63.2951  YZZ=            -11.6213
  YYZ=             98.1624  XYZ=              2.8038
 Hexadecapole moment (field-independent basis, Debye-Ang**3):
 XXXX=         -24331.3261 YYYY=         -11382.2511 ZZZZ=          -5253.1670 XXXY=            -33.4031
 XXXZ=            689.4046 YYYX=           -602.9303 YYYZ=            776.9085 ZZZX=            -39.5360
 ZZZY=           -207.1668 XXYY=          -6178.6895 XXZZ=          -5526.8750 YYZZ=          -2826.7943
 XXYZ=           -198.4935 YYXZ=            -69.0742 ZZXY=            131.1919
 N-N= 4.871775952427D+03 E-N=-1.427132312345D+04  KE= 1.925948449440D+03
 1\1\GINC-PEDRO-RYZENSSD\SP\RB3LYP TD-FC\SVP\C33H36N4O6\PADAWAN\07-Jul-
 2019\0\\# td=(NStates=1) B3LYP/SVP\\TD\\0,1\O,0,-5.3163269945,0.379852
 1002,-3.3845012829\O,0,2.6315499811,3.2926049839,3.6693732017\O,0,3.15
 99667345,1.0594009492,3.556977659\O,0,1.6057547114,-7.204106315,1.5349
 239022\O,0,0.4069074401,-7.0674776518,-0.4063345647\O,0,2.0680002593,3
 .9627492419,-0.0884905847\N,0,-2.3551961223,-0.8077657832,0.5740739345
 \N,0,-4.3586297669,0.7481890675,-1.2553974718\N,0,1.8653062577,-0.7220
 741884,-0.4688983279\N,0,2.7729885693,1.7688853386,-0.5165191269\C,0,-
 4.8550977561,1.2425644358,-0.0180513486\C,0,-4.4839429997,0.3128277005
 ,1.2347955403\C,0,-3.0000734635,0.2517900614,1.3530306432\C,0,-1.94407
 94522,0.7943915862,2.1209828965\C,0,-0.7298468722,0.1895203935,1.82706
 14683\C,0,-1.0892032953,-0.8057956887,0.8257392822\C,0,-6.4064167391,1
 .2390256585,-0.1104094547\C,0,0.6092544087,0.3908670098,2.4807327421\C
 ,0,-6.7331157433,0.7159739026,-1.3513659943\C,0,-0.2022459666,-1.77264
 25654,0.060193195\C,0,1.046737585,-1.8248950021,-0.494388232\C,0,-5.39
 82778859,0.579747668,-2.1578952303\C,0,1.855481418,-2.9340169777,-0.97
 85831749\C,0,-2.1998067219,1.8747392059,3.0294115812\C,0,-7.2523572279
 ,1.8105165877,0.9490555195\C,0,3.0317487032,-2.3617582001,-1.517682925
 4\C,0,1.0985966323,1.849128055,2.4815733757\C,0,3.0849950405,-0.979987
 4381,-1.1693205631\C,0,1.2814836863,-4.4540797876,-0.9594344173\C,0,-7
 .9872654474,0.5200565701,-2.1140861306\C,0,1.6332150116,-5.1632325657,
 0.4197583023\C,0,4.1883065471,-3.0457258384,-2.0702390213\C,0,4.110760
 0182,-0.0137797162,-1.3571859137\C,0,2.4000726227,1.9421883931,3.24409
 43145\C,0,3.859780504,1.3699362499,-1.0548712578\C,0,-9.1971578888,0.4
 38841728,-1.4629350561\C,0,1.1950568141,-6.564115141,0.420632856\C,0,4
 .9317572406,2.3903010851,-1.4624899755\C,0,4.2292485594,3.5476589261,-
 1.077957367\C,0,2.8410128573,3.2272344248,-0.516720219\C,0,6.265524556
 9,2.1619280642,-1.9586973985\C,0,4.6905698504,4.9884703642,-1.13628630
 05\C,0,6.9479923506,3.0315695784,-2.8775824263\H,0,-4.65159311,2.31651
 66966,0.2389634383\H,0,-4.8138998191,-0.7497399651,0.9960808564\H,0,-4
 .8949596152,0.6312873578,2.1639185264\H,0,-2.8919066011,-1.3560224597,
 0.0723348422\H,0,-3.3833040237,0.8622493011,-1.7268498823\H,0,0.385695
 1538,0.2265526288,3.4675920914\H,0,1.4846569097,-0.2418240664,2.193797
 7002\H,0,-0.8068411766,-2.6283407974,-0.1907792595\H,0,-3.3917013221,2
 .1312997153,3.282864454\H,0,-1.7869835578,1.5168503125,3.8703267573\H,
 0,-1.7879815975,2.737772413,2.6488770417\H,0,-6.6564095361,2.768955847
 7,1.4245205709\H,0,-7.3560783161,1.0902953579,1.8552879514\H,0,-8.3768
 061719,2.2097731474,0.6839873959\H,0,1.2698591672,2.4316657746,1.52649
 26569\H,0,0.2731813582,2.6563937272,2.8586262171\H,0,1.6821638347,0.32
 58389741,-0.3323154576\H,0,1.7283210907,-4.9806235856,-1.6386919314\H,
 0,0.1988579662,-4.5442843418,-0.8387966494\H,0,-7.8037557006,0.4611087
 449,-3.3542363356\H,0,1.1090438445,-4.5931136157,1.3948391715\H,0,2.66
 16172046,-5.2285193309,0.6083347719\H,0,3.974701914,-4.2853160601,-2.2
 413431869\H,0,5.0156036819,-2.9737462554,-1.2755324747\H,0,4.242921388
 4,-2.6470867643,-3.0901993422\H,0,4.9417569828,-0.3612702358,-2.064533
 1415\H,0,-9.4795574779,0.3511260098,-0.4141220984\H,0,-10.0274109062,0
 .2654309215,-2.1236021019\H,0,3.5095273841,3.3638789565,4.3175599382\H
 ,0,6.7581008157,1.1265668632,-1.5238198852\H,0,3.9159726075,5.54466755
 88,-2.0966267177\H,0,4.4028082849,5.7108781577,-0.0800710903\H,0,5.798
 9116627,5.075604015,-1.4247842265\H,0,1.4384313816,-8.2735385964,1.380
 1876919\H,0,7.8255938412,2.8115084571,-3.0118299452\H,0,6.4028817325,4
 .1709546668,-2.9317460637\\Version=ES64L-G09RevD.01\State=1-A\HF=-1947
 .7316876\RMSD=7.509e-09\PG=C01 [X(C33H36N4O6)]\\@


 Everything starts as somebody's daydream.
                           -- Larry Niven
 Job cpu time:       0 days  4 hours 23 minutes  4.3 seconds.
 File lengths (MBytes):  RWF=    769 Int=      0 D2E=      0 Chk=     58 Scr=      1
 Normal termination of Gaussian 09 at Sun Jul  7 20:59:36 2019.
