 Entering Gaussian System, Link 0=g16
 Input=Geometria-241-.com
 Output=Geometria-241-.log
 Initial command:
 /usr/local/g09/l1.exe "/home/padawan/israel-mol/dihydrobiliverdin/spectra/abs/Gau-55285.inp" -scrdir="/home/padawan/israel-mol/dihydrobiliverdin/spectra/abs/"
 Entering Link 1 = /usr/local/g09/l1.exe PID=     55287.
  
 Copyright (c) 1988,1990,1992,1993,1995,1998,2003,2009,2013,
            Gaussian, Inc.  All Rights Reserved.
  
 This is part of the Gaussian(R) 09 program.  It is based on
 the Gaussian(R) 03 system (copyright 2003, Gaussian, Inc.),
 the Gaussian(R) 98 system (copyright 1998, Gaussian, Inc.),
 the Gaussian(R) 94 system (copyright 1995, Gaussian, Inc.),
 the Gaussian 92(TM) system (copyright 1992, Gaussian, Inc.),
 the Gaussian 90(TM) system (copyright 1990, Gaussian, Inc.),
 the Gaussian 88(TM) system (copyright 1988, Gaussian, Inc.),
 the Gaussian 86(TM) system (copyright 1986, Carnegie Mellon
 University), and the Gaussian 82(TM) system (copyright 1983,
 Carnegie Mellon University). Gaussian is a federally registered
 trademark of Gaussian, Inc.
  
 This software contains proprietary and confidential information,
 including trade secrets, belonging to Gaussian, Inc.
  
 This software is provided under written license and may be
 used, copied, transmitted, or stored only in accord with that
 written license.
  
 The following legend is applicable only to US Government
 contracts under FAR:
  
                    RESTRICTED RIGHTS LEGEND
  
 Use, reproduction and disclosure by the US Government is
 subject to restrictions as set forth in subparagraphs (a)
 and (c) of the Commercial Computer Software - Restricted
 Rights clause in FAR 52.227-19.
  
 Gaussian, Inc.
 340 Quinnipiac St., Bldg. 40, Wallingford CT 06492
  
  
 ---------------------------------------------------------------
 Warning -- This program may not be used in any manner that
 competes with the business of Gaussian, Inc. or will provide
 assistance to any competitor of Gaussian, Inc.  The licensee
 of this program is prohibited from giving any competitor of
 Gaussian, Inc. access to this program.  By using this program,
 the user acknowledges that Gaussian, Inc. is engaged in the
 business of creating and licensing software in the field of
 computational chemistry and represents and warrants to the
 licensee that it is not a competitor of Gaussian, Inc. and that
 it will not use this program in any manner prohibited above.
 ---------------------------------------------------------------
  

 Cite this work as:
 Gaussian 09, Revision D.01,
 M. J. Frisch, G. W. Trucks, H. B. Schlegel, G. E. Scuseria, 
 M. A. Robb, J. R. Cheeseman, G. Scalmani, V. Barone, B. Mennucci, 
 G. A. Petersson, H. Nakatsuji, M. Caricato, X. Li, H. P. Hratchian, 
 A. F. Izmaylov, J. Bloino, G. Zheng, J. L. Sonnenberg, M. Hada, 
 M. Ehara, K. Toyota, R. Fukuda, J. Hasegawa, M. Ishida, T. Nakajima, 
 Y. Honda, O. Kitao, H. Nakai, T. Vreven, J. A. Montgomery, Jr., 
 J. E. Peralta, F. Ogliaro, M. Bearpark, J. J. Heyd, E. Brothers, 
 K. N. Kudin, V. N. Staroverov, T. Keith, R. Kobayashi, J. Normand, 
 K. Raghavachari, A. Rendell, J. C. Burant, S. S. Iyengar, J. Tomasi, 
 M. Cossi, N. Rega, J. M. Millam, M. Klene, J. E. Knox, J. B. Cross, 
 V. Bakken, C. Adamo, J. Jaramillo, R. Gomperts, R. E. Stratmann, 
 O. Yazyev, A. J. Austin, R. Cammi, C. Pomelli, J. W. Ochterski, 
 R. L. Martin, K. Morokuma, V. G. Zakrzewski, G. A. Voth, 
 P. Salvador, J. J. Dannenberg, S. Dapprich, A. D. Daniels, 
 O. Farkas, J. B. Foresman, J. V. Ortiz, J. Cioslowski, 
 and D. J. Fox, Gaussian, Inc., Wallingford CT, 2013.
 
 ******************************************
 Gaussian 09:  ES64L-G09RevD.01 24-Apr-2013
                 9-Jul-2019 
 ******************************************
 %nproc=4
 Will use up to    4 processors via shared memory.
 %Mem=2GB
 --------------------------
 # td=(NStates=1) B3LYP/SVP
 --------------------------
 1/38=1/1;
 2/12=2,17=6,18=5,40=1/2;
 3/5=18,7=101,11=9,16=1,25=1,30=1,74=-5/1,2,8,3;
 4//1;
 5/5=2,38=5/2;
 8/6=1,10=1,108=1/1;
 9/41=1,42=1,70=2/14;
 6/7=2,8=2,9=2,10=2/1;
 99/5=1,9=1/99;
 --
 TD
 --
 Symbolic Z-matrix:
 Charge =  0 Multiplicity = 1
 8                    -5.41439   0.22915  -3.37097 
 8                     2.96855   2.91685   3.37402 
 8                     3.24211   0.6455    3.1221 
 8                     1.72782  -7.31206   1.47551 
 8                     0.31947  -6.8035   -0.22629 
 8                     1.97155   4.05909  -0.02141 
 7                    -2.34274  -0.78114   0.53289 
 7                    -4.49976   0.5481   -1.30783 
 7                     1.82288  -0.68139  -0.41665 
 7                     2.63425   1.89109  -0.63576 
 6                    -4.83525   1.18411  -0.12122 
 6                    -4.40546   0.45856   1.18429 
 6                    -2.97803   0.2433    1.25098 
 6                    -1.9631    0.80085   2.08362 
 6                    -0.7378    0.17177   1.73861 
 6                    -1.01059  -0.86897   0.70358 
 6                    -6.37591   1.26763  -0.16359 
 6                     0.63516   0.20574   2.45717 
 6                    -6.82067   0.87773  -1.43307 
 6                    -0.19415  -1.88317   0.16319 
 6                     1.04094  -1.79818  -0.28913 
 6                    -5.58279   0.54173  -2.17697 
 6                     1.8264   -2.9569   -0.81601 
 6                    -2.14088   1.91286   3.00097 
 6                    -7.21693   1.94127   0.83655 
 6                     3.14134  -2.44805  -1.17631 
 6                     1.14752   1.64989   2.40185 
 6                     3.0582   -0.97311  -0.96609 
 6                     1.37606  -4.37179  -0.79272 
 6                    -8.12286   0.70921  -2.0346 
 6                     1.93338  -5.09709   0.44302 
 6                     4.33488  -3.10653  -1.77836 
 6                     4.06627   0.01318  -1.25202 
 6                     2.56373   1.62737   3.01078 
 6                     3.77104   1.39399  -1.10675 
 6                    -9.29519   0.73186  -1.45519 
 6                     1.2602   -6.53839   0.59048 
 6                     4.71034   2.50382  -1.49867 
 6                     4.15607   3.63384  -1.14132 
 6                     2.7487    3.28841  -0.47546 
 6                     6.05516   2.30307  -2.01136 
 6                     4.53286   5.11508  -1.03628 
 6                     6.93897   3.20743  -2.43292 
 1                    -4.12097   2.03166   0.10333 
 1                    -4.85655  -0.58443   1.0084 
 1                    -4.67539   1.05393   1.9316 
 1                    -2.70935  -1.07408  -0.42569 
 1                    -3.48766   0.81115  -1.64068 
 1                     0.47185  -0.09434   3.55599 
 1                     1.36252  -0.622     1.77748 
 1                    -0.67541  -2.7866   -0.03652 
 1                    -3.22474   1.89443   3.35598 
 1                    -1.33595   2.06176   3.86581 
 1                    -2.12509   3.01021   2.42863 
 1                    -6.58201   2.62089   1.50098 
 1                    -7.28906   1.20603   1.60156 
 1                    -8.20732   2.5119    0.35083 
 1                     1.22574   1.9521    1.37831 
 1                     0.49498   2.14963   3.20373 
 1                     1.59457   0.35444  -0.26907 
 1                     1.79286  -4.868    -1.57124 
 1                     0.41389  -4.38808  -1.11287 
 1                    -7.99371   0.39235  -3.19227 
 1                     1.52337  -4.59241   1.35483 
 1                     2.955    -4.97849   0.61395 
 1                     4.08857  -3.94019  -2.24821 
 1                     5.25184  -3.33271  -1.03165 
 1                     4.67048  -2.33511  -2.54473 
 1                     4.85874  -0.32798  -1.83318 
 1                    -9.40071   0.72758  -0.48938 
 1                    -10.21499   0.7077   -2.14886 
 1                     3.97968   2.90832   3.4464 
 1                     6.2871    1.30132  -2.37213 
 1                     4.49576   5.54799  -2.17309 
 1                     3.75695   5.57404  -0.50344 
 1                     5.43092   5.42739  -0.77107 
 1                     1.17454  -8.05562   1.40858 
 1                     7.8284    2.7524   -2.83724 
 1                     6.61416   4.38552  -2.17668 
 
 Stoichiometry    C33H36N4O6
 Framework group  C1[X(C33H36N4O6)]
 Deg. of freedom   231
 Full point group                 C1      NOp   1
 Largest Abelian subgroup         C1      NOp   1
 Largest concise Abelian subgroup C1      NOp   1
                         Standard orientation:                         
 ---------------------------------------------------------------------
 Center     Atomic      Atomic             Coordinates (Angstroms)
 Number     Number       Type             X           Y           Z
 ---------------------------------------------------------------------
      1          8           0        5.463728   -0.230754   -3.294228
      2          8           0       -2.993462   -2.896171    3.366392
      3          8           0       -3.277272   -0.629450    3.085768
      4          8           0       -1.788802    7.318803    1.372054
      5          8           0       -0.354490    6.800353   -0.304889
      6          8           0       -1.943687   -4.069339   -0.002491
      7          7           0        2.333449    0.803226    0.556491
      8          7           0        4.523179   -0.532742   -1.240214
      9          7           0       -1.818255    0.667356   -0.447959
     10          7           0       -2.611064   -1.912329   -0.649593
     11          6           0        4.846383   -1.153637   -0.042245
     12          6           0        4.394581   -0.416510    1.249272
     13          6           0        2.965113   -0.209350    1.294336
     14          6           0        1.942376   -0.764011    2.119318
     15          6           0        0.718089   -0.146323    1.750908
     16          6           0        0.998595    0.884689    0.708226
     17          6           0        6.387959   -1.228099   -0.062923
     18          6           0       -0.664244   -0.180902    2.451225
     19          6           0        6.847518   -0.849383   -1.330515
     20          6           0        0.183451    1.887851    0.145732
     21          6           0       -1.044856    1.790286   -0.322232
     22          6           0        5.617818   -0.529204   -2.094688
     23          6           0       -1.830078    2.938291   -0.872401
     24          6           0        2.114412   -1.864792    3.051192
     25          6           0        7.219399   -1.885542    0.955842
     26          6           0       -3.136927    2.417413   -1.244759
     27          6           0       -1.167098   -1.628708    2.404932
     28          6           0       -3.047755    0.945404   -1.017182
     29          6           0       -1.388637    4.356108   -0.858652
     30          6           0        8.156692   -0.679415   -1.916254
     31          6           0       -1.966999    5.091433    0.361386
     32          6           0       -4.326150    3.061882   -1.870071
     33          6           0       -4.045889   -0.050164   -1.305772
     34          6           0       -2.591534   -1.608269    2.994437
     35          6           0       -3.744342   -1.427447   -1.141314
     36          6           0        9.321180   -0.688484   -1.320886
     37          6           0       -1.304587    6.538398    0.501997
     38          6           0       -4.671533   -2.547286   -1.533600
     39          6           0       -4.115359   -3.669876   -1.156368
     40          6           0       -2.719249   -3.308493   -0.475441
     41          6           0       -6.010479   -2.360471   -2.066554
     42          6           0       -4.484605   -5.152181   -1.040076
     43          6           0       -6.883027   -3.274828   -2.489983
     44          1           0        4.134253   -2.003073    0.181994
     45          1           0        4.841726    0.627264    1.067986
     46          1           0        4.657949   -1.001981    2.006670
     47          1           0        2.711232    1.087913   -0.400238
     48          1           0        3.517286   -0.805672   -1.583753
     49          1           0       -0.517653    0.132191    3.548770
     50          1           0       -1.387314    0.634838    1.752698
     51          1           0        0.661921    2.791988   -0.057434
     52          1           0        3.193237   -1.835775    3.420558
     53          1           0        1.298750   -2.009185    3.906691
     54          1           0        2.112987   -2.968416    2.490827
     55          1           0        6.579643   -2.561757    1.619104
     56          1           0        7.276724   -1.141536    1.713596
     57          1           0        8.219695   -2.455332    0.489840
     58          1           0       -1.229625   -1.942584    1.383829
     59          1           0       -0.522482   -2.115604    3.221005
     60          1           0       -1.585719   -0.365368   -0.285893
     61          1           0       -1.797830    4.841182   -1.648144
     62          1           0       -0.422330    4.374832   -1.165970
     63          1           0        8.041335   -0.376059   -3.078987
     64          1           0       -1.566344    4.599315    1.284146
     65          1           0       -2.990109    4.968412    0.519822
     66          1           0       -4.078530    3.891853   -2.345730
     67          1           0       -5.254485    3.290556   -1.138328
     68          1           0       -4.646685    2.280053   -2.632344
     69          1           0       -4.832459    0.279711   -1.901294
     70          1           0        9.413581   -0.672981   -0.353842
     71          1           0       10.250132   -0.666234   -2.002319
     72          1           0       -4.005514   -2.893100    3.425037
     73          1           0       -6.243544   -1.364185   -2.441448
     74          1           0       -4.429496   -5.597269   -2.171446
     75          1           0       -3.713232   -5.600480   -0.491802
     76          1           0       -5.384277   -5.467106   -0.783569
     77          1           0       -1.239167    8.064988    1.304392
     78          1           0       -7.769628   -2.829760   -2.911254
     79          1           0       -6.554624   -4.448013   -2.216410
 ---------------------------------------------------------------------
 Rotational constants (GHZ):      0.0754477      0.0441136      0.0341993
 Standard basis: SVP (5D, 7F)
 There are   825 symmetry adapted cartesian basis functions of A   symmetry.
 There are   782 symmetry adapted basis functions of A   symmetry.
   782 basis functions,  1327 primitive gaussians,   825 cartesian basis functions
   155 alpha electrons      155 beta electrons
       nuclear repulsion energy      4925.0481854938 Hartrees.
 NAtoms=   79 NActive=   79 NUniq=   79 SFac= 1.00D+00 NAtFMM=   60 NAOKFM=T Big=T
 Integral buffers will be    131072 words long.
 Regular integral format.
 Two-electron integral symmetry is turned on.
 One-electron integrals computed using PRISM.
 NBasis=   782 RedAO= T EigKep=  3.73D-04  NBF=   782
 NBsUse=   782 1.00D-06 EigRej= -1.00D+00 NBFU=   782
 ExpMin= 1.22D-01 ExpMax= 2.27D+03 ExpMxC= 3.41D+02 IAcc=1 IRadAn=         1 AccDes= 0.00D+00
 Harris functional with IExCor=  402 and IRadAn=       1 diagonalized for initial guess.
 HarFok:  IExCor=  402 AccDes= 0.00D+00 IRadAn=         1 IDoV= 1 UseB2=F ITyADJ=14
 ICtDFT=  3500011 ScaDFX=  1.000000  1.000000  1.000000  1.000000
 FoFCou: FMM=F IPFlag=           0 FMFlag=      100000 FMFlg1=        2001
         NFxFlg=           0 DoJE=T BraDBF=F KetDBF=T FulRan=T
         wScrn=  0.000000 ICntrl=     500 IOpCl=  0 I1Cent=   200000004 NGrid=           0
         NMat0=    1 NMatS0=      1 NMatT0=    0 NMatD0=    1 NMtDS0=    0 NMtDT0=    0
 Petite list used in FoFCou.
 Requested convergence on RMS density matrix=1.00D-08 within 128 cycles.
 Requested convergence on MAX density matrix=1.00D-06.
 Requested convergence on             energy=1.00D-06.
 No special actions if energy rises.
 Integral accuracy reduced to 1.0D-05 until final iterations.
 Initial convergence to 1.0D-05 achieved.  Increase integral accuracy.
 SCF Done:  E(RB3LYP) =  -1947.81797917     A.U. after   16 cycles
            NFock= 16  Conv=0.59D-08     -V/T= 2.0104
 DoSCS=F DFT=T ScalE2(SS,OS)=  1.000000  1.000000
 ExpMin= 1.22D-01 ExpMax= 2.27D+03 ExpMxC= 3.41D+02 IAcc=3 IRadAn=         5 AccDes= 0.00D+00
 HarFok:  IExCor=  205 AccDes= 0.00D+00 IRadAn=         5 IDoV=-2 UseB2=F ITyADJ=14
 ICtDFT= 12500011 ScaDFX=  1.000000  1.000000  1.000000  1.000000
 Range of M.O.s used for correlation:    44   782
 NBasis=   782 NAE=   155 NBE=   155 NFC=    43 NFV=     0
 NROrb=    739 NOA=   112 NOB=   112 NVA=   627 NVB=   627

 **** Warning!!: The smallest alpha delta epsilon is  0.86101612D-01

 Would need an additional        140608300000 words for in-memory AO integral storage.
 Orbital symmetries:
       Occupied  (A) (A) (A) (A) (A) (A) (A) (A) (A) (A) (A) (A)
                 (A) (A) (A) (A) (A) (A) (A) (A) (A) (A) (A) (A)
                 (A) (A) (A) (A) (A) (A) (A) (A) (A) (A) (A) (A)
                 (A) (A) (A) (A) (A) (A) (A) (A) (A) (A) (A) (A)
                 (A) (A) (A) (A) (A) (A) (A) (A) (A) (A) (A) (A)
                 (A) (A) (A) (A) (A) (A) (A) (A) (A) (A) (A) (A)
                 (A) (A) (A) (A) (A) (A) (A) (A) (A) (A) (A) (A)
                 (A) (A) (A) (A) (A) (A) (A) (A) (A) (A) (A) (A)
                 (A) (A) (A) (A) (A) (A) (A) (A) (A) (A) (A) (A)
                 (A) (A) (A) (A) (A) (A) (A) (A) (A) (A) (A) (A)
                 (A) (A) (A) (A) (A) (A) (A) (A) (A) (A) (A) (A)
                 (A) (A) (A) (A) (A) (A) (A) (A) (A) (A) (A) (A)
                 (A) (A) (A) (A) (A) (A) (A) (A) (A) (A) (A)
       Virtual   (A) (A) (A) (A) (A) (A) (A) (A) (A) (A) (A) (A)
                 (A) (A) (A) (A) (A) (A) (A) (A) (A) (A) (A) (A)
                 (A) (A) (A) (A) (A) (A) (A) (A) (A) (A) (A) (A)
                 (A) (A) (A) (A) (A) (A) (A) (A) (A) (A) (A) (A)
                 (A) (A) (A) (A) (A) (A) (A) (A) (A) (A) (A) (A)
                 (A) (A) (A) (A) (A) (A) (A) (A) (A) (A) (A) (A)
                 (A) (A) (A) (A) (A) (A) (A) (A) (A) (A) (A) (A)
                 (A) (A) (A) (A) (A) (A) (A) (A) (A) (A) (A) (A)
                 (A) (A) (A) (A) (A) (A) (A) (A) (A) (A) (A) (A)
                 (A) (A) (A) (A) (A) (A) (A) (A) (A) (A) (A) (A)
                 (A) (A) (A) (A) (A) (A) (A) (A) (A) (A) (A) (A)
                 (A) (A) (A) (A) (A) (A) (A) (A) (A) (A) (A) (A)
                 (A) (A) (A) (A) (A) (A) (A) (A) (A) (A) (A) (A)
                 (A) (A) (A) (A) (A) (A) (A) (A) (A) (A) (A) (A)
                 (A) (A) (A) (A) (A) (A) (A) (A) (A) (A) (A) (A)
                 (A) (A) (A) (A) (A) (A) (A) (A) (A) (A) (A) (A)
                 (A) (A) (A) (A) (A) (A) (A) (A) (A) (A) (A) (A)
                 (A) (A) (A) (A) (A) (A) (A) (A) (A) (A) (A) (A)
                 (A) (A) (A) (A) (A) (A) (A) (A) (A) (A) (A) (A)
                 (A) (A) (A) (A) (A) (A) (A) (A) (A) (A) (A) (A)
                 (A) (A) (A) (A) (A) (A) (A) (A) (A) (A) (A) (A)
                 (A) (A) (A) (A) (A) (A) (A) (A) (A) (A) (A) (A)
                 (A) (A) (A) (A) (A) (A) (A) (A) (A) (A) (A) (A)
                 (A) (A) (A) (A) (A) (A) (A) (A) (A) (A) (A) (A)
                 (A) (A) (A) (A) (A) (A) (A) (A) (A) (A) (A) (A)
                 (A) (A) (A) (A) (A) (A) (A) (A) (A) (A) (A) (A)
                 (A) (A) (A) (A) (A) (A) (A) (A) (A) (A) (A) (A)
                 (A) (A) (A) (A) (A) (A) (A) (A) (A) (A) (A) (A)
                 (A) (A) (A) (A) (A) (A) (A) (A) (A) (A) (A) (A)
                 (A) (A) (A) (A) (A) (A) (A) (A) (A) (A) (A) (A)
                 (A) (A) (A) (A) (A) (A) (A) (A) (A) (A) (A) (A)
                 (A) (A) (A) (A) (A) (A) (A) (A) (A) (A) (A) (A)
                 (A) (A) (A) (A) (A) (A) (A) (A) (A) (A) (A) (A)
                 (A) (A) (A) (A) (A) (A) (A) (A) (A) (A) (A) (A)
                 (A) (A) (A) (A) (A) (A) (A) (A) (A) (A) (A) (A)
                 (A) (A) (A) (A) (A) (A) (A) (A) (A) (A) (A) (A)
                 (A) (A) (A) (A) (A) (A) (A) (A) (A) (A) (A) (A)
                 (A) (A) (A) (A) (A) (A) (A) (A) (A) (A) (A) (A)
                 (A) (A) (A) (A) (A) (A) (A) (A) (A) (A) (A) (A)
                 (A) (A) (A) (A) (A) (A) (A) (A) (A) (A) (A) (A)
                 (A) (A) (A) (A) (A) (A) (A) (A) (A) (A) (A) (A)
                 (A) (A) (A) (A) (A) (A) (A) (A) (A) (A) (A) (A)
                 (A) (A) (A) (A) (A) (A) (A) (A) (A) (A) (A) (A)
                 (A) (A) (A) (A) (A) (A) (A) (A) (A) (A) (A) (A)
                 (A) (A) (A) (A) (A) (A) (A) (A) (A) (A) (A) (A)
                 (A) (A) (A) (A) (A) (A) (A) (A) (A) (A) (A) (A)
                 (A) (A) (A) (A) (A) (A) (A) (A) (A) (A) (A) (A)
                 (A) (A) (A) (A) (A) (A) (A) (A) (A) (A) (A) (A)
                 (A) (A) (A) (A) (A) (A) (A) (A) (A) (A) (A) (A)
                 (A) (A) (A) (A) (A) (A) (A) (A) (A) (A) (A) (A)
                 (A) (A) (A) (A) (A) (A) (A) (A) (A) (A) (A) (A)
                 (A) (A) (A) (A) (A) (A) (A) (A) (A) (A) (A) (A)
                 (A) (A) (A)
     8 initial guesses have been made.
 Convergence on wavefunction:    0.001000000000000
 Iteration     1 Dimension     8 NMult     0 NNew      8
 CISAX will form     8 AO SS matrices at one time.
 Iteration     2 Dimension    12 NMult     8 NNew      4
 Iteration     3 Dimension    16 NMult    12 NNew      4
 Iteration     4 Dimension    20 NMult    16 NNew      4
 Iteration     5 Dimension    24 NMult    20 NNew      4
 Iteration     6 Dimension    28 NMult    24 NNew      4
 ***********************************************************************
 Excited states from <AA,BB:AA,BB> singles matrix:
 ***********************************************************************
 
 Ground to excited state transition densities written to RWF  633
 Ground to excited state transition electric dipole moments (Au):
       state          X           Y           Z        Dip. S.      Osc.
         1        -2.7792     -0.8474     -0.9595      9.3625      0.5006
 Ground to excited state transition velocity dipole moments (Au):
       state          X           Y           Z        Dip. S.      Osc.
         1         0.2152      0.0606      0.0746      0.0556      0.4618
 Ground to excited state transition magnetic dipole moments (Au):
       state          X           Y           Z
         1         0.8612     -0.0056     -1.7809
 Ground to excited state transition velocity quadrupole moments (Au):
       state          XX          YY          ZZ          XY          XZ          YZ
         1        -0.1270     -0.5759      0.1260     -0.6584     -0.4094     -0.2178
 <0|del|b> * <b|rxdel|0> + <0|del|b> * <b|delr+rdel|0>
 Rotatory Strengths (R) in cgs (10**-40 erg-esu-cm/Gauss)
       state          XX          YY          ZZ    R(velocity)    E-M Angle
         1      -694.2684    241.3495    912.8428    153.3080       83.58
 1/2[<0|r|b>*<b|rxdel|0> + (<0|rxdel|b>*<b|r|0>)*]
 Rotatory Strengths (R) in cgs (10**-40 erg-esu-cm/Gauss)
       state          XX          YY          ZZ     R(length)
         1      1692.6186     -3.3743  -1208.4264    160.2727
  1/2[<0|del|b>*<b|r|0> + (<0|r|b>*<b|del|0>)*] (Au)
       state          X           Y           Z        Dip. S.   Osc.(frdel)
         1        -0.5982     -0.0514     -0.0716      0.7211      0.4807

 Excitation energies and oscillator strengths:
 
 Excited State   1:      Singlet-A      2.1826 eV  568.06 nm  f=0.5006  <S**2>=0.000
     155 ->156         0.70264
     155 <-156        -0.10338
 This state for optimization and/or second-order correction.
 Total Energy, E(TD-HF/TD-KS) =  -1947.73777032    
 Copying the excited state density for this state as the 1-particle RhoCI density.
 SavETr:  write IOETrn=   770 NScale= 10 NData=  16 NLR=1 NState=    1 LETran=      28.

 **********************************************************************

            Population analysis using the SCF density.

 **********************************************************************

 Orbital symmetries:
       Occupied  (A) (A) (A) (A) (A) (A) (A) (A) (A) (A) (A) (A)
                 (A) (A) (A) (A) (A) (A) (A) (A) (A) (A) (A) (A)
                 (A) (A) (A) (A) (A) (A) (A) (A) (A) (A) (A) (A)
                 (A) (A) (A) (A) (A) (A) (A) (A) (A) (A) (A) (A)
                 (A) (A) (A) (A) (A) (A) (A) (A) (A) (A) (A) (A)
                 (A) (A) (A) (A) (A) (A) (A) (A) (A) (A) (A) (A)
                 (A) (A) (A) (A) (A) (A) (A) (A) (A) (A) (A) (A)
                 (A) (A) (A) (A) (A) (A) (A) (A) (A) (A) (A) (A)
                 (A) (A) (A) (A) (A) (A) (A) (A) (A) (A) (A) (A)
                 (A) (A) (A) (A) (A) (A) (A) (A) (A) (A) (A) (A)
                 (A) (A) (A) (A) (A) (A) (A) (A) (A) (A) (A) (A)
                 (A) (A) (A) (A) (A) (A) (A) (A) (A) (A) (A) (A)
                 (A) (A) (A) (A) (A) (A) (A) (A) (A) (A) (A)
       Virtual   (A) (A) (A) (A) (A) (A) (A) (A) (A) (A) (A) (A)
                 (A) (A) (A) (A) (A) (A) (A) (A) (A) (A) (A) (A)
                 (A) (A) (A) (A) (A) (A) (A) (A) (A) (A) (A) (A)
                 (A) (A) (A) (A) (A) (A) (A) (A) (A) (A) (A) (A)
                 (A) (A) (A) (A) (A) (A) (A) (A) (A) (A) (A) (A)
                 (A) (A) (A) (A) (A) (A) (A) (A) (A) (A) (A) (A)
                 (A) (A) (A) (A) (A) (A) (A) (A) (A) (A) (A) (A)
                 (A) (A) (A) (A) (A) (A) (A) (A) (A) (A) (A) (A)
                 (A) (A) (A) (A) (A) (A) (A) (A) (A) (A) (A) (A)
                 (A) (A) (A) (A) (A) (A) (A) (A) (A) (A) (A) (A)
                 (A) (A) (A) (A) (A) (A) (A) (A) (A) (A) (A) (A)
                 (A) (A) (A) (A) (A) (A) (A) (A) (A) (A) (A) (A)
                 (A) (A) (A) (A) (A) (A) (A) (A) (A) (A) (A) (A)
                 (A) (A) (A) (A) (A) (A) (A) (A) (A) (A) (A) (A)
                 (A) (A) (A) (A) (A) (A) (A) (A) (A) (A) (A) (A)
                 (A) (A) (A) (A) (A) (A) (A) (A) (A) (A) (A) (A)
                 (A) (A) (A) (A) (A) (A) (A) (A) (A) (A) (A) (A)
                 (A) (A) (A) (A) (A) (A) (A) (A) (A) (A) (A) (A)
                 (A) (A) (A) (A) (A) (A) (A) (A) (A) (A) (A) (A)
                 (A) (A) (A) (A) (A) (A) (A) (A) (A) (A) (A) (A)
                 (A) (A) (A) (A) (A) (A) (A) (A) (A) (A) (A) (A)
                 (A) (A) (A) (A) (A) (A) (A) (A) (A) (A) (A) (A)
                 (A) (A) (A) (A) (A) (A) (A) (A) (A) (A) (A) (A)
                 (A) (A) (A) (A) (A) (A) (A) (A) (A) (A) (A) (A)
                 (A) (A) (A) (A) (A) (A) (A) (A) (A) (A) (A) (A)
                 (A) (A) (A) (A) (A) (A) (A) (A) (A) (A) (A) (A)
                 (A) (A) (A) (A) (A) (A) (A) (A) (A) (A) (A) (A)
                 (A) (A) (A) (A) (A) (A) (A) (A) (A) (A) (A) (A)
                 (A) (A) (A) (A) (A) (A) (A) (A) (A) (A) (A) (A)
                 (A) (A) (A) (A) (A) (A) (A) (A) (A) (A) (A) (A)
                 (A) (A) (A) (A) (A) (A) (A) (A) (A) (A) (A) (A)
                 (A) (A) (A) (A) (A) (A) (A) (A) (A) (A) (A) (A)
                 (A) (A) (A) (A) (A) (A) (A) (A) (A) (A) (A) (A)
                 (A) (A) (A) (A) (A) (A) (A) (A) (A) (A) (A) (A)
                 (A) (A) (A) (A) (A) (A) (A) (A) (A) (A) (A) (A)
                 (A) (A) (A) (A) (A) (A) (A) (A) (A) (A) (A) (A)
                 (A) (A) (A) (A) (A) (A) (A) (A) (A) (A) (A) (A)
                 (A) (A) (A) (A) (A) (A) (A) (A) (A) (A) (A) (A)
                 (A) (A) (A) (A) (A) (A) (A) (A) (A) (A) (A) (A)
                 (A) (A) (A) (A) (A) (A) (A) (A) (A) (A) (A) (A)
                 (A) (A) (A) (A) (A) (A) (A) (A) (A) (A) (A) (A)
                 (A) (A) (A) (A) (A) (A) (A) (A) (A) (A) (A) (A)
                 (A) (A) (A) (A) (A) (A) (A) (A) (A) (A) (A) (A)
                 (A) (A) (A) (A) (A) (A) (A) (A) (A) (A) (A) (A)
                 (A) (A) (A) (A) (A) (A) (A) (A) (A) (A) (A) (A)
                 (A) (A) (A) (A) (A) (A) (A) (A) (A) (A) (A) (A)
                 (A) (A) (A) (A) (A) (A) (A) (A) (A) (A) (A) (A)
                 (A) (A) (A) (A) (A) (A) (A) (A) (A) (A) (A) (A)
                 (A) (A) (A) (A) (A) (A) (A) (A) (A) (A) (A) (A)
                 (A) (A) (A) (A) (A) (A) (A) (A) (A) (A) (A) (A)
                 (A) (A) (A) (A) (A) (A) (A) (A) (A) (A) (A) (A)
                 (A) (A) (A) (A) (A) (A) (A) (A) (A) (A) (A) (A)
                 (A) (A) (A)
 The electronic state is 1-A.
 Alpha  occ. eigenvalues --  -19.22084 -19.16348 -19.12709 -19.11913 -19.11246
 Alpha  occ. eigenvalues --  -19.10057 -14.38541 -14.36577 -14.36194 -14.28982
 Alpha  occ. eigenvalues --  -10.33825 -10.30478 -10.28908 -10.26805 -10.25211
 Alpha  occ. eigenvalues --  -10.24993 -10.23828 -10.23561 -10.23422 -10.23059
 Alpha  occ. eigenvalues --  -10.22754 -10.22654 -10.21989 -10.21936 -10.21858
 Alpha  occ. eigenvalues --  -10.21634 -10.21339 -10.21100 -10.21017 -10.20707
 Alpha  occ. eigenvalues --  -10.20654 -10.20383 -10.19708 -10.19626 -10.19612
 Alpha  occ. eigenvalues --  -10.19203 -10.19200 -10.19000 -10.18965 -10.18947
 Alpha  occ. eigenvalues --  -10.18718 -10.18684 -10.18239  -1.15672  -1.06600
 Alpha  occ. eigenvalues --   -1.03415  -1.02005  -0.99421  -0.98853  -0.98377
 Alpha  occ. eigenvalues --   -0.97399  -0.94928  -0.91883  -0.83138  -0.83088
 Alpha  occ. eigenvalues --   -0.82437  -0.81074  -0.80265  -0.80084  -0.78077
 Alpha  occ. eigenvalues --   -0.77517  -0.76291  -0.75915  -0.74303  -0.72922
 Alpha  occ. eigenvalues --   -0.72595  -0.70794  -0.69913  -0.69239  -0.69027
 Alpha  occ. eigenvalues --   -0.66266  -0.64766  -0.64092  -0.63406  -0.62461
 Alpha  occ. eigenvalues --   -0.60091  -0.58063  -0.57774  -0.57135  -0.56654
 Alpha  occ. eigenvalues --   -0.56195  -0.55142  -0.54671  -0.53913  -0.53885
 Alpha  occ. eigenvalues --   -0.52421  -0.51849  -0.51459  -0.51237  -0.50542
 Alpha  occ. eigenvalues --   -0.50016  -0.49276  -0.48714  -0.48397  -0.47936
 Alpha  occ. eigenvalues --   -0.47690  -0.47075  -0.46555  -0.46203  -0.45802
 Alpha  occ. eigenvalues --   -0.45578  -0.44905  -0.44515  -0.44128  -0.43791
 Alpha  occ. eigenvalues --   -0.43629  -0.43092  -0.42974  -0.42762  -0.42625
 Alpha  occ. eigenvalues --   -0.42456  -0.42374  -0.42248  -0.41945  -0.41604
 Alpha  occ. eigenvalues --   -0.41238  -0.40916  -0.40712  -0.39926  -0.39649
 Alpha  occ. eigenvalues --   -0.39443  -0.39223  -0.38853  -0.38593  -0.38461
 Alpha  occ. eigenvalues --   -0.38255  -0.38017  -0.37456  -0.37032  -0.36609
 Alpha  occ. eigenvalues --   -0.35985  -0.35863  -0.35203  -0.34840  -0.34591
 Alpha  occ. eigenvalues --   -0.34149  -0.33872  -0.32589  -0.32332  -0.31802
 Alpha  occ. eigenvalues --   -0.31160  -0.30833  -0.29010  -0.28215  -0.27750
 Alpha  occ. eigenvalues --   -0.26861  -0.26413  -0.25718  -0.25108  -0.24583
 Alpha  occ. eigenvalues --   -0.24384  -0.23723  -0.23484  -0.22264  -0.18916
 Alpha virt. eigenvalues --   -0.10306  -0.07118  -0.05637  -0.00876  -0.00582
 Alpha virt. eigenvalues --   -0.00048   0.00148   0.01420   0.02116   0.02994
 Alpha virt. eigenvalues --    0.03622   0.03762   0.04618   0.04826   0.04981
 Alpha virt. eigenvalues --    0.05727   0.05897   0.06262   0.06425   0.06835
 Alpha virt. eigenvalues --    0.06920   0.07738   0.07896   0.08728   0.08905
 Alpha virt. eigenvalues --    0.09163   0.09805   0.10059   0.10370   0.10467
 Alpha virt. eigenvalues --    0.10979   0.11344   0.11775   0.12087   0.12402
 Alpha virt. eigenvalues --    0.12895   0.13019   0.13079   0.13834   0.14101
 Alpha virt. eigenvalues --    0.14455   0.15694   0.15758   0.15964   0.16888
 Alpha virt. eigenvalues --    0.17123   0.17239   0.17596   0.17945   0.18406
 Alpha virt. eigenvalues --    0.18870   0.19041   0.19831   0.20028   0.20761
 Alpha virt. eigenvalues --    0.21508   0.21615   0.22107   0.22294   0.22834
 Alpha virt. eigenvalues --    0.23025   0.23469   0.23871   0.23994   0.24161
 Alpha virt. eigenvalues --    0.24420   0.25687   0.25895   0.25967   0.26191
 Alpha virt. eigenvalues --    0.26522   0.27407   0.27627   0.28263   0.29208
 Alpha virt. eigenvalues --    0.29928   0.30408   0.30504   0.30717   0.30911
 Alpha virt. eigenvalues --    0.31978   0.32232   0.32802   0.33241   0.33960
 Alpha virt. eigenvalues --    0.34450   0.35127   0.35612   0.35819   0.36241
 Alpha virt. eigenvalues --    0.36927   0.37324   0.37355   0.37973   0.38577
 Alpha virt. eigenvalues --    0.39075   0.39768   0.40260   0.40670   0.41134
 Alpha virt. eigenvalues --    0.41559   0.42309   0.42950   0.43131   0.43510
 Alpha virt. eigenvalues --    0.43807   0.44108   0.44288   0.44432   0.44898
 Alpha virt. eigenvalues --    0.45238   0.45585   0.45887   0.46194   0.46340
 Alpha virt. eigenvalues --    0.46711   0.46877   0.47726   0.47866   0.48316
 Alpha virt. eigenvalues --    0.48915   0.49118   0.49152   0.49747   0.50044
 Alpha virt. eigenvalues --    0.50267   0.50799   0.51009   0.51381   0.51620
 Alpha virt. eigenvalues --    0.52102   0.52234   0.52932   0.53539   0.54120
 Alpha virt. eigenvalues --    0.54712   0.55002   0.55177   0.55515   0.55744
 Alpha virt. eigenvalues --    0.56039   0.56735   0.56950   0.57178   0.57738
 Alpha virt. eigenvalues --    0.57971   0.58141   0.58380   0.58873   0.59014
 Alpha virt. eigenvalues --    0.59118   0.59376   0.59617   0.60174   0.60358
 Alpha virt. eigenvalues --    0.60531   0.60777   0.61089   0.61512   0.62265
 Alpha virt. eigenvalues --    0.62659   0.63028   0.63353   0.63469   0.63750
 Alpha virt. eigenvalues --    0.63945   0.64265   0.64725   0.64822   0.64932
 Alpha virt. eigenvalues --    0.65236   0.65505   0.65617   0.65816   0.66449
 Alpha virt. eigenvalues --    0.66514   0.66849   0.67258   0.67580   0.67785
 Alpha virt. eigenvalues --    0.67919   0.68104   0.68281   0.68689   0.68877
 Alpha virt. eigenvalues --    0.69106   0.69250   0.69736   0.69870   0.70229
 Alpha virt. eigenvalues --    0.70393   0.70570   0.71224   0.71511   0.71819
 Alpha virt. eigenvalues --    0.72124   0.72339   0.72585   0.72784   0.73018
 Alpha virt. eigenvalues --    0.73138   0.73415   0.74227   0.74576   0.74904
 Alpha virt. eigenvalues --    0.75239   0.75444   0.75829   0.75865   0.76489
 Alpha virt. eigenvalues --    0.76688   0.77444   0.77755   0.78160   0.78875
 Alpha virt. eigenvalues --    0.79396   0.79617   0.80442   0.80641   0.81342
 Alpha virt. eigenvalues --    0.81769   0.82471   0.83230   0.83325   0.84842
 Alpha virt. eigenvalues --    0.84970   0.85547   0.86004   0.86203   0.86474
 Alpha virt. eigenvalues --    0.87785   0.88358   0.89549   0.90117   0.90408
 Alpha virt. eigenvalues --    0.90896   0.91534   0.91797   0.92449   0.93052
 Alpha virt. eigenvalues --    0.93397   0.93809   0.94577   0.95063   0.95488
 Alpha virt. eigenvalues --    0.96074   0.96948   0.97213   0.97367   0.97912
 Alpha virt. eigenvalues --    0.98616   0.99445   1.00572   1.00940   1.01895
 Alpha virt. eigenvalues --    1.02342   1.03616   1.04077   1.04690   1.05545
 Alpha virt. eigenvalues --    1.05995   1.06452   1.07220   1.08182   1.08435
 Alpha virt. eigenvalues --    1.08982   1.10110   1.10346   1.10724   1.10894
 Alpha virt. eigenvalues --    1.11930   1.12016   1.12567   1.13484   1.13691
 Alpha virt. eigenvalues --    1.13969   1.14939   1.15827   1.17116   1.17830
 Alpha virt. eigenvalues --    1.18917   1.19032   1.19614   1.20494   1.20933
 Alpha virt. eigenvalues --    1.21543   1.22504   1.23120   1.23383   1.23676
 Alpha virt. eigenvalues --    1.24088   1.25109   1.25564   1.26653   1.27392
 Alpha virt. eigenvalues --    1.27908   1.28587   1.29850   1.30156   1.30183
 Alpha virt. eigenvalues --    1.31435   1.32246   1.32490   1.33063   1.33926
 Alpha virt. eigenvalues --    1.34691   1.35493   1.35873   1.37099   1.38193
 Alpha virt. eigenvalues --    1.38808   1.39473   1.39746   1.40445   1.40575
 Alpha virt. eigenvalues --    1.41421   1.41752   1.42896   1.43409   1.44151
 Alpha virt. eigenvalues --    1.45408   1.45599   1.46141   1.47112   1.47573
 Alpha virt. eigenvalues --    1.47915   1.48185   1.48838   1.49953   1.50514
 Alpha virt. eigenvalues --    1.51127   1.52042   1.52217   1.52599   1.53296
 Alpha virt. eigenvalues --    1.53882   1.55033   1.55434   1.55887   1.56067
 Alpha virt. eigenvalues --    1.57074   1.57374   1.57989   1.58880   1.59187
 Alpha virt. eigenvalues --    1.59484   1.60085   1.60307   1.60565   1.60881
 Alpha virt. eigenvalues --    1.61311   1.62250   1.62302   1.63498   1.64419
 Alpha virt. eigenvalues --    1.64758   1.64873   1.65918   1.66002   1.66304
 Alpha virt. eigenvalues --    1.66607   1.67044   1.67216   1.67635   1.67963
 Alpha virt. eigenvalues --    1.68469   1.68768   1.69181   1.69465   1.70207
 Alpha virt. eigenvalues --    1.70472   1.71225   1.71484   1.71862   1.73016
 Alpha virt. eigenvalues --    1.73375   1.73930   1.74129   1.74693   1.75210
 Alpha virt. eigenvalues --    1.75453   1.75729   1.76645   1.76977   1.77149
 Alpha virt. eigenvalues --    1.77462   1.77977   1.78448   1.79076   1.79266
 Alpha virt. eigenvalues --    1.79764   1.80197   1.80335   1.81148   1.81268
 Alpha virt. eigenvalues --    1.81619   1.81835   1.82525   1.82917   1.83237
 Alpha virt. eigenvalues --    1.83904   1.84758   1.84833   1.85343   1.85999
 Alpha virt. eigenvalues --    1.86831   1.87360   1.87719   1.88023   1.88392
 Alpha virt. eigenvalues --    1.88950   1.89294   1.89584   1.89701   1.90205
 Alpha virt. eigenvalues --    1.90716   1.90984   1.91365   1.91643   1.91980
 Alpha virt. eigenvalues --    1.93041   1.93201   1.93687   1.94212   1.94674
 Alpha virt. eigenvalues --    1.95461   1.96007   1.96374   1.96979   1.97569
 Alpha virt. eigenvalues --    1.97976   1.98095   1.98568   1.99411   2.00288
 Alpha virt. eigenvalues --    2.00954   2.01062   2.01533   2.02434   2.02720
 Alpha virt. eigenvalues --    2.03122   2.03950   2.04164   2.04471   2.05535
 Alpha virt. eigenvalues --    2.06011   2.06341   2.06757   2.07548   2.07833
 Alpha virt. eigenvalues --    2.08033   2.09009   2.09592   2.09888   2.10263
 Alpha virt. eigenvalues --    2.10771   2.11624   2.12230   2.12415   2.12575
 Alpha virt. eigenvalues --    2.12970   2.13947   2.14257   2.15226   2.15656
 Alpha virt. eigenvalues --    2.15938   2.16520   2.17136   2.17475   2.18159
 Alpha virt. eigenvalues --    2.18932   2.19901   2.20900   2.22080   2.22338
 Alpha virt. eigenvalues --    2.22524   2.22668   2.23148   2.23745   2.24272
 Alpha virt. eigenvalues --    2.24853   2.26369   2.27195   2.27697   2.28817
 Alpha virt. eigenvalues --    2.29601   2.30461   2.30699   2.31952   2.32270
 Alpha virt. eigenvalues --    2.32778   2.32983   2.33352   2.34641   2.34867
 Alpha virt. eigenvalues --    2.35418   2.35938   2.36137   2.36747   2.37631
 Alpha virt. eigenvalues --    2.38963   2.39490   2.40325   2.41182   2.41958
 Alpha virt. eigenvalues --    2.42767   2.43223   2.43647   2.44333   2.45350
 Alpha virt. eigenvalues --    2.45919   2.46352   2.47352   2.49396   2.50302
 Alpha virt. eigenvalues --    2.50952   2.51440   2.52584   2.52962   2.53538
 Alpha virt. eigenvalues --    2.53978   2.54490   2.55967   2.58105   2.59030
 Alpha virt. eigenvalues --    2.59707   2.60253   2.61060   2.61835   2.62644
 Alpha virt. eigenvalues --    2.63854   2.64119   2.64913   2.65107   2.65712
 Alpha virt. eigenvalues --    2.65886   2.66217   2.67572   2.68401   2.69190
 Alpha virt. eigenvalues --    2.69477   2.69963   2.70440   2.71152   2.71881
 Alpha virt. eigenvalues --    2.72198   2.73270   2.73340   2.73493   2.73960
 Alpha virt. eigenvalues --    2.74454   2.75130   2.76340   2.77318   2.77955
 Alpha virt. eigenvalues --    2.78082   2.79351   2.80158   2.80503   2.81868
 Alpha virt. eigenvalues --    2.82354   2.83386   2.84256   2.84510   2.84918
 Alpha virt. eigenvalues --    2.86483   2.86591   2.87262   2.87617   2.88103
 Alpha virt. eigenvalues --    2.89218   2.90005   2.90703   2.92476   2.92935
 Alpha virt. eigenvalues --    2.93547   2.94017   2.96052   2.96220   2.97569
 Alpha virt. eigenvalues --    2.98098   2.99547   3.00006   3.01701   3.02186
 Alpha virt. eigenvalues --    3.02988   3.03970   3.05243   3.06690   3.07522
 Alpha virt. eigenvalues --    3.09307   3.09546   3.11513   3.11879   3.12651
 Alpha virt. eigenvalues --    3.14199   3.14850   3.15949   3.16707   3.16918
 Alpha virt. eigenvalues --    3.18957   3.20083   3.20812   3.21223   3.22023
 Alpha virt. eigenvalues --    3.23111   3.24179   3.25808   3.26587   3.29039
 Alpha virt. eigenvalues --    3.29358   3.36469   3.38705   3.39319   3.39971
 Alpha virt. eigenvalues --    3.40324   3.46966   3.49586   3.52551   3.57766
 Alpha virt. eigenvalues --    3.59225   3.62239   3.63644   3.64979   3.68929
 Alpha virt. eigenvalues --    3.72501   3.78817
          Condensed to atoms (all electrons):
 Mulliken charges:
               1
     1  O   -0.244871
     2  O   -0.246147
     3  O   -0.204652
     4  O   -0.041978
     5  O   -0.303634
     6  O   -0.166088
     7  N   -0.079797
     8  N   -0.178632
     9  N   -0.104903
    10  N   -0.312517
    11  C   -0.017146
    12  C    0.334881
    13  C   -0.164968
    14  C   -0.052596
    15  C   -0.097468
    16  C    0.052083
    17  C   -0.150863
    18  C   -0.046798
    19  C   -0.041768
    20  C   -0.110787
    21  C    0.144418
    22  C    0.142215
    23  C   -0.168134
    24  C   -0.029615
    25  C    0.087198
    26  C   -0.134995
    27  C    0.030046
    28  C    0.073717
    29  C    0.269643
    30  C   -0.038114
    31  C    0.020337
    32  C    0.116298
    33  C   -0.054605
    34  C    0.135863
    35  C    0.105008
    36  C    0.018323
    37  C    0.122079
    38  C    0.058115
    39  C   -0.242617
    40  C    0.152565
    41  C   -0.040284
    42  C    0.144793
    43  C   -0.037529
    44  H    0.016152
    45  H    0.005173
    46  H   -0.083541
    47  H    0.140621
    48  H    0.166365
    49  H    0.021867
    50  H    0.070936
    51  H   -0.035559
    52  H    0.015218
    53  H    0.053559
    54  H    0.052061
    55  H    0.016385
    56  H    0.013430
    57  H    0.091126
    58  H    0.069222
    59  H    0.035865
    60  H    0.173874
    61  H   -0.042745
    62  H   -0.020431
    63  H    0.050450
    64  H    0.033862
    65  H    0.011485
    66  H   -0.026654
    67  H    0.054826
    68  H    0.034133
    69  H   -0.056330
    70  H   -0.032969
    71  H    0.046588
    72  H    0.195379
    73  H   -0.018345
    74  H    0.027389
    75  H    0.011547
    76  H   -0.007699
    77  H    0.160252
    78  H    0.019008
    79  H    0.041421
 Sum of Mulliken charges =   0.00000
 Mulliken charges with hydrogens summed into heavy atoms:
               1
     1  O   -0.244871
     2  O   -0.050768
     3  O   -0.204652
     4  O    0.118274
     5  O   -0.303634
     6  O   -0.166088
     7  N    0.060824
     8  N   -0.012268
     9  N    0.068972
    10  N   -0.312517
    11  C   -0.000993
    12  C    0.256513
    13  C   -0.164968
    14  C   -0.052596
    15  C   -0.097468
    16  C    0.052083
    17  C   -0.150863
    18  C    0.046005
    19  C   -0.041768
    20  C   -0.146345
    21  C    0.144418
    22  C    0.142215
    23  C   -0.168134
    24  C    0.091222
    25  C    0.208140
    26  C   -0.134995
    27  C    0.135134
    28  C    0.073717
    29  C    0.206468
    30  C    0.012336
    31  C    0.065684
    32  C    0.178603
    33  C   -0.110934
    34  C    0.135863
    35  C    0.105008
    36  C    0.031942
    37  C    0.122079
    38  C    0.058115
    39  C   -0.242617
    40  C    0.152565
    41  C   -0.058630
    42  C    0.176030
    43  C    0.022900
 Electronic spatial extent (au):  <R**2>=          32377.5969
 Charge=              0.0000 electrons
 Dipole moment (field-independent basis, Debye):
    X=              0.9056    Y=              3.1833    Z=              3.2556  Tot=              4.6425
 Quadrupole moment (field-independent basis, Debye-Ang):
   XX=           -221.5353   YY=           -240.1881   ZZ=           -265.0073
   XY=            -19.8036   XZ=             31.2077   YZ=              2.9365
 Traceless Quadrupole moment (field-independent basis, Debye-Ang):
   XX=             20.7083   YY=              2.0555   ZZ=            -22.7637
   XY=            -19.8036   XZ=             31.2077   YZ=              2.9365
 Octapole moment (field-independent basis, Debye-Ang**2):
  XXX=             88.7709  YYY=            235.9553  ZZZ=             81.0114  XYY=            -99.3685
  XXY=            -62.1016  XXZ=             79.8789  XZZ=            -68.4108  YZZ=              9.9822
  YYZ=             84.7182  XYZ=              8.2665
 Hexadecapole moment (field-independent basis, Debye-Ang**3):
 XXXX=         -24071.6937 YYYY=         -10999.2859 ZZZZ=          -4826.5936 XXXY=           -336.0568
 XXXZ=            511.3543 YYYX=           -409.4863 YYYZ=            754.1313 ZZZX=            105.1972
 ZZZY=           -112.7802 XXYY=          -6192.1352 XXZZ=          -5416.7295 YYZZ=          -2803.6280
 XXYZ=           -225.4344 YYXZ=            -22.2671 ZZXY=             10.4809
 N-N= 4.925048185494D+03 E-N=-1.437887598736D+04  KE= 1.927770856632D+03
 1\1\GINC-PEDRO-RYZENSSD\SP\RB3LYP TD-FC\SVP\C33H36N4O6\PADAWAN\09-Jul-
 2019\0\\# td=(NStates=1) B3LYP/SVP\\TD\\0,1\O,0,-5.4143868005,0.229147
 0297,-3.3709699298\O,0,2.9685536815,2.9168474081,3.3740236668\O,0,3.24
 21149493,0.6454995591,3.1221041716\O,0,1.7278169176,-7.3120571101,1.47
 55079606\O,0,0.3194686963,-6.8035012541,-0.2262865599\O,0,1.9715506144
 ,4.0590888759,-0.021413877\N,0,-2.3427448772,-0.7811431209,0.532889816
 1\N,0,-4.4997638803,0.5480990585,-1.3078327154\N,0,1.8228820153,-0.681
 39012,-0.4166531034\N,0,2.6342546959,1.8910875589,-0.6357610511\C,0,-4
 .8352457709,1.1841085903,-0.1212216657\C,0,-4.4054551509,0.4585622739,
 1.1842904897\C,0,-2.9780312593,0.2432992123,1.2509804381\C,0,-1.963101
 3544,0.8008522322,2.0836191601\C,0,-0.7377976673,0.1717686184,1.738612
 6235\C,0,-1.0105854335,-0.8689720063,0.703577066\C,0,-6.3759136888,1.2
 676285188,-0.1635947733\C,0,0.635156999,0.2057384969,2.4571703858\C,0,
 -6.8206744991,0.8777300782,-1.4330741651\C,0,-0.1941451565,-1.88317361
 85,0.163193495\C,0,1.0409370049,-1.7981823308,-0.289127706\C,0,-5.5827
 863367,0.5417338666,-2.1769671375\C,0,1.8263985098,-2.9568992659,-0.81
 60069173\C,0,-2.1408808293,1.9128630183,3.0009687369\C,0,-7.2169336856
 ,1.941269663,0.8365542693\C,0,3.1413396623,-2.448046829,-1.176308788\C
 ,0,1.1475215248,1.649888131,2.4018454029\C,0,3.0582023612,-0.973106750
 1,-0.96609024\C,0,1.3760631442,-4.3717915588,-0.7927177457\C,0,-8.1228
 590068,0.7092054849,-2.0345981818\C,0,1.9333750276,-5.097085951,0.4430
 206286\C,0,4.3348812045,-3.106531919,-1.7783598334\C,0,4.0662655688,0.
 0131829801,-1.2520153966\C,0,2.5637289883,1.627366911,3.0107809832\C,0
 ,3.7710416301,1.3939886552,-1.1067464453\C,0,-9.2951876918,0.731861029
 9,-1.455194282\C,0,1.2602033287,-6.5383925688,0.5904798407\C,0,4.71033
 50984,2.5038224372,-1.4986735939\C,0,4.1560712416,3.633837544,-1.14132
 37037\C,0,2.7487036264,3.2884105425,-0.4754560926\C,0,6.0551635208,2.3
 030721786,-2.0113626651\C,0,4.5328640798,5.1150830255,-1.0362762995\C,
 0,6.9389714485,3.2074271641,-2.4329179599\H,0,-4.1209700477,2.03165821
 07,0.103329875\H,0,-4.8565540845,-0.5844334344,1.0084020885\H,0,-4.675
 387658,1.0539296221,1.931595294\H,0,-2.7093483452,-1.0740842659,-0.425
 6949608\H,0,-3.4876644597,0.8111541916,-1.6406812654\H,0,0.4718537697,
 -0.0943394604,3.5559909313\H,0,1.3625246965,-0.6220020842,1.777476068\
 H,0,-0.6754080333,-2.786596623,-0.036523834\H,0,-3.2247446265,1.894426
 0279,3.3559817658\H,0,-1.3359484542,2.061764804,3.8658063052\H,0,-2.12
 50853078,3.0102096568,2.4286250165\H,0,-6.5820120963,2.6208910412,1.50
 09782166\H,0,-7.2890616145,1.2060269311,1.6015625789\H,0,-8.2073192232
 ,2.5119033604,0.3508340806\H,0,1.2257447558,1.9520978178,1.3783078384\
 H,0,0.4949835385,2.1496330511,3.2037307276\H,0,1.5945650748,0.35444183
 44,-0.269069133\H,0,1.7928575444,-4.8680023234,-1.5712351857\H,0,0.413
 8894693,-4.3880787213,-1.1128740571\H,0,-7.9937146965,0.3923518692,-3.
 192270139\H,0,1.5233652766,-4.5924135457,1.3548251701\H,0,2.9549965426
 ,-4.9784943284,0.6139453329\H,0,4.0885733011,-3.9401915477,-2.24821387
 4\H,0,5.2518373052,-3.332712152,-1.0316480863\H,0,4.6704841447,-2.3351
 055662,-2.5447347958\H,0,4.858738681,-0.3279769065,-1.8331800062\H,0,-
 9.4007095932,0.7275836556,-0.4893796242\H,0,-10.2149896641,0.707695147
 9,-2.1488646282\H,0,3.9796843998,2.9083234009,3.4464028225\H,0,6.28710
 3716,1.3013243389,-2.3721347167\H,0,4.4957605863,5.5479878908,-2.17309
 43644\H,0,3.7569536995,5.5740444743,-0.5034434275\H,0,5.430924864,5.42
 73891935,-0.771068855\H,0,1.174544993,-8.0556168042,1.4085805312\H,0,7
 .8284041222,2.7524025466,-2.8372424864\H,0,6.6141628606,4.3855161229,-
 2.1766805572\\Version=ES64L-G09RevD.01\State=1-A\HF=-1947.8179792\RMSD
 =5.865e-09\PG=C01 [X(C33H36N4O6)]\\@


 WE DON'T KNOW ONE MILLIONTH OF ONE PERCENT ABOUT
 ANYTHING.
                                     T. A. EDISON.
 Job cpu time:       0 days  4 hours 45 minutes 49.2 seconds.
 File lengths (MBytes):  RWF=    769 Int=      0 D2E=      0 Chk=     58 Scr=      1
 Normal termination of Gaussian 09 at Tue Jul  9 03:49:25 2019.
