 Entering Gaussian System, Link 0=g16
 Input=Geometria-324-.com
 Output=Geometria-324-.log
 Initial command:
 /usr/local/g09/l1.exe "/home/padawan/israel-mol/dihydrobiliverdin/spectra/abs/Gau-64566.inp" -scrdir="/home/padawan/israel-mol/dihydrobiliverdin/spectra/abs/"
 Entering Link 1 = /usr/local/g09/l1.exe PID=     64568.
  
 Copyright (c) 1988,1990,1992,1993,1995,1998,2003,2009,2013,
            Gaussian, Inc.  All Rights Reserved.
  
 This is part of the Gaussian(R) 09 program.  It is based on
 the Gaussian(R) 03 system (copyright 2003, Gaussian, Inc.),
 the Gaussian(R) 98 system (copyright 1998, Gaussian, Inc.),
 the Gaussian(R) 94 system (copyright 1995, Gaussian, Inc.),
 the Gaussian 92(TM) system (copyright 1992, Gaussian, Inc.),
 the Gaussian 90(TM) system (copyright 1990, Gaussian, Inc.),
 the Gaussian 88(TM) system (copyright 1988, Gaussian, Inc.),
 the Gaussian 86(TM) system (copyright 1986, Carnegie Mellon
 University), and the Gaussian 82(TM) system (copyright 1983,
 Carnegie Mellon University). Gaussian is a federally registered
 trademark of Gaussian, Inc.
  
 This software contains proprietary and confidential information,
 including trade secrets, belonging to Gaussian, Inc.
  
 This software is provided under written license and may be
 used, copied, transmitted, or stored only in accord with that
 written license.
  
 The following legend is applicable only to US Government
 contracts under FAR:
  
                    RESTRICTED RIGHTS LEGEND
  
 Use, reproduction and disclosure by the US Government is
 subject to restrictions as set forth in subparagraphs (a)
 and (c) of the Commercial Computer Software - Restricted
 Rights clause in FAR 52.227-19.
  
 Gaussian, Inc.
 340 Quinnipiac St., Bldg. 40, Wallingford CT 06492
  
  
 ---------------------------------------------------------------
 Warning -- This program may not be used in any manner that
 competes with the business of Gaussian, Inc. or will provide
 assistance to any competitor of Gaussian, Inc.  The licensee
 of this program is prohibited from giving any competitor of
 Gaussian, Inc. access to this program.  By using this program,
 the user acknowledges that Gaussian, Inc. is engaged in the
 business of creating and licensing software in the field of
 computational chemistry and represents and warrants to the
 licensee that it is not a competitor of Gaussian, Inc. and that
 it will not use this program in any manner prohibited above.
 ---------------------------------------------------------------
  

 Cite this work as:
 Gaussian 09, Revision D.01,
 M. J. Frisch, G. W. Trucks, H. B. Schlegel, G. E. Scuseria, 
 M. A. Robb, J. R. Cheeseman, G. Scalmani, V. Barone, B. Mennucci, 
 G. A. Petersson, H. Nakatsuji, M. Caricato, X. Li, H. P. Hratchian, 
 A. F. Izmaylov, J. Bloino, G. Zheng, J. L. Sonnenberg, M. Hada, 
 M. Ehara, K. Toyota, R. Fukuda, J. Hasegawa, M. Ishida, T. Nakajima, 
 Y. Honda, O. Kitao, H. Nakai, T. Vreven, J. A. Montgomery, Jr., 
 J. E. Peralta, F. Ogliaro, M. Bearpark, J. J. Heyd, E. Brothers, 
 K. N. Kudin, V. N. Staroverov, T. Keith, R. Kobayashi, J. Normand, 
 K. Raghavachari, A. Rendell, J. C. Burant, S. S. Iyengar, J. Tomasi, 
 M. Cossi, N. Rega, J. M. Millam, M. Klene, J. E. Knox, J. B. Cross, 
 V. Bakken, C. Adamo, J. Jaramillo, R. Gomperts, R. E. Stratmann, 
 O. Yazyev, A. J. Austin, R. Cammi, C. Pomelli, J. W. Ochterski, 
 R. L. Martin, K. Morokuma, V. G. Zakrzewski, G. A. Voth, 
 P. Salvador, J. J. Dannenberg, S. Dapprich, A. D. Daniels, 
 O. Farkas, J. B. Foresman, J. V. Ortiz, J. Cioslowski, 
 and D. J. Fox, Gaussian, Inc., Wallingford CT, 2013.
 
 ******************************************
 Gaussian 09:  ES64L-G09RevD.01 24-Apr-2013
                 9-Jul-2019 
 ******************************************
 %nproc=4
 Will use up to    4 processors via shared memory.
 %Mem=2GB
 --------------------------
 # td=(NStates=1) B3LYP/SVP
 --------------------------
 1/38=1/1;
 2/12=2,17=6,18=5,40=1/2;
 3/5=18,7=101,11=9,16=1,25=1,30=1,74=-5/1,2,8,3;
 4//1;
 5/5=2,38=5/2;
 8/6=1,10=1,108=1/1;
 9/41=1,42=1,70=2/14;
 6/7=2,8=2,9=2,10=2/1;
 99/5=1,9=1/99;
 --
 TD
 --
 Symbolic Z-matrix:
 Charge =  0 Multiplicity = 1
 8                    -5.2493    0.58486  -3.37943 
 8                     2.84391   2.97494   3.28541 
 8                     3.29725   0.82064   2.99139 
 8                     1.53544  -7.13211   1.62501 
 8                     0.51637  -7.00327  -0.42923 
 8                     1.76989   3.95337  -0.16082 
 7                    -2.33611  -0.82726   0.48441 
 7                    -4.2946    0.79601  -1.29859 
 7                     1.8899   -0.73016  -0.36413 
 7                     2.51657   1.81498  -0.55194 
 6                    -4.83481   1.30828   0.02008 
 6                    -4.39389   0.30308   1.20177 
 6                    -2.92027   0.07117   1.32415 
 6                    -2.04413   0.75558   2.10079 
 6                    -0.72153   0.01932   1.84342 
 6                    -1.01741  -0.9406    0.83357 
 6                    -6.26612   1.40554  -0.20913 
 6                     0.57139   0.18723   2.50588 
 6                    -6.63371   0.95404  -1.43696 
 6                    -0.1737   -1.98582   0.20995 
 6                     1.11252  -1.8697   -0.31491 
 6                    -5.34768   0.78716  -2.19779 
 6                     1.98804  -2.95488  -0.76795 
 6                    -2.24393   1.86655   3.01076 
 6                    -7.16901   1.8177    0.89102 
 6                     3.25127  -2.41701  -1.13785 
 6                     1.08826   1.62818   2.56919 
 6                     3.10215  -0.85597  -0.98213 
 6                     1.61113  -4.33972  -0.82328 
 6                    -7.94882   0.76666  -2.08796 
 6                     1.75946  -5.17564   0.52361 
 6                     4.31598  -3.1141   -1.70693 
 6                     4.00505   0.10238  -1.39547 
 6                     2.52444   1.74313   3.05143 
 6                     3.71844   1.40812  -1.12973 
 6                    -9.09986   0.68862  -1.48625 
 6                     1.1154   -6.46907   0.41041 
 6                     4.64778   2.51115  -1.4981 
 6                     3.9069    3.62037  -1.19964 
 6                     2.65769   3.22193  -0.55125 
 6                     5.97613   2.19901  -1.94152 
 6                     4.35426   4.99164  -1.11526 
 6                     6.69739   3.03829  -2.66182 
 1                    -4.36995   2.18086   0.24329 
 1                    -4.98691  -0.53801   1.19361 
 1                    -4.68777   0.80882   2.08368 
 1                    -2.69464  -1.55018  -0.12966 
 1                    -3.21846   0.84039  -1.63207 
 1                     0.53378  -0.12033   3.67594 
 1                     1.55248  -0.30792   2.09005 
 1                    -0.6616   -2.85004   0.17714 
 1                    -3.37146   1.98229   3.22949 
 1                    -1.54621   1.46602   3.79485 
 1                    -1.806     2.71758   2.84681 
 1                    -6.68698   2.53676   1.51151 
 1                    -7.338     0.91578   1.35877 
 1                    -8.08118   2.18953   0.45631 
 1                     0.98994   2.24272   1.57703 
 1                     0.39252   2.12714   3.3285 
 1                     1.55189   0.26559  -0.18062 
 1                     1.91218  -4.83917  -1.5659 
 1                     0.43682  -4.38246  -1.06244 
 1                    -8.06285   0.76606  -3.24469 
 1                     1.58722  -4.49279   1.51939 
 1                     2.84839  -5.23607   0.49017 
 1                     4.16222  -4.22353  -1.47876 
 1                     5.3445   -3.15897  -1.13711 
 1                     4.53267  -2.8309   -2.82996 
 1                     5.03175  -0.13393  -1.83308 
 1                    -9.30152   0.56799  -0.44423 
 1                    -10.09657   0.6728   -2.06778 
 1                     3.85913   3.0334    3.45954 
 1                     6.30871   1.20882  -1.68749 
 1                     4.0049    5.65031  -2.01789 
 1                     3.76394   5.50288  -0.15827 
 1                     5.39219   5.02426  -0.83889 
 1                     1.1829   -8.02734   1.51271 
 1                     7.71598   2.78856  -2.71086 
 1                     6.54212   4.15007  -3.11316 
 
 Stoichiometry    C33H36N4O6
 Framework group  C1[X(C33H36N4O6)]
 Deg. of freedom   231
 Full point group                 C1      NOp   1
 Largest Abelian subgroup         C1      NOp   1
 Largest concise Abelian subgroup C1      NOp   1
                         Standard orientation:                         
 ---------------------------------------------------------------------
 Center     Atomic      Atomic             Coordinates (Angstroms)
 Number     Number       Type             X           Y           Z
 ---------------------------------------------------------------------
      1          8           0        5.285341   -0.494746   -3.342572
      2          8           0       -2.763937   -2.990093    3.336881
      3          8           0       -3.284406   -0.858793    2.990942
      4          8           0       -1.770667    7.113007    1.449466
      5          8           0       -0.736640    6.969860   -0.596334
      6          8           0       -1.640072   -4.012360   -0.080612
      7          7           0        2.307081    0.911344    0.473567
      8          7           0        4.326393   -0.688643   -1.262009
      9          7           0       -1.908893    0.658991   -0.392759
     10          7           0       -2.452682   -1.908625   -0.524663
     11          6           0        4.875418   -1.152865    0.070736
     12          6           0        4.396004   -0.135486    1.226734
     13          6           0        2.915050    0.051676    1.336645
     14          6           0        2.056998   -0.642527    2.124699
     15          6           0        0.712937    0.044725    1.844033
     16          6           0        0.983507    0.990222    0.813680
     17          6           0        6.310362   -1.209302   -0.149299
     18          6           0       -0.577586   -0.149399    2.503983
     19          6           0        6.670087   -0.774526   -1.385471
     20          6           0        0.110225    1.993189    0.162013
     21          6           0       -1.168698    1.823756   -0.366182
     22          6           0        5.383610   -0.666588   -2.156110
     23          6           0       -2.076004    2.869541   -0.848393
     24          6           0        2.287239   -1.725314    3.061066
     25          6           0        7.219883   -1.566849    0.964405
     26          6           0       -3.319289    2.282994   -1.211811
     27          6           0       -1.048378   -1.604385    2.598130
     28          6           0       -3.121109    0.731533   -1.019313
     29          6           0       -1.743332    4.264146   -0.933927
     30          6           0        7.982110   -0.559968   -2.034316
     31          6           0       -1.925812    5.125577    0.392543
     32          6           0       -4.402611    2.932245   -1.801957
     33          6           0       -3.990553   -0.264582   -1.414701
     34          6           0       -2.482786   -1.754343    3.076000
     35          6           0       -3.663743   -1.553985   -1.117461
     36          6           0        9.126708   -0.431166   -1.429053
     37          6           0       -1.322892    6.436094    0.252553
     38          6           0       -4.555228   -2.694491   -1.464679
     39          6           0       -3.780864   -3.772168   -1.137093
     40          6           0       -2.548672   -3.319001   -0.492112
     41          6           0       -5.890416   -2.435476   -1.921557
     42          6           0       -4.184536   -5.154816   -1.023172
     43          6           0       -6.580430   -3.313825   -2.625709
     44          1           0        4.437524   -2.034584    0.311836
     45          1           0        4.961812    0.723819    1.201966
     46          1           0        4.701040   -0.611132    2.121501
     47          1           0        2.645659    1.631129   -0.155332
     48          1           0        3.254083   -0.775233   -1.599528
     49          1           0       -0.556321    0.185996    3.666792
     50          1           0       -1.571717    0.304275    2.072115
     51          1           0        0.570364    2.871665    0.111563
     52          1           0        3.416667   -1.799701    3.287818
     53          1           0        1.572718   -1.329518    3.832327
     54          1           0        1.877706   -2.593524    2.914741
     55          1           0        6.757706   -2.286601    1.599040
     56          1           0        7.357306   -0.649461    1.411974
     57          1           0        8.145883   -1.919051    0.542795
     58          1           0       -0.924942   -2.238067    1.620926
     59          1           0       -0.341235   -2.063160    3.372105
     60          1           0       -1.540188   -0.320910   -0.184652
     61          1           0       -2.056111    4.736477   -1.689338
     62          1           0       -0.569692    4.339110   -1.168375
     63          1           0        8.102463   -0.582261   -3.190182
     64          1           0       -1.737309    4.471662    1.404667
     65          1           0       -3.015915    5.150183    0.352497
     66          1           0       -4.285729    4.050988   -1.598766
     67          1           0       -5.435176    2.957103   -1.238262
     68          1           0       -4.603901    2.616506   -2.919164
     69          1           0       -5.021854   -0.071510   -1.862578
     70          1           0        9.318632   -0.280222   -0.389144
     71          1           0       10.125604   -0.396675   -2.006006
     72          1           0       -3.777713   -3.077138    3.507445
     73          1           0       -6.255940   -1.450911   -1.692094
     74          1           0       -3.809275   -5.822464   -1.908636
     75          1           0       -3.583460   -5.624703   -0.051789
     76          1           0       -5.222408   -5.214428   -0.751093
     77          1           0       -1.446362    8.016297    1.318182
     78          1           0       -7.606214   -3.098156   -2.685395
     79          1           0       -6.387135   -4.430112   -3.050469
 ---------------------------------------------------------------------
 Rotational constants (GHZ):      0.0753389      0.0453646      0.0351194
 Standard basis: SVP (5D, 7F)
 There are   825 symmetry adapted cartesian basis functions of A   symmetry.
 There are   782 symmetry adapted basis functions of A   symmetry.
   782 basis functions,  1327 primitive gaussians,   825 cartesian basis functions
   155 alpha electrons      155 beta electrons
       nuclear repulsion energy      4949.5280689916 Hartrees.
 NAtoms=   79 NActive=   79 NUniq=   79 SFac= 1.00D+00 NAtFMM=   60 NAOKFM=T Big=T
 Integral buffers will be    131072 words long.
 Regular integral format.
 Two-electron integral symmetry is turned on.
 One-electron integrals computed using PRISM.
 NBasis=   782 RedAO= T EigKep=  4.03D-04  NBF=   782
 NBsUse=   782 1.00D-06 EigRej= -1.00D+00 NBFU=   782
 ExpMin= 1.22D-01 ExpMax= 2.27D+03 ExpMxC= 3.41D+02 IAcc=1 IRadAn=         1 AccDes= 0.00D+00
 Harris functional with IExCor=  402 and IRadAn=       1 diagonalized for initial guess.
 HarFok:  IExCor=  402 AccDes= 0.00D+00 IRadAn=         1 IDoV= 1 UseB2=F ITyADJ=14
 ICtDFT=  3500011 ScaDFX=  1.000000  1.000000  1.000000  1.000000
 FoFCou: FMM=F IPFlag=           0 FMFlag=      100000 FMFlg1=        2001
         NFxFlg=           0 DoJE=T BraDBF=F KetDBF=T FulRan=T
         wScrn=  0.000000 ICntrl=     500 IOpCl=  0 I1Cent=   200000004 NGrid=           0
         NMat0=    1 NMatS0=      1 NMatT0=    0 NMatD0=    1 NMtDS0=    0 NMtDT0=    0
 Petite list used in FoFCou.
 Requested convergence on RMS density matrix=1.00D-08 within 128 cycles.
 Requested convergence on MAX density matrix=1.00D-06.
 Requested convergence on             energy=1.00D-06.
 No special actions if energy rises.
 Integral accuracy reduced to 1.0D-05 until final iterations.
 Initial convergence to 1.0D-05 achieved.  Increase integral accuracy.
 SCF Done:  E(RB3LYP) =  -1947.84731828     A.U. after   16 cycles
            NFock= 16  Conv=0.83D-08     -V/T= 2.0100
 DoSCS=F DFT=T ScalE2(SS,OS)=  1.000000  1.000000
 ExpMin= 1.22D-01 ExpMax= 2.27D+03 ExpMxC= 3.41D+02 IAcc=3 IRadAn=         5 AccDes= 0.00D+00
 HarFok:  IExCor=  205 AccDes= 0.00D+00 IRadAn=         5 IDoV=-2 UseB2=F ITyADJ=14
 ICtDFT= 12500011 ScaDFX=  1.000000  1.000000  1.000000  1.000000
 Range of M.O.s used for correlation:    44   782
 NBasis=   782 NAE=   155 NBE=   155 NFC=    43 NFV=     0
 NROrb=    739 NOA=   112 NOB=   112 NVA=   627 NVB=   627

 **** Warning!!: The smallest alpha delta epsilon is  0.87401369D-01

 Would need an additional        140608300000 words for in-memory AO integral storage.
 Orbital symmetries:
       Occupied  (A) (A) (A) (A) (A) (A) (A) (A) (A) (A) (A) (A)
                 (A) (A) (A) (A) (A) (A) (A) (A) (A) (A) (A) (A)
                 (A) (A) (A) (A) (A) (A) (A) (A) (A) (A) (A) (A)
                 (A) (A) (A) (A) (A) (A) (A) (A) (A) (A) (A) (A)
                 (A) (A) (A) (A) (A) (A) (A) (A) (A) (A) (A) (A)
                 (A) (A) (A) (A) (A) (A) (A) (A) (A) (A) (A) (A)
                 (A) (A) (A) (A) (A) (A) (A) (A) (A) (A) (A) (A)
                 (A) (A) (A) (A) (A) (A) (A) (A) (A) (A) (A) (A)
                 (A) (A) (A) (A) (A) (A) (A) (A) (A) (A) (A) (A)
                 (A) (A) (A) (A) (A) (A) (A) (A) (A) (A) (A) (A)
                 (A) (A) (A) (A) (A) (A) (A) (A) (A) (A) (A) (A)
                 (A) (A) (A) (A) (A) (A) (A) (A) (A) (A) (A) (A)
                 (A) (A) (A) (A) (A) (A) (A) (A) (A) (A) (A)
       Virtual   (A) (A) (A) (A) (A) (A) (A) (A) (A) (A) (A) (A)
                 (A) (A) (A) (A) (A) (A) (A) (A) (A) (A) (A) (A)
                 (A) (A) (A) (A) (A) (A) (A) (A) (A) (A) (A) (A)
                 (A) (A) (A) (A) (A) (A) (A) (A) (A) (A) (A) (A)
                 (A) (A) (A) (A) (A) (A) (A) (A) (A) (A) (A) (A)
                 (A) (A) (A) (A) (A) (A) (A) (A) (A) (A) (A) (A)
                 (A) (A) (A) (A) (A) (A) (A) (A) (A) (A) (A) (A)
                 (A) (A) (A) (A) (A) (A) (A) (A) (A) (A) (A) (A)
                 (A) (A) (A) (A) (A) (A) (A) (A) (A) (A) (A) (A)
                 (A) (A) (A) (A) (A) (A) (A) (A) (A) (A) (A) (A)
                 (A) (A) (A) (A) (A) (A) (A) (A) (A) (A) (A) (A)
                 (A) (A) (A) (A) (A) (A) (A) (A) (A) (A) (A) (A)
                 (A) (A) (A) (A) (A) (A) (A) (A) (A) (A) (A) (A)
                 (A) (A) (A) (A) (A) (A) (A) (A) (A) (A) (A) (A)
                 (A) (A) (A) (A) (A) (A) (A) (A) (A) (A) (A) (A)
                 (A) (A) (A) (A) (A) (A) (A) (A) (A) (A) (A) (A)
                 (A) (A) (A) (A) (A) (A) (A) (A) (A) (A) (A) (A)
                 (A) (A) (A) (A) (A) (A) (A) (A) (A) (A) (A) (A)
                 (A) (A) (A) (A) (A) (A) (A) (A) (A) (A) (A) (A)
                 (A) (A) (A) (A) (A) (A) (A) (A) (A) (A) (A) (A)
                 (A) (A) (A) (A) (A) (A) (A) (A) (A) (A) (A) (A)
                 (A) (A) (A) (A) (A) (A) (A) (A) (A) (A) (A) (A)
                 (A) (A) (A) (A) (A) (A) (A) (A) (A) (A) (A) (A)
                 (A) (A) (A) (A) (A) (A) (A) (A) (A) (A) (A) (A)
                 (A) (A) (A) (A) (A) (A) (A) (A) (A) (A) (A) (A)
                 (A) (A) (A) (A) (A) (A) (A) (A) (A) (A) (A) (A)
                 (A) (A) (A) (A) (A) (A) (A) (A) (A) (A) (A) (A)
                 (A) (A) (A) (A) (A) (A) (A) (A) (A) (A) (A) (A)
                 (A) (A) (A) (A) (A) (A) (A) (A) (A) (A) (A) (A)
                 (A) (A) (A) (A) (A) (A) (A) (A) (A) (A) (A) (A)
                 (A) (A) (A) (A) (A) (A) (A) (A) (A) (A) (A) (A)
                 (A) (A) (A) (A) (A) (A) (A) (A) (A) (A) (A) (A)
                 (A) (A) (A) (A) (A) (A) (A) (A) (A) (A) (A) (A)
                 (A) (A) (A) (A) (A) (A) (A) (A) (A) (A) (A) (A)
                 (A) (A) (A) (A) (A) (A) (A) (A) (A) (A) (A) (A)
                 (A) (A) (A) (A) (A) (A) (A) (A) (A) (A) (A) (A)
                 (A) (A) (A) (A) (A) (A) (A) (A) (A) (A) (A) (A)
                 (A) (A) (A) (A) (A) (A) (A) (A) (A) (A) (A) (A)
                 (A) (A) (A) (A) (A) (A) (A) (A) (A) (A) (A) (A)
                 (A) (A) (A) (A) (A) (A) (A) (A) (A) (A) (A) (A)
                 (A) (A) (A) (A) (A) (A) (A) (A) (A) (A) (A) (A)
                 (A) (A) (A) (A) (A) (A) (A) (A) (A) (A) (A) (A)
                 (A) (A) (A) (A) (A) (A) (A) (A) (A) (A) (A) (A)
                 (A) (A) (A) (A) (A) (A) (A) (A) (A) (A) (A) (A)
                 (A) (A) (A) (A) (A) (A) (A) (A) (A) (A) (A) (A)
                 (A) (A) (A) (A) (A) (A) (A) (A) (A) (A) (A) (A)
                 (A) (A) (A) (A) (A) (A) (A) (A) (A) (A) (A) (A)
                 (A) (A) (A) (A) (A) (A) (A) (A) (A) (A) (A) (A)
                 (A) (A) (A) (A) (A) (A) (A) (A) (A) (A) (A) (A)
                 (A) (A) (A) (A) (A) (A) (A) (A) (A) (A) (A) (A)
                 (A) (A) (A) (A) (A) (A) (A) (A) (A) (A) (A) (A)
                 (A) (A) (A) (A) (A) (A) (A) (A) (A) (A) (A) (A)
                 (A) (A) (A)
     8 initial guesses have been made.
 Convergence on wavefunction:    0.001000000000000
 Iteration     1 Dimension     8 NMult     0 NNew      8
 CISAX will form     8 AO SS matrices at one time.
 Iteration     2 Dimension    12 NMult     8 NNew      4
 Iteration     3 Dimension    16 NMult    12 NNew      4
 Iteration     4 Dimension    20 NMult    16 NNew      4
 Iteration     5 Dimension    24 NMult    20 NNew      4
 Iteration     6 Dimension    28 NMult    24 NNew      4
 ***********************************************************************
 Excited states from <AA,BB:AA,BB> singles matrix:
 ***********************************************************************
 
 Ground to excited state transition densities written to RWF  633
 Ground to excited state transition electric dipole moments (Au):
       state          X           Y           Z        Dip. S.      Osc.
         1        -2.0832     -1.0146     -0.8373      6.0701      0.3143
 Ground to excited state transition velocity dipole moments (Au):
       state          X           Y           Z        Dip. S.      Osc.
         1         0.1563      0.0712      0.0641      0.0336      0.2885
 Ground to excited state transition magnetic dipole moments (Au):
       state          X           Y           Z
         1         0.7166     -0.0197     -1.3036
 Ground to excited state transition velocity quadrupole moments (Au):
       state          XX          YY          ZZ          XY          XZ          YZ
         1        -0.3069     -0.4014      0.0991     -0.5597     -0.3578     -0.1906
 <0|del|b> * <b|rxdel|0> + <0|del|b> * <b|delr+rdel|0>
 Rotatory Strengths (R) in cgs (10**-40 erg-esu-cm/Gauss)
       state          XX          YY          ZZ    R(velocity)    E-M Angle
         1      -434.1196    157.2077    523.1176     82.0686       84.31
 1/2[<0|r|b>*<b|rxdel|0> + (<0|rxdel|b>*<b|r|0>)*]
 Rotatory Strengths (R) in cgs (10**-40 erg-esu-cm/Gauss)
       state          XX          YY          ZZ     R(length)
         1      1055.6798    -14.1492   -771.8304     89.9001
  1/2[<0|del|b>*<b|r|0> + (<0|r|b>*<b|del|0>)*] (Au)
       state          X           Y           Z        Dip. S.   Osc.(frdel)
         1        -0.3256     -0.0723     -0.0537      0.4516      0.3010

 Excitation energies and oscillator strengths:
 
 Excited State   1:      Singlet-A      2.1135 eV  586.63 nm  f=0.3143  <S**2>=0.000
     152 ->156         0.11450
     155 ->156         0.68614
 This state for optimization and/or second-order correction.
 Total Energy, E(TD-HF/TD-KS) =  -1947.76964889    
 Copying the excited state density for this state as the 1-particle RhoCI density.
 SavETr:  write IOETrn=   770 NScale= 10 NData=  16 NLR=1 NState=    1 LETran=      28.

 **********************************************************************

            Population analysis using the SCF density.

 **********************************************************************

 Orbital symmetries:
       Occupied  (A) (A) (A) (A) (A) (A) (A) (A) (A) (A) (A) (A)
                 (A) (A) (A) (A) (A) (A) (A) (A) (A) (A) (A) (A)
                 (A) (A) (A) (A) (A) (A) (A) (A) (A) (A) (A) (A)
                 (A) (A) (A) (A) (A) (A) (A) (A) (A) (A) (A) (A)
                 (A) (A) (A) (A) (A) (A) (A) (A) (A) (A) (A) (A)
                 (A) (A) (A) (A) (A) (A) (A) (A) (A) (A) (A) (A)
                 (A) (A) (A) (A) (A) (A) (A) (A) (A) (A) (A) (A)
                 (A) (A) (A) (A) (A) (A) (A) (A) (A) (A) (A) (A)
                 (A) (A) (A) (A) (A) (A) (A) (A) (A) (A) (A) (A)
                 (A) (A) (A) (A) (A) (A) (A) (A) (A) (A) (A) (A)
                 (A) (A) (A) (A) (A) (A) (A) (A) (A) (A) (A) (A)
                 (A) (A) (A) (A) (A) (A) (A) (A) (A) (A) (A) (A)
                 (A) (A) (A) (A) (A) (A) (A) (A) (A) (A) (A)
       Virtual   (A) (A) (A) (A) (A) (A) (A) (A) (A) (A) (A) (A)
                 (A) (A) (A) (A) (A) (A) (A) (A) (A) (A) (A) (A)
                 (A) (A) (A) (A) (A) (A) (A) (A) (A) (A) (A) (A)
                 (A) (A) (A) (A) (A) (A) (A) (A) (A) (A) (A) (A)
                 (A) (A) (A) (A) (A) (A) (A) (A) (A) (A) (A) (A)
                 (A) (A) (A) (A) (A) (A) (A) (A) (A) (A) (A) (A)
                 (A) (A) (A) (A) (A) (A) (A) (A) (A) (A) (A) (A)
                 (A) (A) (A) (A) (A) (A) (A) (A) (A) (A) (A) (A)
                 (A) (A) (A) (A) (A) (A) (A) (A) (A) (A) (A) (A)
                 (A) (A) (A) (A) (A) (A) (A) (A) (A) (A) (A) (A)
                 (A) (A) (A) (A) (A) (A) (A) (A) (A) (A) (A) (A)
                 (A) (A) (A) (A) (A) (A) (A) (A) (A) (A) (A) (A)
                 (A) (A) (A) (A) (A) (A) (A) (A) (A) (A) (A) (A)
                 (A) (A) (A) (A) (A) (A) (A) (A) (A) (A) (A) (A)
                 (A) (A) (A) (A) (A) (A) (A) (A) (A) (A) (A) (A)
                 (A) (A) (A) (A) (A) (A) (A) (A) (A) (A) (A) (A)
                 (A) (A) (A) (A) (A) (A) (A) (A) (A) (A) (A) (A)
                 (A) (A) (A) (A) (A) (A) (A) (A) (A) (A) (A) (A)
                 (A) (A) (A) (A) (A) (A) (A) (A) (A) (A) (A) (A)
                 (A) (A) (A) (A) (A) (A) (A) (A) (A) (A) (A) (A)
                 (A) (A) (A) (A) (A) (A) (A) (A) (A) (A) (A) (A)
                 (A) (A) (A) (A) (A) (A) (A) (A) (A) (A) (A) (A)
                 (A) (A) (A) (A) (A) (A) (A) (A) (A) (A) (A) (A)
                 (A) (A) (A) (A) (A) (A) (A) (A) (A) (A) (A) (A)
                 (A) (A) (A) (A) (A) (A) (A) (A) (A) (A) (A) (A)
                 (A) (A) (A) (A) (A) (A) (A) (A) (A) (A) (A) (A)
                 (A) (A) (A) (A) (A) (A) (A) (A) (A) (A) (A) (A)
                 (A) (A) (A) (A) (A) (A) (A) (A) (A) (A) (A) (A)
                 (A) (A) (A) (A) (A) (A) (A) (A) (A) (A) (A) (A)
                 (A) (A) (A) (A) (A) (A) (A) (A) (A) (A) (A) (A)
                 (A) (A) (A) (A) (A) (A) (A) (A) (A) (A) (A) (A)
                 (A) (A) (A) (A) (A) (A) (A) (A) (A) (A) (A) (A)
                 (A) (A) (A) (A) (A) (A) (A) (A) (A) (A) (A) (A)
                 (A) (A) (A) (A) (A) (A) (A) (A) (A) (A) (A) (A)
                 (A) (A) (A) (A) (A) (A) (A) (A) (A) (A) (A) (A)
                 (A) (A) (A) (A) (A) (A) (A) (A) (A) (A) (A) (A)
                 (A) (A) (A) (A) (A) (A) (A) (A) (A) (A) (A) (A)
                 (A) (A) (A) (A) (A) (A) (A) (A) (A) (A) (A) (A)
                 (A) (A) (A) (A) (A) (A) (A) (A) (A) (A) (A) (A)
                 (A) (A) (A) (A) (A) (A) (A) (A) (A) (A) (A) (A)
                 (A) (A) (A) (A) (A) (A) (A) (A) (A) (A) (A) (A)
                 (A) (A) (A) (A) (A) (A) (A) (A) (A) (A) (A) (A)
                 (A) (A) (A) (A) (A) (A) (A) (A) (A) (A) (A) (A)
                 (A) (A) (A) (A) (A) (A) (A) (A) (A) (A) (A) (A)
                 (A) (A) (A) (A) (A) (A) (A) (A) (A) (A) (A) (A)
                 (A) (A) (A) (A) (A) (A) (A) (A) (A) (A) (A) (A)
                 (A) (A) (A) (A) (A) (A) (A) (A) (A) (A) (A) (A)
                 (A) (A) (A) (A) (A) (A) (A) (A) (A) (A) (A) (A)
                 (A) (A) (A) (A) (A) (A) (A) (A) (A) (A) (A) (A)
                 (A) (A) (A) (A) (A) (A) (A) (A) (A) (A) (A) (A)
                 (A) (A) (A) (A) (A) (A) (A) (A) (A) (A) (A) (A)
                 (A) (A) (A) (A) (A) (A) (A) (A) (A) (A) (A) (A)
                 (A) (A) (A)
 The electronic state is 1-A.
 Alpha  occ. eigenvalues --  -19.18418 -19.16736 -19.15861 -19.11010 -19.10024
 Alpha  occ. eigenvalues --  -19.08334 -14.37649 -14.37068 -14.34635 -14.28854
 Alpha  occ. eigenvalues --  -10.33242 -10.30375 -10.26896 -10.25952 -10.25756
 Alpha  occ. eigenvalues --  -10.24929 -10.23660 -10.22672 -10.22645 -10.22469
 Alpha  occ. eigenvalues --  -10.22115 -10.21789 -10.21640 -10.21503 -10.21446
 Alpha  occ. eigenvalues --  -10.21120 -10.20682 -10.20451 -10.20273 -10.20227
 Alpha  occ. eigenvalues --  -10.20196 -10.19859 -10.19733 -10.19585 -10.19506
 Alpha  occ. eigenvalues --  -10.19485 -10.19478 -10.19408 -10.19167 -10.19130
 Alpha  occ. eigenvalues --  -10.18986 -10.18976 -10.18970  -1.10938  -1.10113
 Alpha  occ. eigenvalues --   -1.01544  -1.01430  -1.01417  -0.99851  -0.98543
 Alpha  occ. eigenvalues --   -0.97812  -0.92068  -0.90993  -0.83734  -0.81875
 Alpha  occ. eigenvalues --   -0.81674  -0.81284  -0.81047  -0.79534  -0.78818
 Alpha  occ. eigenvalues --   -0.77707  -0.76857  -0.75794  -0.75279  -0.73294
 Alpha  occ. eigenvalues --   -0.72028  -0.71627  -0.70346  -0.69332  -0.68358
 Alpha  occ. eigenvalues --   -0.66618  -0.66217  -0.63585  -0.61403  -0.59514
 Alpha  occ. eigenvalues --   -0.59348  -0.58696  -0.58015  -0.57292  -0.56550
 Alpha  occ. eigenvalues --   -0.56115  -0.55958  -0.55274  -0.53739  -0.53222
 Alpha  occ. eigenvalues --   -0.51992  -0.51420  -0.51073  -0.50539  -0.49935
 Alpha  occ. eigenvalues --   -0.49535  -0.49011  -0.48341  -0.47981  -0.47421
 Alpha  occ. eigenvalues --   -0.47370  -0.47137  -0.47105  -0.46532  -0.46063
 Alpha  occ. eigenvalues --   -0.45370  -0.45235  -0.45131  -0.44847  -0.44643
 Alpha  occ. eigenvalues --   -0.44329  -0.43685  -0.43462  -0.42973  -0.42827
 Alpha  occ. eigenvalues --   -0.42525  -0.42188  -0.42036  -0.41702  -0.41591
 Alpha  occ. eigenvalues --   -0.41130  -0.40287  -0.40022  -0.39791  -0.39760
 Alpha  occ. eigenvalues --   -0.39394  -0.39278  -0.38742  -0.38560  -0.38376
 Alpha  occ. eigenvalues --   -0.38010  -0.37678  -0.37080  -0.36923  -0.36658
 Alpha  occ. eigenvalues --   -0.36455  -0.35690  -0.34832  -0.34273  -0.33941
 Alpha  occ. eigenvalues --   -0.33858  -0.33556  -0.32816  -0.31593  -0.31539
 Alpha  occ. eigenvalues --   -0.31399  -0.30910  -0.30555  -0.28224  -0.27418
 Alpha  occ. eigenvalues --   -0.26844  -0.25355  -0.25188  -0.24496  -0.24203
 Alpha  occ. eigenvalues --   -0.23942  -0.23592  -0.23055  -0.22186  -0.19744
 Alpha virt. eigenvalues --   -0.11003  -0.06720  -0.04520  -0.02062  -0.01217
 Alpha virt. eigenvalues --    0.01459   0.02229   0.02583   0.02822   0.03549
 Alpha virt. eigenvalues --    0.03843   0.04000   0.04191   0.04837   0.05253
 Alpha virt. eigenvalues --    0.05704   0.06043   0.06221   0.06573   0.07062
 Alpha virt. eigenvalues --    0.07202   0.07946   0.08106   0.08594   0.08868
 Alpha virt. eigenvalues --    0.09128   0.09491   0.10228   0.10527   0.10837
 Alpha virt. eigenvalues --    0.11175   0.11574   0.11926   0.12128   0.12359
 Alpha virt. eigenvalues --    0.12749   0.13038   0.13510   0.13700   0.13960
 Alpha virt. eigenvalues --    0.14512   0.15000   0.15375   0.15809   0.15859
 Alpha virt. eigenvalues --    0.16466   0.16989   0.17308   0.17693   0.18174
 Alpha virt. eigenvalues --    0.18425   0.18950   0.19200   0.19897   0.20363
 Alpha virt. eigenvalues --    0.20541   0.21130   0.21947   0.22473   0.22784
 Alpha virt. eigenvalues --    0.23356   0.23773   0.24512   0.24774   0.25091
 Alpha virt. eigenvalues --    0.25502   0.25883   0.26051   0.26586   0.26868
 Alpha virt. eigenvalues --    0.27176   0.27679   0.28045   0.28769   0.29050
 Alpha virt. eigenvalues --    0.29469   0.29801   0.30244   0.30708   0.31229
 Alpha virt. eigenvalues --    0.31420   0.32210   0.32540   0.32850   0.34389
 Alpha virt. eigenvalues --    0.34524   0.35562   0.36014   0.36759   0.37107
 Alpha virt. eigenvalues --    0.37514   0.37817   0.38170   0.38773   0.39371
 Alpha virt. eigenvalues --    0.39936   0.40390   0.40994   0.41522   0.41880
 Alpha virt. eigenvalues --    0.42344   0.42635   0.42844   0.43307   0.43736
 Alpha virt. eigenvalues --    0.44378   0.44713   0.45048   0.45456   0.45770
 Alpha virt. eigenvalues --    0.45992   0.46218   0.46708   0.46988   0.47102
 Alpha virt. eigenvalues --    0.47491   0.47766   0.48136   0.48525   0.48770
 Alpha virt. eigenvalues --    0.49140   0.49313   0.49677   0.50162   0.50311
 Alpha virt. eigenvalues --    0.50599   0.50759   0.51175   0.52089   0.52176
 Alpha virt. eigenvalues --    0.53187   0.53287   0.53516   0.53984   0.54106
 Alpha virt. eigenvalues --    0.54466   0.54955   0.55104   0.55477   0.55949
 Alpha virt. eigenvalues --    0.56094   0.56414   0.56692   0.57070   0.57310
 Alpha virt. eigenvalues --    0.57687   0.57891   0.58534   0.58780   0.59181
 Alpha virt. eigenvalues --    0.59654   0.60002   0.60122   0.60658   0.61184
 Alpha virt. eigenvalues --    0.61420   0.61734   0.62000   0.62159   0.62554
 Alpha virt. eigenvalues --    0.62864   0.62943   0.63263   0.63422   0.63685
 Alpha virt. eigenvalues --    0.64124   0.64202   0.64634   0.64989   0.65230
 Alpha virt. eigenvalues --    0.65447   0.65829   0.66066   0.66244   0.66711
 Alpha virt. eigenvalues --    0.66762   0.67011   0.67540   0.67817   0.67977
 Alpha virt. eigenvalues --    0.68113   0.68497   0.68757   0.68942   0.69168
 Alpha virt. eigenvalues --    0.69293   0.69502   0.69887   0.70129   0.70376
 Alpha virt. eigenvalues --    0.70425   0.70745   0.71021   0.71301   0.71489
 Alpha virt. eigenvalues --    0.71671   0.71709   0.71795   0.72235   0.72676
 Alpha virt. eigenvalues --    0.72774   0.73228   0.73577   0.73720   0.74018
 Alpha virt. eigenvalues --    0.74427   0.75071   0.75184   0.75790   0.76597
 Alpha virt. eigenvalues --    0.76605   0.76857   0.77010   0.77465   0.77878
 Alpha virt. eigenvalues --    0.79455   0.79690   0.80207   0.80534   0.81473
 Alpha virt. eigenvalues --    0.81967   0.82663   0.82841   0.83465   0.84169
 Alpha virt. eigenvalues --    0.84551   0.84823   0.84978   0.85272   0.86206
 Alpha virt. eigenvalues --    0.86640   0.86925   0.88098   0.88297   0.89792
 Alpha virt. eigenvalues --    0.90858   0.91421   0.91624   0.92257   0.92819
 Alpha virt. eigenvalues --    0.93487   0.93744   0.94110   0.94898   0.95209
 Alpha virt. eigenvalues --    0.95587   0.96304   0.96575   0.97365   0.97642
 Alpha virt. eigenvalues --    0.98115   0.99201   0.99730   1.00403   1.00987
 Alpha virt. eigenvalues --    1.02135   1.02606   1.03226   1.03376   1.04723
 Alpha virt. eigenvalues --    1.05993   1.07296   1.07693   1.08288   1.08921
 Alpha virt. eigenvalues --    1.08983   1.09985   1.10770   1.11038   1.11982
 Alpha virt. eigenvalues --    1.12189   1.12919   1.13317   1.13948   1.14187
 Alpha virt. eigenvalues --    1.15166   1.16136   1.16262   1.16786   1.18093
 Alpha virt. eigenvalues --    1.18391   1.19439   1.20077   1.20748   1.21514
 Alpha virt. eigenvalues --    1.22867   1.23187   1.23700   1.24857   1.25130
 Alpha virt. eigenvalues --    1.25762   1.26128   1.26810   1.27478   1.27820
 Alpha virt. eigenvalues --    1.28562   1.28939   1.28963   1.29435   1.30751
 Alpha virt. eigenvalues --    1.32340   1.32717   1.32880   1.33899   1.34457
 Alpha virt. eigenvalues --    1.34602   1.35195   1.35586   1.36205   1.36670
 Alpha virt. eigenvalues --    1.37932   1.38788   1.39352   1.40569   1.41103
 Alpha virt. eigenvalues --    1.41226   1.42124   1.42540   1.43596   1.44733
 Alpha virt. eigenvalues --    1.45125   1.45535   1.46702   1.47232   1.48573
 Alpha virt. eigenvalues --    1.48718   1.49340   1.49655   1.50116   1.50675
 Alpha virt. eigenvalues --    1.51204   1.52172   1.52561   1.52897   1.53394
 Alpha virt. eigenvalues --    1.54277   1.54459   1.55610   1.56102   1.56874
 Alpha virt. eigenvalues --    1.57530   1.58016   1.58686   1.59410   1.59508
 Alpha virt. eigenvalues --    1.59888   1.60204   1.60350   1.62232   1.62714
 Alpha virt. eigenvalues --    1.62867   1.63663   1.64140   1.64690   1.65069
 Alpha virt. eigenvalues --    1.65408   1.65805   1.66915   1.66973   1.67411
 Alpha virt. eigenvalues --    1.67546   1.68164   1.68671   1.68981   1.69352
 Alpha virt. eigenvalues --    1.69583   1.70233   1.70672   1.70897   1.71290
 Alpha virt. eigenvalues --    1.71850   1.72285   1.72540   1.73310   1.73776
 Alpha virt. eigenvalues --    1.73947   1.74310   1.75004   1.75797   1.76172
 Alpha virt. eigenvalues --    1.76439   1.76704   1.76974   1.77596   1.77904
 Alpha virt. eigenvalues --    1.78141   1.78457   1.78853   1.79460   1.79676
 Alpha virt. eigenvalues --    1.80154   1.80476   1.80591   1.81131   1.81473
 Alpha virt. eigenvalues --    1.82230   1.82656   1.83218   1.83902   1.84210
 Alpha virt. eigenvalues --    1.84352   1.84783   1.85421   1.85775   1.86430
 Alpha virt. eigenvalues --    1.86805   1.86854   1.87164   1.87407   1.88585
 Alpha virt. eigenvalues --    1.89430   1.89994   1.90287   1.90474   1.90871
 Alpha virt. eigenvalues --    1.91238   1.91546   1.92241   1.92635   1.92779
 Alpha virt. eigenvalues --    1.93615   1.94430   1.94761   1.95116   1.95429
 Alpha virt. eigenvalues --    1.96009   1.96822   1.97082   1.97321   1.97428
 Alpha virt. eigenvalues --    1.98215   1.99119   1.99393   2.00168   2.00582
 Alpha virt. eigenvalues --    2.01618   2.01980   2.02601   2.02650   2.02974
 Alpha virt. eigenvalues --    2.03937   2.04095   2.04564   2.05098   2.06165
 Alpha virt. eigenvalues --    2.06604   2.06631   2.07480   2.08132   2.08508
 Alpha virt. eigenvalues --    2.09200   2.09383   2.10613   2.11005   2.11579
 Alpha virt. eigenvalues --    2.12174   2.12556   2.12790   2.13837   2.14161
 Alpha virt. eigenvalues --    2.14258   2.14860   2.15596   2.16261   2.16462
 Alpha virt. eigenvalues --    2.16958   2.17791   2.18555   2.18903   2.19712
 Alpha virt. eigenvalues --    2.19783   2.20006   2.20459   2.20986   2.21741
 Alpha virt. eigenvalues --    2.22024   2.22712   2.23341   2.26228   2.26352
 Alpha virt. eigenvalues --    2.27763   2.28141   2.28713   2.29632   2.30134
 Alpha virt. eigenvalues --    2.30753   2.31742   2.31973   2.33233   2.33480
 Alpha virt. eigenvalues --    2.34103   2.34935   2.35072   2.35932   2.36505
 Alpha virt. eigenvalues --    2.37212   2.38561   2.38879   2.39459   2.39755
 Alpha virt. eigenvalues --    2.40389   2.41230   2.41705   2.42395   2.42622
 Alpha virt. eigenvalues --    2.43920   2.44384   2.44897   2.46014   2.46706
 Alpha virt. eigenvalues --    2.47654   2.48739   2.49289   2.50052   2.51719
 Alpha virt. eigenvalues --    2.52303   2.52401   2.52599   2.54837   2.55139
 Alpha virt. eigenvalues --    2.55607   2.56354   2.57271   2.57944   2.58426
 Alpha virt. eigenvalues --    2.59477   2.59768   2.60408   2.61146   2.61551
 Alpha virt. eigenvalues --    2.62657   2.62803   2.63742   2.64309   2.65061
 Alpha virt. eigenvalues --    2.65877   2.66471   2.67374   2.67753   2.68251
 Alpha virt. eigenvalues --    2.68704   2.69731   2.70195   2.71242   2.71870
 Alpha virt. eigenvalues --    2.72410   2.73299   2.73547   2.74391   2.74853
 Alpha virt. eigenvalues --    2.75619   2.76367   2.77363   2.78446   2.78570
 Alpha virt. eigenvalues --    2.79147   2.79808   2.81363   2.81747   2.82239
 Alpha virt. eigenvalues --    2.82652   2.83157   2.83839   2.84115   2.84164
 Alpha virt. eigenvalues --    2.84986   2.85602   2.86163   2.86912   2.88413
 Alpha virt. eigenvalues --    2.88860   2.89466   2.90080   2.90241   2.91818
 Alpha virt. eigenvalues --    2.92176   2.92667   2.94232   2.94693   2.95562
 Alpha virt. eigenvalues --    2.97951   2.98179   2.98911   2.99019   3.00966
 Alpha virt. eigenvalues --    3.01625   3.03047   3.03846   3.06499   3.07821
 Alpha virt. eigenvalues --    3.08708   3.09546   3.09793   3.10500   3.12024
 Alpha virt. eigenvalues --    3.12237   3.13152   3.15592   3.17030   3.18172
 Alpha virt. eigenvalues --    3.19705   3.20556   3.21726   3.23318   3.23582
 Alpha virt. eigenvalues --    3.24718   3.25275   3.27936   3.29402   3.31072
 Alpha virt. eigenvalues --    3.36562   3.36798   3.38240   3.42553   3.47969
 Alpha virt. eigenvalues --    3.49720   3.51088   3.51713   3.55236   3.56283
 Alpha virt. eigenvalues --    3.58106   3.65359   3.67910   3.69145   3.69483
 Alpha virt. eigenvalues --    3.73861   3.79366
          Condensed to atoms (all electrons):
 Mulliken charges:
               1
     1  O   -0.211901
     2  O   -0.156008
     3  O   -0.240176
     4  O   -0.259624
     5  O   -0.145241
     6  O   -0.198768
     7  N   -0.042738
     8  N   -0.285678
     9  N   -0.086653
    10  N   -0.325291
    11  C    0.192067
    12  C    0.241765
    13  C   -0.104917
    14  C   -0.117437
    15  C   -0.024750
    16  C    0.008491
    17  C   -0.243258
    18  C   -0.061848
    19  C   -0.019448
    20  C   -0.051436
    21  C    0.148238
    22  C    0.129231
    23  C   -0.053311
    24  C    0.158534
    25  C    0.177329
    26  C   -0.085399
    27  C   -0.101876
    28  C    0.159271
    29  C    0.080269
    30  C    0.002318
    31  C   -0.040084
    32  C   -0.006378
    33  C   -0.157461
    34  C    0.129483
    35  C    0.082227
    36  C   -0.079090
    37  C    0.171262
    38  C    0.079157
    39  C   -0.186158
    40  C    0.156922
    41  C   -0.026457
    42  C    0.020377
    43  C   -0.025547
    44  H   -0.028443
    45  H   -0.041454
    46  H   -0.041293
    47  H    0.116402
    48  H    0.174028
    49  H    0.019367
    50  H    0.058860
    51  H   -0.062000
    52  H    0.018248
    53  H    0.023550
    54  H   -0.010911
    55  H    0.007419
    56  H    0.016398
    57  H    0.027914
    58  H    0.102815
    59  H    0.008640
    60  H    0.178913
    61  H   -0.054442
    62  H    0.017258
    63  H    0.039920
    64  H    0.092369
    65  H    0.042212
    66  H    0.012341
    67  H    0.032351
    68  H    0.065098
    69  H    0.000229
    70  H    0.002149
    71  H    0.032084
    72  H    0.204944
    73  H    0.002168
    74  H    0.049820
    75  H    0.043474
    76  H    0.018660
    77  H    0.163424
    78  H    0.004264
    79  H    0.063216
 Sum of Mulliken charges =   0.00000
 Mulliken charges with hydrogens summed into heavy atoms:
               1
     1  O   -0.211901
     2  O    0.048936
     3  O   -0.240176
     4  O   -0.096200
     5  O   -0.145241
     6  O   -0.198768
     7  N    0.073664
     8  N   -0.111651
     9  N    0.092260
    10  N   -0.325291
    11  C    0.163624
    12  C    0.159018
    13  C   -0.104917
    14  C   -0.117437
    15  C   -0.024750
    16  C    0.008491
    17  C   -0.243258
    18  C    0.016380
    19  C   -0.019448
    20  C   -0.113436
    21  C    0.148238
    22  C    0.129231
    23  C   -0.053311
    24  C    0.189421
    25  C    0.229060
    26  C   -0.085399
    27  C    0.009579
    28  C    0.159271
    29  C    0.043085
    30  C    0.042237
    31  C    0.094497
    32  C    0.103412
    33  C   -0.157231
    34  C    0.129483
    35  C    0.082227
    36  C   -0.044857
    37  C    0.171262
    38  C    0.079157
    39  C   -0.186158
    40  C    0.156922
    41  C   -0.024289
    42  C    0.132331
    43  C    0.041932
 Electronic spatial extent (au):  <R**2>=          31745.6365
 Charge=              0.0000 electrons
 Dipole moment (field-independent basis, Debye):
    X=             -2.0838    Y=              2.2463    Z=              3.2351  Tot=              4.4558
 Quadrupole moment (field-independent basis, Debye-Ang):
   XX=           -213.3676   YY=           -245.6480   ZZ=           -265.2356
   XY=              0.2900   XZ=             33.7624   YZ=             -3.3179
 Traceless Quadrupole moment (field-independent basis, Debye-Ang):
   XX=             28.0495   YY=             -4.2310   ZZ=            -23.8185
   XY=              0.2900   XZ=             33.7624   YZ=             -3.3179
 Octapole moment (field-independent basis, Debye-Ang**2):
  XXX=            -46.2540  YYY=            102.5208  ZZZ=             88.3602  XYY=            -87.8817
  XXY=            -63.2150  XXZ=             74.3225  XZZ=            -87.7924  YZZ=            -31.5752
  YYZ=             41.0801  XYZ=              5.8865
 Hexadecapole moment (field-independent basis, Debye-Ang**3):
 XXXX=         -22974.6802 YYYY=         -11819.1791 ZZZZ=          -4897.1903 XXXY=            176.3866
 XXXZ=            637.6460 YYYX=            -57.1667 YYYZ=            459.7936 ZZZX=             47.6773
 ZZZY=           -157.2849 XXYY=          -5881.9312 XXZZ=          -5234.4416 YYZZ=          -2840.7237
 XXYZ=           -153.8348 YYXZ=             76.9151 ZZXY=            170.2287
 N-N= 4.949528068992D+03 E-N=-1.442904448828D+04  KE= 1.928476747225D+03
 1\1\GINC-PEDRO-RYZENSSD\SP\RB3LYP TD-FC\SVP\C33H36N4O6\PADAWAN\09-Jul-
 2019\0\\# td=(NStates=1) B3LYP/SVP\\TD\\0,1\O,0,-5.2493002918,0.584862
 6013,-3.3794307759\O,0,2.8439112172,2.9749432177,3.2854148059\O,0,3.29
 72504628,0.8206370728,2.9913911003\O,0,1.5354376797,-7.1321091153,1.62
 50129111\O,0,0.5163683862,-7.0032712311,-0.4292268539\O,0,1.7698904483
 ,3.9533683038,-0.1608178174\N,0,-2.3361142141,-0.8272577324,0.48441496
 86\N,0,-4.2946033642,0.79601385,-1.2985917913\N,0,1.889898717,-0.73016
 49975,-0.3641278509\N,0,2.5165729277,1.8149799481,-0.5519426693\C,0,-4
 .8348057269,1.3082810075,0.0200824647\C,0,-4.3938939948,0.3030767254,1
 .2017722379\C,0,-2.9202654827,0.0711719996,1.3241477549\C,0,-2.0441294
 572,0.7555777048,2.1007908773\C,0,-0.7215260401,0.0193233738,1.8434231
 045\C,0,-1.0174061156,-0.940599169,0.8335700653\C,0,-6.2661227097,1.40
 55423101,-0.2091293267\C,0,0.5713906224,0.1872266458,2.5058752563\C,0,
 -6.6337058023,0.954037709,-1.4369645542\C,0,-0.1737031123,-1.985823883
 5,0.2099481705\C,0,1.1125241636,-1.8696994825,-0.3149102842\C,0,-5.347
 6828264,0.787158409,-2.1977892197\C,0,1.9880446744,-2.9548790639,-0.76
 79521118\C,0,-2.2439311343,1.8665483868,3.010759716\C,0,-7.1690088931,
 1.8176973057,0.8910197159\C,0,3.2512706554,-2.4170137257,-1.1378549426
 \C,0,1.0882555982,1.6281759598,2.5691921376\C,0,3.1021467557,-0.855965
 0359,-0.9821318442\C,0,1.6111266506,-4.3397183514,-0.823280802\C,0,-7.
 9488216031,0.7666612305,-2.0879635184\C,0,1.7594576359,-5.1756438068,0
 .5236086874\C,0,4.3159793143,-3.1141026761,-1.7069326907\C,0,4.0050494
 471,0.1023819,-1.3954697421\C,0,2.5244350589,1.7431284871,3.0514250476
 \C,0,3.7184363695,1.4081200683,-1.1297287436\C,0,-9.0998581588,0.68861
 67055,-1.4862473873\C,0,1.1153988483,-6.4690656361,0.4104118339\C,0,4.
 6477788428,2.5111531703,-1.4981035369\C,0,3.9068963241,3.6203661968,-1
 .1996395353\C,0,2.6576945255,3.2219338948,-0.5512536724\C,0,5.97612561
 7,2.1990117726,-1.9415156804\C,0,4.354256219,4.9916406813,-1.115264198
 3\C,0,6.6973872901,3.0382902504,-2.6618208502\H,0,-4.3699549462,2.1808
 631312,0.2432938714\H,0,-4.9869071198,-0.538008792,1.1936106094\H,0,-4
 .6877688961,0.8088151106,2.0836805026\H,0,-2.6946368741,-1.5501818757,
 -0.1296553568\H,0,-3.2184575391,0.8403871149,-1.6320704043\H,0,0.53377
 99623,-0.1203320597,3.6759429265\H,0,1.5524836924,-0.3079206761,2.0900
 473251\H,0,-0.6615966522,-2.8500429676,0.1771375322\H,0,-3.3714592979,
 1.9822948148,3.2294891165\H,0,-1.5462094803,1.466015229,3.7948492095\H
 ,0,-1.8060033996,2.7175803938,2.8468068347\H,0,-6.6869825934,2.5367626
 284,1.5115092697\H,0,-7.337996508,0.9157779062,1.3587682994\H,0,-8.081
 176609,2.1895311232,0.4563146287\H,0,0.9899411754,2.2427168797,1.57702
 77104\H,0,0.3925232924,2.1271408019,3.3285032048\H,0,1.5518908074,0.26
 55929495,-0.1806202881\H,0,1.9121794765,-4.8391694401,-1.5659046527\H,
 0,0.4368217626,-4.3824581592,-1.0624390136\H,0,-8.0628516102,0.7660592
 399,-3.2446853805\H,0,1.5872216623,-4.4927935837,1.5193916268\H,0,2.84
 83858815,-5.236070086,0.4901729557\H,0,4.1622206659,-4.2235298815,-1.4
 787569283\H,0,5.3444965712,-3.1589747783,-1.1371086324\H,0,4.532670363
 3,-2.8308951451,-2.8299633186\H,0,5.0317459817,-0.1339275016,-1.833079
 9962\H,0,-9.3015196742,0.567987696,-0.4442251087\H,0,-10.0965678219,0.
 6728016586,-2.0677765194\H,0,3.8591323446,3.0333959082,3.4595441366\H,
 0,6.3087058762,1.208815088,-1.6874862518\H,0,4.0049015004,5.6503081228
 ,-2.0178888439\H,0,3.7639443985,5.5028773576,-0.1582689101\H,0,5.39219
 09906,5.0242588805,-0.8388856367\H,0,1.1828958281,-8.0273439769,1.5127
 109442\H,0,7.7159828801,2.7885561619,-2.7108598482\H,0,6.5421156559,4.
 1500725786,-3.1131642055\\Version=ES64L-G09RevD.01\State=1-A\HF=-1947.
 8473183\RMSD=8.318e-09\PG=C01 [X(C33H36N4O6)]\\@


 WHEN ALL ELSE FAILS, TRY THE BOSS'S SUGGESTION.
 Job cpu time:       0 days  4 hours 34 minutes 47.6 seconds.
 File lengths (MBytes):  RWF=    769 Int=      0 D2E=      0 Chk=     58 Scr=      1
 Normal termination of Gaussian 09 at Tue Jul  9 17:46:27 2019.
