 Entering Gaussian System, Link 0=g16
 Input=Geometria-182-.com
 Output=Geometria-182-.log
 Initial command:
 /usr/local/g09/l1.exe "/home/padawan/israel-mol/dihydrobiliverdin/spectra/abs/Gau-49869.inp" -scrdir="/home/padawan/israel-mol/dihydrobiliverdin/spectra/abs/"
 Entering Link 1 = /usr/local/g09/l1.exe PID=     49871.
  
 Copyright (c) 1988,1990,1992,1993,1995,1998,2003,2009,2013,
            Gaussian, Inc.  All Rights Reserved.
  
 This is part of the Gaussian(R) 09 program.  It is based on
 the Gaussian(R) 03 system (copyright 2003, Gaussian, Inc.),
 the Gaussian(R) 98 system (copyright 1998, Gaussian, Inc.),
 the Gaussian(R) 94 system (copyright 1995, Gaussian, Inc.),
 the Gaussian 92(TM) system (copyright 1992, Gaussian, Inc.),
 the Gaussian 90(TM) system (copyright 1990, Gaussian, Inc.),
 the Gaussian 88(TM) system (copyright 1988, Gaussian, Inc.),
 the Gaussian 86(TM) system (copyright 1986, Carnegie Mellon
 University), and the Gaussian 82(TM) system (copyright 1983,
 Carnegie Mellon University). Gaussian is a federally registered
 trademark of Gaussian, Inc.
  
 This software contains proprietary and confidential information,
 including trade secrets, belonging to Gaussian, Inc.
  
 This software is provided under written license and may be
 used, copied, transmitted, or stored only in accord with that
 written license.
  
 The following legend is applicable only to US Government
 contracts under FAR:
  
                    RESTRICTED RIGHTS LEGEND
  
 Use, reproduction and disclosure by the US Government is
 subject to restrictions as set forth in subparagraphs (a)
 and (c) of the Commercial Computer Software - Restricted
 Rights clause in FAR 52.227-19.
  
 Gaussian, Inc.
 340 Quinnipiac St., Bldg. 40, Wallingford CT 06492
  
  
 ---------------------------------------------------------------
 Warning -- This program may not be used in any manner that
 competes with the business of Gaussian, Inc. or will provide
 assistance to any competitor of Gaussian, Inc.  The licensee
 of this program is prohibited from giving any competitor of
 Gaussian, Inc. access to this program.  By using this program,
 the user acknowledges that Gaussian, Inc. is engaged in the
 business of creating and licensing software in the field of
 computational chemistry and represents and warrants to the
 licensee that it is not a competitor of Gaussian, Inc. and that
 it will not use this program in any manner prohibited above.
 ---------------------------------------------------------------
  

 Cite this work as:
 Gaussian 09, Revision D.01,
 M. J. Frisch, G. W. Trucks, H. B. Schlegel, G. E. Scuseria, 
 M. A. Robb, J. R. Cheeseman, G. Scalmani, V. Barone, B. Mennucci, 
 G. A. Petersson, H. Nakatsuji, M. Caricato, X. Li, H. P. Hratchian, 
 A. F. Izmaylov, J. Bloino, G. Zheng, J. L. Sonnenberg, M. Hada, 
 M. Ehara, K. Toyota, R. Fukuda, J. Hasegawa, M. Ishida, T. Nakajima, 
 Y. Honda, O. Kitao, H. Nakai, T. Vreven, J. A. Montgomery, Jr., 
 J. E. Peralta, F. Ogliaro, M. Bearpark, J. J. Heyd, E. Brothers, 
 K. N. Kudin, V. N. Staroverov, T. Keith, R. Kobayashi, J. Normand, 
 K. Raghavachari, A. Rendell, J. C. Burant, S. S. Iyengar, J. Tomasi, 
 M. Cossi, N. Rega, J. M. Millam, M. Klene, J. E. Knox, J. B. Cross, 
 V. Bakken, C. Adamo, J. Jaramillo, R. Gomperts, R. E. Stratmann, 
 O. Yazyev, A. J. Austin, R. Cammi, C. Pomelli, J. W. Ochterski, 
 R. L. Martin, K. Morokuma, V. G. Zakrzewski, G. A. Voth, 
 P. Salvador, J. J. Dannenberg, S. Dapprich, A. D. Daniels, 
 O. Farkas, J. B. Foresman, J. V. Ortiz, J. Cioslowski, 
 and D. J. Fox, Gaussian, Inc., Wallingford CT, 2013.
 
 ******************************************
 Gaussian 09:  ES64L-G09RevD.01 24-Apr-2013
                 8-Jul-2019 
 ******************************************
 %nproc=4
 Will use up to    4 processors via shared memory.
 %Mem=2GB
 --------------------------
 # td=(NStates=1) B3LYP/SVP
 --------------------------
 1/38=1/1;
 2/12=2,17=6,18=5,40=1/2;
 3/5=18,7=101,11=9,16=1,25=1,30=1,74=-5/1,2,8,3;
 4//1;
 5/5=2,38=5/2;
 8/6=1,10=1,108=1/1;
 9/41=1,42=1,70=2/14;
 6/7=2,8=2,9=2,10=2/1;
 99/5=1,9=1/99;
 --
 TD
 --
 Symbolic Z-matrix:
 Charge =  0 Multiplicity = 1
 8                    -5.4399    0.16174  -3.28002 
 8                     3.05602   3.0946    3.19422 
 8                     3.06701   0.74902   3.18928 
 8                     1.64214  -7.21453   1.509 
 8                     0.22967  -6.71699  -0.26224 
 8                     2.04725   3.97433  -0.02888 
 7                    -2.37495  -0.87849   0.4976 
 7                    -4.41816   0.6822   -1.21836 
 7                     1.96103  -0.72497  -0.37124 
 7                     2.71676   1.91601  -0.5567 
 6                    -4.8922    1.15009  -0.0004 
 6                    -4.50311   0.27135   1.22389 
 6                    -3.03486   0.04464   1.21161 
 6                    -2.09847   0.68331   2.10079 
 6                    -0.77006   0.11743   1.72568 
 6                    -1.03612  -0.9118    0.73792 
 6                    -6.40401   1.25283  -0.18952 
 6                     0.46121   0.4256    2.57894 
 6                    -6.80649   0.89421  -1.39013 
 6                    -0.17046  -1.87897   0.08173 
 6                     1.14521  -1.83475  -0.3126 
 6                    -5.44132   0.54518  -2.14262 
 6                     1.81025  -2.83037  -0.92251 
 6                    -2.35242   1.57543   3.18792 
 6                    -7.20037   1.73785   0.92404 
 6                     3.04238  -2.43201  -1.28767 
 6                     1.01874   1.8323    2.43707 
 6                     3.19177  -1.00832  -0.89983 
 6                     1.47301  -4.39716  -0.85318 
 6                    -8.00211   0.84079  -2.10888 
 6                     1.76691  -4.98822   0.43779 
 6                     4.27403  -3.19698  -1.8343 
 6                     4.12539  -0.04201  -1.34676 
 6                     2.53917   1.85796   2.99743 
 6                     3.84168   1.3648   -1.1465 
 6                    -9.19697   0.78638  -1.55071 
 6                     1.12564  -6.38907   0.57671 
 6                     4.72432   2.4735   -1.56809 
 6                     4.21963   3.75875  -1.15076 
 6                     2.8868    3.26048  -0.48582 
 6                     6.08331   2.2393   -2.08751 
 6                     4.69119   5.19801  -1.12184 
 6                     7.03931   3.1595   -2.51393 
 1                    -4.53198   2.25453   0.29131 
 1                    -5.0338   -0.54577   1.14961 
 1                    -4.74034   0.6819    2.29977 
 1                    -2.67357  -1.45976  -0.3293 
 1                    -3.51341   0.34408  -1.39153 
 1                     0.39169   0.01066   3.72315 
 1                     1.27559  -0.1826    2.23952 
 1                    -0.62159  -2.77867  -0.15626 
 1                    -3.41931   1.43607   3.49318 
 1                    -1.65609   1.37112   4.00426 
 1                    -2.05574   2.61093   2.94573 
 1                    -6.77226   2.46751   1.58355 
 1                    -7.46854   0.92029   1.65256 
 1                    -8.40433   1.89824   0.55741 
 1                     0.84953   2.00226   1.47239 
 1                     0.55696   2.59642   2.99627 
 1                     1.72971   0.20983  -0.10935 
 1                     1.94166  -4.94825  -1.57718 
 1                     0.46155  -4.37618  -1.08238 
 1                    -7.82945   0.74561  -3.21652 
 1                     1.32291  -4.33571   1.26429 
 1                     2.84575  -5.01612   0.90924 
 1                     3.8655   -4.18287  -2.33174 
 1                     5.05739  -3.33416  -1.05896 
 1                     4.67197  -2.40293  -2.73527 
 1                     5.13766  -0.18917  -1.86123 
 1                    -9.12427   0.61986  -0.53095 
 1                    -10.09518   0.75415  -2.14183 
 1                     3.87125   2.82006   3.5404 
 1                     6.50331   1.31165  -2.07774 
 1                     4.7588    5.53516  -2.1538 
 1                     3.86179   5.73347  -0.56567 
 1                     5.66817   5.39102  -0.74483 
 1                     1.34011  -8.10592   1.26306 
 1                     8.09804   2.85343  -2.80529 
 1                     6.87748   4.34513  -2.5263 
 
 Stoichiometry    C33H36N4O6
 Framework group  C1[X(C33H36N4O6)]
 Deg. of freedom   231
 Full point group                 C1      NOp   1
 Largest Abelian subgroup         C1      NOp   1
 Largest concise Abelian subgroup C1      NOp   1
                         Standard orientation:                         
 ---------------------------------------------------------------------
 Center     Atomic      Atomic             Coordinates (Angstroms)
 Number     Number       Type             X           Y           Z
 ---------------------------------------------------------------------
      1          8           0        5.428717   -0.304339   -3.293700
      2          8           0       -3.112946   -3.004901    3.221284
      3          8           0       -3.073319   -0.659737    3.198857
      4          8           0       -1.480956    7.258494    1.455963
      5          8           0       -0.083813    6.717442   -0.314675
      6          8           0       -2.131137   -3.930104    0.002590
      7          7           0        2.396012    0.829845    0.482903
      8          7           0        4.400934   -0.787303   -1.225929
      9          7           0       -1.944339    0.763573   -0.375041
     10          7           0       -2.757340   -1.861775   -0.539083
     11          6           0        4.867696   -1.256268   -0.005570
     12          6           0        4.500606   -0.360280    1.212997
     13          6           0        3.037558   -0.102004    1.202307
     14          6           0        2.089749   -0.713687    2.098332
     15          6           0        0.772959   -0.122048    1.721985
     16          6           0        1.058794    0.893839    0.725972
     17          6           0        6.376473   -1.393039   -0.197303
     18          6           0       -0.462622   -0.397212    2.580282
     19          6           0        6.783720   -1.052117   -1.401459
     20          6           0        0.212640    1.874593    0.064514
     21          6           0       -1.104622    1.855870   -0.326521
     22          6           0        5.424596   -0.679276   -2.153477
     23          6           0       -1.749483    2.861070   -0.942355
     24          6           0        2.326994   -1.602994    3.191519
     25          6           0        7.164858   -1.886875    0.918061
     26          6           0       -2.990799    2.486717   -1.301769
     27          6           0       -1.050719   -1.792551    2.450167
     28          6           0       -3.169944    1.069507   -0.902978
     29          6           0       -1.378348    4.420690   -0.885490
     30          6           0        7.978479   -1.029863   -2.123261
     31          6           0       -1.656317    5.027511    0.401690
     32          6           0       -4.206958    3.274040   -1.851331
     33          6           0       -4.125277    0.120301   -1.340587
     34          6           0       -2.569996   -1.781212    3.014110
     35          6           0       -3.871511   -1.290783   -1.130458
     36          6           0        9.175573   -0.997132   -1.568201
     37          6           0       -0.984634    6.415178    0.528705
     38          6           0       -4.778881   -2.383261   -1.541777
     39          6           0       -4.301047   -3.675981   -1.115997
     40          6           0       -2.956180   -3.201694   -0.457778
     41          6           0       -6.133744   -2.123619   -2.059885
     42          6           0       -4.803490   -5.104467   -1.075273
     43          6           0       -7.110407   -3.026100   -2.477273
     44          1           0        4.484426   -2.350481    0.295185
     45          1           0        5.048624    0.444617    1.131419
     46          1           0        4.731503   -0.767865    2.291376
     47          1           0        2.705127    1.398379   -0.348974
     48          1           0        3.503280   -0.431010   -1.399583
     49          1           0       -0.381411    0.024606    3.721197
     50          1           0       -1.264496    0.225900    2.238155
     51          1           0        0.682508    2.762542   -0.181190
     52          1           0        3.397375   -1.484451    3.493336
     53          1           0        1.637197   -1.377639    4.007872
     54          1           0        2.007451   -2.633613    2.957734
     55          1           0        6.722685   -2.602203    1.583953
     56          1           0        7.452356   -1.069916    1.639847
     57          1           0        8.364189   -2.075950    0.549944
     58          1           0       -0.887533   -1.973284    1.486405
     59          1           0       -0.604197   -2.562299    3.014023
     60          1           0       -1.732622   -0.174038   -0.106701
     61          1           0       -1.836732    4.976384   -1.612525
     62          1           0       -0.368131    4.376162   -1.116790
     63          1           0        7.805255   -0.939194   -3.231198
     64          1           0       -1.224516    4.371715    1.232038
     65          1           0       -2.733165    5.082205    0.875340
     66          1           0       -3.778448    4.247154   -2.357041
     67          1           0       -4.985313    3.433857   -1.075289
     68          1           0       -4.624114    2.482111   -2.745460
     69          1           0       -5.135363    0.285470   -1.853869
     70          1           0        9.108937   -0.821528   -0.549552
     71          1           0       10.072847   -0.988699   -2.161557
     72          1           0       -3.921229   -2.710266    3.567236
     73          1           0       -6.533600   -1.187066   -2.056096
     74          1           0       -4.880836   -5.447719   -2.104529
     75          1           0       -3.984510   -5.653575   -0.516974
     76          1           0       -5.783498   -5.273523   -0.694634
     77          1           0       -1.160354    8.141308    1.202691
     78          1           0       -8.162982   -2.699404   -2.768540
     79          1           0       -6.974231   -4.215007   -2.481150
 ---------------------------------------------------------------------
 Rotational constants (GHZ):      0.0756873      0.0437688      0.0342432
 Standard basis: SVP (5D, 7F)
 There are   825 symmetry adapted cartesian basis functions of A   symmetry.
 There are   782 symmetry adapted basis functions of A   symmetry.
   782 basis functions,  1327 primitive gaussians,   825 cartesian basis functions
   155 alpha electrons      155 beta electrons
       nuclear repulsion energy      4914.4429111349 Hartrees.
 NAtoms=   79 NActive=   79 NUniq=   79 SFac= 1.00D+00 NAtFMM=   60 NAOKFM=T Big=T
 Integral buffers will be    131072 words long.
 Regular integral format.
 Two-electron integral symmetry is turned on.
 One-electron integrals computed using PRISM.
 NBasis=   782 RedAO= T EigKep=  3.50D-04  NBF=   782
 NBsUse=   782 1.00D-06 EigRej= -1.00D+00 NBFU=   782
 ExpMin= 1.22D-01 ExpMax= 2.27D+03 ExpMxC= 3.41D+02 IAcc=1 IRadAn=         1 AccDes= 0.00D+00
 Harris functional with IExCor=  402 and IRadAn=       1 diagonalized for initial guess.
 HarFok:  IExCor=  402 AccDes= 0.00D+00 IRadAn=         1 IDoV= 1 UseB2=F ITyADJ=14
 ICtDFT=  3500011 ScaDFX=  1.000000  1.000000  1.000000  1.000000
 FoFCou: FMM=F IPFlag=           0 FMFlag=      100000 FMFlg1=        2001
         NFxFlg=           0 DoJE=T BraDBF=F KetDBF=T FulRan=T
         wScrn=  0.000000 ICntrl=     500 IOpCl=  0 I1Cent=   200000004 NGrid=           0
         NMat0=    1 NMatS0=      1 NMatT0=    0 NMatD0=    1 NMtDS0=    0 NMtDT0=    0
 Petite list used in FoFCou.
 Requested convergence on RMS density matrix=1.00D-08 within 128 cycles.
 Requested convergence on MAX density matrix=1.00D-06.
 Requested convergence on             energy=1.00D-06.
 No special actions if energy rises.
 Integral accuracy reduced to 1.0D-05 until final iterations.
 Initial convergence to 1.0D-05 achieved.  Increase integral accuracy.
 SCF Done:  E(RB3LYP) =  -1947.86884523     A.U. after   17 cycles
            NFock= 17  Conv=0.40D-08     -V/T= 2.0104
 DoSCS=F DFT=T ScalE2(SS,OS)=  1.000000  1.000000
 ExpMin= 1.22D-01 ExpMax= 2.27D+03 ExpMxC= 3.41D+02 IAcc=3 IRadAn=         5 AccDes= 0.00D+00
 HarFok:  IExCor=  205 AccDes= 0.00D+00 IRadAn=         5 IDoV=-2 UseB2=F ITyADJ=14
 ICtDFT= 12500011 ScaDFX=  1.000000  1.000000  1.000000  1.000000
 Range of M.O.s used for correlation:    44   782
 NBasis=   782 NAE=   155 NBE=   155 NFC=    43 NFV=     0
 NROrb=    739 NOA=   112 NOB=   112 NVA=   627 NVB=   627

 **** Warning!!: The smallest alpha delta epsilon is  0.81776520D-01

 Would need an additional        140608300000 words for in-memory AO integral storage.
 Orbital symmetries:
       Occupied  (A) (A) (A) (A) (A) (A) (A) (A) (A) (A) (A) (A)
                 (A) (A) (A) (A) (A) (A) (A) (A) (A) (A) (A) (A)
                 (A) (A) (A) (A) (A) (A) (A) (A) (A) (A) (A) (A)
                 (A) (A) (A) (A) (A) (A) (A) (A) (A) (A) (A) (A)
                 (A) (A) (A) (A) (A) (A) (A) (A) (A) (A) (A) (A)
                 (A) (A) (A) (A) (A) (A) (A) (A) (A) (A) (A) (A)
                 (A) (A) (A) (A) (A) (A) (A) (A) (A) (A) (A) (A)
                 (A) (A) (A) (A) (A) (A) (A) (A) (A) (A) (A) (A)
                 (A) (A) (A) (A) (A) (A) (A) (A) (A) (A) (A) (A)
                 (A) (A) (A) (A) (A) (A) (A) (A) (A) (A) (A) (A)
                 (A) (A) (A) (A) (A) (A) (A) (A) (A) (A) (A) (A)
                 (A) (A) (A) (A) (A) (A) (A) (A) (A) (A) (A) (A)
                 (A) (A) (A) (A) (A) (A) (A) (A) (A) (A) (A)
       Virtual   (A) (A) (A) (A) (A) (A) (A) (A) (A) (A) (A) (A)
                 (A) (A) (A) (A) (A) (A) (A) (A) (A) (A) (A) (A)
                 (A) (A) (A) (A) (A) (A) (A) (A) (A) (A) (A) (A)
                 (A) (A) (A) (A) (A) (A) (A) (A) (A) (A) (A) (A)
                 (A) (A) (A) (A) (A) (A) (A) (A) (A) (A) (A) (A)
                 (A) (A) (A) (A) (A) (A) (A) (A) (A) (A) (A) (A)
                 (A) (A) (A) (A) (A) (A) (A) (A) (A) (A) (A) (A)
                 (A) (A) (A) (A) (A) (A) (A) (A) (A) (A) (A) (A)
                 (A) (A) (A) (A) (A) (A) (A) (A) (A) (A) (A) (A)
                 (A) (A) (A) (A) (A) (A) (A) (A) (A) (A) (A) (A)
                 (A) (A) (A) (A) (A) (A) (A) (A) (A) (A) (A) (A)
                 (A) (A) (A) (A) (A) (A) (A) (A) (A) (A) (A) (A)
                 (A) (A) (A) (A) (A) (A) (A) (A) (A) (A) (A) (A)
                 (A) (A) (A) (A) (A) (A) (A) (A) (A) (A) (A) (A)
                 (A) (A) (A) (A) (A) (A) (A) (A) (A) (A) (A) (A)
                 (A) (A) (A) (A) (A) (A) (A) (A) (A) (A) (A) (A)
                 (A) (A) (A) (A) (A) (A) (A) (A) (A) (A) (A) (A)
                 (A) (A) (A) (A) (A) (A) (A) (A) (A) (A) (A) (A)
                 (A) (A) (A) (A) (A) (A) (A) (A) (A) (A) (A) (A)
                 (A) (A) (A) (A) (A) (A) (A) (A) (A) (A) (A) (A)
                 (A) (A) (A) (A) (A) (A) (A) (A) (A) (A) (A) (A)
                 (A) (A) (A) (A) (A) (A) (A) (A) (A) (A) (A) (A)
                 (A) (A) (A) (A) (A) (A) (A) (A) (A) (A) (A) (A)
                 (A) (A) (A) (A) (A) (A) (A) (A) (A) (A) (A) (A)
                 (A) (A) (A) (A) (A) (A) (A) (A) (A) (A) (A) (A)
                 (A) (A) (A) (A) (A) (A) (A) (A) (A) (A) (A) (A)
                 (A) (A) (A) (A) (A) (A) (A) (A) (A) (A) (A) (A)
                 (A) (A) (A) (A) (A) (A) (A) (A) (A) (A) (A) (A)
                 (A) (A) (A) (A) (A) (A) (A) (A) (A) (A) (A) (A)
                 (A) (A) (A) (A) (A) (A) (A) (A) (A) (A) (A) (A)
                 (A) (A) (A) (A) (A) (A) (A) (A) (A) (A) (A) (A)
                 (A) (A) (A) (A) (A) (A) (A) (A) (A) (A) (A) (A)
                 (A) (A) (A) (A) (A) (A) (A) (A) (A) (A) (A) (A)
                 (A) (A) (A) (A) (A) (A) (A) (A) (A) (A) (A) (A)
                 (A) (A) (A) (A) (A) (A) (A) (A) (A) (A) (A) (A)
                 (A) (A) (A) (A) (A) (A) (A) (A) (A) (A) (A) (A)
                 (A) (A) (A) (A) (A) (A) (A) (A) (A) (A) (A) (A)
                 (A) (A) (A) (A) (A) (A) (A) (A) (A) (A) (A) (A)
                 (A) (A) (A) (A) (A) (A) (A) (A) (A) (A) (A) (A)
                 (A) (A) (A) (A) (A) (A) (A) (A) (A) (A) (A) (A)
                 (A) (A) (A) (A) (A) (A) (A) (A) (A) (A) (A) (A)
                 (A) (A) (A) (A) (A) (A) (A) (A) (A) (A) (A) (A)
                 (A) (A) (A) (A) (A) (A) (A) (A) (A) (A) (A) (A)
                 (A) (A) (A) (A) (A) (A) (A) (A) (A) (A) (A) (A)
                 (A) (A) (A) (A) (A) (A) (A) (A) (A) (A) (A) (A)
                 (A) (A) (A) (A) (A) (A) (A) (A) (A) (A) (A) (A)
                 (A) (A) (A) (A) (A) (A) (A) (A) (A) (A) (A) (A)
                 (A) (A) (A) (A) (A) (A) (A) (A) (A) (A) (A) (A)
                 (A) (A) (A) (A) (A) (A) (A) (A) (A) (A) (A) (A)
                 (A) (A) (A) (A) (A) (A) (A) (A) (A) (A) (A) (A)
                 (A) (A) (A) (A) (A) (A) (A) (A) (A) (A) (A) (A)
                 (A) (A) (A) (A) (A) (A) (A) (A) (A) (A) (A) (A)
                 (A) (A) (A)
     8 initial guesses have been made.
 Convergence on wavefunction:    0.001000000000000
 Iteration     1 Dimension     8 NMult     0 NNew      8
 CISAX will form     8 AO SS matrices at one time.
 Iteration     2 Dimension    12 NMult     8 NNew      4
 Iteration     3 Dimension    16 NMult    12 NNew      4
 Iteration     4 Dimension    20 NMult    16 NNew      4
 Iteration     5 Dimension    24 NMult    20 NNew      4
 Iteration     6 Dimension    28 NMult    24 NNew      4
 ***********************************************************************
 Excited states from <AA,BB:AA,BB> singles matrix:
 ***********************************************************************
 
 Ground to excited state transition densities written to RWF  633
 Ground to excited state transition electric dipole moments (Au):
       state          X           Y           Z        Dip. S.      Osc.
         1        -2.2247     -0.8891     -0.7641      6.3235      0.3219
 Ground to excited state transition velocity dipole moments (Au):
       state          X           Y           Z        Dip. S.      Osc.
         1         0.1649      0.0608      0.0581      0.0343      0.2992
 Ground to excited state transition magnetic dipole moments (Au):
       state          X           Y           Z
         1         0.5767     -0.0518     -1.2117
 Ground to excited state transition velocity quadrupole moments (Au):
       state          XX          YY          ZZ          XY          XZ          YZ
         1        -0.5199     -0.2153      0.0637     -0.5670     -0.3717     -0.1752
 <0|del|b> * <b|rxdel|0> + <0|del|b> * <b|delr+rdel|0>
 Rotatory Strengths (R) in cgs (10**-40 erg-esu-cm/Gauss)
       state          XX          YY          ZZ    R(velocity)    E-M Angle
         1      -388.5161    133.1481    455.0927     66.5749       85.02
 1/2[<0|r|b>*<b|rxdel|0> + (<0|rxdel|b>*<b|r|0>)*]
 Rotatory Strengths (R) in cgs (10**-40 erg-esu-cm/Gauss)
       state          XX          YY          ZZ     R(length)
         1       907.2372    -32.5522   -654.7629     73.3074
  1/2[<0|del|b>*<b|r|0> + (<0|r|b>*<b|del|0>)*] (Au)
       state          X           Y           Z        Dip. S.   Osc.(frdel)
         1        -0.3670     -0.0540     -0.0444      0.4654      0.3102

 Excitation energies and oscillator strengths:
 
 Excited State   1:      Singlet-A      2.0780 eV  596.66 nm  f=0.3219  <S**2>=0.000
     154 ->156         0.33452
     155 ->156         0.61618
     155 <-156        -0.10071
 This state for optimization and/or second-order correction.
 Total Energy, E(TD-HF/TD-KS) =  -1947.79248162    
 Copying the excited state density for this state as the 1-particle RhoCI density.
 SavETr:  write IOETrn=   770 NScale= 10 NData=  16 NLR=1 NState=    1 LETran=      28.

 **********************************************************************

            Population analysis using the SCF density.

 **********************************************************************

 Orbital symmetries:
       Occupied  (A) (A) (A) (A) (A) (A) (A) (A) (A) (A) (A) (A)
                 (A) (A) (A) (A) (A) (A) (A) (A) (A) (A) (A) (A)
                 (A) (A) (A) (A) (A) (A) (A) (A) (A) (A) (A) (A)
                 (A) (A) (A) (A) (A) (A) (A) (A) (A) (A) (A) (A)
                 (A) (A) (A) (A) (A) (A) (A) (A) (A) (A) (A) (A)
                 (A) (A) (A) (A) (A) (A) (A) (A) (A) (A) (A) (A)
                 (A) (A) (A) (A) (A) (A) (A) (A) (A) (A) (A) (A)
                 (A) (A) (A) (A) (A) (A) (A) (A) (A) (A) (A) (A)
                 (A) (A) (A) (A) (A) (A) (A) (A) (A) (A) (A) (A)
                 (A) (A) (A) (A) (A) (A) (A) (A) (A) (A) (A) (A)
                 (A) (A) (A) (A) (A) (A) (A) (A) (A) (A) (A) (A)
                 (A) (A) (A) (A) (A) (A) (A) (A) (A) (A) (A) (A)
                 (A) (A) (A) (A) (A) (A) (A) (A) (A) (A) (A)
       Virtual   (A) (A) (A) (A) (A) (A) (A) (A) (A) (A) (A) (A)
                 (A) (A) (A) (A) (A) (A) (A) (A) (A) (A) (A) (A)
                 (A) (A) (A) (A) (A) (A) (A) (A) (A) (A) (A) (A)
                 (A) (A) (A) (A) (A) (A) (A) (A) (A) (A) (A) (A)
                 (A) (A) (A) (A) (A) (A) (A) (A) (A) (A) (A) (A)
                 (A) (A) (A) (A) (A) (A) (A) (A) (A) (A) (A) (A)
                 (A) (A) (A) (A) (A) (A) (A) (A) (A) (A) (A) (A)
                 (A) (A) (A) (A) (A) (A) (A) (A) (A) (A) (A) (A)
                 (A) (A) (A) (A) (A) (A) (A) (A) (A) (A) (A) (A)
                 (A) (A) (A) (A) (A) (A) (A) (A) (A) (A) (A) (A)
                 (A) (A) (A) (A) (A) (A) (A) (A) (A) (A) (A) (A)
                 (A) (A) (A) (A) (A) (A) (A) (A) (A) (A) (A) (A)
                 (A) (A) (A) (A) (A) (A) (A) (A) (A) (A) (A) (A)
                 (A) (A) (A) (A) (A) (A) (A) (A) (A) (A) (A) (A)
                 (A) (A) (A) (A) (A) (A) (A) (A) (A) (A) (A) (A)
                 (A) (A) (A) (A) (A) (A) (A) (A) (A) (A) (A) (A)
                 (A) (A) (A) (A) (A) (A) (A) (A) (A) (A) (A) (A)
                 (A) (A) (A) (A) (A) (A) (A) (A) (A) (A) (A) (A)
                 (A) (A) (A) (A) (A) (A) (A) (A) (A) (A) (A) (A)
                 (A) (A) (A) (A) (A) (A) (A) (A) (A) (A) (A) (A)
                 (A) (A) (A) (A) (A) (A) (A) (A) (A) (A) (A) (A)
                 (A) (A) (A) (A) (A) (A) (A) (A) (A) (A) (A) (A)
                 (A) (A) (A) (A) (A) (A) (A) (A) (A) (A) (A) (A)
                 (A) (A) (A) (A) (A) (A) (A) (A) (A) (A) (A) (A)
                 (A) (A) (A) (A) (A) (A) (A) (A) (A) (A) (A) (A)
                 (A) (A) (A) (A) (A) (A) (A) (A) (A) (A) (A) (A)
                 (A) (A) (A) (A) (A) (A) (A) (A) (A) (A) (A) (A)
                 (A) (A) (A) (A) (A) (A) (A) (A) (A) (A) (A) (A)
                 (A) (A) (A) (A) (A) (A) (A) (A) (A) (A) (A) (A)
                 (A) (A) (A) (A) (A) (A) (A) (A) (A) (A) (A) (A)
                 (A) (A) (A) (A) (A) (A) (A) (A) (A) (A) (A) (A)
                 (A) (A) (A) (A) (A) (A) (A) (A) (A) (A) (A) (A)
                 (A) (A) (A) (A) (A) (A) (A) (A) (A) (A) (A) (A)
                 (A) (A) (A) (A) (A) (A) (A) (A) (A) (A) (A) (A)
                 (A) (A) (A) (A) (A) (A) (A) (A) (A) (A) (A) (A)
                 (A) (A) (A) (A) (A) (A) (A) (A) (A) (A) (A) (A)
                 (A) (A) (A) (A) (A) (A) (A) (A) (A) (A) (A) (A)
                 (A) (A) (A) (A) (A) (A) (A) (A) (A) (A) (A) (A)
                 (A) (A) (A) (A) (A) (A) (A) (A) (A) (A) (A) (A)
                 (A) (A) (A) (A) (A) (A) (A) (A) (A) (A) (A) (A)
                 (A) (A) (A) (A) (A) (A) (A) (A) (A) (A) (A) (A)
                 (A) (A) (A) (A) (A) (A) (A) (A) (A) (A) (A) (A)
                 (A) (A) (A) (A) (A) (A) (A) (A) (A) (A) (A) (A)
                 (A) (A) (A) (A) (A) (A) (A) (A) (A) (A) (A) (A)
                 (A) (A) (A) (A) (A) (A) (A) (A) (A) (A) (A) (A)
                 (A) (A) (A) (A) (A) (A) (A) (A) (A) (A) (A) (A)
                 (A) (A) (A) (A) (A) (A) (A) (A) (A) (A) (A) (A)
                 (A) (A) (A) (A) (A) (A) (A) (A) (A) (A) (A) (A)
                 (A) (A) (A) (A) (A) (A) (A) (A) (A) (A) (A) (A)
                 (A) (A) (A) (A) (A) (A) (A) (A) (A) (A) (A) (A)
                 (A) (A) (A) (A) (A) (A) (A) (A) (A) (A) (A) (A)
                 (A) (A) (A) (A) (A) (A) (A) (A) (A) (A) (A) (A)
                 (A) (A) (A)
 The electronic state is 1-A.
 Alpha  occ. eigenvalues --  -19.20563 -19.19294 -19.13371 -19.12649 -19.10884
 Alpha  occ. eigenvalues --  -19.09414 -14.40088 -14.36625 -14.36275 -14.28422
 Alpha  occ. eigenvalues --  -10.33758 -10.32277 -10.29044 -10.25422 -10.25399
 Alpha  occ. eigenvalues --  -10.25218 -10.23985 -10.23851 -10.23794 -10.23726
 Alpha  occ. eigenvalues --  -10.22653 -10.22556 -10.22171 -10.21545 -10.21333
 Alpha  occ. eigenvalues --  -10.20946 -10.20709 -10.20644 -10.20583 -10.20544
 Alpha  occ. eigenvalues --  -10.20510 -10.20295 -10.20066 -10.19963 -10.19687
 Alpha  occ. eigenvalues --  -10.19534 -10.19495 -10.19385 -10.19257 -10.19213
 Alpha  occ. eigenvalues --  -10.19107 -10.18446 -10.17823  -1.10437  -1.10331
 Alpha  occ. eigenvalues --   -1.03756  -1.02054  -1.00199  -1.00094  -0.99597
 Alpha  occ. eigenvalues --   -0.99385  -0.96201  -0.90419  -0.83689  -0.83548
 Alpha  occ. eigenvalues --   -0.82076  -0.81178  -0.79838  -0.78854  -0.78486
 Alpha  occ. eigenvalues --   -0.77739  -0.76326  -0.75892  -0.74123  -0.72347
 Alpha  occ. eigenvalues --   -0.71508  -0.71217  -0.69422  -0.68932  -0.68648
 Alpha  occ. eigenvalues --   -0.66329  -0.66114  -0.64329  -0.62402  -0.61227
 Alpha  occ. eigenvalues --   -0.60461  -0.59570  -0.58950  -0.58187  -0.57378
 Alpha  occ. eigenvalues --   -0.56890  -0.56579  -0.55370  -0.54141  -0.53114
 Alpha  occ. eigenvalues --   -0.52248  -0.51896  -0.50729  -0.50583  -0.49883
 Alpha  occ. eigenvalues --   -0.49814  -0.49403  -0.49261  -0.48797  -0.48578
 Alpha  occ. eigenvalues --   -0.47690  -0.47199  -0.46711  -0.46489  -0.45772
 Alpha  occ. eigenvalues --   -0.45426  -0.44863  -0.44637  -0.44214  -0.43810
 Alpha  occ. eigenvalues --   -0.43519  -0.43225  -0.43063  -0.42907  -0.42688
 Alpha  occ. eigenvalues --   -0.42511  -0.42404  -0.42190  -0.41933  -0.41721
 Alpha  occ. eigenvalues --   -0.41141  -0.40846  -0.40786  -0.40522  -0.40289
 Alpha  occ. eigenvalues --   -0.39881  -0.39593  -0.39151  -0.38631  -0.38260
 Alpha  occ. eigenvalues --   -0.37953  -0.37805  -0.37535  -0.37391  -0.37219
 Alpha  occ. eigenvalues --   -0.36947  -0.35312  -0.35035  -0.34698  -0.34454
 Alpha  occ. eigenvalues --   -0.34071  -0.34019  -0.32653  -0.32330  -0.32107
 Alpha  occ. eigenvalues --   -0.31845  -0.31091  -0.28655  -0.28140  -0.27387
 Alpha  occ. eigenvalues --   -0.27053  -0.26569  -0.26272  -0.25891  -0.24452
 Alpha  occ. eigenvalues --   -0.24071  -0.23643  -0.23434  -0.21278  -0.19198
 Alpha virt. eigenvalues --   -0.11021  -0.06672  -0.04810  -0.02351  -0.00959
 Alpha virt. eigenvalues --    0.00306   0.01197   0.01672   0.02281   0.02590
 Alpha virt. eigenvalues --    0.03533   0.03874   0.04299   0.04942   0.05792
 Alpha virt. eigenvalues --    0.06417   0.06640   0.06878   0.07134   0.07246
 Alpha virt. eigenvalues --    0.07641   0.07807   0.08262   0.08780   0.08880
 Alpha virt. eigenvalues --    0.09063   0.09686   0.10199   0.10353   0.10932
 Alpha virt. eigenvalues --    0.11237   0.12003   0.12070   0.12220   0.12411
 Alpha virt. eigenvalues --    0.12675   0.13278   0.13993   0.14295   0.14546
 Alpha virt. eigenvalues --    0.15022   0.15115   0.15394   0.15938   0.16013
 Alpha virt. eigenvalues --    0.16377   0.16834   0.17153   0.17369   0.17818
 Alpha virt. eigenvalues --    0.18595   0.19196   0.19481   0.20049   0.20832
 Alpha virt. eigenvalues --    0.21072   0.21162   0.21444   0.22385   0.22496
 Alpha virt. eigenvalues --    0.22698   0.23371   0.23774   0.24289   0.24385
 Alpha virt. eigenvalues --    0.24665   0.25202   0.25512   0.25909   0.26122
 Alpha virt. eigenvalues --    0.26815   0.27388   0.27618   0.28531   0.28705
 Alpha virt. eigenvalues --    0.29236   0.29573   0.30287   0.31437   0.31626
 Alpha virt. eigenvalues --    0.32122   0.32495   0.33014   0.33562   0.33668
 Alpha virt. eigenvalues --    0.34683   0.35212   0.35316   0.35795   0.35961
 Alpha virt. eigenvalues --    0.36739   0.36855   0.37225   0.37768   0.38722
 Alpha virt. eigenvalues --    0.38863   0.39291   0.40305   0.40722   0.41460
 Alpha virt. eigenvalues --    0.41586   0.42352   0.42521   0.42944   0.43316
 Alpha virt. eigenvalues --    0.43837   0.43902   0.44366   0.44572   0.44832
 Alpha virt. eigenvalues --    0.45296   0.45705   0.45936   0.46308   0.46441
 Alpha virt. eigenvalues --    0.46610   0.47167   0.47869   0.48064   0.48451
 Alpha virt. eigenvalues --    0.48894   0.49413   0.49541   0.49752   0.50421
 Alpha virt. eigenvalues --    0.50639   0.51124   0.51506   0.51963   0.52295
 Alpha virt. eigenvalues --    0.52622   0.52726   0.53084   0.53280   0.53364
 Alpha virt. eigenvalues --    0.53864   0.54069   0.54276   0.54321   0.54613
 Alpha virt. eigenvalues --    0.55312   0.55820   0.56035   0.57114   0.57711
 Alpha virt. eigenvalues --    0.57788   0.57922   0.58190   0.58764   0.59128
 Alpha virt. eigenvalues --    0.59331   0.59906   0.60041   0.60527   0.60761
 Alpha virt. eigenvalues --    0.61069   0.61393   0.61555   0.61796   0.62081
 Alpha virt. eigenvalues --    0.62245   0.62488   0.63390   0.63672   0.63763
 Alpha virt. eigenvalues --    0.64079   0.64193   0.64491   0.64933   0.65115
 Alpha virt. eigenvalues --    0.65215   0.65426   0.65749   0.65893   0.65981
 Alpha virt. eigenvalues --    0.66174   0.66408   0.66821   0.67078   0.67285
 Alpha virt. eigenvalues --    0.67538   0.67802   0.68092   0.68373   0.68667
 Alpha virt. eigenvalues --    0.69045   0.69158   0.69515   0.69579   0.69699
 Alpha virt. eigenvalues --    0.70015   0.70155   0.70450   0.70677   0.71081
 Alpha virt. eigenvalues --    0.71331   0.71699   0.72140   0.72570   0.72617
 Alpha virt. eigenvalues --    0.72880   0.73190   0.73654   0.74250   0.74536
 Alpha virt. eigenvalues --    0.75038   0.75429   0.75813   0.76104   0.76416
 Alpha virt. eigenvalues --    0.77117   0.77498   0.77559   0.77782   0.78543
 Alpha virt. eigenvalues --    0.78760   0.79331   0.79768   0.79988   0.80232
 Alpha virt. eigenvalues --    0.81234   0.82243   0.83244   0.83454   0.83631
 Alpha virt. eigenvalues --    0.83899   0.84544   0.84995   0.85801   0.86746
 Alpha virt. eigenvalues --    0.87566   0.88179   0.88502   0.88770   0.89106
 Alpha virt. eigenvalues --    0.90613   0.91141   0.91858   0.92339   0.93280
 Alpha virt. eigenvalues --    0.93687   0.93860   0.94906   0.95570   0.95913
 Alpha virt. eigenvalues --    0.96467   0.96814   0.97255   0.97770   0.98080
 Alpha virt. eigenvalues --    0.98427   0.98827   0.99651   1.00163   1.00416
 Alpha virt. eigenvalues --    1.01501   1.03069   1.03224   1.04349   1.04957
 Alpha virt. eigenvalues --    1.06581   1.06736   1.07371   1.07735   1.08056
 Alpha virt. eigenvalues --    1.09150   1.09833   1.09961   1.10936   1.11255
 Alpha virt. eigenvalues --    1.12150   1.12234   1.12750   1.13162   1.13698
 Alpha virt. eigenvalues --    1.14148   1.15716   1.15988   1.16585   1.17198
 Alpha virt. eigenvalues --    1.17666   1.17923   1.18803   1.18971   1.20664
 Alpha virt. eigenvalues --    1.21560   1.21968   1.22246   1.22390   1.23133
 Alpha virt. eigenvalues --    1.23328   1.24652   1.25862   1.26197   1.27381
 Alpha virt. eigenvalues --    1.28179   1.28383   1.28994   1.29601   1.30018
 Alpha virt. eigenvalues --    1.31229   1.31708   1.32215   1.34085   1.34175
 Alpha virt. eigenvalues --    1.34787   1.35394   1.35501   1.37234   1.37353
 Alpha virt. eigenvalues --    1.38292   1.38450   1.38700   1.39710   1.40536
 Alpha virt. eigenvalues --    1.40872   1.41371   1.42205   1.43975   1.44581
 Alpha virt. eigenvalues --    1.45508   1.45973   1.46627   1.47638   1.48252
 Alpha virt. eigenvalues --    1.48639   1.49068   1.49425   1.50052   1.50168
 Alpha virt. eigenvalues --    1.51427   1.51708   1.51866   1.52325   1.53712
 Alpha virt. eigenvalues --    1.54007   1.54583   1.54759   1.55267   1.55771
 Alpha virt. eigenvalues --    1.55964   1.56478   1.56868   1.57323   1.58223
 Alpha virt. eigenvalues --    1.58944   1.59440   1.59778   1.61051   1.61332
 Alpha virt. eigenvalues --    1.61653   1.61943   1.63101   1.64057   1.64578
 Alpha virt. eigenvalues --    1.65255   1.65600   1.66098   1.66420   1.67134
 Alpha virt. eigenvalues --    1.67865   1.68069   1.68736   1.69135   1.69163
 Alpha virt. eigenvalues --    1.69839   1.70070   1.70278   1.70390   1.70742
 Alpha virt. eigenvalues --    1.70823   1.71152   1.71378   1.72334   1.73101
 Alpha virt. eigenvalues --    1.73317   1.74186   1.74673   1.75292   1.75805
 Alpha virt. eigenvalues --    1.76095   1.76145   1.76544   1.77014   1.77409
 Alpha virt. eigenvalues --    1.77548   1.77999   1.78130   1.79190   1.79474
 Alpha virt. eigenvalues --    1.79865   1.80024   1.80698   1.81211   1.81479
 Alpha virt. eigenvalues --    1.82090   1.82497   1.82766   1.83155   1.83403
 Alpha virt. eigenvalues --    1.83658   1.84481   1.84751   1.85161   1.85605
 Alpha virt. eigenvalues --    1.85826   1.86128   1.86460   1.86944   1.87317
 Alpha virt. eigenvalues --    1.88026   1.88490   1.88675   1.89006   1.89744
 Alpha virt. eigenvalues --    1.90707   1.91050   1.91329   1.91778   1.92466
 Alpha virt. eigenvalues --    1.93118   1.93318   1.94110   1.94395   1.94961
 Alpha virt. eigenvalues --    1.95566   1.95823   1.96115   1.96292   1.97513
 Alpha virt. eigenvalues --    1.98254   1.98716   1.99083   1.99669   2.00033
 Alpha virt. eigenvalues --    2.00629   2.01748   2.02198   2.02710   2.02886
 Alpha virt. eigenvalues --    2.04364   2.05101   2.05893   2.06153   2.06275
 Alpha virt. eigenvalues --    2.06972   2.07148   2.07280   2.08136   2.08589
 Alpha virt. eigenvalues --    2.09258   2.09637   2.10561   2.11010   2.11195
 Alpha virt. eigenvalues --    2.11678   2.12386   2.12435   2.12710   2.13239
 Alpha virt. eigenvalues --    2.13770   2.14662   2.15364   2.16252   2.16691
 Alpha virt. eigenvalues --    2.17405   2.17665   2.18477   2.18826   2.19265
 Alpha virt. eigenvalues --    2.19977   2.20860   2.21317   2.21571   2.22735
 Alpha virt. eigenvalues --    2.23440   2.23991   2.24478   2.25245   2.25761
 Alpha virt. eigenvalues --    2.27696   2.27785   2.28062   2.28226   2.29177
 Alpha virt. eigenvalues --    2.29475   2.29912   2.30506   2.30969   2.31844
 Alpha virt. eigenvalues --    2.32570   2.33076   2.33903   2.34708   2.35091
 Alpha virt. eigenvalues --    2.36402   2.36787   2.37699   2.38967   2.39898
 Alpha virt. eigenvalues --    2.40207   2.40824   2.42328   2.42761   2.43390
 Alpha virt. eigenvalues --    2.44086   2.44715   2.45373   2.45525   2.45733
 Alpha virt. eigenvalues --    2.46039   2.47380   2.48293   2.49425   2.50155
 Alpha virt. eigenvalues --    2.50381   2.51775   2.51915   2.52890   2.53766
 Alpha virt. eigenvalues --    2.55187   2.55645   2.56543   2.56988   2.57411
 Alpha virt. eigenvalues --    2.57610   2.58893   2.59322   2.60697   2.62076
 Alpha virt. eigenvalues --    2.62183   2.63870   2.64458   2.64846   2.65358
 Alpha virt. eigenvalues --    2.65609   2.66332   2.67031   2.67839   2.68972
 Alpha virt. eigenvalues --    2.69372   2.70044   2.70404   2.71266   2.72163
 Alpha virt. eigenvalues --    2.72635   2.73051   2.73563   2.74452   2.74593
 Alpha virt. eigenvalues --    2.74858   2.75140   2.75949   2.76950   2.77788
 Alpha virt. eigenvalues --    2.78601   2.79311   2.80300   2.80357   2.80854
 Alpha virt. eigenvalues --    2.81417   2.82542   2.83871   2.84791   2.85337
 Alpha virt. eigenvalues --    2.85650   2.85986   2.86423   2.86839   2.87629
 Alpha virt. eigenvalues --    2.88088   2.89286   2.89507   2.90111   2.91999
 Alpha virt. eigenvalues --    2.92370   2.93262   2.96011   2.96553   2.96945
 Alpha virt. eigenvalues --    2.97690   2.98106   2.99017   2.99563   3.00456
 Alpha virt. eigenvalues --    3.01622   3.01810   3.04657   3.05720   3.06085
 Alpha virt. eigenvalues --    3.07475   3.08787   3.09005   3.10610   3.11997
 Alpha virt. eigenvalues --    3.14488   3.15378   3.16107   3.16650   3.17487
 Alpha virt. eigenvalues --    3.18132   3.18601   3.19221   3.20656   3.21580
 Alpha virt. eigenvalues --    3.22018   3.22854   3.23855   3.25219   3.27210
 Alpha virt. eigenvalues --    3.33009   3.36641   3.39361   3.39626   3.40509
 Alpha virt. eigenvalues --    3.41911   3.48079   3.52523   3.55199   3.57476
 Alpha virt. eigenvalues --    3.58008   3.60275   3.61597   3.69328   3.69912
 Alpha virt. eigenvalues --    3.72737   3.81119
          Condensed to atoms (all electrons):
 Mulliken charges:
               1
     1  O   -0.195291
     2  O   -0.121801
     3  O   -0.263768
     4  O   -0.162918
     5  O   -0.284691
     6  O   -0.179126
     7  N   -0.034982
     8  N   -0.134287
     9  N   -0.056483
    10  N   -0.267917
    11  C    0.034188
    12  C    0.282423
    13  C   -0.126194
    14  C   -0.158556
    15  C   -0.096211
    16  C    0.042807
    17  C   -0.152508
    18  C    0.018692
    19  C   -0.027941
    20  C   -0.055636
    21  C    0.083947
    22  C    0.130853
    23  C   -0.104002
    24  C    0.131102
    25  C    0.035029
    26  C   -0.139250
    27  C    0.091436
    28  C    0.141897
    29  C    0.219882
    30  C   -0.049213
    31  C   -0.031211
    32  C    0.012184
    33  C   -0.106390
    34  C    0.161935
    35  C    0.057449
    36  C    0.034827
    37  C    0.160145
    38  C    0.032501
    39  C   -0.188870
    40  C    0.092037
    41  C   -0.008262
    42  C    0.106252
    43  C   -0.105104
    44  H    0.030671
    45  H   -0.078796
    46  H    0.018415
    47  H    0.135792
    48  H    0.105284
    49  H    0.027699
    50  H   -0.005421
    51  H   -0.045168
    52  H    0.007874
    53  H    0.009743
    54  H    0.033484
    55  H    0.016879
    56  H    0.025821
    57  H    0.042192
    58  H    0.016480
    59  H   -0.001662
    60  H    0.125723
    61  H   -0.025488
    62  H   -0.006805
    63  H    0.016942
    64  H    0.041629
    65  H    0.044077
    66  H    0.043560
    67  H    0.056448
    68  H    0.056215
    69  H    0.013370
    70  H   -0.004170
    71  H    0.022243
    72  H    0.146939
    73  H   -0.044940
    74  H    0.027914
    75  H    0.045339
    76  H    0.023394
    77  H    0.191248
    78  H    0.036391
    79  H    0.031710
 Sum of Mulliken charges =   0.00000
 Mulliken charges with hydrogens summed into heavy atoms:
               1
     1  O   -0.195291
     2  O    0.025138
     3  O   -0.263768
     4  O    0.028330
     5  O   -0.284691
     6  O   -0.179126
     7  N    0.100810
     8  N   -0.029003
     9  N    0.069241
    10  N   -0.267917
    11  C    0.064859
    12  C    0.222043
    13  C   -0.126194
    14  C   -0.158556
    15  C   -0.096211
    16  C    0.042807
    17  C   -0.152508
    18  C    0.040970
    19  C   -0.027941
    20  C   -0.100804
    21  C    0.083947
    22  C    0.130853
    23  C   -0.104002
    24  C    0.182203
    25  C    0.119921
    26  C   -0.139250
    27  C    0.106254
    28  C    0.141897
    29  C    0.187589
    30  C   -0.032272
    31  C    0.054494
    32  C    0.168408
    33  C   -0.093019
    34  C    0.161935
    35  C    0.057449
    36  C    0.052900
    37  C    0.160145
    38  C    0.032501
    39  C   -0.188870
    40  C    0.092037
    41  C   -0.053202
    42  C    0.202899
    43  C   -0.037003
 Electronic spatial extent (au):  <R**2>=          32470.6046
 Charge=              0.0000 electrons
 Dipole moment (field-independent basis, Debye):
    X=             -0.3050    Y=              3.7521    Z=              3.9451  Tot=              5.4530
 Quadrupole moment (field-independent basis, Debye-Ang):
   XX=           -224.1548   YY=           -242.6394   ZZ=           -262.5151
   XY=             -8.9622   XZ=             25.8012   YZ=             -1.8918
 Traceless Quadrupole moment (field-independent basis, Debye-Ang):
   XX=             18.9483   YY=              0.4637   ZZ=            -19.4120
   XY=             -8.9622   XZ=             25.8012   YZ=             -1.8918
 Octapole moment (field-independent basis, Debye-Ang**2):
  XXX=            -30.1836  YYY=            210.2642  ZZZ=            102.4092  XYY=           -122.5133
  XXY=            -39.2700  XXZ=             89.6476  XZZ=            -54.7401  YZZ=            -20.0130
  YYZ=             58.2458  XYZ=              7.2929
 Hexadecapole moment (field-independent basis, Debye-Ang**3):
 XXXX=         -24667.2173 YYYY=         -10790.8315 ZZZZ=          -4883.1736 XXXY=            234.4183
 XXXZ=            426.6584 YYYX=           -330.9857 YYYZ=            552.1376 ZZZX=            -54.0318
 ZZZY=           -175.1953 XXYY=          -6247.6289 XXZZ=          -5385.5669 YYZZ=          -2829.6649
 XXYZ=           -114.3334 YYXZ=             37.0618 ZZXY=             75.0072
 N-N= 4.914442911135D+03 E-N=-1.435740616380D+04  KE= 1.927735846865D+03
 1\1\GINC-PEDRO-RYZENSSD\SP\RB3LYP TD-FC\SVP\C33H36N4O6\PADAWAN\08-Jul-
 2019\0\\# td=(NStates=1) B3LYP/SVP\\TD\\0,1\O,0,-5.4398993517,0.161740
 289,-3.2800208349\O,0,3.0560224283,3.0945951829,3.194215686\O,0,3.0670
 074385,0.7490199111,3.1892808893\O,0,1.6421383497,-7.2145273571,1.5090
 013099\O,0,0.2296697164,-6.7169926033,-0.2622401552\O,0,2.0472481841,3
 .9743304,-0.0288846241\N,0,-2.3749480975,-0.8784928559,0.4975962867\N,
 0,-4.4181557195,0.6822024688,-1.2183637685\N,0,1.9610258297,-0.7249744
 784,-0.371238562\N,0,2.7167629467,1.9160100511,-0.5567031453\C,0,-4.89
 22014664,1.1500851879,-0.0003995835\C,0,-4.5031149169,0.2713535531,1.2
 238944501\C,0,-3.0348569419,0.0446393463,1.2116065008\C,0,-2.098474891
 8,0.683310478,2.1007908773\C,0,-0.7700608936,0.1174331848,1.7256813303
 \C,0,-1.0361179868,-0.9117962887,0.7379205004\C,0,-6.404006498,1.25282
 70386,-0.1895173655\C,0,0.4612096043,0.4256004831,2.5789425631\C,0,-6.
 806493081,0.8942117264,-1.3901298707\C,0,-0.1704627883,-1.8789731984,0
 .0817253482\C,0,1.1452074319,-1.8347459872,-0.3126000532\C,0,-5.441322
 1903,0.5451842116,-2.1426237032\C,0,1.8102468946,-2.8303666127,-0.9225
 075674\C,0,-2.3524219834,1.5754292749,3.1879174317\C,0,-7.2003720294,1
 .7378493209,0.9240430182\C,0,3.0423797663,-2.4320052248,-1.2876699241\
 C,0,1.0187386465,1.8322963718,2.4370689253\C,0,3.1917657176,-1.0083202
 714,-0.8998336144\C,0,1.4730128392,-4.397164096,-0.8531837923\C,0,-8.0
 021069316,0.8407886433,-2.1088756096\C,0,1.7669083809,-4.9882150639,0.
 4377901055\C,0,4.2740251189,-3.1969809639,-1.8342954269\C,0,4.12539148
 13,-0.0420125395,-1.3467648716\C,0,2.5391665321,1.8579599703,2.9974296
 481\C,0,3.8416786938,1.3647957359,-1.1465004207\C,0,-9.1969678698,0.78
 63764814,-1.550713834\C,0,1.1256398724,-6.3890676363,0.5767084635\C,0,
 4.7243164965,2.4734994049,-1.5680905356\C,0,4.2196275973,3.7587500352,
 -1.1507646478\C,0,2.8867974357,3.2604777492,-0.4858171287\C,0,6.083306
 335,2.239295801,-2.0875102798\C,0,4.6911899124,5.1980113183,-1.1218448
 564\C,0,7.0393114825,3.1595023716,-2.5139260607\H,0,-4.5319811488,2.25
 45304979,0.2913086729\H,0,-5.0338018093,-0.5457695681,1.1496062089\H,0
 ,-4.7403441536,0.6819024193,2.2997721117\H,0,-2.6735747679,-1.45976283
 38,-0.3292953208\H,0,-3.513407034,0.3440774839,-1.3915263499\H,0,0.391
 6857529,0.0106610396,3.723147647\H,0,1.2755860026,-0.1825981438,2.2395
 222726\H,0,-0.6215926518,-2.7786658299,-0.1562558072\H,0,-3.4193140834
 ,1.4360701923,3.4931754851\H,0,-1.6560904684,1.3711157391,4.0042601506
 \H,0,-2.0557383731,2.6109297288,2.9457267267\H,0,-6.7722611212,2.46750
 57027,1.5835464734\H,0,-7.4685395623,0.9202883572,1.6525576784\H,0,-8.
 4043289242,1.8982419943,0.5574147387\H,0,0.849527134,2.0022628343,1.47
 23872463\H,0,0.5569597361,2.5964177296,2.9962699815\H,0,1.7297085892,0
 .2098273729,-0.1093531614\H,0,1.9416624248,-4.9482503482,-1.5771757798
 \H,0,0.4615542358,-4.3761775312,-1.0823810078\H,0,-7.8294482698,0.7456
 071947,-3.2165225643\H,0,1.3229052306,-4.3357078751,1.2642861162\H,0,2
 .8457456175,-5.0161180908,0.9092448629\H,0,3.8655009939,-4.1828658151,
 -2.3317422268\H,0,5.0573878603,-3.334162297,-1.0589608176\H,0,4.671974
 2937,-2.4029323488,-2.7352738497\H,0,5.1376565728,-0.1891730261,-1.861
 2328115\H,0,-9.1242719494,0.6198628835,-0.5309537816\H,0,-10.095177682
 9,0.7541497934,-2.1418339251\H,0,3.8712535568,2.8200645751,3.540402222
 4\H,0,6.5033053361,1.311645371,-2.0777352767\H,0,4.7587968899,5.535156
 6077,-2.1538024352\H,0,3.8617941835,5.7334704169,-0.5656696502\H,0,5.6
 681685884,5.3910155562,-0.7448262307\H,0,1.3401115497,-8.1059218347,1.
 2630559787\H,0,8.0980410859,2.8534326496,-2.8052892911\H,0,6.877479192
 2,4.3451320845,-2.5262955187\\Version=ES64L-G09RevD.01\State=1-A\HF=-1
 947.8688452\RMSD=4.002e-09\PG=C01 [X(C33H36N4O6)]\\@


 FORGIVE MY NONSENSE AS I ALSO FORGIVE THOSE WHO THINK THEY TALK SENSE

                                                       -- ROBERT FROST
 Job cpu time:       0 days  4 hours 47 minutes 18.8 seconds.
 File lengths (MBytes):  RWF=    769 Int=      0 D2E=      0 Chk=     58 Scr=      1
 Normal termination of Gaussian 09 at Mon Jul  8 18:23:22 2019.
