 Entering Gaussian System, Link 0=g16
 Input=Geometria-58-.com
 Output=Geometria-58-.log
 Initial command:
 /usr/local/g09/l1.exe "/home/padawan/israel-mol/dihydrobiliverdin/spectra/abs/Gau-40277.inp" -scrdir="/home/padawan/israel-mol/dihydrobiliverdin/spectra/abs/"
 Entering Link 1 = /usr/local/g09/l1.exe PID=     40279.
  
 Copyright (c) 1988,1990,1992,1993,1995,1998,2003,2009,2013,
            Gaussian, Inc.  All Rights Reserved.
  
 This is part of the Gaussian(R) 09 program.  It is based on
 the Gaussian(R) 03 system (copyright 2003, Gaussian, Inc.),
 the Gaussian(R) 98 system (copyright 1998, Gaussian, Inc.),
 the Gaussian(R) 94 system (copyright 1995, Gaussian, Inc.),
 the Gaussian 92(TM) system (copyright 1992, Gaussian, Inc.),
 the Gaussian 90(TM) system (copyright 1990, Gaussian, Inc.),
 the Gaussian 88(TM) system (copyright 1988, Gaussian, Inc.),
 the Gaussian 86(TM) system (copyright 1986, Carnegie Mellon
 University), and the Gaussian 82(TM) system (copyright 1983,
 Carnegie Mellon University). Gaussian is a federally registered
 trademark of Gaussian, Inc.
  
 This software contains proprietary and confidential information,
 including trade secrets, belonging to Gaussian, Inc.
  
 This software is provided under written license and may be
 used, copied, transmitted, or stored only in accord with that
 written license.
  
 The following legend is applicable only to US Government
 contracts under FAR:
  
                    RESTRICTED RIGHTS LEGEND
  
 Use, reproduction and disclosure by the US Government is
 subject to restrictions as set forth in subparagraphs (a)
 and (c) of the Commercial Computer Software - Restricted
 Rights clause in FAR 52.227-19.
  
 Gaussian, Inc.
 340 Quinnipiac St., Bldg. 40, Wallingford CT 06492
  
  
 ---------------------------------------------------------------
 Warning -- This program may not be used in any manner that
 competes with the business of Gaussian, Inc. or will provide
 assistance to any competitor of Gaussian, Inc.  The licensee
 of this program is prohibited from giving any competitor of
 Gaussian, Inc. access to this program.  By using this program,
 the user acknowledges that Gaussian, Inc. is engaged in the
 business of creating and licensing software in the field of
 computational chemistry and represents and warrants to the
 licensee that it is not a competitor of Gaussian, Inc. and that
 it will not use this program in any manner prohibited above.
 ---------------------------------------------------------------
  

 Cite this work as:
 Gaussian 09, Revision D.01,
 M. J. Frisch, G. W. Trucks, H. B. Schlegel, G. E. Scuseria, 
 M. A. Robb, J. R. Cheeseman, G. Scalmani, V. Barone, B. Mennucci, 
 G. A. Petersson, H. Nakatsuji, M. Caricato, X. Li, H. P. Hratchian, 
 A. F. Izmaylov, J. Bloino, G. Zheng, J. L. Sonnenberg, M. Hada, 
 M. Ehara, K. Toyota, R. Fukuda, J. Hasegawa, M. Ishida, T. Nakajima, 
 Y. Honda, O. Kitao, H. Nakai, T. Vreven, J. A. Montgomery, Jr., 
 J. E. Peralta, F. Ogliaro, M. Bearpark, J. J. Heyd, E. Brothers, 
 K. N. Kudin, V. N. Staroverov, T. Keith, R. Kobayashi, J. Normand, 
 K. Raghavachari, A. Rendell, J. C. Burant, S. S. Iyengar, J. Tomasi, 
 M. Cossi, N. Rega, J. M. Millam, M. Klene, J. E. Knox, J. B. Cross, 
 V. Bakken, C. Adamo, J. Jaramillo, R. Gomperts, R. E. Stratmann, 
 O. Yazyev, A. J. Austin, R. Cammi, C. Pomelli, J. W. Ochterski, 
 R. L. Martin, K. Morokuma, V. G. Zakrzewski, G. A. Voth, 
 P. Salvador, J. J. Dannenberg, S. Dapprich, A. D. Daniels, 
 O. Farkas, J. B. Foresman, J. V. Ortiz, J. Cioslowski, 
 and D. J. Fox, Gaussian, Inc., Wallingford CT, 2013.
 
 ******************************************
 Gaussian 09:  ES64L-G09RevD.01 24-Apr-2013
                 7-Jul-2019 
 ******************************************
 %nproc=4
 Will use up to    4 processors via shared memory.
 %Mem=2GB
 --------------------------
 # td=(NStates=1) B3LYP/SVP
 --------------------------
 1/38=1/1;
 2/12=2,17=6,18=5,40=1/2;
 3/5=18,7=101,11=9,16=1,25=1,30=1,74=-5/1,2,8,3;
 4//1;
 5/5=2,38=5/2;
 8/6=1,10=1,108=1/1;
 9/41=1,42=1,70=2/14;
 6/7=2,8=2,9=2,10=2/1;
 99/5=1,9=1/99;
 --
 TD
 --
 Symbolic Z-matrix:
 Charge =  0 Multiplicity = 1
 8                    -5.68857   0.11397  -3.36249 
 8                     2.85645   3.08243   3.13991 
 8                     3.22736   0.87943   3.33559 
 8                     1.78946  -7.14812   1.51592 
 8                     0.67754  -7.06308  -0.45768 
 8                     1.92907   4.01845  -0.0547 
 7                    -2.48899  -0.84445   0.55755 
 7                    -4.47899   0.64207  -1.33648 
 7                     1.97463  -0.73075  -0.20882 
 7                     2.71425   1.90131  -0.65812 
 6                    -4.77735   1.29701  -0.17413 
 6                    -4.44628   0.43755   1.15013 
 6                    -3.00569   0.14745   1.32875 
 6                    -2.04107   0.64476   2.12493 
 6                    -0.77674   0.08665   1.79028 
 6                    -1.04676  -0.94723   0.87564 
 6                    -6.33047   1.32473  -0.15056 
 6                     0.56629   0.21972   2.56817 
 6                    -6.81296   0.92358  -1.38403 
 6                    -0.21495  -1.87707   0.08707 
 6                     1.11406  -1.78977  -0.22827 
 6                    -5.55298   0.51406  -2.1838 
 6                     1.87817  -2.86706  -0.7601 
 6                    -2.17375   1.77241   3.05922 
 6                    -7.22051   1.94506   0.89097 
 6                     3.13328  -2.45418  -1.21664 
 6                     1.19526   1.62881   2.56483 
 6                     3.15531  -0.99733  -0.83227 
 6                     1.45604  -4.33979  -0.88456 
 6                    -8.09213   0.77726  -2.01976 
 6                     1.64222  -5.00647   0.41678 
 6                     4.23639  -3.18449  -1.94677 
 6                     4.01675  -0.05367  -1.286 
 6                     2.47565   1.70962   2.99997 
 6                     3.81904   1.37688  -1.0976 
 6                    -9.34243   0.90381  -1.56397 
 6                     1.29563  -6.5128    0.42233 
 6                     4.737     2.45925  -1.48247 
 6                     4.20295   3.61074  -1.03995 
 6                     2.81655   3.3257   -0.57522 
 6                     6.08476   2.22516  -2.14906 
 6                     4.62377   5.07543  -1.21909 
 6                     7.005     3.21894  -2.48281 
 1                    -4.3422    2.26494   0.00953 
 1                    -4.99516  -0.51691   1.02044 
 1                    -4.81879   0.967     2.08695 
 1                    -2.95041  -1.45568   0.00938 
 1                    -3.5917    0.66672  -1.86651 
 1                     0.1162   -0.13217   3.57059 
 1                     1.22828  -0.6482    2.31712 
 1                    -0.74049  -2.82036  -0.08005 
 1                    -3.24281   1.88739   3.49627 
 1                    -1.76996   1.58622   4.15904 
 1                    -1.8183    2.55006   2.90249 
 1                    -6.79038   2.68809   1.32087 
 1                    -7.82674   1.24662   1.49632 
 1                    -8.1105    2.62942   0.43524 
 1                     1.30285   2.03591   1.4944 
 1                     0.48134   2.38095   3.07032 
 1                     1.80298   0.34834  -0.12253 
 1                     2.00329  -4.80517  -1.73055 
 1                     0.40714  -4.527    -1.13398 
 1                    -7.95724   0.66026  -3.10481 
 1                     0.98376  -4.74439   1.21347 
 1                     2.62935  -4.9536    0.74367 
 1                     3.85932  -4.18561  -2.02115 
 1                     5.16691  -3.01123  -1.44194 
 1                     4.20613  -2.78522  -2.98246 
 1                     5.11174  -0.1919   -1.59852 
 1                    -9.82215   1.21504  -0.52617 
 1                    -10.12886   0.78263  -2.28817 
 1                     3.69703   3.22847   3.85731 
 1                     6.64859   1.19286  -2.05083 
 1                     4.94428   5.36642  -2.35593 
 1                     4.01766   5.90413  -0.44683 
 1                     5.71337   4.99948  -0.68537 
 1                     1.50025  -7.98461   1.4482 
 1                     7.96951   3.01411  -2.6433 
 1                     6.8188    4.24875  -2.64842 
 
 Stoichiometry    C33H36N4O6
 Framework group  C1[X(C33H36N4O6)]
 Deg. of freedom   231
 Full point group                 C1      NOp   1
 Largest Abelian subgroup         C1      NOp   1
 Largest concise Abelian subgroup C1      NOp   1
                         Standard orientation:                         
 ---------------------------------------------------------------------
 Center     Atomic      Atomic             Coordinates (Angstroms)
 Number     Number       Type             X           Y           Z
 ---------------------------------------------------------------------
      1          8           0        5.714128   -0.035833   -3.319308
      2          8           0       -2.841271   -3.120712    3.114910
      3          8           0       -3.241669   -0.922849    3.310246
      4          8           0       -1.892398    7.124563    1.510528
      5          8           0       -0.764614    7.056080   -0.454698
      6          8           0       -1.877943   -4.040962   -0.073638
      7          7           0        2.473087    0.877014    0.577484
      8          7           0        4.496102   -0.581753   -1.303100
      9          7           0       -1.982806    0.707458   -0.222771
     10          7           0       -2.685443   -1.933244   -0.680611
     11          6           0        4.793989   -1.234261   -0.139263
     12          6           0        4.442010   -0.380699    1.183412
     13          6           0        2.996540   -0.109170    1.351453
     14          6           0        2.032341   -0.619680    2.139758
     15          6           0        0.763572   -0.077299    1.796172
     16          6           0        1.027303    0.961047    0.884769
     17          6           0        6.347113   -1.242250   -0.103979
     18          6           0       -0.583492   -0.228395    2.563731
     19          6           0        6.833762   -0.833491   -1.333307
     20          6           0        0.189698    1.881192    0.090963
     21          6           0       -1.135675    1.777371   -0.234519
     22          6           0        5.574745   -0.439058   -2.142127
     23          6           0       -1.909401    2.845498   -0.770906
     24          6           0        2.172314   -1.746691    3.073760
     25          6           0        7.237093   -1.852470    0.943562
     26          6           0       -3.155664    2.417235   -1.237395
     27          6           0       -1.194423   -1.645365    2.554050
     28          6           0       -3.162047    0.959757   -0.854832
     29          6           0       -1.505127    4.323628   -0.890510
     30          6           0        8.115722   -0.670129   -1.959173
     31          6           0       -1.709597    4.986297    0.410126
     32          6           0       -4.262440    3.134342   -1.975024
     33          6           0       -4.007949    0.005771   -1.316129
     34          6           0       -2.476933   -1.742989    2.979396
     35          6           0       -3.793465   -1.422377   -1.127841
     36          6           0        9.364060   -0.781312   -1.494076
     37          6           0       -1.382268    6.496911    0.419995
     38          6           0       -4.694637   -2.515871   -1.520867
     39          6           0       -4.149324   -3.661008   -1.075614
     40          6           0       -2.770219   -3.358926   -0.600079
     41          6           0       -6.040195   -2.298143   -2.197368
     42          6           0       -4.550102   -5.130718   -1.259578
     43          6           0       -6.945161   -3.303138   -2.539194
     44          1           0        4.369826   -2.207875    0.040010
     45          1           0        4.979655    0.580822    1.058957
     46          1           0        4.814149   -0.906508    2.122433
     47          1           0        2.930816    1.494736    0.033504
     48          1           0        3.613229   -0.617046   -1.839864
     49          1           0       -0.145500    0.127975    3.569923
     50          1           0       -1.254566    0.631342    2.308652
     51          1           0        0.704439    2.831292   -0.071110
     52          1           0        3.239412   -1.848588    3.518748
     53          1           0        1.757889   -1.566993    4.170692
     54          1           0        1.827988   -2.528614    2.913469
     55          1           0        6.813224   -2.601434    1.369361
     56          1           0        7.829783   -1.147112    1.554268
     57          1           0        8.139137   -2.524890    0.493814
     58          1           0       -1.288740   -2.052496    1.482378
     59          1           0       -0.474827   -2.388976    3.064078
     60          1           0       -1.798085   -0.369461   -0.136399
     61          1           0       -2.051851    4.783036   -1.740098
     62          1           0       -0.456839    4.524478   -1.131775
     63          1           0        7.987556   -0.553529   -3.045085
     64          1           0       -1.053894    4.731648    1.211484
     65          1           0       -2.698423    4.920478    0.729478
     66          1           0       -3.897596    4.140265   -2.045430
     67          1           0       -5.194462    2.948641   -1.477447
     68          1           0       -4.219275    2.736753   -3.010905
     69          1           0       -5.102223    0.130437   -1.636768
     70          1           0        9.839853   -1.087681   -0.453034
     71          1           0       10.154329   -0.649257   -2.212171
     72          1           0       -3.685311   -3.278301    3.825768
     73          1           0       -6.617852   -1.273220   -2.102254
     74          1           0       -4.858279   -5.424378   -2.399135
     75          1           0       -3.939336   -5.952578   -0.483678
     76          1           0       -5.644581   -5.069287   -0.734029
     77          1           0       -1.613354    7.964746    1.445940
     78          1           0       -7.910962   -3.110402   -2.706747
     79          1           0       -6.744624   -4.330297   -2.704541
 ---------------------------------------------------------------------
 Rotational constants (GHZ):      0.0744973      0.0434010      0.0338805
 Standard basis: SVP (5D, 7F)
 There are   825 symmetry adapted cartesian basis functions of A   symmetry.
 There are   782 symmetry adapted basis functions of A   symmetry.
   782 basis functions,  1327 primitive gaussians,   825 cartesian basis functions
   155 alpha electrons      155 beta electrons
       nuclear repulsion energy      4900.2831431265 Hartrees.
 NAtoms=   79 NActive=   79 NUniq=   79 SFac= 1.00D+00 NAtFMM=   60 NAOKFM=T Big=T
 Integral buffers will be    131072 words long.
 Regular integral format.
 Two-electron integral symmetry is turned on.
 One-electron integrals computed using PRISM.
 NBasis=   782 RedAO= T EigKep=  2.83D-04  NBF=   782
 NBsUse=   782 1.00D-06 EigRej= -1.00D+00 NBFU=   782
 ExpMin= 1.22D-01 ExpMax= 2.27D+03 ExpMxC= 3.41D+02 IAcc=1 IRadAn=         1 AccDes= 0.00D+00
 Harris functional with IExCor=  402 and IRadAn=       1 diagonalized for initial guess.
 HarFok:  IExCor=  402 AccDes= 0.00D+00 IRadAn=         1 IDoV= 1 UseB2=F ITyADJ=14
 ICtDFT=  3500011 ScaDFX=  1.000000  1.000000  1.000000  1.000000
 FoFCou: FMM=F IPFlag=           0 FMFlag=      100000 FMFlg1=        2001
         NFxFlg=           0 DoJE=T BraDBF=F KetDBF=T FulRan=T
         wScrn=  0.000000 ICntrl=     500 IOpCl=  0 I1Cent=   200000004 NGrid=           0
         NMat0=    1 NMatS0=      1 NMatT0=    0 NMatD0=    1 NMtDS0=    0 NMtDT0=    0
 Petite list used in FoFCou.
 Requested convergence on RMS density matrix=1.00D-08 within 128 cycles.
 Requested convergence on MAX density matrix=1.00D-06.
 Requested convergence on             energy=1.00D-06.
 No special actions if energy rises.
 Integral accuracy reduced to 1.0D-05 until final iterations.
 DSYEVD-2 returned Info=      460403 IAlg= 4 N=   782 NDim=   782 NE2=      340638 trying  DSYEV.
 Initial convergence to 1.0D-05 achieved.  Increase integral accuracy.
 SCF Done:  E(RB3LYP) =  -1947.80011952     A.U. after   16 cycles
            NFock= 16  Conv=0.80D-08     -V/T= 2.0103
 DoSCS=F DFT=T ScalE2(SS,OS)=  1.000000  1.000000
 ExpMin= 1.22D-01 ExpMax= 2.27D+03 ExpMxC= 3.41D+02 IAcc=3 IRadAn=         5 AccDes= 0.00D+00
 HarFok:  IExCor=  205 AccDes= 0.00D+00 IRadAn=         5 IDoV=-2 UseB2=F ITyADJ=14
 ICtDFT= 12500011 ScaDFX=  1.000000  1.000000  1.000000  1.000000
 Range of M.O.s used for correlation:    44   782
 NBasis=   782 NAE=   155 NBE=   155 NFC=    43 NFV=     0
 NROrb=    739 NOA=   112 NOB=   112 NVA=   627 NVB=   627

 **** Warning!!: The smallest alpha delta epsilon is  0.79772297D-01

 Would need an additional        140608300000 words for in-memory AO integral storage.
 Orbital symmetries:
       Occupied  (A) (A) (A) (A) (A) (A) (A) (A) (A) (A) (A) (A)
                 (A) (A) (A) (A) (A) (A) (A) (A) (A) (A) (A) (A)
                 (A) (A) (A) (A) (A) (A) (A) (A) (A) (A) (A) (A)
                 (A) (A) (A) (A) (A) (A) (A) (A) (A) (A) (A) (A)
                 (A) (A) (A) (A) (A) (A) (A) (A) (A) (A) (A) (A)
                 (A) (A) (A) (A) (A) (A) (A) (A) (A) (A) (A) (A)
                 (A) (A) (A) (A) (A) (A) (A) (A) (A) (A) (A) (A)
                 (A) (A) (A) (A) (A) (A) (A) (A) (A) (A) (A) (A)
                 (A) (A) (A) (A) (A) (A) (A) (A) (A) (A) (A) (A)
                 (A) (A) (A) (A) (A) (A) (A) (A) (A) (A) (A) (A)
                 (A) (A) (A) (A) (A) (A) (A) (A) (A) (A) (A) (A)
                 (A) (A) (A) (A) (A) (A) (A) (A) (A) (A) (A) (A)
                 (A) (A) (A) (A) (A) (A) (A) (A) (A) (A) (A)
       Virtual   (A) (A) (A) (A) (A) (A) (A) (A) (A) (A) (A) (A)
                 (A) (A) (A) (A) (A) (A) (A) (A) (A) (A) (A) (A)
                 (A) (A) (A) (A) (A) (A) (A) (A) (A) (A) (A) (A)
                 (A) (A) (A) (A) (A) (A) (A) (A) (A) (A) (A) (A)
                 (A) (A) (A) (A) (A) (A) (A) (A) (A) (A) (A) (A)
                 (A) (A) (A) (A) (A) (A) (A) (A) (A) (A) (A) (A)
                 (A) (A) (A) (A) (A) (A) (A) (A) (A) (A) (A) (A)
                 (A) (A) (A) (A) (A) (A) (A) (A) (A) (A) (A) (A)
                 (A) (A) (A) (A) (A) (A) (A) (A) (A) (A) (A) (A)
                 (A) (A) (A) (A) (A) (A) (A) (A) (A) (A) (A) (A)
                 (A) (A) (A) (A) (A) (A) (A) (A) (A) (A) (A) (A)
                 (A) (A) (A) (A) (A) (A) (A) (A) (A) (A) (A) (A)
                 (A) (A) (A) (A) (A) (A) (A) (A) (A) (A) (A) (A)
                 (A) (A) (A) (A) (A) (A) (A) (A) (A) (A) (A) (A)
                 (A) (A) (A) (A) (A) (A) (A) (A) (A) (A) (A) (A)
                 (A) (A) (A) (A) (A) (A) (A) (A) (A) (A) (A) (A)
                 (A) (A) (A) (A) (A) (A) (A) (A) (A) (A) (A) (A)
                 (A) (A) (A) (A) (A) (A) (A) (A) (A) (A) (A) (A)
                 (A) (A) (A) (A) (A) (A) (A) (A) (A) (A) (A) (A)
                 (A) (A) (A) (A) (A) (A) (A) (A) (A) (A) (A) (A)
                 (A) (A) (A) (A) (A) (A) (A) (A) (A) (A) (A) (A)
                 (A) (A) (A) (A) (A) (A) (A) (A) (A) (A) (A) (A)
                 (A) (A) (A) (A) (A) (A) (A) (A) (A) (A) (A) (A)
                 (A) (A) (A) (A) (A) (A) (A) (A) (A) (A) (A) (A)
                 (A) (A) (A) (A) (A) (A) (A) (A) (A) (A) (A) (A)
                 (A) (A) (A) (A) (A) (A) (A) (A) (A) (A) (A) (A)
                 (A) (A) (A) (A) (A) (A) (A) (A) (A) (A) (A) (A)
                 (A) (A) (A) (A) (A) (A) (A) (A) (A) (A) (A) (A)
                 (A) (A) (A) (A) (A) (A) (A) (A) (A) (A) (A) (A)
                 (A) (A) (A) (A) (A) (A) (A) (A) (A) (A) (A) (A)
                 (A) (A) (A) (A) (A) (A) (A) (A) (A) (A) (A) (A)
                 (A) (A) (A) (A) (A) (A) (A) (A) (A) (A) (A) (A)
                 (A) (A) (A) (A) (A) (A) (A) (A) (A) (A) (A) (A)
                 (A) (A) (A) (A) (A) (A) (A) (A) (A) (A) (A) (A)
                 (A) (A) (A) (A) (A) (A) (A) (A) (A) (A) (A) (A)
                 (A) (A) (A) (A) (A) (A) (A) (A) (A) (A) (A) (A)
                 (A) (A) (A) (A) (A) (A) (A) (A) (A) (A) (A) (A)
                 (A) (A) (A) (A) (A) (A) (A) (A) (A) (A) (A) (A)
                 (A) (A) (A) (A) (A) (A) (A) (A) (A) (A) (A) (A)
                 (A) (A) (A) (A) (A) (A) (A) (A) (A) (A) (A) (A)
                 (A) (A) (A) (A) (A) (A) (A) (A) (A) (A) (A) (A)
                 (A) (A) (A) (A) (A) (A) (A) (A) (A) (A) (A) (A)
                 (A) (A) (A) (A) (A) (A) (A) (A) (A) (A) (A) (A)
                 (A) (A) (A) (A) (A) (A) (A) (A) (A) (A) (A) (A)
                 (A) (A) (A) (A) (A) (A) (A) (A) (A) (A) (A) (A)
                 (A) (A) (A) (A) (A) (A) (A) (A) (A) (A) (A) (A)
                 (A) (A) (A) (A) (A) (A) (A) (A) (A) (A) (A) (A)
                 (A) (A) (A) (A) (A) (A) (A) (A) (A) (A) (A) (A)
                 (A) (A) (A) (A) (A) (A) (A) (A) (A) (A) (A) (A)
                 (A) (A) (A) (A) (A) (A) (A) (A) (A) (A) (A) (A)
                 (A) (A) (A) (A) (A) (A) (A) (A) (A) (A) (A) (A)
                 (A) (A) (A) (A) (A) (A) (A) (A) (A) (A) (A) (A)
                 (A) (A) (A)
     8 initial guesses have been made.
 Convergence on wavefunction:    0.001000000000000
 Iteration     1 Dimension     8 NMult     0 NNew      8
 CISAX will form     8 AO SS matrices at one time.
 Iteration     2 Dimension    12 NMult     8 NNew      4
 Iteration     3 Dimension    16 NMult    12 NNew      4
 Iteration     4 Dimension    20 NMult    16 NNew      4
 Iteration     5 Dimension    24 NMult    20 NNew      4
 Iteration     6 Dimension    28 NMult    24 NNew      4
 ***********************************************************************
 Excited states from <AA,BB:AA,BB> singles matrix:
 ***********************************************************************
 
 Ground to excited state transition densities written to RWF  633
 Ground to excited state transition electric dipole moments (Au):
       state          X           Y           Z        Dip. S.      Osc.
         1         2.4601      1.3211      0.8623      8.5410      0.4228
 Ground to excited state transition velocity dipole moments (Au):
       state          X           Y           Z        Dip. S.      Osc.
         1        -0.1763     -0.0900     -0.0623      0.0431      0.3868
 Ground to excited state transition magnetic dipole moments (Au):
       state          X           Y           Z
         1        -0.6971     -0.0687      1.4664
 Ground to excited state transition velocity quadrupole moments (Au):
       state          XX          YY          ZZ          XY          XZ          YZ
         1         0.4333      0.4415     -0.0819      0.7534      0.3616      0.2565
 <0|del|b> * <b|rxdel|0> + <0|del|b> * <b|delr+rdel|0>
 Rotatory Strengths (R) in cgs (10**-40 erg-esu-cm/Gauss)
       state          XX          YY          ZZ    R(velocity)    E-M Angle
         1      -473.8678    158.5876    675.1043    119.9414       83.57
 1/2[<0|r|b>*<b|rxdel|0> + (<0|rxdel|b>*<b|r|0>)*]
 Rotatory Strengths (R) in cgs (10**-40 erg-esu-cm/Gauss)
       state          XX          YY          ZZ     R(length)
         1      1212.8074     64.1391   -894.2299    127.5722
  1/2[<0|del|b>*<b|r|0> + (<0|r|b>*<b|del|0>)*] (Au)
       state          X           Y           Z        Dip. S.   Osc.(frdel)
         1        -0.4338     -0.1190     -0.0537      0.6065      0.4043

 Excitation energies and oscillator strengths:
 
 Excited State   1:      Singlet-A      2.0207 eV  613.58 nm  f=0.4228  <S**2>=0.000
     155 ->156         0.69641
     155 <-156        -0.10674
 This state for optimization and/or second-order correction.
 Total Energy, E(TD-HF/TD-KS) =  -1947.72586122    
 Copying the excited state density for this state as the 1-particle RhoCI density.
 SavETr:  write IOETrn=   770 NScale= 10 NData=  16 NLR=1 NState=    1 LETran=      28.

 **********************************************************************

            Population analysis using the SCF density.

 **********************************************************************

 Orbital symmetries:
       Occupied  (A) (A) (A) (A) (A) (A) (A) (A) (A) (A) (A) (A)
                 (A) (A) (A) (A) (A) (A) (A) (A) (A) (A) (A) (A)
                 (A) (A) (A) (A) (A) (A) (A) (A) (A) (A) (A) (A)
                 (A) (A) (A) (A) (A) (A) (A) (A) (A) (A) (A) (A)
                 (A) (A) (A) (A) (A) (A) (A) (A) (A) (A) (A) (A)
                 (A) (A) (A) (A) (A) (A) (A) (A) (A) (A) (A) (A)
                 (A) (A) (A) (A) (A) (A) (A) (A) (A) (A) (A) (A)
                 (A) (A) (A) (A) (A) (A) (A) (A) (A) (A) (A) (A)
                 (A) (A) (A) (A) (A) (A) (A) (A) (A) (A) (A) (A)
                 (A) (A) (A) (A) (A) (A) (A) (A) (A) (A) (A) (A)
                 (A) (A) (A) (A) (A) (A) (A) (A) (A) (A) (A) (A)
                 (A) (A) (A) (A) (A) (A) (A) (A) (A) (A) (A) (A)
                 (A) (A) (A) (A) (A) (A) (A) (A) (A) (A) (A)
       Virtual   (A) (A) (A) (A) (A) (A) (A) (A) (A) (A) (A) (A)
                 (A) (A) (A) (A) (A) (A) (A) (A) (A) (A) (A) (A)
                 (A) (A) (A) (A) (A) (A) (A) (A) (A) (A) (A) (A)
                 (A) (A) (A) (A) (A) (A) (A) (A) (A) (A) (A) (A)
                 (A) (A) (A) (A) (A) (A) (A) (A) (A) (A) (A) (A)
                 (A) (A) (A) (A) (A) (A) (A) (A) (A) (A) (A) (A)
                 (A) (A) (A) (A) (A) (A) (A) (A) (A) (A) (A) (A)
                 (A) (A) (A) (A) (A) (A) (A) (A) (A) (A) (A) (A)
                 (A) (A) (A) (A) (A) (A) (A) (A) (A) (A) (A) (A)
                 (A) (A) (A) (A) (A) (A) (A) (A) (A) (A) (A) (A)
                 (A) (A) (A) (A) (A) (A) (A) (A) (A) (A) (A) (A)
                 (A) (A) (A) (A) (A) (A) (A) (A) (A) (A) (A) (A)
                 (A) (A) (A) (A) (A) (A) (A) (A) (A) (A) (A) (A)
                 (A) (A) (A) (A) (A) (A) (A) (A) (A) (A) (A) (A)
                 (A) (A) (A) (A) (A) (A) (A) (A) (A) (A) (A) (A)
                 (A) (A) (A) (A) (A) (A) (A) (A) (A) (A) (A) (A)
                 (A) (A) (A) (A) (A) (A) (A) (A) (A) (A) (A) (A)
                 (A) (A) (A) (A) (A) (A) (A) (A) (A) (A) (A) (A)
                 (A) (A) (A) (A) (A) (A) (A) (A) (A) (A) (A) (A)
                 (A) (A) (A) (A) (A) (A) (A) (A) (A) (A) (A) (A)
                 (A) (A) (A) (A) (A) (A) (A) (A) (A) (A) (A) (A)
                 (A) (A) (A) (A) (A) (A) (A) (A) (A) (A) (A) (A)
                 (A) (A) (A) (A) (A) (A) (A) (A) (A) (A) (A) (A)
                 (A) (A) (A) (A) (A) (A) (A) (A) (A) (A) (A) (A)
                 (A) (A) (A) (A) (A) (A) (A) (A) (A) (A) (A) (A)
                 (A) (A) (A) (A) (A) (A) (A) (A) (A) (A) (A) (A)
                 (A) (A) (A) (A) (A) (A) (A) (A) (A) (A) (A) (A)
                 (A) (A) (A) (A) (A) (A) (A) (A) (A) (A) (A) (A)
                 (A) (A) (A) (A) (A) (A) (A) (A) (A) (A) (A) (A)
                 (A) (A) (A) (A) (A) (A) (A) (A) (A) (A) (A) (A)
                 (A) (A) (A) (A) (A) (A) (A) (A) (A) (A) (A) (A)
                 (A) (A) (A) (A) (A) (A) (A) (A) (A) (A) (A) (A)
                 (A) (A) (A) (A) (A) (A) (A) (A) (A) (A) (A) (A)
                 (A) (A) (A) (A) (A) (A) (A) (A) (A) (A) (A) (A)
                 (A) (A) (A) (A) (A) (A) (A) (A) (A) (A) (A) (A)
                 (A) (A) (A) (A) (A) (A) (A) (A) (A) (A) (A) (A)
                 (A) (A) (A) (A) (A) (A) (A) (A) (A) (A) (A) (A)
                 (A) (A) (A) (A) (A) (A) (A) (A) (A) (A) (A) (A)
                 (A) (A) (A) (A) (A) (A) (A) (A) (A) (A) (A) (A)
                 (A) (A) (A) (A) (A) (A) (A) (A) (A) (A) (A) (A)
                 (A) (A) (A) (A) (A) (A) (A) (A) (A) (A) (A) (A)
                 (A) (A) (A) (A) (A) (A) (A) (A) (A) (A) (A) (A)
                 (A) (A) (A) (A) (A) (A) (A) (A) (A) (A) (A) (A)
                 (A) (A) (A) (A) (A) (A) (A) (A) (A) (A) (A) (A)
                 (A) (A) (A) (A) (A) (A) (A) (A) (A) (A) (A) (A)
                 (A) (A) (A) (A) (A) (A) (A) (A) (A) (A) (A) (A)
                 (A) (A) (A) (A) (A) (A) (A) (A) (A) (A) (A) (A)
                 (A) (A) (A) (A) (A) (A) (A) (A) (A) (A) (A) (A)
                 (A) (A) (A) (A) (A) (A) (A) (A) (A) (A) (A) (A)
                 (A) (A) (A) (A) (A) (A) (A) (A) (A) (A) (A) (A)
                 (A) (A) (A) (A) (A) (A) (A) (A) (A) (A) (A) (A)
                 (A) (A) (A) (A) (A) (A) (A) (A) (A) (A) (A) (A)
                 (A) (A) (A)
 The electronic state is 1-A.
 Alpha  occ. eigenvalues --  -19.18737 -19.14166 -19.13545 -19.11561 -19.11222
 Alpha  occ. eigenvalues --  -19.10594 -14.37263 -14.37103 -14.36290 -14.29076
 Alpha  occ. eigenvalues --  -10.32662 -10.29363 -10.29051 -10.27377 -10.25654
 Alpha  occ. eigenvalues --  -10.24435 -10.24042 -10.23307 -10.23099 -10.22597
 Alpha  occ. eigenvalues --  -10.22537 -10.22454 -10.22296 -10.21901 -10.21862
 Alpha  occ. eigenvalues --  -10.21050 -10.21021 -10.20885 -10.20676 -10.20643
 Alpha  occ. eigenvalues --  -10.20356 -10.20328 -10.20295 -10.20291 -10.20012
 Alpha  occ. eigenvalues --  -10.19960 -10.19672 -10.19645 -10.19582 -10.19553
 Alpha  occ. eigenvalues --  -10.19492 -10.18385 -10.18346  -1.11646  -1.06793
 Alpha  occ. eigenvalues --   -1.02248  -1.01883  -1.00999  -0.98424  -0.97515
 Alpha  occ. eigenvalues --   -0.95961  -0.95905  -0.92999  -0.83165  -0.82018
 Alpha  occ. eigenvalues --   -0.81968  -0.81132  -0.79825  -0.79283  -0.78466
 Alpha  occ. eigenvalues --   -0.78219  -0.76713  -0.75453  -0.74241  -0.73114
 Alpha  occ. eigenvalues --   -0.72016  -0.71504  -0.70325  -0.69249  -0.68785
 Alpha  occ. eigenvalues --   -0.67963  -0.66213  -0.63795  -0.61792  -0.61148
 Alpha  occ. eigenvalues --   -0.60710  -0.59063  -0.58506  -0.58008  -0.56819
 Alpha  occ. eigenvalues --   -0.55977  -0.55720  -0.54642  -0.54054  -0.53213
 Alpha  occ. eigenvalues --   -0.52488  -0.52137  -0.50959  -0.50328  -0.50234
 Alpha  occ. eigenvalues --   -0.49704  -0.49133  -0.48704  -0.47744  -0.47620
 Alpha  occ. eigenvalues --   -0.47302  -0.47018  -0.46513  -0.45983  -0.45609
 Alpha  occ. eigenvalues --   -0.45454  -0.45272  -0.45127  -0.44599  -0.43835
 Alpha  occ. eigenvalues --   -0.43599  -0.43449  -0.43264  -0.42935  -0.42919
 Alpha  occ. eigenvalues --   -0.42567  -0.42319  -0.41726  -0.41239  -0.41218
 Alpha  occ. eigenvalues --   -0.40857  -0.40582  -0.39946  -0.39835  -0.39442
 Alpha  occ. eigenvalues --   -0.39106  -0.38656  -0.38357  -0.38080  -0.37822
 Alpha  occ. eigenvalues --   -0.37697  -0.37471  -0.37373  -0.37097  -0.36883
 Alpha  occ. eigenvalues --   -0.36402  -0.35765  -0.35122  -0.34588  -0.34418
 Alpha  occ. eigenvalues --   -0.33858  -0.33668  -0.33289  -0.32485  -0.31604
 Alpha  occ. eigenvalues --   -0.30784  -0.29365  -0.28885  -0.28676  -0.27575
 Alpha  occ. eigenvalues --   -0.27461  -0.26428  -0.25690  -0.25409  -0.25014
 Alpha  occ. eigenvalues --   -0.24474  -0.24289  -0.23730  -0.22816  -0.18940
 Alpha virt. eigenvalues --   -0.10963  -0.06651  -0.05881  -0.01827   0.00303
 Alpha virt. eigenvalues --    0.00745   0.01314   0.01423   0.03506   0.03782
 Alpha virt. eigenvalues --    0.04073   0.04099   0.04761   0.04917   0.05142
 Alpha virt. eigenvalues --    0.05653   0.05799   0.06505   0.06869   0.07059
 Alpha virt. eigenvalues --    0.07650   0.07950   0.08037   0.08760   0.09135
 Alpha virt. eigenvalues --    0.09205   0.09448   0.09877   0.10195   0.10498
 Alpha virt. eigenvalues --    0.10563   0.11006   0.11395   0.11714   0.12136
 Alpha virt. eigenvalues --    0.12943   0.12997   0.13169   0.13508   0.13768
 Alpha virt. eigenvalues --    0.14009   0.14485   0.15030   0.15822   0.16083
 Alpha virt. eigenvalues --    0.16249   0.16841   0.17348   0.17411   0.17695
 Alpha virt. eigenvalues --    0.17933   0.18953   0.19322   0.19856   0.19975
 Alpha virt. eigenvalues --    0.20596   0.20974   0.21641   0.21966   0.22519
 Alpha virt. eigenvalues --    0.22906   0.23009   0.23597   0.23845   0.24476
 Alpha virt. eigenvalues --    0.24566   0.25255   0.25665   0.25957   0.26190
 Alpha virt. eigenvalues --    0.26324   0.26825   0.27516   0.28024   0.28570
 Alpha virt. eigenvalues --    0.29685   0.29869   0.30216   0.30606   0.31348
 Alpha virt. eigenvalues --    0.31792   0.32269   0.33093   0.33626   0.34052
 Alpha virt. eigenvalues --    0.34285   0.34778   0.35276   0.35881   0.36106
 Alpha virt. eigenvalues --    0.36720   0.37575   0.37745   0.38282   0.39180
 Alpha virt. eigenvalues --    0.39363   0.40305   0.40609   0.41266   0.41558
 Alpha virt. eigenvalues --    0.42000   0.42213   0.42775   0.43202   0.43841
 Alpha virt. eigenvalues --    0.43977   0.44477   0.44538   0.44560   0.44831
 Alpha virt. eigenvalues --    0.45606   0.45847   0.45978   0.46668   0.46860
 Alpha virt. eigenvalues --    0.47437   0.47541   0.47993   0.48238   0.48562
 Alpha virt. eigenvalues --    0.49307   0.49434   0.49598   0.50089   0.50395
 Alpha virt. eigenvalues --    0.50750   0.50925   0.51138   0.51285   0.52092
 Alpha virt. eigenvalues --    0.52492   0.52770   0.52999   0.53031   0.53297
 Alpha virt. eigenvalues --    0.53723   0.54201   0.54599   0.55168   0.55359
 Alpha virt. eigenvalues --    0.56246   0.56523   0.56772   0.57524   0.57960
 Alpha virt. eigenvalues --    0.58034   0.58183   0.58616   0.58843   0.59223
 Alpha virt. eigenvalues --    0.59317   0.59625   0.60065   0.60361   0.60528
 Alpha virt. eigenvalues --    0.61235   0.61305   0.61491   0.61704   0.61865
 Alpha virt. eigenvalues --    0.62340   0.62779   0.63104   0.63331   0.63412
 Alpha virt. eigenvalues --    0.63652   0.63988   0.64145   0.64181   0.64620
 Alpha virt. eigenvalues --    0.64936   0.65149   0.65403   0.65519   0.65585
 Alpha virt. eigenvalues --    0.66276   0.66700   0.66851   0.67115   0.67365
 Alpha virt. eigenvalues --    0.67526   0.67858   0.68081   0.68122   0.68536
 Alpha virt. eigenvalues --    0.68779   0.68973   0.69155   0.69706   0.69991
 Alpha virt. eigenvalues --    0.70239   0.70563   0.70854   0.71076   0.71228
 Alpha virt. eigenvalues --    0.71633   0.71981   0.72228   0.72571   0.72828
 Alpha virt. eigenvalues --    0.72956   0.73494   0.74062   0.74461   0.74805
 Alpha virt. eigenvalues --    0.75015   0.75593   0.75863   0.76319   0.76521
 Alpha virt. eigenvalues --    0.76677   0.77267   0.77608   0.78131   0.78380
 Alpha virt. eigenvalues --    0.78620   0.79866   0.80294   0.80792   0.81429
 Alpha virt. eigenvalues --    0.82129   0.82642   0.83018   0.83682   0.84039
 Alpha virt. eigenvalues --    0.84465   0.84749   0.84994   0.85534   0.86042
 Alpha virt. eigenvalues --    0.86621   0.87447   0.87871   0.88536   0.89411
 Alpha virt. eigenvalues --    0.89716   0.91026   0.91161   0.92305   0.92812
 Alpha virt. eigenvalues --    0.93353   0.94069   0.94444   0.95378   0.95816
 Alpha virt. eigenvalues --    0.96503   0.96683   0.97060   0.97614   0.98370
 Alpha virt. eigenvalues --    0.99404   0.99921   1.00200   1.00659   1.01171
 Alpha virt. eigenvalues --    1.02517   1.02584   1.03021   1.03641   1.04548
 Alpha virt. eigenvalues --    1.04996   1.05763   1.06752   1.07637   1.08501
 Alpha virt. eigenvalues --    1.09327   1.09507   1.10309   1.11421   1.11952
 Alpha virt. eigenvalues --    1.12677   1.12941   1.13328   1.14182   1.15020
 Alpha virt. eigenvalues --    1.15288   1.16513   1.16804   1.17326   1.17867
 Alpha virt. eigenvalues --    1.18086   1.18247   1.18762   1.20118   1.21153
 Alpha virt. eigenvalues --    1.21709   1.22448   1.23136   1.23744   1.24109
 Alpha virt. eigenvalues --    1.24225   1.25616   1.25970   1.26595   1.27214
 Alpha virt. eigenvalues --    1.27547   1.27928   1.28076   1.28533   1.29819
 Alpha virt. eigenvalues --    1.29875   1.30046   1.30671   1.30838   1.31437
 Alpha virt. eigenvalues --    1.32439   1.33476   1.33858   1.34797   1.36983
 Alpha virt. eigenvalues --    1.38410   1.38642   1.38860   1.40065   1.41381
 Alpha virt. eigenvalues --    1.42161   1.42417   1.43536   1.44259   1.44661
 Alpha virt. eigenvalues --    1.45355   1.45967   1.46143   1.47214   1.47707
 Alpha virt. eigenvalues --    1.48037   1.48897   1.49414   1.50416   1.50496
 Alpha virt. eigenvalues --    1.51488   1.52265   1.52543   1.52976   1.54018
 Alpha virt. eigenvalues --    1.54543   1.54828   1.55636   1.56198   1.56977
 Alpha virt. eigenvalues --    1.58529   1.59189   1.59698   1.59814   1.60017
 Alpha virt. eigenvalues --    1.60437   1.60945   1.61510   1.62336   1.62822
 Alpha virt. eigenvalues --    1.63173   1.63459   1.64148   1.64429   1.64957
 Alpha virt. eigenvalues --    1.65275   1.65747   1.66432   1.66742   1.66872
 Alpha virt. eigenvalues --    1.67522   1.68062   1.68793   1.68975   1.69289
 Alpha virt. eigenvalues --    1.69428   1.69669   1.70621   1.71134   1.71374
 Alpha virt. eigenvalues --    1.71555   1.71847   1.72505   1.73009   1.73353
 Alpha virt. eigenvalues --    1.73596   1.74066   1.74400   1.75141   1.75462
 Alpha virt. eigenvalues --    1.75851   1.76007   1.76597   1.77012   1.77608
 Alpha virt. eigenvalues --    1.77846   1.78340   1.78929   1.79082   1.79334
 Alpha virt. eigenvalues --    1.80042   1.80531   1.80802   1.81129   1.81451
 Alpha virt. eigenvalues --    1.82178   1.82494   1.83099   1.83160   1.83289
 Alpha virt. eigenvalues --    1.84159   1.84435   1.85080   1.85332   1.85591
 Alpha virt. eigenvalues --    1.86099   1.86415   1.86751   1.87364   1.87602
 Alpha virt. eigenvalues --    1.88197   1.88479   1.88948   1.89460   1.89605
 Alpha virt. eigenvalues --    1.90324   1.90515   1.91088   1.91985   1.92597
 Alpha virt. eigenvalues --    1.92694   1.93220   1.93420   1.93700   1.94105
 Alpha virt. eigenvalues --    1.94968   1.95746   1.95920   1.96603   1.97462
 Alpha virt. eigenvalues --    1.97620   1.98342   1.98372   1.98890   1.99711
 Alpha virt. eigenvalues --    2.00093   2.00558   2.00710   2.01411   2.02508
 Alpha virt. eigenvalues --    2.03099   2.03432   2.03767   2.04305   2.05614
 Alpha virt. eigenvalues --    2.06015   2.06287   2.06652   2.07232   2.07723
 Alpha virt. eigenvalues --    2.09075   2.09698   2.09757   2.10328   2.10385
 Alpha virt. eigenvalues --    2.11520   2.11794   2.12685   2.12951   2.13576
 Alpha virt. eigenvalues --    2.14735   2.14989   2.15298   2.15852   2.16742
 Alpha virt. eigenvalues --    2.17578   2.18269   2.18695   2.19263   2.19884
 Alpha virt. eigenvalues --    2.20098   2.20424   2.21081   2.21805   2.22502
 Alpha virt. eigenvalues --    2.23748   2.24146   2.25691   2.25939   2.26357
 Alpha virt. eigenvalues --    2.26924   2.27830   2.28794   2.29426   2.29829
 Alpha virt. eigenvalues --    2.30392   2.30632   2.32090   2.32215   2.32862
 Alpha virt. eigenvalues --    2.33271   2.34785   2.35078   2.35429   2.35575
 Alpha virt. eigenvalues --    2.37036   2.37491   2.38131   2.39044   2.39786
 Alpha virt. eigenvalues --    2.39894   2.40387   2.40708   2.41394   2.43048
 Alpha virt. eigenvalues --    2.43630   2.44247   2.45130   2.45836   2.46324
 Alpha virt. eigenvalues --    2.46906   2.47336   2.48477   2.48829   2.49285
 Alpha virt. eigenvalues --    2.50279   2.51101   2.51385   2.52009   2.52294
 Alpha virt. eigenvalues --    2.54139   2.55031   2.55067   2.56279   2.58383
 Alpha virt. eigenvalues --    2.58791   2.59501   2.59925   2.61132   2.61801
 Alpha virt. eigenvalues --    2.62609   2.63278   2.63416   2.63948   2.65523
 Alpha virt. eigenvalues --    2.66805   2.67344   2.67634   2.67898   2.68108
 Alpha virt. eigenvalues --    2.68916   2.70586   2.71293   2.71636   2.71890
 Alpha virt. eigenvalues --    2.72205   2.72460   2.73932   2.74003   2.74279
 Alpha virt. eigenvalues --    2.75218   2.76545   2.77630   2.78141   2.78613
 Alpha virt. eigenvalues --    2.79456   2.80283   2.81191   2.81620   2.82011
 Alpha virt. eigenvalues --    2.82483   2.82603   2.83019   2.83440   2.84117
 Alpha virt. eigenvalues --    2.84933   2.86155   2.86985   2.87203   2.88373
 Alpha virt. eigenvalues --    2.88852   2.88969   2.89671   2.90117   2.92423
 Alpha virt. eigenvalues --    2.93930   2.94279   2.94703   2.95887   2.96344
 Alpha virt. eigenvalues --    2.96848   2.97067   2.97590   2.98907   3.00295
 Alpha virt. eigenvalues --    3.00330   3.02597   3.02937   3.03548   3.04742
 Alpha virt. eigenvalues --    3.05747   3.07626   3.08155   3.08926   3.11204
 Alpha virt. eigenvalues --    3.13024   3.13875   3.14803   3.15537   3.16451
 Alpha virt. eigenvalues --    3.17199   3.19853   3.21068   3.21675   3.22282
 Alpha virt. eigenvalues --    3.24733   3.25147   3.27188   3.27717   3.31538
 Alpha virt. eigenvalues --    3.33844   3.38355   3.39153   3.46184   3.50370
 Alpha virt. eigenvalues --    3.51020   3.52331   3.55163   3.55477   3.57026
 Alpha virt. eigenvalues --    3.63066   3.63545   3.63670   3.63797   3.64569
 Alpha virt. eigenvalues --    3.73661   3.84495
          Condensed to atoms (all electrons):
 Mulliken charges:
               1
     1  O   -0.255667
     2  O   -0.345165
     3  O   -0.170388
     4  O   -0.128638
     5  O   -0.220948
     6  O   -0.204614
     7  N   -0.084186
     8  N   -0.128264
     9  N   -0.106163
    10  N   -0.293697
    11  C    0.095251
    12  C    0.144117
    13  C   -0.039800
    14  C   -0.110309
    15  C   -0.120170
    16  C    0.036964
    17  C   -0.199986
    18  C    0.053286
    19  C   -0.015543
    20  C   -0.074434
    21  C    0.148771
    22  C    0.131226
    23  C   -0.113249
    24  C    0.178893
    25  C    0.122170
    26  C   -0.185938
    27  C    0.007239
    28  C    0.132539
    29  C    0.113574
    30  C    0.009140
    31  C    0.065288
    32  C    0.181376
    33  C   -0.091377
    34  C    0.111318
    35  C    0.006221
    36  C   -0.064637
    37  C    0.090893
    38  C    0.054561
    39  C   -0.177486
    40  C    0.188833
    41  C   -0.051096
    42  C   -0.059238
    43  C    0.003260
    44  H    0.016656
    45  H   -0.007239
    46  H    0.015471
    47  H    0.072576
    48  H    0.143639
    49  H    0.031729
    50  H    0.029919
    51  H   -0.011504
    52  H   -0.003475
    53  H   -0.004686
    54  H   -0.075031
    55  H   -0.037285
    56  H    0.045748
    57  H    0.026758
    58  H    0.093346
    59  H    0.056495
    60  H    0.179244
    61  H    0.017419
    62  H    0.002937
    63  H    0.025738
    64  H    0.027208
    65  H    0.009376
    66  H   -0.004678
    67  H    0.035820
    68  H    0.035211
    69  H   -0.003178
    70  H    0.035958
    71  H    0.018173
    72  H    0.228382
    73  H    0.038959
    74  H    0.074653
    75  H    0.082078
    76  H    0.040485
    77  H    0.130016
    78  H   -0.007899
    79  H    0.007055
 Sum of Mulliken charges =   0.00000
 Mulliken charges with hydrogens summed into heavy atoms:
               1
     1  O   -0.255667
     2  O   -0.116783
     3  O   -0.170388
     4  O    0.001378
     5  O   -0.220948
     6  O   -0.204614
     7  N   -0.011610
     8  N    0.015375
     9  N    0.073081
    10  N   -0.293697
    11  C    0.111908
    12  C    0.152349
    13  C   -0.039800
    14  C   -0.110309
    15  C   -0.120170
    16  C    0.036964
    17  C   -0.199986
    18  C    0.114934
    19  C   -0.015543
    20  C   -0.085938
    21  C    0.148771
    22  C    0.131226
    23  C   -0.113249
    24  C    0.095701
    25  C    0.157391
    26  C   -0.185938
    27  C    0.157079
    28  C    0.132539
    29  C    0.133930
    30  C    0.034879
    31  C    0.101871
    32  C    0.247727
    33  C   -0.094555
    34  C    0.111318
    35  C    0.006221
    36  C   -0.010506
    37  C    0.090893
    38  C    0.054561
    39  C   -0.177486
    40  C    0.188833
    41  C   -0.012137
    42  C    0.137978
    43  C    0.002416
 Electronic spatial extent (au):  <R**2>=          32838.1557
 Charge=              0.0000 electrons
 Dipole moment (field-independent basis, Debye):
    X=             -0.6315    Y=              1.2940    Z=              3.1337  Tot=              3.4487
 Quadrupole moment (field-independent basis, Debye-Ang):
   XX=           -221.7138   YY=           -246.6726   ZZ=           -261.3600
   XY=             -9.8001   XZ=             34.8995   YZ=              4.0006
 Traceless Quadrupole moment (field-independent basis, Debye-Ang):
   XX=             21.5350   YY=             -3.4238   ZZ=            -18.1112
   XY=             -9.8001   XZ=             34.8995   YZ=              4.0006
 Octapole moment (field-independent basis, Debye-Ang**2):
  XXX=            -75.2256  YYY=            100.9137  ZZZ=             99.8740  XYY=            -81.4031
  XXY=           -110.2136  XXZ=             74.5812  XZZ=            -77.8468  YZZ=            -31.5515
  YYZ=             85.0944  XYZ=              1.8481
 Hexadecapole moment (field-independent basis, Debye-Ang**3):
 XXXX=         -24347.5226 YYYY=         -12027.5336 ZZZZ=          -4871.5386 XXXY=           -118.4862
 XXXZ=            967.9293 YYYX=           -183.7115 YYYZ=            695.7119 ZZZX=             48.0841
 ZZZY=           -198.7252 XXYY=          -6057.1178 XXZZ=          -5522.6053 YYZZ=          -2750.3307
 XXYZ=            -45.1767 YYXZ=             21.4779 ZZXY=            102.0600
 N-N= 4.900283143126D+03 E-N=-1.432973105408D+04  KE= 1.927954843007D+03
 1\1\GINC-PEDRO-RYZENSSD\SP\RB3LYP TD-FC\SVP\C33H36N4O6\PADAWAN\07-Jul-
 2019\0\\# td=(NStates=1) B3LYP/SVP\\TD\\0,1\O,0,-5.6885742192,0.113965
 5116,-3.3624890817\O,0,2.8564524713,3.0824339668,3.1399102554\O,0,3.22
 73634741,0.8794329524,3.3355855198\O,0,1.7894630822,-7.1481207165,1.51
 5922002\O,0,0.6775445039,-7.0630772117,-0.4576796992\O,0,1.9290663659,
 4.0184548125,-0.0546972053\N,0,-2.4889895017,-0.8444494515,0.557552282
 3\N,0,-4.4789918031,0.6420684554,-1.3364755797\N,0,1.9746271898,-0.730
 7450555,-0.2088223203\N,0,2.7142526957,1.901308581,-0.6581232873\C,0,-
 4.7773499813,1.2970098804,-0.1741269562\C,0,-4.4462792333,0.4375501727
 ,1.1501270734\C,0,-3.0056940256,0.1474496274,1.3287482149\C,0,-2.04106
 91512,0.6447566227,2.1249332915\C,0,-0.7767415617,0.0866501065,1.79027
 779\C,0,-1.0467590509,-0.9472298321,0.8756442727\C,0,-6.3304691443,1.3
 247342293,-0.1505634701\C,0,0.5662901123,0.2197198951,2.5681714859\C,0
 ,-6.8129637281,0.9235846637,-1.3840292606\C,0,-0.2149472367,-1.8770730
 084,0.0870658823\C,0,1.1140643176,-1.7897714897,-0.2282716204\C,0,-5.5
 529833564,0.5140610993,-2.1837978206\C,0,1.8781736873,-2.867060282,-0.
 7601013267\C,0,-2.1737541166,1.7724089729,3.0592245625\C,0,-7.22051404
 36,1.945060042,0.8909697109\C,0,3.1332788562,-2.454177442,-1.216642821
 4\C,0,1.1952562982,1.6288060228,2.5648317016\C,0,3.1553120722,-0.99732
 91723,-0.8322668577\C,0,1.456041142,-4.3397883584,-0.8845569296\C,0,-8
 .0921259335,0.7772622906,-2.0197566977\C,0,1.6422159117,-5.0064668891,
 0.4167780043\C,0,4.2363913555,-3.1844897148,-1.9467666741\C,0,4.016750
 6173,-0.0536737056,-1.285998795\C,0,2.4756501804,1.7096151358,2.999969
 9021\C,0,3.8190364295,1.376876944,-1.0975955303\C,0,-9.3424324162,0.90
 38082246,-1.5639651591\C,0,1.2956268711,-6.5128000095,0.422333026\C,0,
 4.7369977647,2.4592479798,-1.4824719737\C,0,4.2029459291,3.6107352337,
 -1.0399535667\C,0,2.816550411,3.3257042718,-0.5752160686\C,0,6.0847564
 8,2.2251643878,-2.1490564344\C,0,4.6237731707,5.0754290601,-1.21909458
 14\C,0,7.0049980512,3.2189383152,-2.4828129494\H,0,-4.3422021709,2.264
 9415391,0.009530495\H,0,-4.9951579449,-0.5169066818,1.0204432926\H,0,-
 4.8187919984,0.9670009292,2.0869508296\H,0,-2.9504124516,-1.4556824257
 ,0.0093785466\H,0,-3.5917048638,0.6667197482,-1.8665138487\H,0,0.11619
 82041,-0.1321732438,3.5705923914\H,0,1.2282812721,-0.6482047045,2.3171
 200324\H,0,-0.740494542,-2.8203599993,-0.0800481864\H,0,-3.2428064326,
 1.8873853238,3.4962657942\H,0,-1.7699618556,1.5862172492,4.1590356282\
 H,0,-1.8183046298,2.5500636422,2.9024924032\H,0,-6.7903829334,2.688087
 7609,1.3208702058\H,0,-7.8267353818,1.2466209905,1.4963220548\H,0,-8.1
 104995413,2.6294151116,0.4352425215\H,0,1.3028524665,2.0359061986,1.49
 43994475\H,0,0.4813421743,2.3809461824,3.0703173862\H,0,1.8029759159,0
 .3483412243,-0.1225344795\H,0,2.0032885875,-4.8051660398,-1.7305511173
 \H,0,0.4071387943,-4.5270026137,-1.1339761673\H,0,-7.9572410491,0.6602
 586599,-3.1048113931\H,0,0.9837613162,-4.7443887432,1.2134710347\H,0,2
 .6293539783,-4.9536018392,0.7436683052\H,0,3.8593203758,-4.1856060891,
 -2.0211511677\H,0,5.1669088124,-3.0112300038,-1.4419391154\H,0,4.20612
 77091,-2.7852205777,-2.9824585682\H,0,5.1117439815,-0.1919032991,-1.59
 85165399\H,0,-9.8221517374,1.2150424014,-0.5261733035\H,0,-10.12886105
 12,0.7826326417,-2.2881685586\H,0,3.697026134,3.2284654151,3.857313913
 6\H,0,6.6485898646,1.1928634928,-2.0508325865\H,0,4.9442754377,5.36641
 9734,-2.3559326483\H,0,4.0176597701,5.9041274826,-0.446827766\H,0,5.71
 33731088,4.9994764022,-0.6853702851\H,0,1.5002475633,-7.9846097035,1.4
 482044935\H,0,7.9695082326,3.0141087172,-2.6433030925\H,0,6.8188033246
 ,4.2487524465,-2.6484177309\\Version=ES64L-G09RevD.01\State=1-A\HF=-19
 47.8001195\RMSD=8.017e-09\PG=C01 [X(C33H36N4O6)]\\@


 WOE UNTO THEM THAT CALL EVIL GOOD, AND GOOD EVIL      
 Job cpu time:       0 days  4 hours 11 minutes 56.3 seconds.
 File lengths (MBytes):  RWF=    769 Int=      0 D2E=      0 Chk=     58 Scr=      1
 Normal termination of Gaussian 09 at Sun Jul  7 21:50:55 2019.
