 Entering Gaussian System, Link 0=g16
 Input=Geometria-92-.com
 Output=Geometria-92-.log
 Initial command:
 /usr/local/g16/l1.exe "/home/padawan/israel-mol/chlorophyll-b/spectra/abs/Gau-14768.inp" -scrdir="/home/padawan/israel-mol/chlorophyll-b/spectra/abs/"
 Entering Link 1 = /usr/local/g16/l1.exe PID=     14770.
  
 Copyright (c) 1988,1990,1992,1993,1995,1998,2003,2009,2016,
            Gaussian, Inc.  All Rights Reserved.
  
 This is part of the Gaussian(R) 16 program.  It is based on
 the Gaussian(R) 09 system (copyright 2009, Gaussian, Inc.),
 the Gaussian(R) 03 system (copyright 2003, Gaussian, Inc.),
 the Gaussian(R) 98 system (copyright 1998, Gaussian, Inc.),
 the Gaussian(R) 94 system (copyright 1995, Gaussian, Inc.),
 the Gaussian 92(TM) system (copyright 1992, Gaussian, Inc.),
 the Gaussian 90(TM) system (copyright 1990, Gaussian, Inc.),
 the Gaussian 88(TM) system (copyright 1988, Gaussian, Inc.),
 the Gaussian 86(TM) system (copyright 1986, Carnegie Mellon
 University), and the Gaussian 82(TM) system (copyright 1983,
 Carnegie Mellon University). Gaussian is a federally registered
 trademark of Gaussian, Inc.
  
 This software contains proprietary and confidential information,
 including trade secrets, belonging to Gaussian, Inc.
  
 This software is provided under written license and may be
 used, copied, transmitted, or stored only in accord with that
 written license.
  
 The following legend is applicable only to US Government
 contracts under FAR:
  
                    RESTRICTED RIGHTS LEGEND
  
 Use, reproduction and disclosure by the US Government is
 subject to restrictions as set forth in subparagraphs (a)
 and (c) of the Commercial Computer Software - Restricted
 Rights clause in FAR 52.227-19.
  
 Gaussian, Inc.
 340 Quinnipiac St., Bldg. 40, Wallingford CT 06492
  
  
 ---------------------------------------------------------------
 Warning -- This program may not be used in any manner that
 competes with the business of Gaussian, Inc. or will provide
 assistance to any competitor of Gaussian, Inc.  The licensee
 of this program is prohibited from giving any competitor of
 Gaussian, Inc. access to this program.  By using this program,
 the user acknowledges that Gaussian, Inc. is engaged in the
 business of creating and licensing software in the field of
 computational chemistry and represents and warrants to the
 licensee that it is not a competitor of Gaussian, Inc. and that
 it will not use this program in any manner prohibited above.
 ---------------------------------------------------------------
  

 Cite this work as:
 Gaussian 16, Revision A.03,
 M. J. Frisch, G. W. Trucks, H. B. Schlegel, G. E. Scuseria, 
 M. A. Robb, J. R. Cheeseman, G. Scalmani, V. Barone, 
 G. A. Petersson, H. Nakatsuji, X. Li, M. Caricato, A. V. Marenich, 
 J. Bloino, B. G. Janesko, R. Gomperts, B. Mennucci, H. P. Hratchian, 
 J. V. Ortiz, A. F. Izmaylov, J. L. Sonnenberg, D. Williams-Young, 
 F. Ding, F. Lipparini, F. Egidi, J. Goings, B. Peng, A. Petrone, 
 T. Henderson, D. Ranasinghe, V. G. Zakrzewski, J. Gao, N. Rega, 
 G. Zheng, W. Liang, M. Hada, M. Ehara, K. Toyota, R. Fukuda, 
 J. Hasegawa, M. Ishida, T. Nakajima, Y. Honda, O. Kitao, H. Nakai, 
 T. Vreven, K. Throssell, J. A. Montgomery, Jr., J. E. Peralta, 
 F. Ogliaro, M. J. Bearpark, J. J. Heyd, E. N. Brothers, K. N. Kudin, 
 V. N. Staroverov, T. A. Keith, R. Kobayashi, J. Normand, 
 K. Raghavachari, A. P. Rendell, J. C. Burant, S. S. Iyengar, 
 J. Tomasi, M. Cossi, J. M. Millam, M. Klene, C. Adamo, R. Cammi, 
 J. W. Ochterski, R. L. Martin, K. Morokuma, O. Farkas, 
 J. B. Foresman, and D. J. Fox, Gaussian, Inc., Wallingford CT, 2016.
 
 ******************************************
 Gaussian 16:  ES64L-G16RevA.03 25-Dec-2016
                 8-Oct-2019 
 ******************************************
 %nproc=4
 Will use up to    4 processors via shared memory.
 %Mem=4GB
 ----------------------------------------------------------------------
 # td=(NStates=1) iop(3/107=0140000000,3/108=0140000000) iop(3/107=0140
 000000,3/108=0140000000) CAM-B3LYP/6-31G(d,p)
 ----------------------------------------------------------------------
 1/38=1,172=1/1;
 2/12=2,17=6,18=5,40=1/2;
 3/5=1,6=6,7=101,11=9,25=1,30=1,74=-40,107=140000000,108=140000000/1,2,3,8;
 4//1;
 5/5=2,38=5/2;
 8/6=1,10=2,108=1/1;
 9/41=1,42=1,70=2/14;
 6/7=2,8=2,9=2,10=2/1;
 99/5=1,9=1/99;
 --
 TD
 --
 Symbolic Z-matrix:
 Charge =  0 Multiplicity = 1
 12                   -5.63837   1.25831   0.17451 
 6                    -5.10199  -2.14921  -0.34392 
 6                    -3.44663   1.1516    2.61191 
 6                    -6.27039   4.56776   0.72375 
 6                    -8.07831   1.15847  -2.37423 
 7                    -4.47677  -0.36847   1.08708 
 6                    -4.22964  -1.61604   0.69536 
 6                    -3.19134  -2.36578   1.46111 
 6                    -2.89104  -1.3838    2.63795 
 6                    -3.65461  -0.0652    2.06427 
 6                    -3.38582  -1.76444   3.98236 
 6                    -1.91294  -2.76193   0.59279 
 6                    -0.86375  -3.55721   1.29771 
 6                     0.36495  -3.87653   0.52781 
 8                     0.61678  -3.3746   -0.57257 
 8                     1.12651  -4.90523   1.06769 
 7                    -4.93945   2.63471   1.45083 
 6                    -3.9931    2.38813   2.44053 
 6                    -3.7251    3.70745   3.23007 
 6                    -4.56446   4.59562   2.63367 
 6                    -5.31122   3.98268   1.46831 
 6                    -2.76912   3.81915   4.25064 
 6                    -4.69173   6.08804   3.00746 
 8                    -4.07708   6.54689   3.84735 
 7                    -6.97723   2.63436  -0.65211 
 6                    -6.99547   3.94638  -0.40416 
 6                    -7.94186   4.64127  -1.36128 
 6                    -8.57538   3.60668  -2.07357 
 6                    -7.82094   2.43285  -1.69147 
 6                    -8.30161   6.0602   -1.26695 
 6                    -9.43696   3.78608  -3.18378 
 6                    -8.8706    4.04412  -4.54801 
 7                    -6.59569  -0.1754   -0.89202 
 6                    -7.51423  -0.03373  -1.89121 
 6                    -7.60646  -1.25143  -2.64061 
 6                    -6.80105  -2.23599  -1.94671 
 6                    -6.13348  -1.47191  -1.00579 
 6                    -8.52224  -1.57013  -3.83824 
 6                    -6.33548  -3.59006  -2.02605 
 8                    -6.62184  -4.56778  -2.59076 
 6                    -5.14982  -3.62401  -0.8262 
 6                    -5.34614  -4.67496   0.21517 
 8                    -5.83794  -4.50461   1.29035 
 8                    -5.00353  -5.89765  -0.29375 
 6                    -5.47752  -6.90904   0.66617 
 6                     2.37556  -5.05773   0.45466 
 6                     3.36683  -4.07139   0.82878 
 6                     4.10532  -3.23885   0.02055 
 6                     3.8344   -3.04164  -1.43879 
 6                     5.1464   -2.23981   0.58868 
 6                     6.54983  -2.58499   0.00543 
 6                     7.62096  -1.78872   0.65921 
 6                     9.03198  -1.98057   0.00318 
 6                     9.63432  -3.39871   0.18929 
 6                     10.00164  -0.76852   0.4506 
 6                     11.29085  -0.77318  -0.30228 
 6                     12.23234   0.39977   0.17504 
 6                     13.58373   0.44827  -0.55288 
 6                     14.47628  -0.72334  -0.29431 
 6                     14.18793   1.79407  -0.17172 
 6                     15.5344   2.11827  -0.86114 
 6                     16.16936   3.55576  -0.65457 
 6                     17.61503   3.76989  -1.32786 
 6                     17.52087   3.91479  -2.78482 
 6                     18.16238   5.11541  -0.75176 
 1                    -2.81759   1.17764   3.69385 
 1                    -6.58995   5.58034   0.79633 
 1                    -8.71236   1.074    -3.2995 
 1                    -3.84252  -3.08085   1.88976 
 1                    -1.82029  -1.31058   2.65682 
 1                    -3.17398  -2.88659   4.04717 
 1                    -2.85966  -1.06405   4.71384 
 1                    -4.41283  -1.58385   4.04214 
 1                    -2.3179   -3.34512  -0.27494 
 1                    -1.47195  -1.90529  -0.01708 
 1                    -0.3644   -3.00641   2.14677 
 1                    -1.23174  -4.43797   1.96411 
 1                    -1.71815   3.74211   4.02024 
 1                    -2.7489    4.86931   4.73964 
 1                    -2.97303   3.12163   5.09816 
 1                    -5.44054   6.67984   2.50252 
 1                    -10.23681   2.94232  -3.13183 
 1                    -10.15741   4.64258  -2.8669 
 1                    -9.60271   4.10226  -5.4688 
 1                    -8.21797   5.01862  -4.83606 
 1                    -8.06255   3.24942  -4.64174 
 1                    -8.03404  -1.27726  -4.79695 
 1                    -8.37989  -2.63424  -3.94844 
 1                    -9.78335  -1.60831  -3.53622 
 1                    -4.31498  -3.70567  -1.51889 
 1                     2.73636  -6.07383   0.68523 
 1                     2.10636  -4.86696  -0.70649 
 1                     3.41798  -4.01973   2.02456 
 1                     2.87909  -3.38166  -1.70668 
 1                     4.12221  -2.20452  -1.95604 
 1                     4.4578   -3.91817  -1.96142 
 1                     4.86704  -1.21517   0.39691 
 1                     5.17726  -2.43946   1.60242 
 1                     6.86732  -3.75662   0.17516 
 1                     6.41256  -2.56961  -1.0639 
 1                     7.37676  -0.67262   0.56884 
 1                     7.77302  -1.81639   1.67434 
 1                     8.97922  -1.84896  -1.04854 
 1                     8.7839   -4.13454  -0.10283 
 1                     10.67396  -3.4042   -0.38161 
 1                     9.97057  -3.41701   1.32075 
 1                     9.48848   0.21912   0.41067 
 1                     10.21495  -0.94743   1.55221 
 1                     11.75746  -1.706    -0.18454 
 1                     11.26704  -0.90433  -1.31605 
 1                     11.73167   1.44883   0.05206 
 1                     12.50322   0.42754   1.18786 
 1                     13.39437   0.62287  -1.57996 
 1                     14.76256  -0.81588   0.79061 
 1                     14.12953  -1.59924  -0.46453 
 1                     15.44609  -0.63325  -0.93645 
 1                     13.49671   2.56938  -0.25655 
 1                     14.3556   1.63034   0.91694 
 1                     16.4259   1.40813  -0.64923 
 1                     15.56223   1.69695  -1.96743 
 1                     15.52795   4.5716   -1.03314 
 1                     16.50495   3.55969   0.5428 
 1                     18.3137   3.13619  -1.09564 
 1                     16.82958   4.72541  -3.15373 
 1                     18.61097   3.83491  -3.30015 
 1                     16.70946   2.94316  -3.167 
 1                     18.2839   4.96436   0.39325 
 1                     19.19135   5.33519  -1.10307 
 1                     17.43944   5.93256  -0.84298 
 1                    -5.1137   -7.81275   0.07444 
 1                    -6.6172   -6.62525   0.93931 
 1                    -4.8141   -6.84687   1.69925 
 8                    -7.81112   6.8803   -0.50734 
 1                    -8.89955   6.27776  -2.15248 
 
 Stoichiometry    C54H68MgN4O7
 Framework group  C1[X(C54H68MgN4O7)]
 Deg. of freedom   396
 Full point group                 C1      NOp   1
 Largest Abelian subgroup         C1      NOp   1
 Largest concise Abelian subgroup C1      NOp   1
                         Standard orientation:                         
 ---------------------------------------------------------------------
 Center     Atomic      Atomic             Coordinates (Angstroms)
 Number     Number       Type             X           Y           Z
 ---------------------------------------------------------------------
      1         12           0       -5.641443    1.259377    0.171629
      2          6           0       -5.106394   -2.150578   -0.331975
      3          6           0       -3.448813    1.162679    2.608640
      4          6           0       -6.272159    4.571425    0.706522
      5          6           0       -8.082401    1.149109   -2.375705
      6          7           0       -4.480038   -0.363746    1.090923
      7          6           0       -4.233466   -1.613113    0.704614
      8          6           0       -3.195126   -2.359820    1.473264
      9          6           0       -2.894050   -1.372762    2.645649
     10          6           0       -3.657405   -0.056448    2.066453
     11          6           0       -3.388440   -1.747306    3.991913
     12          6           0       -1.917184   -2.760222    0.606215
     13          6           0       -0.867988   -3.552735    1.314232
     14          6           0        0.360310   -3.875853    0.545276
     15          8           0        0.611885   -3.378865   -0.557407
     16          8           0        1.121735   -4.902414    1.089395
     17          7           0       -4.941589    2.641160    1.441601
     18          6           0       -3.994938    2.398624    2.432027
     19          6           0       -3.726200    3.721326    3.215639
     20          6           0       -4.565489    4.607139    2.615649
     21          6           0       -5.312899    3.989311    1.453288
     22          6           0       -2.769792    3.837206    4.235338
     23          6           0       -4.692121    6.101230    2.982902
     24          8           0       -4.077000    6.563580    3.820525
     25          7           0       -6.980171    2.632217   -0.660531
     26          6           0       -6.997883    3.945324   -0.418366
     27          6           0       -7.944407    4.636299   -1.378176
     28          6           0       -8.578540    3.598786   -2.085653
     29          6           0       -7.824346    2.426403   -1.698668
     30          6           0       -8.303656    6.055746   -1.289961
     31          6           0       -9.440487    3.773578   -3.196320
     32          6           0       -8.874565    4.025417   -4.561889
     33          7           0       -6.599649   -0.178706   -0.888204
     34          6           0       -7.518528   -0.041134   -1.887658
     35          6           0       -7.611445   -1.262092   -2.631640
     36          6           0       -6.806096   -2.243858   -1.933718
     37          6           0       -6.137915   -1.475857   -0.996426
     38          6           0       -8.527789   -1.585765   -3.827508
     39          6           0       -6.341002   -3.598420   -2.007261
     40          8           0       -6.627901   -4.578525   -2.567545
     41          6           0       -5.154900   -3.627470   -0.807734
     42          6           0       -5.351166   -4.673757    0.238334
     43          8           0       -5.842495   -4.498502    1.312940
     44          8           0       -5.009154   -5.898790   -0.265319
     45          6           0       -5.483105   -6.905783    0.699232
     46          6           0        2.370498   -5.058027    0.476565
     47          6           0        3.362241   -4.070377    0.845956
     48          6           0        4.100695   -3.241653    0.033776
     49          6           0        3.829278   -3.050791   -1.426314
     50          6           0        5.142324   -2.240467    0.597106
     51          6           0        6.545415   -2.588683    0.014847
     52          6           0        7.617056   -1.789892    0.664701
     53          6           0        9.027767   -1.985106    0.008985
     54          6           0        9.629706   -3.402609    0.201108
     55          6           0        9.997996   -0.771411    0.450682
     56          6           0       11.286912   -0.779819   -0.302659
     57          6           0       12.228977    0.394913    0.169129
     58          6           0       13.580104    0.439749   -0.559518
     59          6           0       14.472360   -0.731007   -0.296129
     60          6           0       14.184899    1.787012   -0.184521
     61          6           0       15.531204    2.107726   -0.875883
     62          6           0       16.166720    3.545902   -0.675889
     63          6           0       17.612200    3.756586   -1.350670
     64          6           0       17.517538    3.895084   -2.808222
     65          6           0       18.160215    5.104442   -0.780724
     66          1           0       -2.819344    1.193286    3.690217
     67          1           0       -6.591358    5.584425    0.774755
     68          1           0       -8.716832    1.060772   -3.300352
     69          1           0       -3.846371   -3.072780    1.905307
     70          1           0       -1.823266   -1.299813    2.663783
     71          1           0       -3.176942   -2.869232    4.061586
     72          1           0       -2.861763   -1.043869    4.720100
     73          1           0       -4.415369   -1.566111    4.051286
     74          1           0       -2.322670   -3.347098   -0.258784
     75          1           0       -1.476143   -1.906422   -0.007602
     76          1           0       -0.368135   -2.998362    2.160661
     77          1           0       -1.236014   -4.430424    1.984644
     78          1           0       -1.718935    3.758807    4.004877
     79          1           0       -2.749031    4.889510    4.719696
     80          1           0       -2.973606    3.143501    5.086008
     81          1           0       -5.440930    6.691053    2.475639
     82          1           0      -10.240601    2.930327   -3.140339
     83          1           0      -10.160531    4.631705   -2.882938
     84          1           0       -9.607010    4.079736   -5.482648
     85          1           0       -8.221726    4.998420   -4.854484
     86          1           0       -8.066812    3.230044   -4.652426
     87          1           0       -8.039863   -1.297288   -4.787686
     88          1           0       -8.385834   -2.650397   -3.933067
     89          1           0       -9.788796   -1.622195   -3.524841
     90          1           0       -4.320347   -3.712456   -1.500367
     91          1           0        2.731057   -6.073219    0.711479
     92          1           0        2.100919   -4.872295   -0.685315
     93          1           0        3.413869   -4.013467    2.041473
     94          1           0        2.873759   -3.391676   -1.692338
     95          1           0        4.117166   -2.216060   -1.947354
     96          1           0        4.452188   -3.929820   -1.945305
     97          1           0        4.863225   -1.216588    0.400926
     98          1           0        5.173501   -2.435653    1.611697
     99          1           0        6.862587   -3.759657    0.189613
    100          1           0        6.407741   -2.577975   -1.054487
    101          1           0        7.373190   -0.674122    0.569507
    102          1           0        7.769498   -1.813137    1.679885
    103          1           0        8.974646   -1.858116   -1.043285
    104          1           0        8.778934   -4.139439   -0.087440
    105          1           0       10.669122   -3.410965   -0.370153
    106          1           0        9.966380   -3.416035    1.332516
    107          1           0        9.485145    0.216208    0.406593
    108          1           0       10.211670   -0.945538    1.552996
    109          1           0       11.753263   -1.712269   -0.180990
    110          1           0       11.262676   -0.915435   -1.315836
    111          1           0       11.728610    1.443581    0.041708
    112          1           0       12.500248    0.427057    1.181706
    113          1           0       13.390403    0.609880   -1.587285
    114          1           0       14.759025   -0.818857    0.789087
    115          1           0       14.125258   -1.607531   -0.462353
    116          1           0       15.441954   -0.644066   -0.939028
    117          1           0       13.493896    2.562176   -0.272506
    118          1           0       14.352929    1.628034    0.904781
    119          1           0       16.422557    1.398230   -0.661185
    120          1           0       15.558475    1.681528   -1.980312
    121          1           0       15.525506    4.560279   -1.058689
    122          1           0       16.502774    3.555001    0.521324
    123          1           0       18.310748    3.123674   -1.115927
    124          1           0       16.826373    4.704303   -3.180435
    125          1           0       18.607406    3.812578   -3.323615
    126          1           0       16.705657    2.922048   -3.185809
    127          1           0       18.282132    4.958402    0.364900
    128          1           0       19.189124    5.322331   -1.133385
    129          1           0       17.437510    5.921429   -0.875263
    130          1           0       -5.119812   -7.812211    0.111358
    131          1           0       -6.622588   -6.620410    0.971552
    132          1           0       -4.819273   -6.839273    1.731780
    133          8           0       -7.812599    6.879032   -0.534164
    134          1           0       -8.901858    6.269606   -2.176218
 ---------------------------------------------------------------------
 Rotational constants (GHZ):           0.0348050           0.0079732           0.0070579
 Standard basis: 6-31G(d,p) (6D, 7F)
 There are  1334 symmetry adapted cartesian basis functions of A   symmetry.
 There are  1334 symmetry adapted basis functions of A   symmetry.
  1334 basis functions,  2348 primitive gaussians,  1334 cartesian basis functions
   244 alpha electrons      244 beta electrons
       nuclear repulsion energy      9082.3928595006 Hartrees.
 NAtoms=  134 NActive=  134 NUniq=  134 SFac= 1.00D+00 NAtFMM=   60 NAOKFM=T Big=T
 Integral buffers will be    131072 words long.
 Raffenetti 1 integral format.
 Two-electron integral symmetry is turned on.
 One-electron integrals computed using PRISM.
 NBasis=  1334 RedAO= T EigKep=  4.04D-04  NBF=  1334
 NBsUse=  1334 1.00D-06 EigRej= -1.00D+00 NBFU=  1334
 ExpMin= 4.21D-02 ExpMax= 1.17D+04 ExpMxC= 1.76D+03 IAcc=3 IRadAn=         5 AccDes= 0.00D+00
 Harris functional with IExCor=20419 and IRadAn=       5 diagonalized for initial guess.
 HarFok:  IExCor=20419 AccDes= 0.00D+00 IRadAn=         5 IDoV= 1 UseB2=F ITyADJ=14
 ICtDFT=  3500011 ScaDFX=  1.000000  1.000000  1.000000  1.000000
 FoFCou: FMM=F IPFlag=           0 FMFlag=      100000 FMFlg1=        2001
         NFxFlg=           0 DoJE=T BraDBF=F KetDBF=T FulRan=T
         wScrn=  0.000000 ICntrl=       500 IOpCl=  0 I1Cent=   200000004 NGrid=           0
         NMat0=    1 NMatS0=      1 NMatT0=    0 NMatD0=    1 NMtDS0=    0 NMtDT0=    0
 Petite list used in FoFCou.
 Requested convergence on RMS density matrix=1.00D-08 within 128 cycles.
 Requested convergence on MAX density matrix=1.00D-06.
 Requested convergence on             energy=1.00D-06.
 No special actions if energy rises.
 SCF Done:  E(RCAM-B3LYP) =  -3043.44008838     A.U. after   15 cycles
            NFock= 15  Conv=0.90D-08     -V/T= 2.0092
 DoSCS=F DFT=T ScalE2(SS,OS)=  1.000000  1.000000
 ExpMin= 4.21D-02 ExpMax= 1.17D+04 ExpMxC= 1.76D+03 IAcc=3 IRadAn=         5 AccDes= 0.00D+00
 HarFok:  IExCor=  205 AccDes= 0.00D+00 IRadAn=         5 IDoV=-2 UseB2=F ITyADJ=14
 ICtDFT= 12500011 ScaDFX=  1.000000  1.000000  1.000000  1.000000
 GSVD:  LWork=       -5460 too small for GESVD, short by       25550 words or       25550 for optimal perf.
 Range of M.O.s used for correlation:    71  1334
 NBasis=  1334 NAE=   244 NBE=   244 NFC=    70 NFV=     0
 NROrb=   1264 NOA=   174 NOB=   174 NVA=  1090 NVB=  1090
 Orbital symmetries:
       Occupied  (A) (A) (A) (A) (A) (A) (A) (A) (A) (A) (A) (A)
                 (A) (A) (A) (A) (A) (A) (A) (A) (A) (A) (A) (A)
                 (A) (A) (A) (A) (A) (A) (A) (A) (A) (A) (A) (A)
                 (A) (A) (A) (A) (A) (A) (A) (A) (A) (A) (A) (A)
                 (A) (A) (A) (A) (A) (A) (A) (A) (A) (A) (A) (A)
                 (A) (A) (A) (A) (A) (A) (A) (A) (A) (A) (A) (A)
                 (A) (A) (A) (A) (A) (A) (A) (A) (A) (A) (A) (A)
                 (A) (A) (A) (A) (A) (A) (A) (A) (A) (A) (A) (A)
                 (A) (A) (A) (A) (A) (A) (A) (A) (A) (A) (A) (A)
                 (A) (A) (A) (A) (A) (A) (A) (A) (A) (A) (A) (A)
                 (A) (A) (A) (A) (A) (A) (A) (A) (A) (A) (A) (A)
                 (A) (A) (A) (A) (A) (A) (A) (A) (A) (A) (A) (A)
                 (A) (A) (A) (A) (A) (A) (A) (A) (A) (A) (A) (A)
                 (A) (A) (A) (A) (A) (A) (A) (A) (A) (A) (A) (A)
                 (A) (A) (A) (A) (A) (A) (A) (A) (A) (A) (A) (A)
                 (A) (A) (A) (A) (A) (A) (A) (A) (A) (A) (A) (A)
                 (A) (A) (A) (A) (A) (A) (A) (A) (A) (A) (A) (A)
                 (A) (A) (A) (A) (A) (A) (A) (A) (A) (A) (A) (A)
                 (A) (A) (A) (A) (A) (A) (A) (A) (A) (A) (A) (A)
                 (A) (A) (A) (A) (A) (A) (A) (A) (A) (A) (A) (A)
                 (A) (A) (A) (A)
       Virtual   (A) (A) (A) (A) (A) (A) (A) (A) (A) (A) (A) (A)
                 (A) (A) (A) (A) (A) (A) (A) (A) (A) (A) (A) (A)
                 (A) (A) (A) (A) (A) (A) (A) (A) (A) (A) (A) (A)
                 (A) (A) (A) (A) (A) (A) (A) (A) (A) (A) (A) (A)
                 (A) (A) (A) (A) (A) (A) (A) (A) (A) (A) (A) (A)
                 (A) (A) (A) (A) (A) (A) (A) (A) (A) (A) (A) (A)
                 (A) (A) (A) (A) (A) (A) (A) (A) (A) (A) (A) (A)
                 (A) (A) (A) (A) (A) (A) (A) (A) (A) (A) (A) (A)
                 (A) (A) (A) (A) (A) (A) (A) (A) (A) (A) (A) (A)
                 (A) (A) (A) (A) (A) (A) (A) (A) (A) (A) (A) (A)
                 (A) (A) (A) (A) (A) (A) (A) (A) (A) (A) (A) (A)
                 (A) (A) (A) (A) (A) (A) (A) (A) (A) (A) (A) (A)
                 (A) (A) (A) (A) (A) (A) (A) (A) (A) (A) (A) (A)
                 (A) (A) (A) (A) (A) (A) (A) (A) (A) (A) (A) (A)
                 (A) (A) (A) (A) (A) (A) (A) (A) (A) (A) (A) (A)
                 (A) (A) (A) (A) (A) (A) (A) (A) (A) (A) (A) (A)
                 (A) (A) (A) (A) (A) (A) (A) (A) (A) (A) (A) (A)
                 (A) (A) (A) (A) (A) (A) (A) (A) (A) (A) (A) (A)
                 (A) (A) (A) (A) (A) (A) (A) (A) (A) (A) (A) (A)
                 (A) (A) (A) (A) (A) (A) (A) (A) (A) (A) (A) (A)
                 (A) (A) (A) (A) (A) (A) (A) (A) (A) (A) (A) (A)
                 (A) (A) (A) (A) (A) (A) (A) (A) (A) (A) (A) (A)
                 (A) (A) (A) (A) (A) (A) (A) (A) (A) (A) (A) (A)
                 (A) (A) (A) (A) (A) (A) (A) (A) (A) (A) (A) (A)
                 (A) (A) (A) (A) (A) (A) (A) (A) (A) (A) (A) (A)
                 (A) (A) (A) (A) (A) (A) (A) (A) (A) (A) (A) (A)
                 (A) (A) (A) (A) (A) (A) (A) (A) (A) (A) (A) (A)
                 (A) (A) (A) (A) (A) (A) (A) (A) (A) (A) (A) (A)
                 (A) (A) (A) (A) (A) (A) (A) (A) (A) (A) (A) (A)
                 (A) (A) (A) (A) (A) (A) (A) (A) (A) (A) (A) (A)
                 (A) (A) (A) (A) (A) (A) (A) (A) (A) (A) (A) (A)
                 (A) (A) (A) (A) (A) (A) (A) (A) (A) (A) (A) (A)
                 (A) (A) (A) (A) (A) (A) (A) (A) (A) (A) (A) (A)
                 (A) (A) (A) (A) (A) (A) (A) (A) (A) (A) (A) (A)
                 (A) (A) (A) (A) (A) (A) (A) (A) (A) (A) (A) (A)
                 (A) (A) (A) (A) (A) (A) (A) (A) (A) (A) (A) (A)
                 (A) (A) (A) (A) (A) (A) (A) (A) (A) (A) (A) (A)
                 (A) (A) (A) (A) (A) (A) (A) (A) (A) (A) (A) (A)
                 (A) (A) (A) (A) (A) (A) (A) (A) (A) (A) (A) (A)
                 (A) (A) (A) (A) (A) (A) (A) (A) (A) (A) (A) (A)
                 (A) (A) (A) (A) (A) (A) (A) (A) (A) (A) (A) (A)
                 (A) (A) (A) (A) (A) (A) (A) (A) (A) (A) (A) (A)
                 (A) (A) (A) (A) (A) (A) (A) (A) (A) (A) (A) (A)
                 (A) (A) (A) (A) (A) (A) (A) (A) (A) (A) (A) (A)
                 (A) (A) (A) (A) (A) (A) (A) (A) (A) (A) (A) (A)
                 (A) (A) (A) (A) (A) (A) (A) (A) (A) (A) (A) (A)
                 (A) (A) (A) (A) (A) (A) (A) (A) (A) (A) (A) (A)
                 (A) (A) (A) (A) (A) (A) (A) (A) (A) (A) (A) (A)
                 (A) (A) (A) (A) (A) (A) (A) (A) (A) (A) (A) (A)
                 (A) (A) (A) (A) (A) (A) (A) (A) (A) (A) (A) (A)
                 (A) (A) (A) (A) (A) (A) (A) (A) (A) (A) (A) (A)
                 (A) (A) (A) (A) (A) (A) (A) (A) (A) (A) (A) (A)
                 (A) (A) (A) (A) (A) (A) (A) (A) (A) (A) (A) (A)
                 (A) (A) (A) (A) (A) (A) (A) (A) (A) (A) (A) (A)
                 (A) (A) (A) (A) (A) (A) (A) (A) (A) (A) (A) (A)
                 (A) (A) (A) (A) (A) (A) (A) (A) (A) (A) (A) (A)
                 (A) (A) (A) (A) (A) (A) (A) (A) (A) (A) (A) (A)
                 (A) (A) (A) (A) (A) (A) (A) (A) (A) (A) (A) (A)
                 (A) (A) (A) (A) (A) (A) (A) (A) (A) (A) (A) (A)
                 (A) (A) (A) (A) (A) (A) (A) (A) (A) (A) (A) (A)
                 (A) (A) (A) (A) (A) (A) (A) (A) (A) (A) (A) (A)
                 (A) (A) (A) (A) (A) (A) (A) (A) (A) (A) (A) (A)
                 (A) (A) (A) (A) (A) (A) (A) (A) (A) (A) (A) (A)
                 (A) (A) (A) (A) (A) (A) (A) (A) (A) (A) (A) (A)
                 (A) (A) (A) (A) (A) (A) (A) (A) (A) (A) (A) (A)
                 (A) (A) (A) (A) (A) (A) (A) (A) (A) (A) (A) (A)
                 (A) (A) (A) (A) (A) (A) (A) (A) (A) (A) (A) (A)
                 (A) (A) (A) (A) (A) (A) (A) (A) (A) (A) (A) (A)
                 (A) (A) (A) (A) (A) (A) (A) (A) (A) (A) (A) (A)
                 (A) (A) (A) (A) (A) (A) (A) (A) (A) (A) (A) (A)
                 (A) (A) (A) (A) (A) (A) (A) (A) (A) (A) (A) (A)
                 (A) (A) (A) (A) (A) (A) (A) (A) (A) (A) (A) (A)
                 (A) (A) (A) (A) (A) (A) (A) (A) (A) (A) (A) (A)
                 (A) (A) (A) (A) (A) (A) (A) (A) (A) (A) (A) (A)
                 (A) (A) (A) (A) (A) (A) (A) (A) (A) (A) (A) (A)
                 (A) (A) (A) (A) (A) (A) (A) (A) (A) (A) (A) (A)
                 (A) (A) (A) (A) (A) (A) (A) (A) (A) (A) (A) (A)
                 (A) (A) (A) (A) (A) (A) (A) (A) (A) (A) (A) (A)
                 (A) (A) (A) (A) (A) (A) (A) (A) (A) (A) (A) (A)
                 (A) (A) (A) (A) (A) (A) (A) (A) (A) (A) (A) (A)
                 (A) (A) (A) (A) (A) (A) (A) (A) (A) (A) (A) (A)
                 (A) (A) (A) (A) (A) (A) (A) (A) (A) (A) (A) (A)
                 (A) (A) (A) (A) (A) (A) (A) (A) (A) (A) (A) (A)
                 (A) (A) (A) (A) (A) (A) (A) (A) (A) (A) (A) (A)
                 (A) (A) (A) (A) (A) (A) (A) (A) (A) (A) (A) (A)
                 (A) (A) (A) (A) (A) (A) (A) (A) (A) (A) (A) (A)
                 (A) (A) (A) (A) (A) (A) (A) (A) (A) (A) (A) (A)
                 (A) (A) (A) (A) (A) (A) (A) (A) (A) (A) (A) (A)
                 (A) (A) (A) (A) (A) (A) (A) (A) (A) (A) (A) (A)
                 (A) (A) (A) (A) (A) (A) (A) (A) (A) (A) (A) (A)
                 (A) (A) (A) (A) (A) (A) (A) (A) (A) (A)
     4 initial guesses have been made.
 Convergence on wavefunction:    0.001000000000000
 Iteration     1 Dimension     4 NMult     0 NNew      4
 CISAX will form     4 AO SS matrices at one time.
 Iteration     2 Dimension     6 NMult     4 NNew      2
 Iteration     3 Dimension     8 NMult     6 NNew      2
 Iteration     4 Dimension    10 NMult     8 NNew      2
 Iteration     5 Dimension    12 NMult    10 NNew      2
 Iteration     6 Dimension    14 NMult    12 NNew      2
 ***********************************************************************
 Excited states from <AA,BB:AA,BB> singles matrix:
 ***********************************************************************
 
 Ground to excited state transition densities written to RWF  633
 Ground to excited state transition electric dipole moments (Au):
       state          X           Y           Z        Dip. S.      Osc.
         1        -0.0130     -1.2522     -0.4293      1.7525      0.0921
 Ground to excited state transition velocity dipole moments (Au):
       state          X           Y           Z        Dip. S.      Osc.
         1         0.0025      0.0945      0.0336      0.0101      0.0851
 Ground to excited state transition magnetic dipole moments (Au):
       state          X           Y           Z
         1         1.1292      0.6622     -2.0913
 Ground to excited state transition velocity quadrupole moments (Au):
       state          XX          YY          ZZ          XY          XZ          YZ
         1        -0.0577      0.1471      0.1480     -1.0711     -0.2416     -0.0376
 <0|del|b> * <b|rxdel|0> + <0|del|b> * <b|delr+rdel|0>
 Rotatory Strengths (R) in cgs (10**-40 erg-esu-cm/Gauss)
       state          XX          YY          ZZ    R(velocity)    E-M Angle
         1       -92.8504   -141.3348    191.3593    -14.2753       91.11
 1/2[<0|r|b>*<b|rxdel|0> + (<0|rxdel|b>*<b|r|0>)*]
 Rotatory Strengths (R) in cgs (10**-40 erg-esu-cm/Gauss)
       state          XX          YY          ZZ     R(length)
         1        10.3726    586.3852   -634.8612    -12.7011
  1/2[<0|del|b>*<b|r|0> + (<0|r|b>*<b|del|0>)*] (Au)
       state          X           Y           Z        Dip. S.   Osc.(frdel)
         1        -0.0000     -0.1184     -0.0144      0.1328      0.0886

 Excitation energies and oscillator strengths:
 
 Excited State   1:      Singlet-A      2.1457 eV  577.83 nm  f=0.0921  <S**2>=0.000
     243 -> 246       -0.37056
     244 -> 245        0.58536
 This state for optimization and/or second-order correction.
 Total Energy, E(TD-HF/TD-DFT) =  -3043.36123557    
 Copying the excited state density for this state as the 1-particle RhoCI density.
 SavETr:  write IOETrn=   770 NScale= 10 NData=  16 NLR=1 NState=    1 LETran=      28.
 Hyperfine terms turned off by default for NAtoms > 100.

 **********************************************************************

            Population analysis using the SCF density.

 **********************************************************************

 Orbital symmetries:
       Occupied  (A) (A) (A) (A) (A) (A) (A) (A) (A) (A) (A) (A)
                 (A) (A) (A) (A) (A) (A) (A) (A) (A) (A) (A) (A)
                 (A) (A) (A) (A) (A) (A) (A) (A) (A) (A) (A) (A)
                 (A) (A) (A) (A) (A) (A) (A) (A) (A) (A) (A) (A)
                 (A) (A) (A) (A) (A) (A) (A) (A) (A) (A) (A) (A)
                 (A) (A) (A) (A) (A) (A) (A) (A) (A) (A) (A) (A)
                 (A) (A) (A) (A) (A) (A) (A) (A) (A) (A) (A) (A)
                 (A) (A) (A) (A) (A) (A) (A) (A) (A) (A) (A) (A)
                 (A) (A) (A) (A) (A) (A) (A) (A) (A) (A) (A) (A)
                 (A) (A) (A) (A) (A) (A) (A) (A) (A) (A) (A) (A)
                 (A) (A) (A) (A) (A) (A) (A) (A) (A) (A) (A) (A)
                 (A) (A) (A) (A) (A) (A) (A) (A) (A) (A) (A) (A)
                 (A) (A) (A) (A) (A) (A) (A) (A) (A) (A) (A) (A)
                 (A) (A) (A) (A) (A) (A) (A) (A) (A) (A) (A) (A)
                 (A) (A) (A) (A) (A) (A) (A) (A) (A) (A) (A) (A)
                 (A) (A) (A) (A) (A) (A) (A) (A) (A) (A) (A) (A)
                 (A) (A) (A) (A) (A) (A) (A) (A) (A) (A) (A) (A)
                 (A) (A) (A) (A) (A) (A) (A) (A) (A) (A) (A) (A)
                 (A) (A) (A) (A) (A) (A) (A) (A) (A) (A) (A) (A)
                 (A) (A) (A) (A) (A) (A) (A) (A) (A) (A) (A) (A)
                 (A) (A) (A) (A)
       Virtual   (A) (A) (A) (A) (A) (A) (A) (A) (A) (A) (A) (A)
                 (A) (A) (A) (A) (A) (A) (A) (A) (A) (A) (A) (A)
                 (A) (A) (A) (A) (A) (A) (A) (A) (A) (A) (A) (A)
                 (A) (A) (A) (A) (A) (A) (A) (A) (A) (A) (A) (A)
                 (A) (A) (A) (A) (A) (A) (A) (A) (A) (A) (A) (A)
                 (A) (A) (A) (A) (A) (A) (A) (A) (A) (A) (A) (A)
                 (A) (A) (A) (A) (A) (A) (A) (A) (A) (A) (A) (A)
                 (A) (A) (A) (A) (A) (A) (A) (A) (A) (A) (A) (A)
                 (A) (A) (A) (A) (A) (A) (A) (A) (A) (A) (A) (A)
                 (A) (A) (A) (A) (A) (A) (A) (A) (A) (A) (A) (A)
                 (A) (A) (A) (A) (A) (A) (A) (A) (A) (A) (A) (A)
                 (A) (A) (A) (A) (A) (A) (A) (A) (A) (A) (A) (A)
                 (A) (A) (A) (A) (A) (A) (A) (A) (A) (A) (A) (A)
                 (A) (A) (A) (A) (A) (A) (A) (A) (A) (A) (A) (A)
                 (A) (A) (A) (A) (A) (A) (A) (A) (A) (A) (A) (A)
                 (A) (A) (A) (A) (A) (A) (A) (A) (A) (A) (A) (A)
                 (A) (A) (A) (A) (A) (A) (A) (A) (A) (A) (A) (A)
                 (A) (A) (A) (A) (A) (A) (A) (A) (A) (A) (A) (A)
                 (A) (A) (A) (A) (A) (A) (A) (A) (A) (A) (A) (A)
                 (A) (A) (A) (A) (A) (A) (A) (A) (A) (A) (A) (A)
                 (A) (A) (A) (A) (A) (A) (A) (A) (A) (A) (A) (A)
                 (A) (A) (A) (A) (A) (A) (A) (A) (A) (A) (A) (A)
                 (A) (A) (A) (A) (A) (A) (A) (A) (A) (A) (A) (A)
                 (A) (A) (A) (A) (A) (A) (A) (A) (A) (A) (A) (A)
                 (A) (A) (A) (A) (A) (A) (A) (A) (A) (A) (A) (A)
                 (A) (A) (A) (A) (A) (A) (A) (A) (A) (A) (A) (A)
                 (A) (A) (A) (A) (A) (A) (A) (A) (A) (A) (A) (A)
                 (A) (A) (A) (A) (A) (A) (A) (A) (A) (A) (A) (A)
                 (A) (A) (A) (A) (A) (A) (A) (A) (A) (A) (A) (A)
                 (A) (A) (A) (A) (A) (A) (A) (A) (A) (A) (A) (A)
                 (A) (A) (A) (A) (A) (A) (A) (A) (A) (A) (A) (A)
                 (A) (A) (A) (A) (A) (A) (A) (A) (A) (A) (A) (A)
                 (A) (A) (A) (A) (A) (A) (A) (A) (A) (A) (A) (A)
                 (A) (A) (A) (A) (A) (A) (A) (A) (A) (A) (A) (A)
                 (A) (A) (A) (A) (A) (A) (A) (A) (A) (A) (A) (A)
                 (A) (A) (A) (A) (A) (A) (A) (A) (A) (A) (A) (A)
                 (A) (A) (A) (A) (A) (A) (A) (A) (A) (A) (A) (A)
                 (A) (A) (A) (A) (A) (A) (A) (A) (A) (A) (A) (A)
                 (A) (A) (A) (A) (A) (A) (A) (A) (A) (A) (A) (A)
                 (A) (A) (A) (A) (A) (A) (A) (A) (A) (A) (A) (A)
                 (A) (A) (A) (A) (A) (A) (A) (A) (A) (A) (A) (A)
                 (A) (A) (A) (A) (A) (A) (A) (A) (A) (A) (A) (A)
                 (A) (A) (A) (A) (A) (A) (A) (A) (A) (A) (A) (A)
                 (A) (A) (A) (A) (A) (A) (A) (A) (A) (A) (A) (A)
                 (A) (A) (A) (A) (A) (A) (A) (A) (A) (A) (A) (A)
                 (A) (A) (A) (A) (A) (A) (A) (A) (A) (A) (A) (A)
                 (A) (A) (A) (A) (A) (A) (A) (A) (A) (A) (A) (A)
                 (A) (A) (A) (A) (A) (A) (A) (A) (A) (A) (A) (A)
                 (A) (A) (A) (A) (A) (A) (A) (A) (A) (A) (A) (A)
                 (A) (A) (A) (A) (A) (A) (A) (A) (A) (A) (A) (A)
                 (A) (A) (A) (A) (A) (A) (A) (A) (A) (A) (A) (A)
                 (A) (A) (A) (A) (A) (A) (A) (A) (A) (A) (A) (A)
                 (A) (A) (A) (A) (A) (A) (A) (A) (A) (A) (A) (A)
                 (A) (A) (A) (A) (A) (A) (A) (A) (A) (A) (A) (A)
                 (A) (A) (A) (A) (A) (A) (A) (A) (A) (A) (A) (A)
                 (A) (A) (A) (A) (A) (A) (A) (A) (A) (A) (A) (A)
                 (A) (A) (A) (A) (A) (A) (A) (A) (A) (A) (A) (A)
                 (A) (A) (A) (A) (A) (A) (A) (A) (A) (A) (A) (A)
                 (A) (A) (A) (A) (A) (A) (A) (A) (A) (A) (A) (A)
                 (A) (A) (A) (A) (A) (A) (A) (A) (A) (A) (A) (A)
                 (A) (A) (A) (A) (A) (A) (A) (A) (A) (A) (A) (A)
                 (A) (A) (A) (A) (A) (A) (A) (A) (A) (A) (A) (A)
                 (A) (A) (A) (A) (A) (A) (A) (A) (A) (A) (A) (A)
                 (A) (A) (A) (A) (A) (A) (A) (A) (A) (A) (A) (A)
                 (A) (A) (A) (A) (A) (A) (A) (A) (A) (A) (A) (A)
                 (A) (A) (A) (A) (A) (A) (A) (A) (A) (A) (A) (A)
                 (A) (A) (A) (A) (A) (A) (A) (A) (A) (A) (A) (A)
                 (A) (A) (A) (A) (A) (A) (A) (A) (A) (A) (A) (A)
                 (A) (A) (A) (A) (A) (A) (A) (A) (A) (A) (A) (A)
                 (A) (A) (A) (A) (A) (A) (A) (A) (A) (A) (A) (A)
                 (A) (A) (A) (A) (A) (A) (A) (A) (A) (A) (A) (A)
                 (A) (A) (A) (A) (A) (A) (A) (A) (A) (A) (A) (A)
                 (A) (A) (A) (A) (A) (A) (A) (A) (A) (A) (A) (A)
                 (A) (A) (A) (A) (A) (A) (A) (A) (A) (A) (A) (A)
                 (A) (A) (A) (A) (A) (A) (A) (A) (A) (A) (A) (A)
                 (A) (A) (A) (A) (A) (A) (A) (A) (A) (A) (A) (A)
                 (A) (A) (A) (A) (A) (A) (A) (A) (A) (A) (A) (A)
                 (A) (A) (A) (A) (A) (A) (A) (A) (A) (A) (A) (A)
                 (A) (A) (A) (A) (A) (A) (A) (A) (A) (A) (A) (A)
                 (A) (A) (A) (A) (A) (A) (A) (A) (A) (A) (A) (A)
                 (A) (A) (A) (A) (A) (A) (A) (A) (A) (A) (A) (A)
                 (A) (A) (A) (A) (A) (A) (A) (A) (A) (A) (A) (A)
                 (A) (A) (A) (A) (A) (A) (A) (A) (A) (A) (A) (A)
                 (A) (A) (A) (A) (A) (A) (A) (A) (A) (A) (A) (A)
                 (A) (A) (A) (A) (A) (A) (A) (A) (A) (A) (A) (A)
                 (A) (A) (A) (A) (A) (A) (A) (A) (A) (A) (A) (A)
                 (A) (A) (A) (A) (A) (A) (A) (A) (A) (A) (A) (A)
                 (A) (A) (A) (A) (A) (A) (A) (A) (A) (A) (A) (A)
                 (A) (A) (A) (A) (A) (A) (A) (A) (A) (A) (A) (A)
                 (A) (A) (A) (A) (A) (A) (A) (A) (A) (A) (A) (A)
                 (A) (A) (A) (A) (A) (A) (A) (A) (A) (A)
 The electronic state is 1-A.
 Alpha  occ. eigenvalues --  -46.81966 -19.22463 -19.22230 -19.18123 -19.17837
 Alpha  occ. eigenvalues --  -19.17837 -19.17391 -19.17186 -14.38827 -14.37202
 Alpha  occ. eigenvalues --  -14.37072 -14.36228 -10.35872 -10.34545 -10.31823
 Alpha  occ. eigenvalues --  -10.30213 -10.29894 -10.29162 -10.27576 -10.27569
 Alpha  occ. eigenvalues --  -10.27418 -10.27170 -10.26618 -10.26600 -10.26094
 Alpha  occ. eigenvalues --  -10.25523 -10.25515 -10.25510 -10.25462 -10.25389
 Alpha  occ. eigenvalues --  -10.25102 -10.24967 -10.24414 -10.24395 -10.24348
 Alpha  occ. eigenvalues --  -10.24321 -10.24065 -10.23869 -10.23848 -10.23646
 Alpha  occ. eigenvalues --  -10.23623 -10.23589 -10.23540 -10.23278 -10.22830
 Alpha  occ. eigenvalues --  -10.22718 -10.22621 -10.22572 -10.22532 -10.22472
 Alpha  occ. eigenvalues --  -10.22308 -10.22270 -10.22181 -10.21827 -10.21281
 Alpha  occ. eigenvalues --  -10.21166 -10.21033 -10.20835 -10.20615 -10.20613
 Alpha  occ. eigenvalues --  -10.20554 -10.20470 -10.20421 -10.20238 -10.19695
 Alpha  occ. eigenvalues --  -10.19677  -3.10496  -1.85429  -1.84988  -1.84883
 Alpha  occ. eigenvalues --   -1.13393  -1.13247  -1.12178  -1.10538  -1.06476
 Alpha  occ. eigenvalues --   -1.05067  -1.04769  -1.02136  -1.00397  -0.99347
 Alpha  occ. eigenvalues --   -0.97791  -0.87809  -0.86383  -0.86175  -0.85765
 Alpha  occ. eigenvalues --   -0.85345  -0.84610  -0.83998  -0.83744  -0.83269
 Alpha  occ. eigenvalues --   -0.82786  -0.82431  -0.82101  -0.80328  -0.79415
 Alpha  occ. eigenvalues --   -0.78363  -0.77938  -0.77239  -0.76328  -0.76002
 Alpha  occ. eigenvalues --   -0.75240  -0.74869  -0.74274  -0.72410  -0.71745
 Alpha  occ. eigenvalues --   -0.71261  -0.71041  -0.69914  -0.69319  -0.69135
 Alpha  occ. eigenvalues --   -0.68586  -0.68259  -0.67136  -0.66658  -0.66443
 Alpha  occ. eigenvalues --   -0.65347  -0.64903  -0.63939  -0.62740  -0.62130
 Alpha  occ. eigenvalues --   -0.61318  -0.61266  -0.60148  -0.59552  -0.58882
 Alpha  occ. eigenvalues --   -0.58797  -0.58225  -0.57925  -0.57725  -0.57055
 Alpha  occ. eigenvalues --   -0.56424  -0.55594  -0.55435  -0.55293  -0.55046
 Alpha  occ. eigenvalues --   -0.54426  -0.53335  -0.52936  -0.52314  -0.52116
 Alpha  occ. eigenvalues --   -0.51681  -0.51039  -0.50949  -0.50499  -0.50462
 Alpha  occ. eigenvalues --   -0.49844  -0.49596  -0.49524  -0.49062  -0.48884
 Alpha  occ. eigenvalues --   -0.48661  -0.48519  -0.48337  -0.48290  -0.47929
 Alpha  occ. eigenvalues --   -0.47561  -0.47448  -0.47149  -0.47011  -0.46766
 Alpha  occ. eigenvalues --   -0.46514  -0.46398  -0.46110  -0.45846  -0.45634
 Alpha  occ. eigenvalues --   -0.45398  -0.45256  -0.45052  -0.44965  -0.44917
 Alpha  occ. eigenvalues --   -0.44747  -0.44530  -0.44359  -0.44174  -0.43946
 Alpha  occ. eigenvalues --   -0.43538  -0.43327  -0.43111  -0.43087  -0.42939
 Alpha  occ. eigenvalues --   -0.42477  -0.42287  -0.42183  -0.42109  -0.41820
 Alpha  occ. eigenvalues --   -0.41755  -0.41655  -0.41586  -0.41337  -0.41292
 Alpha  occ. eigenvalues --   -0.41216  -0.40697  -0.40572  -0.40511  -0.40139
 Alpha  occ. eigenvalues --   -0.39849  -0.39635  -0.39602  -0.39560  -0.39463
 Alpha  occ. eigenvalues --   -0.39284  -0.39243  -0.38932  -0.38868  -0.38442
 Alpha  occ. eigenvalues --   -0.38101  -0.37755  -0.37607  -0.36983  -0.36935
 Alpha  occ. eigenvalues --   -0.36735  -0.36425  -0.35960  -0.35669  -0.35554
 Alpha  occ. eigenvalues --   -0.35018  -0.34890  -0.34780  -0.34122  -0.34049
 Alpha  occ. eigenvalues --   -0.33886  -0.33682  -0.33637  -0.33252  -0.33068
 Alpha  occ. eigenvalues --   -0.32818  -0.32488  -0.32164  -0.31962  -0.31750
 Alpha  occ. eigenvalues --   -0.31202  -0.30885  -0.30563  -0.29804  -0.29664
 Alpha  occ. eigenvalues --   -0.28642  -0.28298  -0.27924  -0.27825  -0.27677
 Alpha  occ. eigenvalues --   -0.27541  -0.25982  -0.22632  -0.21401
 Alpha virt. eigenvalues --   -0.07450  -0.06805  -0.01911  -0.00269   0.01272
 Alpha virt. eigenvalues --    0.02322   0.02555   0.03328   0.03688   0.04925
 Alpha virt. eigenvalues --    0.05376   0.06407   0.07736   0.08240   0.08916
 Alpha virt. eigenvalues --    0.08922   0.09221   0.09301   0.10252   0.10600
 Alpha virt. eigenvalues --    0.10801   0.11006   0.11297   0.11330   0.12047
 Alpha virt. eigenvalues --    0.12153   0.12389   0.12598   0.12694   0.12987
 Alpha virt. eigenvalues --    0.13038   0.13104   0.13414   0.13631   0.13805
 Alpha virt. eigenvalues --    0.13881   0.14260   0.14331   0.14543   0.14692
 Alpha virt. eigenvalues --    0.14813   0.15204   0.15279   0.15383   0.15648
 Alpha virt. eigenvalues --    0.15875   0.15952   0.16148   0.16241   0.16416
 Alpha virt. eigenvalues --    0.16618   0.16956   0.16995   0.17160   0.17321
 Alpha virt. eigenvalues --    0.17360   0.17661   0.17695   0.17891   0.18245
 Alpha virt. eigenvalues --    0.18445   0.18538   0.18836   0.19012   0.19124
 Alpha virt. eigenvalues --    0.19260   0.19478   0.19561   0.19684   0.20096
 Alpha virt. eigenvalues --    0.20344   0.20500   0.20596   0.20745   0.20971
 Alpha virt. eigenvalues --    0.21369   0.21532   0.21558   0.21636   0.21862
 Alpha virt. eigenvalues --    0.22088   0.22221   0.22352   0.22567   0.22690
 Alpha virt. eigenvalues --    0.23180   0.23462   0.23688   0.24143   0.24159
 Alpha virt. eigenvalues --    0.24184   0.24498   0.24669   0.24988   0.25092
 Alpha virt. eigenvalues --    0.25348   0.25410   0.25518   0.25819   0.26001
 Alpha virt. eigenvalues --    0.26077   0.26250   0.26605   0.26822   0.27090
 Alpha virt. eigenvalues --    0.27269   0.27979   0.28129   0.28224   0.28374
 Alpha virt. eigenvalues --    0.28585   0.28698   0.29105   0.29289   0.29407
 Alpha virt. eigenvalues --    0.29716   0.30159   0.30363   0.30682   0.30771
 Alpha virt. eigenvalues --    0.31060   0.31202   0.31263   0.31552   0.31847
 Alpha virt. eigenvalues --    0.31920   0.32288   0.32907   0.33119   0.33886
 Alpha virt. eigenvalues --    0.33932   0.34304   0.35052   0.35277   0.35852
 Alpha virt. eigenvalues --    0.36555   0.36831   0.36850   0.37464   0.38033
 Alpha virt. eigenvalues --    0.38559   0.38797   0.39576   0.40025   0.40596
 Alpha virt. eigenvalues --    0.40634   0.41476   0.42189   0.42796   0.43074
 Alpha virt. eigenvalues --    0.44170   0.44687   0.45837   0.46151   0.46384
 Alpha virt. eigenvalues --    0.47472   0.47670   0.48611   0.49074   0.50133
 Alpha virt. eigenvalues --    0.50282   0.50512   0.50597   0.50978   0.51409
 Alpha virt. eigenvalues --    0.51975   0.52169   0.52268   0.52671   0.53016
 Alpha virt. eigenvalues --    0.53189   0.53437   0.53582   0.53990   0.54040
 Alpha virt. eigenvalues --    0.54124   0.54551   0.54869   0.55041   0.55172
 Alpha virt. eigenvalues --    0.55329   0.55564   0.55769   0.55925   0.56264
 Alpha virt. eigenvalues --    0.56737   0.56771   0.56855   0.57149   0.57627
 Alpha virt. eigenvalues --    0.57731   0.57938   0.57967   0.58154   0.58259
 Alpha virt. eigenvalues --    0.58781   0.58921   0.59049   0.59297   0.59622
 Alpha virt. eigenvalues --    0.59999   0.60449   0.60701   0.60940   0.61377
 Alpha virt. eigenvalues --    0.61669   0.61762   0.61971   0.62273   0.62665
 Alpha virt. eigenvalues --    0.62920   0.63300   0.63488   0.63564   0.63811
 Alpha virt. eigenvalues --    0.64107   0.64382   0.64646   0.64914   0.65084
 Alpha virt. eigenvalues --    0.65265   0.65487   0.65876   0.65919   0.66509
 Alpha virt. eigenvalues --    0.67050   0.67070   0.67320   0.67387   0.67680
 Alpha virt. eigenvalues --    0.67856   0.68186   0.68371   0.68596   0.68914
 Alpha virt. eigenvalues --    0.69079   0.69310   0.69545   0.69919   0.70542
 Alpha virt. eigenvalues --    0.70752   0.70930   0.71185   0.71616   0.71741
 Alpha virt. eigenvalues --    0.71862   0.71899   0.72238   0.72428   0.72984
 Alpha virt. eigenvalues --    0.73126   0.73394   0.73741   0.73968   0.74085
 Alpha virt. eigenvalues --    0.74651   0.74807   0.74947   0.75397   0.75655
 Alpha virt. eigenvalues --    0.76166   0.76243   0.76394   0.76528   0.76840
 Alpha virt. eigenvalues --    0.76919   0.76999   0.77270   0.77594   0.77702
 Alpha virt. eigenvalues --    0.78019   0.78669   0.78901   0.79038   0.79254
 Alpha virt. eigenvalues --    0.79309   0.79370   0.79640   0.79945   0.80169
 Alpha virt. eigenvalues --    0.80264   0.80449   0.80805   0.81202   0.81291
 Alpha virt. eigenvalues --    0.81564   0.82028   0.82271   0.82341   0.82687
 Alpha virt. eigenvalues --    0.82798   0.82892   0.82954   0.83145   0.83491
 Alpha virt. eigenvalues --    0.83786   0.83824   0.83925   0.84037   0.84253
 Alpha virt. eigenvalues --    0.84419   0.84736   0.84948   0.85045   0.85268
 Alpha virt. eigenvalues --    0.85295   0.85439   0.85635   0.85884   0.86248
 Alpha virt. eigenvalues --    0.86380   0.86698   0.86970   0.87072   0.87269
 Alpha virt. eigenvalues --    0.87560   0.87864   0.87891   0.88218   0.88451
 Alpha virt. eigenvalues --    0.88555   0.88833   0.89063   0.89123   0.89369
 Alpha virt. eigenvalues --    0.89418   0.89680   0.90101   0.90211   0.90372
 Alpha virt. eigenvalues --    0.90586   0.90783   0.91249   0.91454   0.91728
 Alpha virt. eigenvalues --    0.91796   0.91854   0.92311   0.92426   0.92995
 Alpha virt. eigenvalues --    0.93038   0.93204   0.93298   0.93620   0.93667
 Alpha virt. eigenvalues --    0.94194   0.94377   0.94908   0.94923   0.95198
 Alpha virt. eigenvalues --    0.95344   0.95511   0.95864   0.96089   0.96208
 Alpha virt. eigenvalues --    0.96411   0.96576   0.96757   0.97043   0.97286
 Alpha virt. eigenvalues --    0.97748   0.97998   0.98133   0.98357   0.98693
 Alpha virt. eigenvalues --    0.98945   0.99183   0.99285   0.99477   0.99739
 Alpha virt. eigenvalues --    0.99864   1.00005   1.00472   1.00664   1.00875
 Alpha virt. eigenvalues --    1.01129   1.01310   1.01437   1.01567   1.01839
 Alpha virt. eigenvalues --    1.02003   1.02546   1.02774   1.03139   1.03406
 Alpha virt. eigenvalues --    1.03584   1.03736   1.03837   1.04385   1.04880
 Alpha virt. eigenvalues --    1.05453   1.05644   1.05753   1.05989   1.06393
 Alpha virt. eigenvalues --    1.06591   1.07076   1.07152   1.07305   1.07526
 Alpha virt. eigenvalues --    1.08410   1.09028   1.09442   1.09839   1.10070
 Alpha virt. eigenvalues --    1.10351   1.11004   1.11705   1.11737   1.13003
 Alpha virt. eigenvalues --    1.13335   1.13565   1.14333   1.14626   1.14943
 Alpha virt. eigenvalues --    1.15595   1.15897   1.16402   1.17146   1.17847
 Alpha virt. eigenvalues --    1.17903   1.18806   1.19113   1.19672   1.20588
 Alpha virt. eigenvalues --    1.20842   1.21169   1.21495   1.22003   1.22814
 Alpha virt. eigenvalues --    1.23247   1.23911   1.24100   1.24602   1.24922
 Alpha virt. eigenvalues --    1.24967   1.25747   1.26393   1.26868   1.27505
 Alpha virt. eigenvalues --    1.28140   1.28872   1.29140   1.29584   1.29888
 Alpha virt. eigenvalues --    1.30250   1.30660   1.31255   1.32851   1.33486
 Alpha virt. eigenvalues --    1.33813   1.34424   1.34621   1.35178   1.35568
 Alpha virt. eigenvalues --    1.35700   1.36408   1.36591   1.37175   1.37348
 Alpha virt. eigenvalues --    1.37837   1.37884   1.38687   1.39150   1.39800
 Alpha virt. eigenvalues --    1.40261   1.40411   1.40862   1.41800   1.41827
 Alpha virt. eigenvalues --    1.42255   1.43360   1.43742   1.43891   1.44716
 Alpha virt. eigenvalues --    1.44929   1.45476   1.46026   1.46727   1.46968
 Alpha virt. eigenvalues --    1.47480   1.48214   1.48714   1.49282   1.49702
 Alpha virt. eigenvalues --    1.50893   1.51329   1.51628   1.52213   1.52362
 Alpha virt. eigenvalues --    1.53251   1.53579   1.53880   1.54168   1.54667
 Alpha virt. eigenvalues --    1.54972   1.55005   1.55679   1.56000   1.56561
 Alpha virt. eigenvalues --    1.56593   1.56657   1.57653   1.57804   1.58560
 Alpha virt. eigenvalues --    1.59141   1.59335   1.59439   1.60084   1.60600
 Alpha virt. eigenvalues --    1.60731   1.60768   1.61493   1.61932   1.62326
 Alpha virt. eigenvalues --    1.62681   1.62890   1.62939   1.63099   1.63274
 Alpha virt. eigenvalues --    1.64356   1.64625   1.65096   1.65720   1.66100
 Alpha virt. eigenvalues --    1.66227   1.66712   1.66982   1.67334   1.67901
 Alpha virt. eigenvalues --    1.68448   1.68665   1.69359   1.69443   1.69876
 Alpha virt. eigenvalues --    1.70008   1.70095   1.70397   1.71323   1.71857
 Alpha virt. eigenvalues --    1.72214   1.72484   1.73009   1.73266   1.73609
 Alpha virt. eigenvalues --    1.73793   1.73995   1.74444   1.74857   1.75645
 Alpha virt. eigenvalues --    1.76021   1.76180   1.76506   1.76825   1.77236
 Alpha virt. eigenvalues --    1.77643   1.78473   1.78702   1.79026   1.79450
 Alpha virt. eigenvalues --    1.79563   1.79831   1.80120   1.80527   1.80827
 Alpha virt. eigenvalues --    1.81277   1.81896   1.82193   1.82278   1.82477
 Alpha virt. eigenvalues --    1.83090   1.83296   1.83572   1.83960   1.84301
 Alpha virt. eigenvalues --    1.84899   1.84953   1.85122   1.85449   1.85605
 Alpha virt. eigenvalues --    1.85810   1.85972   1.86190   1.86467   1.86803
 Alpha virt. eigenvalues --    1.86839   1.86926   1.87015   1.87429   1.87739
 Alpha virt. eigenvalues --    1.87940   1.88374   1.88656   1.88824   1.88950
 Alpha virt. eigenvalues --    1.89208   1.89601   1.89762   1.90003   1.90559
 Alpha virt. eigenvalues --    1.90844   1.90931   1.91063   1.91215   1.91351
 Alpha virt. eigenvalues --    1.91530   1.91786   1.92486   1.92764   1.92789
 Alpha virt. eigenvalues --    1.93149   1.93418   1.93510   1.93676   1.93787
 Alpha virt. eigenvalues --    1.94334   1.94509   1.94716   1.95168   1.95307
 Alpha virt. eigenvalues --    1.95427   1.95940   1.96022   1.96537   1.96729
 Alpha virt. eigenvalues --    1.96971   1.97232   1.97547   1.97748   1.97759
 Alpha virt. eigenvalues --    1.98312   1.98476   1.98700   1.98814   1.98925
 Alpha virt. eigenvalues --    1.99161   1.99608   2.00159   2.00365   2.00459
 Alpha virt. eigenvalues --    2.01177   2.01570   2.01841   2.02214   2.02779
 Alpha virt. eigenvalues --    2.03092   2.03297   2.03736   2.03932   2.04520
 Alpha virt. eigenvalues --    2.04680   2.04868   2.05331   2.05480   2.05803
 Alpha virt. eigenvalues --    2.05997   2.06616   2.06824   2.07249   2.07486
 Alpha virt. eigenvalues --    2.07496   2.07614   2.08070   2.08323   2.08656
 Alpha virt. eigenvalues --    2.08999   2.09193   2.09374   2.10113   2.10662
 Alpha virt. eigenvalues --    2.10830   2.11012   2.11505   2.11629   2.11889
 Alpha virt. eigenvalues --    2.12137   2.12825   2.13188   2.13294   2.13402
 Alpha virt. eigenvalues --    2.13561   2.13922   2.14207   2.14501   2.14769
 Alpha virt. eigenvalues --    2.15294   2.15603   2.15779   2.15857   2.16151
 Alpha virt. eigenvalues --    2.16576   2.16730   2.17103   2.17696   2.17803
 Alpha virt. eigenvalues --    2.18155   2.18322   2.18458   2.19157   2.19363
 Alpha virt. eigenvalues --    2.19860   2.20040   2.20352   2.20613   2.21338
 Alpha virt. eigenvalues --    2.21573   2.21713   2.22032   2.22574   2.22901
 Alpha virt. eigenvalues --    2.23402   2.23538   2.24367   2.24605   2.25013
 Alpha virt. eigenvalues --    2.25278   2.25367   2.25885   2.26060   2.26875
 Alpha virt. eigenvalues --    2.27324   2.27929   2.27984   2.28107   2.28386
 Alpha virt. eigenvalues --    2.28639   2.29153   2.29690   2.29880   2.30115
 Alpha virt. eigenvalues --    2.30508   2.30889   2.31288   2.31556   2.31757
 Alpha virt. eigenvalues --    2.32161   2.32535   2.33071   2.33529   2.33764
 Alpha virt. eigenvalues --    2.33810   2.34761   2.35031   2.35233   2.35275
 Alpha virt. eigenvalues --    2.35805   2.36451   2.36663   2.37048   2.37155
 Alpha virt. eigenvalues --    2.37444   2.37568   2.38205   2.38378   2.38945
 Alpha virt. eigenvalues --    2.39187   2.39421   2.40178   2.40391   2.40548
 Alpha virt. eigenvalues --    2.40643   2.41080   2.41825   2.42155   2.42347
 Alpha virt. eigenvalues --    2.42708   2.42916   2.43581   2.43912   2.43986
 Alpha virt. eigenvalues --    2.44521   2.44719   2.44986   2.45044   2.45175
 Alpha virt. eigenvalues --    2.45343   2.45587   2.45976   2.46329   2.46653
 Alpha virt. eigenvalues --    2.47517   2.47642   2.48023   2.48549   2.48641
 Alpha virt. eigenvalues --    2.49025   2.49240   2.49998   2.50376   2.50834
 Alpha virt. eigenvalues --    2.51037   2.51503   2.51980   2.52062   2.52743
 Alpha virt. eigenvalues --    2.52902   2.53107   2.53319   2.53561   2.53687
 Alpha virt. eigenvalues --    2.54433   2.54965   2.55053   2.55423   2.55552
 Alpha virt. eigenvalues --    2.56295   2.56578   2.56764   2.57681   2.58008
 Alpha virt. eigenvalues --    2.58227   2.58660   2.58784   2.58920   2.59544
 Alpha virt. eigenvalues --    2.59801   2.60052   2.60411   2.61202   2.61601
 Alpha virt. eigenvalues --    2.61839   2.61984   2.62527   2.63021   2.63513
 Alpha virt. eigenvalues --    2.63679   2.64083   2.64294   2.64489   2.64784
 Alpha virt. eigenvalues --    2.65520   2.66004   2.66016   2.66247   2.66502
 Alpha virt. eigenvalues --    2.67157   2.67330   2.67726   2.68076   2.68539
 Alpha virt. eigenvalues --    2.68749   2.69108   2.69405   2.69532   2.69749
 Alpha virt. eigenvalues --    2.70333   2.70488   2.70747   2.71102   2.71377
 Alpha virt. eigenvalues --    2.71550   2.71886   2.72054   2.72506   2.72900
 Alpha virt. eigenvalues --    2.73280   2.73622   2.73876   2.74065   2.74145
 Alpha virt. eigenvalues --    2.74313   2.74793   2.75596   2.75833   2.76575
 Alpha virt. eigenvalues --    2.77113   2.77266   2.77660   2.77893   2.78099
 Alpha virt. eigenvalues --    2.78493   2.79481   2.79638   2.79764   2.79991
 Alpha virt. eigenvalues --    2.80669   2.80965   2.81235   2.81803   2.82153
 Alpha virt. eigenvalues --    2.82217   2.82694   2.83105   2.83545   2.83634
 Alpha virt. eigenvalues --    2.83959   2.84031   2.84530   2.84627   2.84931
 Alpha virt. eigenvalues --    2.85276   2.85485   2.85943   2.86614   2.87084
 Alpha virt. eigenvalues --    2.87551   2.87644   2.88023   2.88126   2.88641
 Alpha virt. eigenvalues --    2.89292   2.89493   2.90171   2.90414   2.90689
 Alpha virt. eigenvalues --    2.91380   2.91740   2.92232   2.92430   2.93123
 Alpha virt. eigenvalues --    2.93335   2.93566   2.94296   2.94705   2.95356
 Alpha virt. eigenvalues --    2.95712   2.96000   2.96113   2.96915   2.97325
 Alpha virt. eigenvalues --    2.97691   2.98186   2.98544   2.98723   2.99139
 Alpha virt. eigenvalues --    3.00344   3.00991   3.01067   3.01306   3.01580
 Alpha virt. eigenvalues --    3.01889   3.03480   3.03511   3.03792   3.04035
 Alpha virt. eigenvalues --    3.04894   3.05023   3.05613   3.06018   3.06351
 Alpha virt. eigenvalues --    3.06971   3.07929   3.08190   3.08819   3.08871
 Alpha virt. eigenvalues --    3.09469   3.09717   3.10838   3.12066   3.12804
 Alpha virt. eigenvalues --    3.13234   3.14228   3.14688   3.15635   3.15905
 Alpha virt. eigenvalues --    3.17507   3.19600   3.19724   3.19965   3.20200
 Alpha virt. eigenvalues --    3.21196   3.21377   3.22828   3.22891   3.23521
 Alpha virt. eigenvalues --    3.23984   3.24578   3.25823   3.27123   3.27140
 Alpha virt. eigenvalues --    3.28608   3.29948   3.30069   3.30254   3.31329
 Alpha virt. eigenvalues --    3.31393   3.31555   3.32891   3.33615   3.34356
 Alpha virt. eigenvalues --    3.35368   3.36053   3.36152   3.37029   3.37738
 Alpha virt. eigenvalues --    3.37915   3.37984   3.40079   3.40895   3.41435
 Alpha virt. eigenvalues --    3.41525   3.42154   3.42850   3.42971   3.44296
 Alpha virt. eigenvalues --    3.44338   3.45780   3.45815   3.45940   3.47068
 Alpha virt. eigenvalues --    3.49148   3.49443   3.49980   3.50213   3.50977
 Alpha virt. eigenvalues --    3.51477   3.52314   3.52555   3.53587   3.54565
 Alpha virt. eigenvalues --    3.55826   3.56361   3.56748   3.57132   3.57654
 Alpha virt. eigenvalues --    3.61372   3.61430   3.62779   3.67295   3.67623
 Alpha virt. eigenvalues --    3.68473   3.69459   3.71183   3.80877   3.86480
 Alpha virt. eigenvalues --    4.00850   4.03550   4.04627   4.08284   4.10639
 Alpha virt. eigenvalues --    4.15846   4.16372   4.17493   4.19473   4.20120
 Alpha virt. eigenvalues --    4.20599   4.21454   4.21784   4.24625   4.26202
 Alpha virt. eigenvalues --    4.27205   4.29620   4.29967   4.31189   4.32616
 Alpha virt. eigenvalues --    4.33568   4.35198   4.35804   4.37855   4.38719
 Alpha virt. eigenvalues --    4.39619   4.39860   4.40657   4.42086   4.42318
 Alpha virt. eigenvalues --    4.43819   4.45222   4.46033   4.46558   4.47748
 Alpha virt. eigenvalues --    4.48927   4.49727   4.52001   4.53606   4.53618
 Alpha virt. eigenvalues --    4.54956   4.55374   4.56022   4.56262   4.57424
 Alpha virt. eigenvalues --    4.58435   4.63784   4.64306   4.64410   4.65334
 Alpha virt. eigenvalues --    4.65757   4.69707   4.69973   4.71989   4.72246
 Alpha virt. eigenvalues --    4.73591   4.75293   4.77412   4.78380   4.79939
 Alpha virt. eigenvalues --    4.80887   4.82984   4.85408   4.89909   4.95887
          Condensed to atoms (all electrons):
 Mulliken charges:
               1
     1  Mg   0.836962
     2  C    0.002851
     3  C   -0.211388
     4  C   -0.174180
     5  C   -0.154834
     6  N   -0.594664
     7  C    0.278895
     8  C   -0.154716
     9  C   -0.136735
    10  C    0.343726
    11  C   -0.297357
    12  C   -0.186697
    13  C   -0.262446
    14  C    0.621974
    15  O   -0.474621
    16  O   -0.466349
    17  N   -0.735053
    18  C    0.311029
    19  C    0.122927
    20  C   -0.095355
    21  C    0.342745
    22  C   -0.441606
    23  C    0.269729
    24  O   -0.351906
    25  N   -0.656873
    26  C    0.260152
    27  C   -0.051493
    28  C    0.052541
    29  C    0.272759
    30  C    0.254483
    31  C   -0.255361
    32  C   -0.295406
    33  N   -0.729715
    34  C    0.305366
    35  C   -0.018433
    36  C    0.052102
    37  C    0.306786
    38  C   -0.397159
    39  C    0.328446
    40  O   -0.403332
    41  C   -0.336610
    42  C    0.639477
    43  O   -0.474830
    44  O   -0.453173
    45  C   -0.081560
    46  C   -0.000651
    47  C   -0.145718
    48  C    0.136320
    49  C   -0.373514
    50  C   -0.224999
    51  C   -0.174020
    52  C   -0.162413
    53  C   -0.070841
    54  C   -0.297354
    55  C   -0.175456
    56  C   -0.179185
    57  C   -0.174050
    58  C   -0.069645
    59  C   -0.294760
    60  C   -0.159597
    61  C   -0.183917
    62  C   -0.148137
    63  C   -0.034932
    64  C   -0.267327
    65  C   -0.308739
    66  H    0.058322
    67  H    0.128501
    68  H    0.117481
    69  H    0.141401
    70  H    0.105892
    71  H    0.106432
    72  H    0.108442
    73  H    0.133554
    74  H    0.124713
    75  H    0.133894
    76  H    0.138145
    77  H    0.137590
    78  H    0.142103
    79  H    0.152915
    80  H    0.123824
    81  H    0.077646
    82  H    0.107554
    83  H    0.100817
    84  H    0.108675
    85  H    0.101851
    86  H    0.106404
    87  H    0.136954
    88  H    0.151895
    89  H    0.112896
    90  H    0.152905
    91  H    0.116457
    92  H    0.103526
    93  H    0.065590
    94  H    0.150571
    95  H    0.124398
    96  H    0.092874
    97  H    0.111365
    98  H    0.104729
    99  H    0.066847
   100  H    0.106926
   101  H    0.073781
   102  H    0.104385
   103  H    0.089249
   104  H    0.102952
   105  H    0.091118
   106  H    0.087427
   107  H    0.088185
   108  H    0.078619
   109  H    0.092623
   110  H    0.097486
   111  H    0.069787
   112  H    0.094433
   113  H    0.090000
   114  H    0.089563
   115  H    0.113842
   116  H    0.086841
   117  H    0.099924
   118  H    0.082633
   119  H    0.087877
   120  H    0.072649
   121  H    0.064016
   122  H    0.072204
   123  H    0.098389
   124  H    0.104789
   125  H    0.086056
   126  H    0.040504
   127  H    0.078705
   128  H    0.096167
   129  H    0.104017
   130  H    0.126884
   131  H    0.141058
   132  H    0.103452
   133  O   -0.431671
   134  H    0.065801
 Sum of Mulliken charges =  -0.00000
 Mulliken charges with hydrogens summed into heavy atoms:
               1
     1  Mg   0.836962
     2  C    0.002851
     3  C   -0.153066
     4  C   -0.045680
     5  C   -0.037353
     6  N   -0.594664
     7  C    0.278895
     8  C   -0.013315
     9  C   -0.030843
    10  C    0.343726
    11  C    0.051071
    12  C    0.071910
    13  C    0.013289
    14  C    0.621974
    15  O   -0.474621
    16  O   -0.466349
    17  N   -0.735053
    18  C    0.311029
    19  C    0.122927
    20  C   -0.095355
    21  C    0.342745
    22  C   -0.022764
    23  C    0.347376
    24  O   -0.351906
    25  N   -0.656873
    26  C    0.260152
    27  C   -0.051493
    28  C    0.052541
    29  C    0.272759
    30  C    0.320284
    31  C   -0.046990
    32  C    0.021524
    33  N   -0.729715
    34  C    0.305366
    35  C   -0.018433
    36  C    0.052102
    37  C    0.306786
    38  C    0.004586
    39  C    0.328446
    40  O   -0.403332
    41  C   -0.183705
    42  C    0.639477
    43  O   -0.474830
    44  O   -0.453173
    45  C    0.289835
    46  C    0.219331
    47  C   -0.080128
    48  C    0.136320
    49  C   -0.005672
    50  C   -0.008905
    51  C   -0.000247
    52  C    0.015753
    53  C    0.018408
    54  C   -0.015856
    55  C   -0.008652
    56  C    0.010925
    57  C   -0.009830
    58  C    0.020355
    59  C   -0.004513
    60  C    0.022960
    61  C   -0.023392
    62  C   -0.011917
    63  C    0.063457
    64  C   -0.035977
    65  C   -0.029849
   133  O   -0.431671
 Electronic spatial extent (au):  <R**2>=         149287.1322
 Charge=             -0.0000 electrons
 Dipole moment (field-independent basis, Debye):
    X=              2.1326    Y=             -2.9162    Z=             -0.5575  Tot=              3.6555
 Quadrupole moment (field-independent basis, Debye-Ang):
   XX=           -392.0170   YY=           -444.2481   ZZ=           -389.2808
   XY=              1.9957   XZ=             23.0251   YZ=            -25.1248
 Traceless Quadrupole moment (field-independent basis, Debye-Ang):
   XX=             16.4983   YY=            -35.7328   ZZ=             19.2345
   XY=              1.9957   XZ=             23.0251   YZ=            -25.1248
 Octapole moment (field-independent basis, Debye-Ang**2):
  XXX=           -110.4212  YYY=           -426.7273  ZZZ=            -14.2873  XYY=            197.5701
  XXY=           -100.1930  XXZ=           -192.3056  XZZ=           -142.8026  YZZ=            -12.5923
  YYZ=            -39.7711  XYZ=            156.4795
 Hexadecapole moment (field-independent basis, Debye-Ang**3):
 XXXX=        -162324.5006 YYYY=         -31789.2671 ZZZZ=          -8923.3268 XXXY=          -1674.9268
 XXXZ=           2630.9688 YYYX=           1792.0310 YYYZ=          -1035.8380 ZZZX=            637.1399
 ZZZY=           -222.7229 XXYY=         -35294.3889 XXZZ=         -29363.6955 YYZZ=          -6830.8906
 XXYZ=           -807.9280 YYXZ=            155.1438 ZZXY=           -415.6829
 N-N= 9.082392859501D+03 E-N=-2.524857984311D+04  KE= 3.015547406664D+03

 Test job not archived.
 1\1\GINC-RYZEN-SSD3\SP\RCAM-B3LYP TD-FC\6-31G(d,p)\C54H68Mg1N4O7\PADAW
 AN\08-Oct-2019\0\\# td=(NStates=1) iop(3/107=0140000000,3/108=01400000
 00) iop(3/107=0140000000,3/108=0140000000) CAM-B3LYP/6-31G(d,p)\\TD\\0
 ,1\Mg,0,-5.6383653431,1.2583107054,0.1745060558\C,0,-5.1019905863,-2.1
 492133846,-0.3439212589\C,0,-3.4466334524,1.1515954443,2.611906564\C,0
 ,-6.2703858343,4.5677600402,0.7237525841\C,0,-8.0783135985,1.158466697
 4,-2.374225096\N,0,-4.4767719305,-0.3684650383,1.0870800468\C,0,-4.229
 6364911,-1.6160353051,0.6953618858\C,0,-3.1913422587,-2.3657798808,1.4
 611104747\C,0,-2.8910422752,-1.383801271,2.6379503511\C,0,-3.654612888
 7,-0.0651991476,2.0642710123\C,0,-3.3858216216,-1.7644398854,3.9823609
 355\C,0,-1.9129364868,-2.7619336027,0.592794585\C,0,-0.8637480183,-3.5
 572133019,1.2977133593\C,0,0.3649515957,-3.8765314938,0.5278109758\O,0
 ,0.6167817425,-3.3746047741,-0.5725734915\O,0,1.1265094966,-4.90523014
 03,1.0676913764\N,0,-4.9394547618,2.6347128482,1.4508253142\C,0,-3.993
 1013999,2.3881262343,2.4405346568\C,0,-3.7251020139,3.7074492471,3.230
 0735636\C,0,-4.5644569984,4.5956210904,2.6336726386\C,0,-5.3112172259,
 3.9826763628,1.4683129236\C,0,-2.7691222753,3.8191492907,4.2506392533\
 C,0,-4.6917257032,6.0880362241,3.0074602508\O,0,-4.0770777558,6.546892
 5773,3.8473486348\N,0,-6.9772315231,2.6343633321,-0.652106867\C,0,-6.9
 95472262,3.9463842556,-0.4041621049\C,0,-7.9418593723,4.6412708519,-1.
 3612802375\C,0,-8.575376991,3.6066775977,-2.073566301\C,0,-7.820940984
 6,2.4328492937,-1.691465093\C,0,-8.3016131522,6.060195929,-1.266946203
 4\C,0,-9.4369580591,3.7860790061,-3.1837830111\C,0,-8.8705985136,4.044
 1225585,-4.5480112051\N,0,-6.5956879878,-0.175402558,-0.8920242944\C,0
 ,-7.5142309527,-0.0337294415,-1.891213332\C,0,-7.606458153,-1.25142684
 63,-2.6406065833\C,0,-6.8010496538,-2.2359931711,-1.9467108368\C,0,-6.
 1334817636,-1.4719107562,-1.0057867091\C,0,-8.5222376816,-1.5701271387
 ,-3.8382407203\C,0,-6.3354772148,-3.5900645904,-2.0260461597\O,0,-6.62
 18365792,-4.5677844768,-2.5907553406\C,0,-5.1498235445,-3.6240104536,-
 0.8262049403\C,0,-5.3461420916,-4.6749629374,0.2151651883\O,0,-5.83793
 95656,-4.504609469,1.2903453979\O,0,-5.0035300512,-5.8976509615,-0.293
 7525199\C,0,-5.4775153157,-6.9090427576,0.6661684466\C,0,2.3755585291,
 -5.0577268929,0.4546594203\C,0,3.3668312181,-4.0713872996,0.8287807779
 \C,0,4.1053199222,-3.2388467548,0.0205456896\C,0,3.8343977787,-3.04163
 91052,-1.4387933838\C,0,5.1464010659,-2.2398090285,0.5886826671\C,0,6.
 5498298543,-2.5849914243,0.0054320106\C,0,7.6209574193,-1.7887182273,0
 .6592116117\C,0,9.0319840197,-1.9805728909,0.0031825358\C,0,9.63431981
 37,-3.3987105115,0.1892854708\C,0,10.0016407432,-0.7685170891,0.450597
 5753\C,0,11.290846387,-0.7731769246,-0.3022789941\C,0,12.2323409227,0.
 399774605,0.175044352\C,0,13.5837308289,0.4482696969,-0.5528800512\C,0
 ,14.4762759266,-0.7233417368,-0.2943135823\C,0,14.1879347331,1.7940655
 782,-0.1717164264\C,0,15.5343976302,2.1182698552,-0.8611411091\C,0,16.
 1693595204,3.5557603288,-0.6545660698\C,0,17.6150267518,3.7698948311,-
 1.3278567209\C,0,17.5208746772,3.9147863703,-2.7848207063\C,0,18.16237
 56437,5.115406806,-0.7517646354\H,0,-2.8175874815,1.1776420396,3.69384
 98534\H,0,-6.5899469735,5.5803434147,0.7963286246\H,0,-8.7123616434,1.
 0739977027,-3.2994954283\H,0,-3.8425153163,-3.0808534007,1.8897570365\
 H,0,-1.8202891528,-1.3105787195,2.6568169578\H,0,-3.1739771768,-2.8865
 918204,4.0471682608\H,0,-2.8596567584,-1.064046309,4.7138434141\H,0,-4
 .4128337951,-1.5838474656,4.0421381643\H,0,-2.3178971034,-3.3451240297
 ,-0.2749381176\H,0,-1.4719450269,-1.9052896453,-0.0170835868\H,0,-0.36
 44018737,-3.0064119368,2.1467688956\H,0,-1.2317378954,-4.4379709283,1.
 9641082088\H,0,-1.718151929,3.7421137358,4.0202379335\H,0,-2.748895879
 7,4.8693141374,4.7396402217\H,0,-2.973030298,3.1216331608,5.0981648225
 \H,0,-5.4405371176,6.6798421786,2.502515573\H,0,-10.2368128148,2.94232
 48896,-3.1318264343\H,0,-10.1574065386,4.6425781019,-2.8668969804\H,0,
 -9.6027100708,4.1022586399,-5.4688020825\H,0,-8.2179713065,5.018621607
 6,-4.8360635614\H,0,-8.0625461036,3.2494243012,-4.6417440992\H,0,-8.03
 40409937,-1.2772582687,-4.7969506934\H,0,-8.3798889719,-2.6342368288,-
 3.9484374807\H,0,-9.7833484143,-1.6083076542,-3.5362205288\H,0,-4.3149
 788553,-3.7056653931,-1.5188851754\H,0,2.7363647695,-6.0738253255,0.68
 52344803\H,0,2.1063613795,-4.8669636725,-0.706494099\H,0,3.4179839207,
 -4.0197312549,2.0245574633\H,0,2.879092896,-3.3816637875,-1.7066832093
 \H,0,4.122206834,-2.2045240117,-1.9560380743\H,0,4.4577979538,-3.91816
 55458,-1.9614150674\H,0,4.8670367446,-1.2151679408,0.3969115747\H,0,5.
 1772562529,-2.439455578,1.6024151218\H,0,6.8673242591,-3.756618854,0.1
 751553995\H,0,6.4125614165,-2.5696145705,-1.0638969852\H,0,7.376756607
 ,-0.6726205872,0.5688441299\H,0,7.7730194048,-1.8163882219,1.674341819
 5\H,0,8.9792220315,-1.8489631715,-1.0485381919\H,0,8.783902909,-4.1345
 422256,-0.1028340758\H,0,10.6739567365,-3.4042046226,-0.3816082743\H,0
 ,9.970566118,-3.4170127928,1.320752518\H,0,9.4884779984,0.219117638,0.
 4106664304\H,0,10.2149515927,-0.947431277,1.5522147615\H,0,11.75746088
 74,-1.706000632,-0.1845428275\H,0,11.267042791,-0.9043333382,-1.316052
 9389\H,0,11.7316742009,1.4488293121,0.0520556504\H,0,12.5032151448,0.4
 275439458,1.1878570659\H,0,13.3943662373,0.622866719,-1.5799602347\H,0
 ,14.7625555939,-0.8158798007,0.7906147415\H,0,14.1295285239,-1.5992389
 402,-0.4645327748\H,0,15.446085597,-0.6332465229,-0.9364505376\H,0,13.
 496707865,2.5693815573,-0.2565474424\H,0,14.3556022605,1.6303433235,0.
 9169389078\H,0,16.4259042462,1.4081294256,-0.6492314138\H,0,15.5622318
 066,1.6969536082,-1.9674281225\H,0,15.5279542,4.5716025383,-1.03313531
 16\H,0,16.5049532654,3.5596926107,0.5428041808\H,0,18.3136950509,3.136
 1851097,-1.0956386435\H,0,16.8295836788,4.7254090698,-3.1537277326\H,0
 ,18.6109670202,3.8349130046,-3.3001546206\H,0,16.7094611463,2.94315538
 55,-3.1670047351\H,0,18.2839044376,4.9643576533,0.3932509893\H,0,19.19
 1346657,5.335187671,-1.1030672211\H,0,17.4394354944,5.9325627594,-0.84
 29783591\H,0,-5.1136966711,-7.8127507082,0.0744439067\H,0,-6.617196149
 9,-6.6252496116,0.9393074382\H,0,-4.8140995786,-6.8468662622,1.6992543
 82\O,0,-7.8111187035,6.8803045313,-0.5073385179\H,0,-8.8995482519,6.27
 77634212,-2.1524809309\\Version=ES64L-G16RevA.03\State=1-A\HF=-3043.44
 00884\RMSD=8.985e-09\PG=C01 [X(C54H68Mg1N4O7)]\\@


 EXPERIMENTALISTS THINK SILICON IS REALLY FUN TO USE
     ITS PLACE IN NOVEL COMPOUNDS IS CERTAIN TO AMUSE
 THEY SIT ALL DAY IN LABORATORIES MAKING ALL THIS SLUDGE
     "LOADED WITH THE SILICON THEY SAY", TO ME IT LOOKS LIKE FUDGE.
 FOR HAPPY THOUGH THEY BE WITH CRUD, I'D LIKE TO KNOW A LITTLE
      ABOUT THE PI BONDS ON THE EDGE AND SIGMAS IN THE MIDDLE.

 SO LETS DERIVE A WAVEFUNCTION.....6-31G*
     USE AN OPTIMAL GEOMETRY AND SEE WHERE ELECTRONS ARE.
 BUT WHAT OF CORRELATION?  ASKS THE WIRY LITTLE SKEPTIC.
     WE'LL THROW IN PERTURBATION AS AN ELECTRON ANTISEPTIC.
 AND WHEN THE PROGRAM GIVES US ANSWERS IN THEM WE CAN TRUST
     SINCE NOBODY CAN MAKE THE STUFF, WE HAVE NO CHOICE, WE MUST.

 SO THEORY GUYS HAVE GOT IT MADE, IN ROOMS FREE OF POLLUTION.
     INSTEAD OF PROBLEMS WITH THE REFLUX, THEY HAVE ONLY SOLUTIONS.
 AND WHEN THE FEDS ANNOUNCE THE LIST OF CARCINOGENIC TERRORS,
     THE THEORISTS SIT SAFELY AT THEIR TERMINALS FIXING ERRORS.
 IN OTHER WORDS, EXPERIMENTALISTS WILL LIKELY DIE OF CANCER
     FROM WORKING HARD YET FRUITLESSLY...TILL THEORY GIVES THE ANSWER.
          -- THOMAS A. HOLME, 1983
 Job cpu time:       0 days 19 hours 51 minutes 11.7 seconds.
 Elapsed time:       0 days  4 hours 58 minutes 29.9 seconds.
 File lengths (MBytes):  RWF=   6825 Int=      0 D2E=      0 Chk=    180 Scr=      1
 Normal termination of Gaussian 16 at Tue Oct  8 14:00:37 2019.
