 Entering Gaussian System, Link 0=g16
 Input=Geometria-169-.com
 Output=Geometria-169-.log
 Initial command:
 /usr/local/g16/l1.exe "/home/padawan/israel-mol/chlorophyll-b/spectra/abs/Gau-50440.inp" -scrdir="/home/padawan/israel-mol/chlorophyll-b/spectra/abs/"
 Entering Link 1 = /usr/local/g16/l1.exe PID=     50442.
  
 Copyright (c) 1988,1990,1992,1993,1995,1998,2003,2009,2016,
            Gaussian, Inc.  All Rights Reserved.
  
 This is part of the Gaussian(R) 16 program.  It is based on
 the Gaussian(R) 09 system (copyright 2009, Gaussian, Inc.),
 the Gaussian(R) 03 system (copyright 2003, Gaussian, Inc.),
 the Gaussian(R) 98 system (copyright 1998, Gaussian, Inc.),
 the Gaussian(R) 94 system (copyright 1995, Gaussian, Inc.),
 the Gaussian 92(TM) system (copyright 1992, Gaussian, Inc.),
 the Gaussian 90(TM) system (copyright 1990, Gaussian, Inc.),
 the Gaussian 88(TM) system (copyright 1988, Gaussian, Inc.),
 the Gaussian 86(TM) system (copyright 1986, Carnegie Mellon
 University), and the Gaussian 82(TM) system (copyright 1983,
 Carnegie Mellon University). Gaussian is a federally registered
 trademark of Gaussian, Inc.
  
 This software contains proprietary and confidential information,
 including trade secrets, belonging to Gaussian, Inc.
  
 This software is provided under written license and may be
 used, copied, transmitted, or stored only in accord with that
 written license.
  
 The following legend is applicable only to US Government
 contracts under FAR:
  
                    RESTRICTED RIGHTS LEGEND
  
 Use, reproduction and disclosure by the US Government is
 subject to restrictions as set forth in subparagraphs (a)
 and (c) of the Commercial Computer Software - Restricted
 Rights clause in FAR 52.227-19.
  
 Gaussian, Inc.
 340 Quinnipiac St., Bldg. 40, Wallingford CT 06492
  
  
 ---------------------------------------------------------------
 Warning -- This program may not be used in any manner that
 competes with the business of Gaussian, Inc. or will provide
 assistance to any competitor of Gaussian, Inc.  The licensee
 of this program is prohibited from giving any competitor of
 Gaussian, Inc. access to this program.  By using this program,
 the user acknowledges that Gaussian, Inc. is engaged in the
 business of creating and licensing software in the field of
 computational chemistry and represents and warrants to the
 licensee that it is not a competitor of Gaussian, Inc. and that
 it will not use this program in any manner prohibited above.
 ---------------------------------------------------------------
  

 Cite this work as:
 Gaussian 16, Revision A.03,
 M. J. Frisch, G. W. Trucks, H. B. Schlegel, G. E. Scuseria, 
 M. A. Robb, J. R. Cheeseman, G. Scalmani, V. Barone, 
 G. A. Petersson, H. Nakatsuji, X. Li, M. Caricato, A. V. Marenich, 
 J. Bloino, B. G. Janesko, R. Gomperts, B. Mennucci, H. P. Hratchian, 
 J. V. Ortiz, A. F. Izmaylov, J. L. Sonnenberg, D. Williams-Young, 
 F. Ding, F. Lipparini, F. Egidi, J. Goings, B. Peng, A. Petrone, 
 T. Henderson, D. Ranasinghe, V. G. Zakrzewski, J. Gao, N. Rega, 
 G. Zheng, W. Liang, M. Hada, M. Ehara, K. Toyota, R. Fukuda, 
 J. Hasegawa, M. Ishida, T. Nakajima, Y. Honda, O. Kitao, H. Nakai, 
 T. Vreven, K. Throssell, J. A. Montgomery, Jr., J. E. Peralta, 
 F. Ogliaro, M. J. Bearpark, J. J. Heyd, E. N. Brothers, K. N. Kudin, 
 V. N. Staroverov, T. A. Keith, R. Kobayashi, J. Normand, 
 K. Raghavachari, A. P. Rendell, J. C. Burant, S. S. Iyengar, 
 J. Tomasi, M. Cossi, J. M. Millam, M. Klene, C. Adamo, R. Cammi, 
 J. W. Ochterski, R. L. Martin, K. Morokuma, O. Farkas, 
 J. B. Foresman, and D. J. Fox, Gaussian, Inc., Wallingford CT, 2016.
 
 ******************************************
 Gaussian 16:  ES64L-G16RevA.03 25-Dec-2016
                11-Oct-2019 
 ******************************************
 %nproc=4
 Will use up to    4 processors via shared memory.
 %Mem=4GB
 ----------------------------------------------------------------------
 # td=(NStates=1) iop(3/107=0140000000,3/108=0140000000) iop(3/107=0140
 000000,3/108=0140000000) CAM-B3LYP/6-31G(d,p)
 ----------------------------------------------------------------------
 1/38=1,172=1/1;
 2/12=2,17=6,18=5,40=1/2;
 3/5=1,6=6,7=101,11=9,25=1,30=1,74=-40,107=140000000,108=140000000/1,2,3,8;
 4//1;
 5/5=2,38=5/2;
 8/6=1,10=2,108=1/1;
 9/41=1,42=1,70=2/14;
 6/7=2,8=2,9=2,10=2/1;
 99/5=1,9=1/99;
 --
 TD
 --
 Symbolic Z-matrix:
 Charge =  0 Multiplicity = 1
 12                   -5.67435   1.27044   0.23705 
 6                    -4.99915  -2.19375  -0.31267 
 6                    -3.34019   1.15704   2.79193 
 6                    -6.13116   4.54636   0.62541 
 6                    -7.96032   1.25423  -2.34516 
 7                    -4.42596  -0.35878   1.07416 
 6                    -4.2088   -1.66777   0.69872 
 6                    -3.12142  -2.45623   1.50911 
 6                    -2.82354  -1.39252   2.5992 
 6                    -3.56423  -0.08762   2.12701 
 6                    -3.51621  -1.8008    3.9508 
 6                    -1.93985  -2.71661   0.57659 
 6                    -0.95888  -3.53183   1.43779 
 6                     0.24241  -3.82964   0.60151 
 8                     0.52191  -3.43226  -0.57738 
 8                     1.06299  -4.73689   1.21141 
 7                    -4.83093   2.6162    1.48049 
 6                    -3.85309   2.36448   2.45029 
 6                    -3.56217   3.62787   3.05934 
 6                    -4.43868   4.61073   2.52844 
 6                    -5.19088   3.92987   1.47421 
 6                    -2.62659   3.75372   4.17479 
 6                    -4.5151    6.01973   2.85958 
 8                    -3.90759   6.61805   3.73732 
 7                    -6.84503   2.66009  -0.78955 
 6                    -6.95591   3.86887  -0.35764 
 6                    -8.01459   4.57742  -1.13624 
 6                    -8.46457   3.60416  -2.10072 
 6                    -7.71624   2.45128  -1.65971 
 6                    -8.33752   6.06278  -1.22228 
 6                    -9.52558   3.82227  -3.15222 
 6                    -8.82721   4.16635  -4.57285 
 7                    -6.36468  -0.10527  -1.05621 
 6                    -7.31726  -0.05487  -2.05595 
 6                    -7.56245  -1.30819  -2.78196 
 6                    -6.70022  -2.15713  -2.04627 
 6                    -5.97713  -1.41329  -1.10482 
 6                    -8.5023   -1.63221  -3.76799 
 6                    -6.24062  -3.55236  -1.99122 
 8                    -6.59851  -4.46554  -2.64817 
 6                    -5.07589  -3.5237   -0.8977 
 6                    -5.38072  -4.68663   0.15851 
 8                    -5.6462   -4.61336   1.29721 
 8                    -5.16628  -5.86695  -0.45573 
 6                    -5.50239  -6.89556   0.63199 
 6                     2.27249  -5.0319    0.50796 
 6                     3.3528   -4.19003   0.99648 
 6                     3.97325  -3.27104   0.13381 
 6                     3.60254  -3.03789  -1.27658 
 6                     5.05123  -2.32279   0.75403 
 6                     6.38922  -2.6794    0.20153 
 6                     7.66593  -1.80145   0.70564 
 6                     8.96075  -2.00468  -0.02642 
 6                     9.53567  -3.48201   0.03345 
 6                     10.01762  -0.91697   0.43177 
 6                     11.38401  -0.88777  -0.404 
 6                     12.27932   0.17084   0.17256 
 6                     13.67099   0.35085  -0.51039 
 6                     14.62    -0.77591  -0.16443 
 6                     14.19864   1.78585  -0.2559 
 6                     15.41705   2.19641  -1.01356 
 6                     15.85727   3.5971   -0.58497 
 6                     17.24035   4.04002  -1.30688 
 6                     17.14256   4.10807  -2.76347 
 6                     17.76907   5.3155   -0.80736 
 1                    -2.72991   1.23066   3.63416 
 1                    -6.2551    5.62226   0.79971 
 1                    -8.84874   1.09244  -3.15326 
 1                    -3.62438  -3.26254   1.93068 
 1                    -1.72932  -1.13372   2.57566 
 1                    -3.00209  -2.55659   4.46176 
 1                    -3.59744  -0.89257   4.73794 
 1                    -4.62079  -2.28315   3.96123 
 1                    -2.32745  -3.29226  -0.12847 
 1                    -1.347    -1.86267   0.12812 
 1                    -0.68245  -3.08025   2.2879 
 1                    -1.36455  -4.49252   1.71485 
 1                    -1.56508   3.83069   3.85496 
 1                    -2.72462   4.89774   4.76489 
 1                    -2.77311   2.83472   4.90654 
 1                    -5.27655   6.66615   2.24436 
 1                    -10.15758   2.98624  -3.41106 
 1                    -10.34341   4.74339  -2.87853 
 1                    -9.85929   4.06519  -5.40239 
 1                    -8.39515   5.16971  -4.48165 
 1                    -7.90763   3.31812  -4.63561 
 1                    -8.28892  -0.9741   -4.68546 
 1                    -8.50569  -2.74163  -3.76009 
 1                    -9.54855  -1.31486  -3.30093 
 1                    -4.23285  -4.03994  -1.33689 
 1                     2.42324  -6.00413   0.6927 
 1                     2.13001  -5.0143   -0.5946 
 1                     3.50027  -4.33172   1.95071 
 1                     2.4577   -3.58628  -1.38322 
 1                     3.48709  -1.86609  -1.67749 
 1                     4.30214  -3.67925  -2.11937 
 1                     4.88663  -1.29398   0.55018 
 1                     5.16148  -2.45745   1.81029 
 1                     6.83922  -3.76548   0.43535 
 1                     6.44385  -2.60692  -1.00338 
 1                     7.26025  -0.82139   0.50978 
 1                     7.71132  -1.94008   1.73702 
 1                     8.8941   -1.80488  -1.02299 
 1                     8.58432  -4.01941  -0.15868 
 1                     10.38105  -3.63636  -0.65686 
 1                     10.02252  -3.43111   1.07742 
 1                     9.51877   0.21297   0.44755 
 1                     10.25326  -1.05877   1.30401 
 1                     11.84773  -2.03553  -0.31109 
 1                     11.16544  -0.79864  -1.42489 
 1                     11.89571   1.13849   0.05146 
 1                     12.58967   0.04      1.21607 
 1                     13.63428   0.30346  -1.52388 
 1                     14.66524  -0.88424   0.86019 
 1                     14.30769  -1.66207  -0.45529 
 1                     15.64822  -0.6596   -0.55324 
 1                     13.38342   2.54558  -0.59811 
 1                     14.42238   1.83778   0.89691 
 1                     16.12941   1.55368  -0.9347 
 1                     14.94984   2.20255  -2.05854 
 1                     15.0898   4.32868  -0.69765 
 1                     16.28413   3.47889   0.3635 
 1                     18.00145   3.01967  -1.1055 
 1                     16.32825   4.80927  -3.17477 
 1                     17.97622   4.52145  -3.17892 
 1                     16.92567   3.1007   -3.13392 
 1                     17.79428   5.56045   0.23326 
 1                     18.63828   5.6701   -1.27056 
 1                     17.15327   6.28895  -0.98219 
 1                    -5.35193  -7.88145   0.16969 
 1                    -6.62079  -6.60753   0.8081 
 1                    -4.82067  -6.71212   1.44693 
 8                    -7.85694   6.85446  -0.40269 
 1                    -8.95484   6.4092   -2.19342 
 
 Stoichiometry    C54H68MgN4O7
 Framework group  C1[X(C54H68MgN4O7)]
 Deg. of freedom   396
 Full point group                 C1      NOp   1
 Largest Abelian subgroup         C1      NOp   1
 Largest concise Abelian subgroup C1      NOp   1
                         Standard orientation:                         
 ---------------------------------------------------------------------
 Center     Atomic      Atomic             Coordinates (Angstroms)
 Number     Number       Type             X           Y           Z
 ---------------------------------------------------------------------
      1         12           0       -5.667825    1.277213    0.259205
      2          6           0       -5.000674   -2.184052   -0.318070
      3          6           0       -3.328530    1.139917    2.808208
      4          6           0       -6.117305    4.550998    0.673241
      5          6           0       -7.959252    1.285004   -2.318210
      6          7           0       -4.420917   -0.360746    1.081347
      7          6           0       -4.207159   -1.667286    0.695584
      8          6           0       -3.119637   -2.463984    1.497689
      9          6           0       -2.817351   -1.409128    2.595143
     10          6           0       -3.556444   -0.099241    2.134384
     11          6           0       -3.507996   -1.826235    3.945089
     12          6           0       -1.940555   -2.719647    0.560738
     13          6           0       -0.959397   -3.543281    1.413676
     14          6           0        0.239533   -3.837133    0.572631
     15          8           0        0.517345   -3.431420   -0.603819
     16          8           0        1.059592   -4.750586    1.173925
     17          7           0       -4.819122    2.611879    1.510971
     18          6           0       -3.839740    2.350919    2.476768
     19          6           0       -3.545027    3.609096    3.094717
     20          6           0       -4.420704    4.597664    2.573113
     21          6           0       -5.176463    3.926267    1.515372
     22          6           0       -2.606856    3.724676    4.209106
     23          6           0       -4.493619    6.004269    2.915030
     24          8           0       -3.883078    6.594745    3.795973
     25          7           0       -6.837896    2.676875   -0.754400
     26          6           0       -6.945463    3.882577   -0.313144
     27          6           0       -8.004366    4.599080   -1.084131
     28          6           0       -8.458307    3.634012   -2.054974
     29          6           0       -7.711350    2.476365   -1.624265
     30          6           0       -8.324522    6.085673   -1.158280
     31          6           0       -9.521092    3.862153   -3.102549
     32          6           0       -8.825036    4.215573   -4.522022
     33          7           0       -6.363614   -0.087326   -1.042937
     34          6           0       -7.318189   -0.027506   -2.040247
     35          6           0       -7.567400   -1.274824   -2.775174
     36          6           0       -6.705310   -2.130986   -2.047739
     37          6           0       -5.978760   -1.395713   -1.102233
     38          6           0       -8.509956   -1.589536   -3.761631
     39          6           0       -6.248369   -3.527502   -2.004195
     40          8           0       -6.609462   -4.434991   -2.667256
     41          6           0       -5.081285   -3.509396   -0.912959
     42          6           0       -5.386204   -4.679668    0.135090
     43          8           0       -5.649147   -4.614470    1.274867
     44          8           0       -5.175405   -5.855731   -0.488490
     45          6           0       -5.511273   -6.891862    0.592140
     46          6           0        2.267016   -5.042662    0.465717
     47          6           0        3.350025   -4.206632    0.958279
     48          6           0        3.970482   -3.282382    0.101256
     49          6           0        3.597278   -3.037858   -1.306541
     50          6           0        5.051652   -2.340967    0.726331
     51          6           0        6.387768   -2.696038    0.168325
     52          6           0        7.667277   -1.824438    0.676334
     53          6           0        8.960142   -2.024684   -0.059976
     54          6           0        9.532251   -3.503559   -0.012474
     55          6           0       10.020140   -0.942558    0.404165
     56          6           0       11.384818   -0.909741   -0.434249
     57          6           0       12.283442    0.142718    0.148389
     58          6           0       13.674031    0.325132   -0.536130
     59          6           0       14.621525   -0.806075   -0.200698
     60          6           0       14.205064    1.757131   -0.271946
     61          6           0       15.422692    2.170988   -1.029057
     62          6           0       15.866599    3.567538   -0.590846
     63          6           0       17.249037    4.013164   -1.312327
     64          6           0       17.148316    4.092396   -2.768146
     65          6           0       17.781339    5.283786   -0.804313
     66          1           0       -2.716331    1.205973    3.649674
     67          1           0       -6.238740    5.625794    0.855913
     68          1           0       -8.849683    1.131076   -3.125623
     69          1           0       -3.623320   -3.272463    1.914233
     70          1           0       -1.722675   -1.152315    2.571241
     71          1           0       -2.994301   -2.586870    4.449243
     72          1           0       -3.585760   -0.923811    4.739228
     73          1           0       -4.613508   -2.306464    3.954221
     74          1           0       -2.330780   -3.289191   -0.147830
     75          1           0       -1.346956   -1.863512    0.117467
     76          1           0       -0.680289   -3.098677    2.266588
     77          1           0       -1.366397   -4.505229    1.684343
     78          1           0       -1.545869    3.801964    3.887618
     79          1           0       -2.701375    4.864393    4.808029
     80          1           0       -2.753666    2.800470    4.934203
     81          1           0       -5.255077    6.656818    2.306324
     82          1           0      -10.155304    3.029346   -3.366355
     83          1           0      -10.336509    4.782787   -2.820182
     84          1           0       -9.859049    4.122715   -5.350105
     85          1           0       -8.390785    5.217354   -4.424163
     86          1           0       -7.907275    3.366025   -4.593129
     87          1           0       -8.297199   -0.924935   -4.674555
     88          1           0       -8.515542   -2.698970   -3.762091
     89          1           0       -9.554598   -1.273654   -3.289968
     90          1           0       -4.240204   -4.023966   -1.357812
     91          1           0        2.416226   -6.016549    0.642786
     92          1           0        2.122258   -5.016451   -0.636382
     93          1           0        3.499222   -4.355817    1.911101
     94          1           0        2.451125   -3.583173   -1.414894
     95          1           0        3.483314   -1.862840   -1.698354
     96          1           0        4.293825   -3.674218   -2.155630
     97          1           0        4.888667   -1.310323    0.530597
     98          1           0        5.163859   -2.483816    1.781305
     99          1           0        6.836096   -3.784737    0.392988
    100          1           0        6.440008   -2.614568   -1.036120
    101          1           0        7.263138   -0.842124    0.488737
    102          1           0        7.714562   -1.970941    1.706542
    103          1           0        8.891800   -1.817238   -1.054862
    104          1           0        8.579435   -4.037617   -0.206637
    105          1           0       10.375866   -3.654359   -0.705714
    106          1           0       10.021398   -3.461508    1.030815
    107          1           0        9.523571    0.188211    0.429532
    108          1           0       10.257325   -1.091405    1.274813
    109          1           0       11.846453   -2.059087   -0.350981
    110          1           0       11.164286   -0.812479   -1.453976
    111          1           0       11.901508    1.112006    0.035398
    112          1           0       12.595733    0.003385    1.190218
    113          1           0       13.635096    0.285473   -1.549877
    114          1           0       14.668700   -0.922226    0.822979
    115          1           0       14.306839   -1.689394   -0.497576
    116          1           0       15.649150   -0.688863   -0.590798
    117          1           0       13.390639    2.521024   -0.606682
    118          1           0       14.431335    1.799913    0.880748
    119          1           0       16.133946    1.526284   -0.956562
    120          1           0       14.953303    2.185946   -2.072970
    121          1           0       15.100352    4.301454   -0.696379
    122          1           0       16.295220    3.441329    0.355794
    123          1           0       18.008533    2.989825   -1.120260
    124          1           0       16.334546    4.798289   -3.172418
    125          1           0       17.981928    4.507262   -3.182233
    126          1           0       16.928651    3.088287   -3.145729
    127          1           0       17.809224    5.520822    0.238075
    128          1           0       18.650281    5.640162   -1.266668
    129          1           0       17.167110    6.259743   -0.970490
    130          1           0       -5.363749   -7.874525    0.122105
    131          1           0       -6.628723   -6.602961    0.772797
    132          1           0       -4.827479   -6.715927    1.407000
    133          8           0       -7.840652    6.870199   -0.333755
    134          1           0       -8.943200    6.440633   -2.125461
 ---------------------------------------------------------------------
 Rotational constants (GHZ):           0.0346313           0.0081218           0.0071635
 Standard basis: 6-31G(d,p) (6D, 7F)
 There are  1334 symmetry adapted cartesian basis functions of A   symmetry.
 There are  1334 symmetry adapted basis functions of A   symmetry.
  1334 basis functions,  2348 primitive gaussians,  1334 cartesian basis functions
   244 alpha electrons      244 beta electrons
       nuclear repulsion energy      9113.9112272948 Hartrees.
 NAtoms=  134 NActive=  134 NUniq=  134 SFac= 1.00D+00 NAtFMM=   60 NAOKFM=T Big=T
 Integral buffers will be    131072 words long.
 Raffenetti 1 integral format.
 Two-electron integral symmetry is turned on.
 One-electron integrals computed using PRISM.
 NBasis=  1334 RedAO= T EigKep=  3.38D-04  NBF=  1334
 NBsUse=  1334 1.00D-06 EigRej= -1.00D+00 NBFU=  1334
 ExpMin= 4.21D-02 ExpMax= 1.17D+04 ExpMxC= 1.76D+03 IAcc=3 IRadAn=         5 AccDes= 0.00D+00
 Harris functional with IExCor=20419 and IRadAn=       5 diagonalized for initial guess.
 HarFok:  IExCor=20419 AccDes= 0.00D+00 IRadAn=         5 IDoV= 1 UseB2=F ITyADJ=14
 ICtDFT=  3500011 ScaDFX=  1.000000  1.000000  1.000000  1.000000
 FoFCou: FMM=F IPFlag=           0 FMFlag=      100000 FMFlg1=        2001
         NFxFlg=           0 DoJE=T BraDBF=F KetDBF=T FulRan=T
         wScrn=  0.000000 ICntrl=       500 IOpCl=  0 I1Cent=   200000004 NGrid=           0
         NMat0=    1 NMatS0=      1 NMatT0=    0 NMatD0=    1 NMtDS0=    0 NMtDT0=    0
 Petite list used in FoFCou.
 Requested convergence on RMS density matrix=1.00D-08 within 128 cycles.
 Requested convergence on MAX density matrix=1.00D-06.
 Requested convergence on             energy=1.00D-06.
 No special actions if energy rises.
 SCF Done:  E(RCAM-B3LYP) =  -3043.38235559     A.U. after   15 cycles
            NFock= 15  Conv=0.93D-08     -V/T= 2.0090
 DoSCS=F DFT=T ScalE2(SS,OS)=  1.000000  1.000000
 ExpMin= 4.21D-02 ExpMax= 1.17D+04 ExpMxC= 1.76D+03 IAcc=3 IRadAn=         5 AccDes= 0.00D+00
 HarFok:  IExCor=  205 AccDes= 0.00D+00 IRadAn=         5 IDoV=-2 UseB2=F ITyADJ=14
 ICtDFT= 12500011 ScaDFX=  1.000000  1.000000  1.000000  1.000000
 GSVD:  LWork=       -5460 too small for GESVD, short by       25550 words or       25550 for optimal perf.
 Range of M.O.s used for correlation:    71  1334
 NBasis=  1334 NAE=   244 NBE=   244 NFC=    70 NFV=     0
 NROrb=   1264 NOA=   174 NOB=   174 NVA=  1090 NVB=  1090
 Orbital symmetries:
       Occupied  (A) (A) (A) (A) (A) (A) (A) (A) (A) (A) (A) (A)
                 (A) (A) (A) (A) (A) (A) (A) (A) (A) (A) (A) (A)
                 (A) (A) (A) (A) (A) (A) (A) (A) (A) (A) (A) (A)
                 (A) (A) (A) (A) (A) (A) (A) (A) (A) (A) (A) (A)
                 (A) (A) (A) (A) (A) (A) (A) (A) (A) (A) (A) (A)
                 (A) (A) (A) (A) (A) (A) (A) (A) (A) (A) (A) (A)
                 (A) (A) (A) (A) (A) (A) (A) (A) (A) (A) (A) (A)
                 (A) (A) (A) (A) (A) (A) (A) (A) (A) (A) (A) (A)
                 (A) (A) (A) (A) (A) (A) (A) (A) (A) (A) (A) (A)
                 (A) (A) (A) (A) (A) (A) (A) (A) (A) (A) (A) (A)
                 (A) (A) (A) (A) (A) (A) (A) (A) (A) (A) (A) (A)
                 (A) (A) (A) (A) (A) (A) (A) (A) (A) (A) (A) (A)
                 (A) (A) (A) (A) (A) (A) (A) (A) (A) (A) (A) (A)
                 (A) (A) (A) (A) (A) (A) (A) (A) (A) (A) (A) (A)
                 (A) (A) (A) (A) (A) (A) (A) (A) (A) (A) (A) (A)
                 (A) (A) (A) (A) (A) (A) (A) (A) (A) (A) (A) (A)
                 (A) (A) (A) (A) (A) (A) (A) (A) (A) (A) (A) (A)
                 (A) (A) (A) (A) (A) (A) (A) (A) (A) (A) (A) (A)
                 (A) (A) (A) (A) (A) (A) (A) (A) (A) (A) (A) (A)
                 (A) (A) (A) (A) (A) (A) (A) (A) (A) (A) (A) (A)
                 (A) (A) (A) (A)
       Virtual   (A) (A) (A) (A) (A) (A) (A) (A) (A) (A) (A) (A)
                 (A) (A) (A) (A) (A) (A) (A) (A) (A) (A) (A) (A)
                 (A) (A) (A) (A) (A) (A) (A) (A) (A) (A) (A) (A)
                 (A) (A) (A) (A) (A) (A) (A) (A) (A) (A) (A) (A)
                 (A) (A) (A) (A) (A) (A) (A) (A) (A) (A) (A) (A)
                 (A) (A) (A) (A) (A) (A) (A) (A) (A) (A) (A) (A)
                 (A) (A) (A) (A) (A) (A) (A) (A) (A) (A) (A) (A)
                 (A) (A) (A) (A) (A) (A) (A) (A) (A) (A) (A) (A)
                 (A) (A) (A) (A) (A) (A) (A) (A) (A) (A) (A) (A)
                 (A) (A) (A) (A) (A) (A) (A) (A) (A) (A) (A) (A)
                 (A) (A) (A) (A) (A) (A) (A) (A) (A) (A) (A) (A)
                 (A) (A) (A) (A) (A) (A) (A) (A) (A) (A) (A) (A)
                 (A) (A) (A) (A) (A) (A) (A) (A) (A) (A) (A) (A)
                 (A) (A) (A) (A) (A) (A) (A) (A) (A) (A) (A) (A)
                 (A) (A) (A) (A) (A) (A) (A) (A) (A) (A) (A) (A)
                 (A) (A) (A) (A) (A) (A) (A) (A) (A) (A) (A) (A)
                 (A) (A) (A) (A) (A) (A) (A) (A) (A) (A) (A) (A)
                 (A) (A) (A) (A) (A) (A) (A) (A) (A) (A) (A) (A)
                 (A) (A) (A) (A) (A) (A) (A) (A) (A) (A) (A) (A)
                 (A) (A) (A) (A) (A) (A) (A) (A) (A) (A) (A) (A)
                 (A) (A) (A) (A) (A) (A) (A) (A) (A) (A) (A) (A)
                 (A) (A) (A) (A) (A) (A) (A) (A) (A) (A) (A) (A)
                 (A) (A) (A) (A) (A) (A) (A) (A) (A) (A) (A) (A)
                 (A) (A) (A) (A) (A) (A) (A) (A) (A) (A) (A) (A)
                 (A) (A) (A) (A) (A) (A) (A) (A) (A) (A) (A) (A)
                 (A) (A) (A) (A) (A) (A) (A) (A) (A) (A) (A) (A)
                 (A) (A) (A) (A) (A) (A) (A) (A) (A) (A) (A) (A)
                 (A) (A) (A) (A) (A) (A) (A) (A) (A) (A) (A) (A)
                 (A) (A) (A) (A) (A) (A) (A) (A) (A) (A) (A) (A)
                 (A) (A) (A) (A) (A) (A) (A) (A) (A) (A) (A) (A)
                 (A) (A) (A) (A) (A) (A) (A) (A) (A) (A) (A) (A)
                 (A) (A) (A) (A) (A) (A) (A) (A) (A) (A) (A) (A)
                 (A) (A) (A) (A) (A) (A) (A) (A) (A) (A) (A) (A)
                 (A) (A) (A) (A) (A) (A) (A) (A) (A) (A) (A) (A)
                 (A) (A) (A) (A) (A) (A) (A) (A) (A) (A) (A) (A)
                 (A) (A) (A) (A) (A) (A) (A) (A) (A) (A) (A) (A)
                 (A) (A) (A) (A) (A) (A) (A) (A) (A) (A) (A) (A)
                 (A) (A) (A) (A) (A) (A) (A) (A) (A) (A) (A) (A)
                 (A) (A) (A) (A) (A) (A) (A) (A) (A) (A) (A) (A)
                 (A) (A) (A) (A) (A) (A) (A) (A) (A) (A) (A) (A)
                 (A) (A) (A) (A) (A) (A) (A) (A) (A) (A) (A) (A)
                 (A) (A) (A) (A) (A) (A) (A) (A) (A) (A) (A) (A)
                 (A) (A) (A) (A) (A) (A) (A) (A) (A) (A) (A) (A)
                 (A) (A) (A) (A) (A) (A) (A) (A) (A) (A) (A) (A)
                 (A) (A) (A) (A) (A) (A) (A) (A) (A) (A) (A) (A)
                 (A) (A) (A) (A) (A) (A) (A) (A) (A) (A) (A) (A)
                 (A) (A) (A) (A) (A) (A) (A) (A) (A) (A) (A) (A)
                 (A) (A) (A) (A) (A) (A) (A) (A) (A) (A) (A) (A)
                 (A) (A) (A) (A) (A) (A) (A) (A) (A) (A) (A) (A)
                 (A) (A) (A) (A) (A) (A) (A) (A) (A) (A) (A) (A)
                 (A) (A) (A) (A) (A) (A) (A) (A) (A) (A) (A) (A)
                 (A) (A) (A) (A) (A) (A) (A) (A) (A) (A) (A) (A)
                 (A) (A) (A) (A) (A) (A) (A) (A) (A) (A) (A) (A)
                 (A) (A) (A) (A) (A) (A) (A) (A) (A) (A) (A) (A)
                 (A) (A) (A) (A) (A) (A) (A) (A) (A) (A) (A) (A)
                 (A) (A) (A) (A) (A) (A) (A) (A) (A) (A) (A) (A)
                 (A) (A) (A) (A) (A) (A) (A) (A) (A) (A) (A) (A)
                 (A) (A) (A) (A) (A) (A) (A) (A) (A) (A) (A) (A)
                 (A) (A) (A) (A) (A) (A) (A) (A) (A) (A) (A) (A)
                 (A) (A) (A) (A) (A) (A) (A) (A) (A) (A) (A) (A)
                 (A) (A) (A) (A) (A) (A) (A) (A) (A) (A) (A) (A)
                 (A) (A) (A) (A) (A) (A) (A) (A) (A) (A) (A) (A)
                 (A) (A) (A) (A) (A) (A) (A) (A) (A) (A) (A) (A)
                 (A) (A) (A) (A) (A) (A) (A) (A) (A) (A) (A) (A)
                 (A) (A) (A) (A) (A) (A) (A) (A) (A) (A) (A) (A)
                 (A) (A) (A) (A) (A) (A) (A) (A) (A) (A) (A) (A)
                 (A) (A) (A) (A) (A) (A) (A) (A) (A) (A) (A) (A)
                 (A) (A) (A) (A) (A) (A) (A) (A) (A) (A) (A) (A)
                 (A) (A) (A) (A) (A) (A) (A) (A) (A) (A) (A) (A)
                 (A) (A) (A) (A) (A) (A) (A) (A) (A) (A) (A) (A)
                 (A) (A) (A) (A) (A) (A) (A) (A) (A) (A) (A) (A)
                 (A) (A) (A) (A) (A) (A) (A) (A) (A) (A) (A) (A)
                 (A) (A) (A) (A) (A) (A) (A) (A) (A) (A) (A) (A)
                 (A) (A) (A) (A) (A) (A) (A) (A) (A) (A) (A) (A)
                 (A) (A) (A) (A) (A) (A) (A) (A) (A) (A) (A) (A)
                 (A) (A) (A) (A) (A) (A) (A) (A) (A) (A) (A) (A)
                 (A) (A) (A) (A) (A) (A) (A) (A) (A) (A) (A) (A)
                 (A) (A) (A) (A) (A) (A) (A) (A) (A) (A) (A) (A)
                 (A) (A) (A) (A) (A) (A) (A) (A) (A) (A) (A) (A)
                 (A) (A) (A) (A) (A) (A) (A) (A) (A) (A) (A) (A)
                 (A) (A) (A) (A) (A) (A) (A) (A) (A) (A) (A) (A)
                 (A) (A) (A) (A) (A) (A) (A) (A) (A) (A) (A) (A)
                 (A) (A) (A) (A) (A) (A) (A) (A) (A) (A) (A) (A)
                 (A) (A) (A) (A) (A) (A) (A) (A) (A) (A) (A) (A)
                 (A) (A) (A) (A) (A) (A) (A) (A) (A) (A) (A) (A)
                 (A) (A) (A) (A) (A) (A) (A) (A) (A) (A) (A) (A)
                 (A) (A) (A) (A) (A) (A) (A) (A) (A) (A) (A) (A)
                 (A) (A) (A) (A) (A) (A) (A) (A) (A) (A) (A) (A)
                 (A) (A) (A) (A) (A) (A) (A) (A) (A) (A) (A) (A)
                 (A) (A) (A) (A) (A) (A) (A) (A) (A) (A) (A) (A)
                 (A) (A) (A) (A) (A) (A) (A) (A) (A) (A)
     4 initial guesses have been made.
 Convergence on wavefunction:    0.001000000000000
 Iteration     1 Dimension     4 NMult     0 NNew      4
 CISAX will form     4 AO SS matrices at one time.
 Iteration     2 Dimension     6 NMult     4 NNew      2
 Iteration     3 Dimension     8 NMult     6 NNew      2
 Iteration     4 Dimension    10 NMult     8 NNew      2
 Iteration     5 Dimension    12 NMult    10 NNew      2
 Iteration     6 Dimension    14 NMult    12 NNew      2
 Iteration     7 Dimension    16 NMult    14 NNew      2
 Iteration     8 Dimension    18 NMult    16 NNew      2
 Iteration     9 Dimension    20 NMult    18 NNew      2
 ***********************************************************************
 Excited states from <AA,BB:AA,BB> singles matrix:
 ***********************************************************************
 
 Ground to excited state transition densities written to RWF  633
 Ground to excited state transition electric dipole moments (Au):
       state          X           Y           Z        Dip. S.      Osc.
         1        -0.8840     -0.9496     -1.2787      3.3183      0.1660
 Ground to excited state transition velocity dipole moments (Au):
       state          X           Y           Z        Dip. S.      Osc.
         1         0.0639      0.0685      0.0931      0.0174      0.1549
 Ground to excited state transition magnetic dipole moments (Au):
       state          X           Y           Z
         1         1.0716      1.2606     -1.7077
 Ground to excited state transition velocity quadrupole moments (Au):
       state          XX          YY          ZZ          XY          XZ          YZ
         1        -1.3010      0.0797      0.1917     -0.5501     -0.8891      0.2024
 <0|del|b> * <b|rxdel|0> + <0|del|b> * <b|delr+rdel|0>
 Rotatory Strengths (R) in cgs (10**-40 erg-esu-cm/Gauss)
       state          XX          YY          ZZ    R(velocity)    E-M Angle
         1      -296.1699   -124.4151    381.5646    -13.0068       90.76
 1/2[<0|r|b>*<b|rxdel|0> + (<0|rxdel|b>*<b|r|0>)*]
 Rotatory Strengths (R) in cgs (10**-40 erg-esu-cm/Gauss)
       state          XX          YY          ZZ     R(length)
         1       669.8416    846.5447  -1544.2265     -9.2800
  1/2[<0|del|b>*<b|r|0> + (<0|r|b>*<b|del|0>)*] (Au)
       state          X           Y           Z        Dip. S.   Osc.(frdel)
         1        -0.0564     -0.0651     -0.1190      0.2405      0.1604

 Excitation energies and oscillator strengths:
 
 Excited State   1:      Singlet-A      2.0415 eV  607.31 nm  f=0.1660  <S**2>=0.000
     243 -> 246       -0.27815
     244 -> 245        0.64175
 This state for optimization and/or second-order correction.
 Total Energy, E(TD-HF/TD-DFT) =  -3043.30733035    
 Copying the excited state density for this state as the 1-particle RhoCI density.
 SavETr:  write IOETrn=   770 NScale= 10 NData=  16 NLR=1 NState=    1 LETran=      28.
 Hyperfine terms turned off by default for NAtoms > 100.

 **********************************************************************

            Population analysis using the SCF density.

 **********************************************************************

 Orbital symmetries:
       Occupied  (A) (A) (A) (A) (A) (A) (A) (A) (A) (A) (A) (A)
                 (A) (A) (A) (A) (A) (A) (A) (A) (A) (A) (A) (A)
                 (A) (A) (A) (A) (A) (A) (A) (A) (A) (A) (A) (A)
                 (A) (A) (A) (A) (A) (A) (A) (A) (A) (A) (A) (A)
                 (A) (A) (A) (A) (A) (A) (A) (A) (A) (A) (A) (A)
                 (A) (A) (A) (A) (A) (A) (A) (A) (A) (A) (A) (A)
                 (A) (A) (A) (A) (A) (A) (A) (A) (A) (A) (A) (A)
                 (A) (A) (A) (A) (A) (A) (A) (A) (A) (A) (A) (A)
                 (A) (A) (A) (A) (A) (A) (A) (A) (A) (A) (A) (A)
                 (A) (A) (A) (A) (A) (A) (A) (A) (A) (A) (A) (A)
                 (A) (A) (A) (A) (A) (A) (A) (A) (A) (A) (A) (A)
                 (A) (A) (A) (A) (A) (A) (A) (A) (A) (A) (A) (A)
                 (A) (A) (A) (A) (A) (A) (A) (A) (A) (A) (A) (A)
                 (A) (A) (A) (A) (A) (A) (A) (A) (A) (A) (A) (A)
                 (A) (A) (A) (A) (A) (A) (A) (A) (A) (A) (A) (A)
                 (A) (A) (A) (A) (A) (A) (A) (A) (A) (A) (A) (A)
                 (A) (A) (A) (A) (A) (A) (A) (A) (A) (A) (A) (A)
                 (A) (A) (A) (A) (A) (A) (A) (A) (A) (A) (A) (A)
                 (A) (A) (A) (A) (A) (A) (A) (A) (A) (A) (A) (A)
                 (A) (A) (A) (A) (A) (A) (A) (A) (A) (A) (A) (A)
                 (A) (A) (A) (A)
       Virtual   (A) (A) (A) (A) (A) (A) (A) (A) (A) (A) (A) (A)
                 (A) (A) (A) (A) (A) (A) (A) (A) (A) (A) (A) (A)
                 (A) (A) (A) (A) (A) (A) (A) (A) (A) (A) (A) (A)
                 (A) (A) (A) (A) (A) (A) (A) (A) (A) (A) (A) (A)
                 (A) (A) (A) (A) (A) (A) (A) (A) (A) (A) (A) (A)
                 (A) (A) (A) (A) (A) (A) (A) (A) (A) (A) (A) (A)
                 (A) (A) (A) (A) (A) (A) (A) (A) (A) (A) (A) (A)
                 (A) (A) (A) (A) (A) (A) (A) (A) (A) (A) (A) (A)
                 (A) (A) (A) (A) (A) (A) (A) (A) (A) (A) (A) (A)
                 (A) (A) (A) (A) (A) (A) (A) (A) (A) (A) (A) (A)
                 (A) (A) (A) (A) (A) (A) (A) (A) (A) (A) (A) (A)
                 (A) (A) (A) (A) (A) (A) (A) (A) (A) (A) (A) (A)
                 (A) (A) (A) (A) (A) (A) (A) (A) (A) (A) (A) (A)
                 (A) (A) (A) (A) (A) (A) (A) (A) (A) (A) (A) (A)
                 (A) (A) (A) (A) (A) (A) (A) (A) (A) (A) (A) (A)
                 (A) (A) (A) (A) (A) (A) (A) (A) (A) (A) (A) (A)
                 (A) (A) (A) (A) (A) (A) (A) (A) (A) (A) (A) (A)
                 (A) (A) (A) (A) (A) (A) (A) (A) (A) (A) (A) (A)
                 (A) (A) (A) (A) (A) (A) (A) (A) (A) (A) (A) (A)
                 (A) (A) (A) (A) (A) (A) (A) (A) (A) (A) (A) (A)
                 (A) (A) (A) (A) (A) (A) (A) (A) (A) (A) (A) (A)
                 (A) (A) (A) (A) (A) (A) (A) (A) (A) (A) (A) (A)
                 (A) (A) (A) (A) (A) (A) (A) (A) (A) (A) (A) (A)
                 (A) (A) (A) (A) (A) (A) (A) (A) (A) (A) (A) (A)
                 (A) (A) (A) (A) (A) (A) (A) (A) (A) (A) (A) (A)
                 (A) (A) (A) (A) (A) (A) (A) (A) (A) (A) (A) (A)
                 (A) (A) (A) (A) (A) (A) (A) (A) (A) (A) (A) (A)
                 (A) (A) (A) (A) (A) (A) (A) (A) (A) (A) (A) (A)
                 (A) (A) (A) (A) (A) (A) (A) (A) (A) (A) (A) (A)
                 (A) (A) (A) (A) (A) (A) (A) (A) (A) (A) (A) (A)
                 (A) (A) (A) (A) (A) (A) (A) (A) (A) (A) (A) (A)
                 (A) (A) (A) (A) (A) (A) (A) (A) (A) (A) (A) (A)
                 (A) (A) (A) (A) (A) (A) (A) (A) (A) (A) (A) (A)
                 (A) (A) (A) (A) (A) (A) (A) (A) (A) (A) (A) (A)
                 (A) (A) (A) (A) (A) (A) (A) (A) (A) (A) (A) (A)
                 (A) (A) (A) (A) (A) (A) (A) (A) (A) (A) (A) (A)
                 (A) (A) (A) (A) (A) (A) (A) (A) (A) (A) (A) (A)
                 (A) (A) (A) (A) (A) (A) (A) (A) (A) (A) (A) (A)
                 (A) (A) (A) (A) (A) (A) (A) (A) (A) (A) (A) (A)
                 (A) (A) (A) (A) (A) (A) (A) (A) (A) (A) (A) (A)
                 (A) (A) (A) (A) (A) (A) (A) (A) (A) (A) (A) (A)
                 (A) (A) (A) (A) (A) (A) (A) (A) (A) (A) (A) (A)
                 (A) (A) (A) (A) (A) (A) (A) (A) (A) (A) (A) (A)
                 (A) (A) (A) (A) (A) (A) (A) (A) (A) (A) (A) (A)
                 (A) (A) (A) (A) (A) (A) (A) (A) (A) (A) (A) (A)
                 (A) (A) (A) (A) (A) (A) (A) (A) (A) (A) (A) (A)
                 (A) (A) (A) (A) (A) (A) (A) (A) (A) (A) (A) (A)
                 (A) (A) (A) (A) (A) (A) (A) (A) (A) (A) (A) (A)
                 (A) (A) (A) (A) (A) (A) (A) (A) (A) (A) (A) (A)
                 (A) (A) (A) (A) (A) (A) (A) (A) (A) (A) (A) (A)
                 (A) (A) (A) (A) (A) (A) (A) (A) (A) (A) (A) (A)
                 (A) (A) (A) (A) (A) (A) (A) (A) (A) (A) (A) (A)
                 (A) (A) (A) (A) (A) (A) (A) (A) (A) (A) (A) (A)
                 (A) (A) (A) (A) (A) (A) (A) (A) (A) (A) (A) (A)
                 (A) (A) (A) (A) (A) (A) (A) (A) (A) (A) (A) (A)
                 (A) (A) (A) (A) (A) (A) (A) (A) (A) (A) (A) (A)
                 (A) (A) (A) (A) (A) (A) (A) (A) (A) (A) (A) (A)
                 (A) (A) (A) (A) (A) (A) (A) (A) (A) (A) (A) (A)
                 (A) (A) (A) (A) (A) (A) (A) (A) (A) (A) (A) (A)
                 (A) (A) (A) (A) (A) (A) (A) (A) (A) (A) (A) (A)
                 (A) (A) (A) (A) (A) (A) (A) (A) (A) (A) (A) (A)
                 (A) (A) (A) (A) (A) (A) (A) (A) (A) (A) (A) (A)
                 (A) (A) (A) (A) (A) (A) (A) (A) (A) (A) (A) (A)
                 (A) (A) (A) (A) (A) (A) (A) (A) (A) (A) (A) (A)
                 (A) (A) (A) (A) (A) (A) (A) (A) (A) (A) (A) (A)
                 (A) (A) (A) (A) (A) (A) (A) (A) (A) (A) (A) (A)
                 (A) (A) (A) (A) (A) (A) (A) (A) (A) (A) (A) (A)
                 (A) (A) (A) (A) (A) (A) (A) (A) (A) (A) (A) (A)
                 (A) (A) (A) (A) (A) (A) (A) (A) (A) (A) (A) (A)
                 (A) (A) (A) (A) (A) (A) (A) (A) (A) (A) (A) (A)
                 (A) (A) (A) (A) (A) (A) (A) (A) (A) (A) (A) (A)
                 (A) (A) (A) (A) (A) (A) (A) (A) (A) (A) (A) (A)
                 (A) (A) (A) (A) (A) (A) (A) (A) (A) (A) (A) (A)
                 (A) (A) (A) (A) (A) (A) (A) (A) (A) (A) (A) (A)
                 (A) (A) (A) (A) (A) (A) (A) (A) (A) (A) (A) (A)
                 (A) (A) (A) (A) (A) (A) (A) (A) (A) (A) (A) (A)
                 (A) (A) (A) (A) (A) (A) (A) (A) (A) (A) (A) (A)
                 (A) (A) (A) (A) (A) (A) (A) (A) (A) (A) (A) (A)
                 (A) (A) (A) (A) (A) (A) (A) (A) (A) (A) (A) (A)
                 (A) (A) (A) (A) (A) (A) (A) (A) (A) (A) (A) (A)
                 (A) (A) (A) (A) (A) (A) (A) (A) (A) (A) (A) (A)
                 (A) (A) (A) (A) (A) (A) (A) (A) (A) (A) (A) (A)
                 (A) (A) (A) (A) (A) (A) (A) (A) (A) (A) (A) (A)
                 (A) (A) (A) (A) (A) (A) (A) (A) (A) (A) (A) (A)
                 (A) (A) (A) (A) (A) (A) (A) (A) (A) (A) (A) (A)
                 (A) (A) (A) (A) (A) (A) (A) (A) (A) (A) (A) (A)
                 (A) (A) (A) (A) (A) (A) (A) (A) (A) (A) (A) (A)
                 (A) (A) (A) (A) (A) (A) (A) (A) (A) (A) (A) (A)
                 (A) (A) (A) (A) (A) (A) (A) (A) (A) (A) (A) (A)
                 (A) (A) (A) (A) (A) (A) (A) (A) (A) (A) (A) (A)
                 (A) (A) (A) (A) (A) (A) (A) (A) (A) (A)
 The electronic state is 1-A.
 Alpha  occ. eigenvalues --  -46.82436 -19.22503 -19.22376 -19.17880 -19.17669
 Alpha  occ. eigenvalues --  -19.17516 -19.17323 -19.16722 -14.39509 -14.37191
 Alpha  occ. eigenvalues --  -14.36919 -14.36701 -10.35747 -10.34760 -10.31966
 Alpha  occ. eigenvalues --  -10.31129 -10.30309 -10.28652 -10.28189 -10.27354
 Alpha  occ. eigenvalues --  -10.27170 -10.26673 -10.26439 -10.26419 -10.26165
 Alpha  occ. eigenvalues --  -10.26022 -10.25952 -10.25772 -10.25686 -10.25672
 Alpha  occ. eigenvalues --  -10.25443 -10.24924 -10.24774 -10.24742 -10.24605
 Alpha  occ. eigenvalues --  -10.24422 -10.24331 -10.24277 -10.24153 -10.23959
 Alpha  occ. eigenvalues --  -10.23954 -10.23915 -10.23825 -10.23664 -10.23638
 Alpha  occ. eigenvalues --  -10.23346 -10.22966 -10.22837 -10.22790 -10.22707
 Alpha  occ. eigenvalues --  -10.21856 -10.21637 -10.21402 -10.21150 -10.20997
 Alpha  occ. eigenvalues --  -10.20764 -10.20595 -10.20093 -10.20010 -10.19973
 Alpha  occ. eigenvalues --  -10.19902 -10.19737 -10.19521 -10.19252 -10.18772
 Alpha  occ. eigenvalues --  -10.17760  -3.10927  -1.85866  -1.85430  -1.85307
 Alpha  occ. eigenvalues --   -1.14904  -1.12806  -1.09133  -1.06065  -1.05954
 Alpha  occ. eigenvalues --   -1.05387  -1.04967  -1.02641  -0.99872  -0.99298
 Alpha  occ. eigenvalues --   -0.98431  -0.88238  -0.87366  -0.85634  -0.85479
 Alpha  occ. eigenvalues --   -0.85381  -0.84673  -0.84342  -0.84183  -0.83378
 Alpha  occ. eigenvalues --   -0.82837  -0.82715  -0.82122  -0.80446  -0.79675
 Alpha  occ. eigenvalues --   -0.79012  -0.78276  -0.76982  -0.76884  -0.76445
 Alpha  occ. eigenvalues --   -0.75354  -0.74800  -0.73972  -0.72273  -0.71810
 Alpha  occ. eigenvalues --   -0.71573  -0.71349  -0.70440  -0.69820  -0.69462
 Alpha  occ. eigenvalues --   -0.68630  -0.68260  -0.67410  -0.66907  -0.65796
 Alpha  occ. eigenvalues --   -0.65132  -0.64893  -0.63552  -0.62385  -0.61884
 Alpha  occ. eigenvalues --   -0.61562  -0.61225  -0.60784  -0.59736  -0.58934
 Alpha  occ. eigenvalues --   -0.58743  -0.58455  -0.57660  -0.57427  -0.57122
 Alpha  occ. eigenvalues --   -0.56339  -0.55995  -0.55876  -0.54962  -0.54669
 Alpha  occ. eigenvalues --   -0.54059  -0.53780  -0.53518  -0.52953  -0.52502
 Alpha  occ. eigenvalues --   -0.51915  -0.51843  -0.51557  -0.50826  -0.50389
 Alpha  occ. eigenvalues --   -0.50180  -0.49849  -0.49420  -0.49408  -0.49233
 Alpha  occ. eigenvalues --   -0.48980  -0.48708  -0.48468  -0.48409  -0.48339
 Alpha  occ. eigenvalues --   -0.47787  -0.47661  -0.47580  -0.47388  -0.47060
 Alpha  occ. eigenvalues --   -0.46793  -0.46313  -0.46212  -0.46113  -0.45928
 Alpha  occ. eigenvalues --   -0.45878  -0.45425  -0.45113  -0.44833  -0.44736
 Alpha  occ. eigenvalues --   -0.44529  -0.44304  -0.44174  -0.43849  -0.43659
 Alpha  occ. eigenvalues --   -0.43455  -0.43332  -0.43251  -0.42841  -0.42772
 Alpha  occ. eigenvalues --   -0.42496  -0.42253  -0.42224  -0.42069  -0.41882
 Alpha  occ. eigenvalues --   -0.41762  -0.41329  -0.41151  -0.40994  -0.40950
 Alpha  occ. eigenvalues --   -0.40839  -0.40812  -0.40699  -0.40520  -0.40017
 Alpha  occ. eigenvalues --   -0.39927  -0.39844  -0.39749  -0.39661  -0.39555
 Alpha  occ. eigenvalues --   -0.39399  -0.39321  -0.39091  -0.39069  -0.38466
 Alpha  occ. eigenvalues --   -0.38439  -0.38188  -0.37748  -0.37294  -0.37250
 Alpha  occ. eigenvalues --   -0.36751  -0.36582  -0.36010  -0.35910  -0.35804
 Alpha  occ. eigenvalues --   -0.35167  -0.35076  -0.34760  -0.34652  -0.34458
 Alpha  occ. eigenvalues --   -0.34448  -0.34206  -0.33991  -0.33386  -0.33117
 Alpha  occ. eigenvalues --   -0.32579  -0.32342  -0.32256  -0.32130  -0.31843
 Alpha  occ. eigenvalues --   -0.31132  -0.30911  -0.30381  -0.29651  -0.29261
 Alpha  occ. eigenvalues --   -0.28571  -0.28173  -0.27919  -0.27782  -0.27558
 Alpha  occ. eigenvalues --   -0.27070  -0.26510  -0.22616  -0.21717
 Alpha virt. eigenvalues --   -0.08609  -0.06474  -0.01503  -0.00905   0.00954
 Alpha virt. eigenvalues --    0.01695   0.02611   0.02948   0.04038   0.04631
 Alpha virt. eigenvalues --    0.04997   0.05334   0.06374   0.08099   0.08815
 Alpha virt. eigenvalues --    0.09344   0.09893   0.09944   0.10194   0.10461
 Alpha virt. eigenvalues --    0.10473   0.10793   0.10927   0.11171   0.11450
 Alpha virt. eigenvalues --    0.11918   0.12018   0.12455   0.12878   0.12995
 Alpha virt. eigenvalues --    0.13293   0.13482   0.13696   0.13788   0.14019
 Alpha virt. eigenvalues --    0.14070   0.14279   0.14398   0.14577   0.14645
 Alpha virt. eigenvalues --    0.14785   0.14967   0.15149   0.15394   0.15477
 Alpha virt. eigenvalues --    0.15748   0.15846   0.16028   0.16163   0.16214
 Alpha virt. eigenvalues --    0.16922   0.17165   0.17368   0.17696   0.17798
 Alpha virt. eigenvalues --    0.17947   0.18045   0.18331   0.18424   0.18633
 Alpha virt. eigenvalues --    0.18734   0.18913   0.18945   0.19145   0.19316
 Alpha virt. eigenvalues --    0.19451   0.19600   0.19659   0.19969   0.20094
 Alpha virt. eigenvalues --    0.20366   0.20392   0.20565   0.20719   0.20898
 Alpha virt. eigenvalues --    0.21018   0.21170   0.21414   0.21694   0.21850
 Alpha virt. eigenvalues --    0.21966   0.22459   0.22592   0.22697   0.22954
 Alpha virt. eigenvalues --    0.23030   0.23366   0.23809   0.23957   0.24196
 Alpha virt. eigenvalues --    0.24452   0.24464   0.24624   0.24879   0.25101
 Alpha virt. eigenvalues --    0.25409   0.25532   0.25667   0.25780   0.26210
 Alpha virt. eigenvalues --    0.26343   0.26651   0.26798   0.27106   0.27137
 Alpha virt. eigenvalues --    0.27591   0.27732   0.27923   0.28056   0.28225
 Alpha virt. eigenvalues --    0.28351   0.28598   0.29035   0.29307   0.29610
 Alpha virt. eigenvalues --    0.29826   0.29954   0.30347   0.30415   0.30644
 Alpha virt. eigenvalues --    0.31368   0.31475   0.31480   0.32064   0.32506
 Alpha virt. eigenvalues --    0.32538   0.32862   0.32998   0.33423   0.33461
 Alpha virt. eigenvalues --    0.33978   0.34064   0.34657   0.35110   0.35662
 Alpha virt. eigenvalues --    0.36156   0.36808   0.37000   0.37220   0.37441
 Alpha virt. eigenvalues --    0.37912   0.38532   0.38861   0.39382   0.40013
 Alpha virt. eigenvalues --    0.40781   0.41223   0.41716   0.41972   0.42765
 Alpha virt. eigenvalues --    0.42961   0.43629   0.44497   0.45412   0.46768
 Alpha virt. eigenvalues --    0.46904   0.47141   0.47968   0.48806   0.49644
 Alpha virt. eigenvalues --    0.50298   0.50535   0.50803   0.51460   0.51670
 Alpha virt. eigenvalues --    0.51751   0.52192   0.52883   0.52974   0.53302
 Alpha virt. eigenvalues --    0.53422   0.53676   0.53793   0.53899   0.54262
 Alpha virt. eigenvalues --    0.54516   0.54793   0.54863   0.54942   0.55008
 Alpha virt. eigenvalues --    0.55309   0.55670   0.55874   0.55926   0.56145
 Alpha virt. eigenvalues --    0.56320   0.56404   0.56647   0.56806   0.57094
 Alpha virt. eigenvalues --    0.57298   0.57673   0.57776   0.58106   0.58169
 Alpha virt. eigenvalues --    0.58352   0.58837   0.58997   0.59221   0.59453
 Alpha virt. eigenvalues --    0.59656   0.59868   0.60313   0.60565   0.60856
 Alpha virt. eigenvalues --    0.61074   0.61442   0.61663   0.61796   0.62059
 Alpha virt. eigenvalues --    0.62410   0.62508   0.62715   0.62878   0.63186
 Alpha virt. eigenvalues --    0.63741   0.63775   0.63854   0.64059   0.64420
 Alpha virt. eigenvalues --    0.64543   0.64760   0.65093   0.65502   0.65713
 Alpha virt. eigenvalues --    0.65914   0.66710   0.66862   0.67172   0.67278
 Alpha virt. eigenvalues --    0.67523   0.67864   0.67985   0.68274   0.68508
 Alpha virt. eigenvalues --    0.68741   0.69076   0.69372   0.69599   0.69796
 Alpha virt. eigenvalues --    0.70374   0.70426   0.70809   0.71012   0.71294
 Alpha virt. eigenvalues --    0.71568   0.71827   0.71977   0.72362   0.72853
 Alpha virt. eigenvalues --    0.73178   0.73316   0.73560   0.74195   0.74367
 Alpha virt. eigenvalues --    0.74684   0.74957   0.75142   0.75282   0.75597
 Alpha virt. eigenvalues --    0.75844   0.76128   0.76322   0.76505   0.76695
 Alpha virt. eigenvalues --    0.77119   0.77385   0.77670   0.77762   0.77918
 Alpha virt. eigenvalues --    0.78214   0.78387   0.78416   0.78790   0.79190
 Alpha virt. eigenvalues --    0.79261   0.79410   0.79491   0.79647   0.80293
 Alpha virt. eigenvalues --    0.80678   0.80800   0.80902   0.81054   0.81220
 Alpha virt. eigenvalues --    0.81450   0.81812   0.82130   0.82413   0.82536
 Alpha virt. eigenvalues --    0.82891   0.82932   0.83061   0.83379   0.83455
 Alpha virt. eigenvalues --    0.83858   0.84212   0.84254   0.84537   0.84599
 Alpha virt. eigenvalues --    0.84774   0.84877   0.85287   0.85410   0.85727
 Alpha virt. eigenvalues --    0.86097   0.86172   0.86383   0.86565   0.86673
 Alpha virt. eigenvalues --    0.86854   0.87103   0.87181   0.87446   0.87564
 Alpha virt. eigenvalues --    0.87718   0.87934   0.88373   0.88406   0.88612
 Alpha virt. eigenvalues --    0.88879   0.89316   0.89567   0.89646   0.89887
 Alpha virt. eigenvalues --    0.90114   0.90371   0.90495   0.91059   0.91328
 Alpha virt. eigenvalues --    0.91361   0.91533   0.91807   0.91947   0.92104
 Alpha virt. eigenvalues --    0.92366   0.92467   0.92546   0.92969   0.93251
 Alpha virt. eigenvalues --    0.93799   0.93960   0.94231   0.94273   0.94591
 Alpha virt. eigenvalues --    0.94650   0.94838   0.95036   0.95329   0.95487
 Alpha virt. eigenvalues --    0.95834   0.95929   0.96257   0.96651   0.96938
 Alpha virt. eigenvalues --    0.97281   0.97335   0.97504   0.97536   0.97872
 Alpha virt. eigenvalues --    0.98287   0.98445   0.98527   0.98711   0.99103
 Alpha virt. eigenvalues --    0.99417   0.99579   0.99643   0.99763   1.00176
 Alpha virt. eigenvalues --    1.00222   1.00341   1.00848   1.00851   1.01142
 Alpha virt. eigenvalues --    1.01337   1.02011   1.02220   1.02328   1.02557
 Alpha virt. eigenvalues --    1.03034   1.03243   1.03594   1.03850   1.04329
 Alpha virt. eigenvalues --    1.04514   1.04589   1.04693   1.05135   1.05292
 Alpha virt. eigenvalues --    1.05665   1.06164   1.06431   1.06984   1.07166
 Alpha virt. eigenvalues --    1.07638   1.07868   1.08741   1.08910   1.09206
 Alpha virt. eigenvalues --    1.09670   1.10078   1.10420   1.10942   1.11533
 Alpha virt. eigenvalues --    1.11884   1.12307   1.12662   1.13229   1.13913
 Alpha virt. eigenvalues --    1.14147   1.14477   1.15179   1.15986   1.16120
 Alpha virt. eigenvalues --    1.16275   1.16994   1.17772   1.18405   1.18842
 Alpha virt. eigenvalues --    1.19197   1.19507   1.20351   1.21133   1.21342
 Alpha virt. eigenvalues --    1.21548   1.22004   1.22181   1.22510   1.22957
 Alpha virt. eigenvalues --    1.23237   1.23479   1.24591   1.25452   1.25771
 Alpha virt. eigenvalues --    1.26484   1.27166   1.28038   1.28565   1.29086
 Alpha virt. eigenvalues --    1.29418   1.29656   1.29796   1.30022   1.30347
 Alpha virt. eigenvalues --    1.30855   1.31583   1.32349   1.32562   1.32772
 Alpha virt. eigenvalues --    1.33512   1.34093   1.34386   1.34934   1.35425
 Alpha virt. eigenvalues --    1.35768   1.35922   1.36486   1.36752   1.37369
 Alpha virt. eigenvalues --    1.38006   1.38431   1.38886   1.39463   1.39670
 Alpha virt. eigenvalues --    1.40205   1.40701   1.40907   1.41422   1.41998
 Alpha virt. eigenvalues --    1.42322   1.42783   1.43427   1.43710   1.44353
 Alpha virt. eigenvalues --    1.45618   1.46216   1.46682   1.47560   1.48374
 Alpha virt. eigenvalues --    1.48663   1.49134   1.49592   1.49741   1.50296
 Alpha virt. eigenvalues --    1.50638   1.50682   1.51188   1.51352   1.51728
 Alpha virt. eigenvalues --    1.51809   1.51856   1.52257   1.52795   1.53484
 Alpha virt. eigenvalues --    1.54020   1.54276   1.54499   1.54654   1.55449
 Alpha virt. eigenvalues --    1.55658   1.56553   1.56921   1.57305   1.57858
 Alpha virt. eigenvalues --    1.58287   1.58917   1.58997   1.59902   1.60117
 Alpha virt. eigenvalues --    1.60465   1.60980   1.61437   1.62420   1.62773
 Alpha virt. eigenvalues --    1.63041   1.63164   1.63645   1.63895   1.64171
 Alpha virt. eigenvalues --    1.64255   1.65328   1.65533   1.65917   1.66219
 Alpha virt. eigenvalues --    1.66429   1.66707   1.66871   1.67547   1.67948
 Alpha virt. eigenvalues --    1.68723   1.68807   1.69310   1.69637   1.69922
 Alpha virt. eigenvalues --    1.70413   1.70957   1.71931   1.72309   1.72412
 Alpha virt. eigenvalues --    1.72734   1.73314   1.73352   1.73865   1.74052
 Alpha virt. eigenvalues --    1.74404   1.74695   1.74957   1.75062   1.75291
 Alpha virt. eigenvalues --    1.75938   1.76222   1.77049   1.77301   1.77426
 Alpha virt. eigenvalues --    1.78025   1.78427   1.78851   1.79003   1.79250
 Alpha virt. eigenvalues --    1.79305   1.79622   1.79899   1.80337   1.80669
 Alpha virt. eigenvalues --    1.80961   1.81879   1.82060   1.82135   1.82717
 Alpha virt. eigenvalues --    1.82756   1.83162   1.83275   1.83512   1.83647
 Alpha virt. eigenvalues --    1.84320   1.84529   1.84744   1.84822   1.84908
 Alpha virt. eigenvalues --    1.85198   1.85470   1.85713   1.85860   1.86105
 Alpha virt. eigenvalues --    1.86172   1.86663   1.87035   1.87426   1.87799
 Alpha virt. eigenvalues --    1.88164   1.88202   1.88529   1.88957   1.89110
 Alpha virt. eigenvalues --    1.89593   1.89846   1.90069   1.90361   1.90451
 Alpha virt. eigenvalues --    1.90630   1.90733   1.91158   1.91410   1.91753
 Alpha virt. eigenvalues --    1.92064   1.92107   1.92821   1.93027   1.93096
 Alpha virt. eigenvalues --    1.93300   1.93588   1.93639   1.93981   1.94348
 Alpha virt. eigenvalues --    1.94599   1.94672   1.94996   1.95031   1.95449
 Alpha virt. eigenvalues --    1.95484   1.96081   1.96139   1.96758   1.96862
 Alpha virt. eigenvalues --    1.97033   1.97466   1.97992   1.98494   1.98659
 Alpha virt. eigenvalues --    1.99058   1.99340   1.99588   1.99711   2.00194
 Alpha virt. eigenvalues --    2.00453   2.00551   2.00744   2.00937   2.01652
 Alpha virt. eigenvalues --    2.01878   2.02260   2.02475   2.02809   2.02898
 Alpha virt. eigenvalues --    2.03088   2.03624   2.04002   2.04384   2.04504
 Alpha virt. eigenvalues --    2.04954   2.04971   2.05307   2.05491   2.05729
 Alpha virt. eigenvalues --    2.06115   2.06224   2.06476   2.06665   2.06741
 Alpha virt. eigenvalues --    2.07321   2.07930   2.08017   2.08268   2.08383
 Alpha virt. eigenvalues --    2.08823   2.09236   2.09382   2.09945   2.10172
 Alpha virt. eigenvalues --    2.10444   2.10564   2.11183   2.11392   2.12273
 Alpha virt. eigenvalues --    2.12300   2.12574   2.12625   2.13022   2.13131
 Alpha virt. eigenvalues --    2.13603   2.13684   2.13786   2.14012   2.14560
 Alpha virt. eigenvalues --    2.15520   2.15626   2.16044   2.16586   2.16910
 Alpha virt. eigenvalues --    2.17007   2.17928   2.18122   2.18484   2.19334
 Alpha virt. eigenvalues --    2.19429   2.20196   2.20590   2.20762   2.20824
 Alpha virt. eigenvalues --    2.21374   2.21733   2.22110   2.23300   2.23374
 Alpha virt. eigenvalues --    2.23417   2.23914   2.24233   2.24646   2.24964
 Alpha virt. eigenvalues --    2.25009   2.25230   2.26084   2.26341   2.26576
 Alpha virt. eigenvalues --    2.26622   2.26920   2.27240   2.27469   2.27719
 Alpha virt. eigenvalues --    2.28311   2.29050   2.29389   2.29483   2.29688
 Alpha virt. eigenvalues --    2.30206   2.30708   2.30829   2.31344   2.31513
 Alpha virt. eigenvalues --    2.32071   2.32209   2.32791   2.32911   2.33428
 Alpha virt. eigenvalues --    2.33529   2.34003   2.34054   2.34112   2.34797
 Alpha virt. eigenvalues --    2.34905   2.35520   2.35712   2.36348   2.36458
 Alpha virt. eigenvalues --    2.37189   2.37309   2.37855   2.38035   2.38379
 Alpha virt. eigenvalues --    2.38690   2.38743   2.39099   2.39226   2.39449
 Alpha virt. eigenvalues --    2.40400   2.40537   2.41112   2.41163   2.41323
 Alpha virt. eigenvalues --    2.41532   2.41614   2.41977   2.42275   2.42342
 Alpha virt. eigenvalues --    2.42422   2.42638   2.43025   2.43312   2.43474
 Alpha virt. eigenvalues --    2.43765   2.44007   2.44500   2.44809   2.44837
 Alpha virt. eigenvalues --    2.45444   2.45685   2.46059   2.46259   2.46777
 Alpha virt. eigenvalues --    2.46847   2.47519   2.47866   2.48029   2.48415
 Alpha virt. eigenvalues --    2.48562   2.48758   2.48920   2.49505   2.49985
 Alpha virt. eigenvalues --    2.50671   2.51081   2.51458   2.52109   2.52678
 Alpha virt. eigenvalues --    2.52782   2.52906   2.53064   2.53530   2.53823
 Alpha virt. eigenvalues --    2.54164   2.54810   2.55037   2.56015   2.56257
 Alpha virt. eigenvalues --    2.56590   2.56642   2.57016   2.57448   2.57733
 Alpha virt. eigenvalues --    2.57844   2.58153   2.58331   2.58605   2.58864
 Alpha virt. eigenvalues --    2.59559   2.59846   2.60264   2.60483   2.60763
 Alpha virt. eigenvalues --    2.61743   2.62138   2.62179   2.62445   2.62649
 Alpha virt. eigenvalues --    2.62809   2.63130   2.63363   2.63974   2.64133
 Alpha virt. eigenvalues --    2.64699   2.64946   2.65569   2.66337   2.66791
 Alpha virt. eigenvalues --    2.66977   2.67306   2.67656   2.67836   2.67955
 Alpha virt. eigenvalues --    2.68095   2.68624   2.68980   2.69138   2.69565
 Alpha virt. eigenvalues --    2.70056   2.70140   2.70395   2.71428   2.71676
 Alpha virt. eigenvalues --    2.71715   2.71792   2.72188   2.72568   2.73065
 Alpha virt. eigenvalues --    2.73396   2.73611   2.73935   2.74059   2.74628
 Alpha virt. eigenvalues --    2.75402   2.75866   2.75964   2.76399   2.76702
 Alpha virt. eigenvalues --    2.77223   2.77574   2.78173   2.78487   2.78898
 Alpha virt. eigenvalues --    2.79156   2.79458   2.80056   2.80324   2.80728
 Alpha virt. eigenvalues --    2.81038   2.81307   2.81822   2.82230   2.82387
 Alpha virt. eigenvalues --    2.82965   2.83101   2.83302   2.83680   2.84318
 Alpha virt. eigenvalues --    2.84447   2.84629   2.85310   2.85807   2.86145
 Alpha virt. eigenvalues --    2.86935   2.87251   2.87610   2.88209   2.88271
 Alpha virt. eigenvalues --    2.88559   2.89094   2.89782   2.90352   2.90610
 Alpha virt. eigenvalues --    2.91099   2.91597   2.92146   2.92472   2.93412
 Alpha virt. eigenvalues --    2.93729   2.94009   2.94486   2.94746   2.95206
 Alpha virt. eigenvalues --    2.95820   2.96084   2.96364   2.96525   2.96737
 Alpha virt. eigenvalues --    2.96909   2.97059   2.97560   2.97712   2.98770
 Alpha virt. eigenvalues --    2.99276   2.99800   2.99997   3.00480   3.00626
 Alpha virt. eigenvalues --    3.00883   3.01178   3.01895   3.02168   3.02424
 Alpha virt. eigenvalues --    3.02845   3.03018   3.03949   3.04101   3.04402
 Alpha virt. eigenvalues --    3.04676   3.05329   3.06040   3.06431   3.06627
 Alpha virt. eigenvalues --    3.07347   3.08032   3.08563   3.10242   3.10291
 Alpha virt. eigenvalues --    3.11480   3.12002   3.12467   3.12633   3.13430
 Alpha virt. eigenvalues --    3.14294   3.14472   3.16822   3.17000   3.17155
 Alpha virt. eigenvalues --    3.18658   3.18830   3.19846   3.19973   3.20457
 Alpha virt. eigenvalues --    3.21816   3.21858   3.22171   3.23366   3.23541
 Alpha virt. eigenvalues --    3.23880   3.24763   3.25639   3.27059   3.27924
 Alpha virt. eigenvalues --    3.27962   3.28767   3.29019   3.31760   3.32326
 Alpha virt. eigenvalues --    3.33164   3.33451   3.35837   3.36016   3.36516
 Alpha virt. eigenvalues --    3.37062   3.37247   3.37617   3.37853   3.38007
 Alpha virt. eigenvalues --    3.39433   3.39833   3.41382   3.41827   3.42341
 Alpha virt. eigenvalues --    3.42570   3.42987   3.43708   3.45049   3.45194
 Alpha virt. eigenvalues --    3.45796   3.47033   3.47510   3.48807   3.49299
 Alpha virt. eigenvalues --    3.50312   3.50572   3.51522   3.55141   3.55934
 Alpha virt. eigenvalues --    3.56149   3.58024   3.58350   3.58578   3.59758
 Alpha virt. eigenvalues --    3.60482   3.60637   3.61246   3.64514   3.64936
 Alpha virt. eigenvalues --    3.66155   3.66457   3.68637   3.69917   3.71882
 Alpha virt. eigenvalues --    3.75367   3.78900   3.80658   3.85720   3.96119
 Alpha virt. eigenvalues --    4.00982   4.04810   4.06623   4.07201   4.09994
 Alpha virt. eigenvalues --    4.11644   4.15867   4.16540   4.18745   4.19615
 Alpha virt. eigenvalues --    4.20964   4.22595   4.22764   4.23613   4.25492
 Alpha virt. eigenvalues --    4.26452   4.28006   4.28866   4.29611   4.30383
 Alpha virt. eigenvalues --    4.30860   4.34694   4.34824   4.35396   4.38318
 Alpha virt. eigenvalues --    4.38920   4.39478   4.41405   4.42617   4.43044
 Alpha virt. eigenvalues --    4.44275   4.45263   4.45968   4.48327   4.50028
 Alpha virt. eigenvalues --    4.51000   4.53385   4.53827   4.54484   4.54870
 Alpha virt. eigenvalues --    4.56338   4.57116   4.58049   4.58916   4.59148
 Alpha virt. eigenvalues --    4.60255   4.62135   4.63951   4.66232   4.67112
 Alpha virt. eigenvalues --    4.68016   4.69204   4.69748   4.70880   4.72971
 Alpha virt. eigenvalues --    4.75714   4.76783   4.78845   4.79936   4.80685
 Alpha virt. eigenvalues --    4.81613   4.84442   4.86190   4.91268   5.00850
          Condensed to atoms (all electrons):
 Mulliken charges:
               1
     1  Mg   0.836706
     2  C    0.113331
     3  C   -0.170859
     4  C   -0.165615
     5  C   -0.181728
     6  N   -0.604602
     7  C    0.267764
     8  C   -0.134256
     9  C   -0.139004
    10  C    0.323252
    11  C   -0.323566
    12  C   -0.163236
    13  C   -0.267842
    14  C    0.602709
    15  O   -0.500351
    16  O   -0.464499
    17  N   -0.770330
    18  C    0.351733
    19  C    0.059409
    20  C   -0.010312
    21  C    0.335842
    22  C   -0.412291
    23  C    0.228899
    24  O   -0.423407
    25  N   -0.646357
    26  C    0.295545
    27  C   -0.081466
    28  C    0.069360
    29  C    0.305866
    30  C    0.243517
    31  C   -0.250925
    32  C   -0.279849
    33  N   -0.708184
    34  C    0.230150
    35  C    0.088750
    36  C   -0.018394
    37  C    0.270359
    38  C   -0.403420
    39  C    0.374223
    40  O   -0.430868
    41  C   -0.382698
    42  C    0.593557
    43  O   -0.455364
    44  O   -0.459562
    45  C   -0.088928
    46  C   -0.003964
    47  C   -0.101093
    48  C    0.151312
    49  C   -0.366560
    50  C   -0.217727
    51  C   -0.187289
    52  C   -0.176722
    53  C   -0.067783
    54  C   -0.313564
    55  C   -0.154257
    56  C   -0.181620
    57  C   -0.158230
    58  C   -0.069710
    59  C   -0.317944
    60  C   -0.173598
    61  C   -0.160034
    62  C   -0.160972
    63  C   -0.033898
    64  C   -0.289023
    65  C   -0.322658
    66  H    0.074819
    67  H    0.133569
    68  H    0.089376
    69  H    0.136955
    70  H    0.109669
    71  H    0.122999
    72  H    0.096417
    73  H    0.121519
    74  H    0.125921
    75  H    0.136929
    76  H    0.149804
    77  H    0.146146
    78  H    0.136962
    79  H    0.140298
    80  H    0.107734
    81  H    0.068539
    82  H    0.122942
    83  H    0.089431
    84  H    0.077018
    85  H    0.130475
    86  H    0.098473
    87  H    0.133746
    88  H    0.158218
    89  H    0.118750
    90  H    0.165596
    91  H    0.109141
    92  H    0.117871
    93  H    0.080253
    94  H    0.138451
    95  H    0.100399
    96  H    0.090718
    97  H    0.108522
    98  H    0.102111
    99  H    0.077160
   100  H    0.071814
   101  H    0.093221
   102  H    0.094967
   103  H    0.093362
   104  H    0.107283
   105  H    0.107947
   106  H    0.092579
   107  H    0.050314
   108  H    0.101473
   109  H    0.057305
   110  H    0.103869
   111  H    0.098173
   112  H    0.090946
   113  H    0.082189
   114  H    0.098811
   115  H    0.112390
   116  H    0.090731
   117  H    0.073252
   118  H    0.060585
   119  H    0.095380
   120  H    0.081010
   121  H    0.093709
   122  H    0.104856
   123  H    0.037851
   124  H    0.080595
   125  H    0.105785
   126  H    0.098310
   127  H    0.101447
   128  H    0.110297
   129  H    0.079903
   130  H    0.125756
   131  H    0.140300
   132  H    0.142637
   133  O   -0.414137
   134  H    0.070430
 Sum of Mulliken charges =  -0.00000
 Mulliken charges with hydrogens summed into heavy atoms:
               1
     1  Mg   0.836706
     2  C    0.113331
     3  C   -0.096040
     4  C   -0.032045
     5  C   -0.092352
     6  N   -0.604602
     7  C    0.267764
     8  C    0.002699
     9  C   -0.029335
    10  C    0.323252
    11  C    0.017369
    12  C    0.099615
    13  C    0.028108
    14  C    0.602709
    15  O   -0.500351
    16  O   -0.464499
    17  N   -0.770330
    18  C    0.351733
    19  C    0.059409
    20  C   -0.010312
    21  C    0.335842
    22  C   -0.027297
    23  C    0.297438
    24  O   -0.423407
    25  N   -0.646357
    26  C    0.295545
    27  C   -0.081466
    28  C    0.069360
    29  C    0.305866
    30  C    0.313946
    31  C   -0.038551
    32  C    0.026117
    33  N   -0.708184
    34  C    0.230150
    35  C    0.088750
    36  C   -0.018394
    37  C    0.270359
    38  C    0.007294
    39  C    0.374223
    40  O   -0.430868
    41  C   -0.217102
    42  C    0.593557
    43  O   -0.455364
    44  O   -0.459562
    45  C    0.319766
    46  C    0.223049
    47  C   -0.020840
    48  C    0.151312
    49  C   -0.036992
    50  C   -0.007094
    51  C   -0.038315
    52  C    0.011466
    53  C    0.025579
    54  C   -0.005755
    55  C   -0.002470
    56  C   -0.020446
    57  C    0.030890
    58  C    0.012479
    59  C   -0.016013
    60  C   -0.039760
    61  C    0.016356
    62  C    0.037593
    63  C    0.003953
    64  C   -0.004333
    65  C   -0.031011
   133  O   -0.414137
 Electronic spatial extent (au):  <R**2>=         147169.3872
 Charge=             -0.0000 electrons
 Dipole moment (field-independent basis, Debye):
    X=              0.2948    Y=             -5.0727    Z=             -0.1505  Tot=              5.0835
 Quadrupole moment (field-independent basis, Debye-Ang):
   XX=           -380.3935   YY=           -438.8055   ZZ=           -398.4855
   XY=             18.3623   XZ=             19.5363   YZ=            -40.7652
 Traceless Quadrupole moment (field-independent basis, Debye-Ang):
   XX=             25.5013   YY=            -32.9107   ZZ=              7.4093
   XY=             18.3623   XZ=             19.5363   YZ=            -40.7652
 Octapole moment (field-independent basis, Debye-Ang**2):
  XXX=           -415.2530  YYY=           -551.2291  ZZZ=             -2.0791  XYY=            255.3840
  XXY=             25.3141  XXZ=           -231.8607  XZZ=            -56.0882  YZZ=            -50.3394
  YYZ=            -83.7986  XYZ=            207.1809
 Hexadecapole moment (field-independent basis, Debye-Ang**3):
 XXXX=        -161343.6186 YYYY=         -31647.5517 ZZZZ=          -9172.6891 XXXY=            469.0235
 XXXZ=           2125.2439 YYYX=           3029.2814 YYYZ=          -1590.8474 ZZZX=            290.0916
 ZZZY=           -381.8882 XXYY=         -33117.8693 XXZZ=         -28502.4070 YYZZ=          -7150.8400
 XXYZ=          -1438.0494 YYXZ=            342.2239 ZZXY=           -147.9387
 N-N= 9.113911227295D+03 E-N=-2.531189136946D+04  KE= 3.016229853465D+03

 Test job not archived.
 1\1\GINC-RYZEN-SSD3\SP\RCAM-B3LYP TD-FC\6-31G(d,p)\C54H68Mg1N4O7\PADAW
 AN\11-Oct-2019\0\\# td=(NStates=1) iop(3/107=0140000000,3/108=01400000
 00) iop(3/107=0140000000,3/108=0140000000) CAM-B3LYP/6-31G(d,p)\\TD\\0
 ,1\Mg,0,-5.6743489415,1.2704419185,0.2370523104\C,0,-4.9991503022,-2.1
 937478381,-0.3126681336\C,0,-3.3401928084,1.1570359884,2.7919345668\C,
 0,-6.1311619119,4.5463579,0.6254127501\C,0,-7.9603217993,1.2542262733,
 -2.3451621897\N,0,-4.425956849,-0.3587840702,1.0741587547\C,0,-4.20880
 44079,-1.6677704786,0.6987222218\C,0,-3.121415266,-2.4562289257,1.5091
 052742\C,0,-2.8235355246,-1.3925221431,2.5991964757\C,0,-3.5642338508,
 -0.0876213898,2.1270072859\C,0,-3.5162146609,-1.8008035218,3.950797779
 2\C,0,-1.9398491781,-2.7166090702,0.5765929648\C,0,-0.9588775313,-3.53
 18307637,1.4377873667\C,0,0.2424093414,-3.8296368044,0.6015083455\O,0,
 0.5219122555,-3.4322605397,-0.5773839726\O,0,1.062993145,-4.7368933066
 ,1.2114057479\N,0,-4.8309339097,2.616200997,1.4804882805\C,0,-3.853087
 3985,2.3644838701,2.4502856319\C,0,-3.5621657203,3.6278712893,3.059336
 4898\C,0,-4.4386844211,4.6107326016,2.5284421155\C,0,-5.1908751917,3.9
 298710823,1.4742135137\C,0,-2.6265880219,3.7537227481,4.1747916686\C,0
 ,-4.5150980404,6.0197293934,2.8595754623\O,0,-3.9075908071,6.618049693
 ,3.7373176317\N,0,-6.8450283027,2.6600859044,-0.7895506114\C,0,-6.9559
 083056,3.8688665039,-0.3576374524\C,0,-8.0145866451,4.5774244672,-1.13
 62377333\C,0,-8.4645659099,3.6041573456,-2.1007190163\C,0,-7.716240514
 6,2.4512811369,-1.6597119177\C,0,-8.3375167426,6.062776187,-1.22228173
 7\C,0,-9.525576921,3.8222726255,-3.1522198548\C,0,-8.8272141751,4.1663
 547817,-4.5728536894\N,0,-6.3646848875,-0.1052655443,-1.0562107131\C,0
 ,-7.3172612557,-0.0548715558,-2.0559498057\C,0,-7.5624537526,-1.308192
 5229,-2.7819607187\C,0,-6.7002195708,-2.1571252843,-2.0462707928\C,0,-
 5.977126128,-1.4132948946,-1.1048166121\C,0,-8.5022956874,-1.632213347
 3,-3.7679936956\C,0,-6.2406177289,-3.55236082,-1.9912226774\O,0,-6.598
 5142469,-4.4655442528,-2.6481710822\C,0,-5.0758861507,-3.5237004226,-0
 .89770209\C,0,-5.380715549,-4.6866341045,0.1585095228\O,0,-5.646200391
 6,-4.6133603441,1.297206084\O,0,-5.1662763258,-5.8669478912,-0.4557287
 175\C,0,-5.502387803,-6.8955614094,0.6319850283\C,0,2.272488222,-5.031
 9043106,0.5079647509\C,0,3.352799815,-4.1900291638,0.9964775476\C,0,3.
 9732467149,-3.2710399741,0.1338070157\C,0,3.6025445934,-3.0378887302,-
 1.2765771622\C,0,5.051231549,-2.3227873263,0.7540292017\C,0,6.38922379
 37,-2.6794008653,0.2015316206\C,0,7.6659319168,-1.8014495005,0.7056362
 541\C,0,8.960746896,-2.0046753011,-0.0264204245\C,0,9.5356699487,-3.48
 20088413,0.0334498873\C,0,10.0176223413,-0.9169719346,0.4317656921\C,0
 ,11.384005703,-0.8877683837,-0.4039991661\C,0,12.2793156202,0.17084171
 17,0.172564104\C,0,13.6709895548,0.3508499549,-0.5103858018\C,0,14.620
 000299,-0.7759069933,-0.164430594\C,0,14.1986358032,1.7858547571,-0.25
 59048453\C,0,15.417045895,2.196407669,-1.0135563506\C,0,15.8572683112,
 3.5971044632,-0.5849691101\C,0,17.240349284,4.0400218438,-1.3068846237
 \C,0,17.1425568454,4.1080656983,-2.7634685711\C,0,17.7690663127,5.3154
 96815,-0.8073601949\H,0,-2.7299087137,1.2306573411,3.6341638848\H,0,-6
 .2551034891,5.6222576062,0.7997089626\H,0,-8.8487352807,1.0924395469,-
 3.1532608049\H,0,-3.6243835032,-3.2625415696,1.9306811289\H,0,-1.72932
 00559,-1.1337210337,2.575658842\H,0,-3.0020899881,-2.5565888201,4.4617
 5972\H,0,-3.5974405368,-0.8925691613,4.7379358234\H,0,-4.6207945912,-2
 .2831473956,3.9612300735\H,0,-2.3274480585,-3.2922587432,-0.1284734711
 \H,0,-1.3470025327,-1.8626653828,0.1281209337\H,0,-0.6824536789,-3.080
 2493205,2.287903009\H,0,-1.3645511767,-4.4925163828,1.7148532833\H,0,-
 1.5650766215,3.8306925937,3.8549614058\H,0,-2.7246234524,4.8977369797,
 4.764892747\H,0,-2.773110306,2.8347244699,4.9065356596\H,0,-5.27655071
 9,6.6661508095,2.2443597574\H,0,-10.157584892,2.986239281,-3.411064358
 1\H,0,-10.3434051384,4.7433881829,-2.8785281435\H,0,-9.8592857284,4.06
 51949335,-5.4023854408\H,0,-8.3951490243,5.1697067161,-4.4816481198\H,
 0,-7.9076306121,3.3181211709,-4.6356134861\H,0,-8.2889164812,-0.974097
 9527,-4.6854595443\H,0,-8.5056915522,-2.7416275679,-3.7600886459\H,0,-
 9.548554935,-1.3148583092,-3.3009269994\H,0,-4.2328506425,-4.039938820
 5,-1.3368869756\H,0,2.4232434573,-6.0041283558,0.6926952264\H,0,2.1300
 137448,-5.0142984059,-0.5946029099\H,0,3.5002721495,-4.331722454,1.950
 7100786\H,0,2.4577007568,-3.5862842495,-1.3832208631\H,0,3.4870933226,
 -1.8660901683,-1.6774902195\H,0,4.3021423882,-3.6792516544,-2.11937086
 3\H,0,4.8866287038,-1.2939758216,0.5501769012\H,0,5.1614846758,-2.4574
 473771,1.8102859089\H,0,6.8392214488,-3.7654797401,0.4353514191\H,0,6.
 4438545459,-2.6069183008,-1.0033809336\H,0,7.2602549568,-0.8213854636,
 0.5097782233\H,0,7.7113232352,-1.9400805912,1.7370180871\H,0,8.8941035
 197,-1.8048787631,-1.0229856367\H,0,8.584322951,-4.0194107125,-0.15867
 96604\H,0,10.3810474455,-3.6363578379,-0.6568557991\H,0,10.0225213135,
 -3.4311142029,1.0774181845\H,0,9.5187710277,0.2129670229,0.4475501188\
 H,0,10.253255423,-1.0587724111,1.304009941\H,0,11.8477299143,-2.035533
 5853,-0.3110854817\H,0,11.165442631,-0.7986427692,-1.424893823\H,0,11.
 8957106046,1.138488278,0.0514555904\H,0,12.5896737907,0.0399951909,1.2
 160698872\H,0,13.6342802287,0.3034647788,-1.5238846272\H,0,14.66523586
 19,-0.8842366364,0.8601916992\H,0,14.3076863396,-1.6620652228,-0.45529
 18507\H,0,15.64821581,-0.6595991581,-0.5532422167\H,0,13.3834165359,2.
 545579177,-0.5981115989\H,0,14.4223789382,1.8377840676,0.8969069046\H,
 0,16.1294145973,1.5536839811,-0.9346999607\H,0,14.9498405675,2.2025541
 682,-2.0585372334\H,0,15.0898003846,4.3286782458,-0.6976517633\H,0,16.
 2841311832,3.4788945309,0.36349625\H,0,18.0014538268,3.0196734585,-1.1
 054996296\H,0,16.3282535458,4.8092674556,-3.1747698368\H,0,17.97622354
 59,4.5214516585,-3.1789224973\H,0,16.9256727675,3.1007011401,-3.133921
 4267\H,0,17.7942754747,5.5604472622,0.2332649907\H,0,18.6382813504,5.6
 701011623,-1.2705639708\H,0,17.1532668776,6.2889483979,-0.9821922805\H
 ,0,-5.3519304944,-7.8814475779,0.1696934316\H,0,-6.620786509,-6.607527
 8394,0.8081043179\H,0,-4.8206702356,-6.7121227879,1.4469291495\O,0,-7.
 8569432859,6.854461947,-0.4026880528\H,0,-8.9548437815,6.4091965646,-2
 .1934150243\\Version=ES64L-G16RevA.03\State=1-A\HF=-3043.3823556\RMSD=
 9.300e-09\PG=C01 [X(C54H68Mg1N4O7)]\\@


 The cat could very well be man's best friend
 but would never stoop to admitting it.
                               -- Doug Larson
 Job cpu time:       1 days  3 hours 21 minutes 45.1 seconds.
 Elapsed time:       0 days  6 hours 51 minutes 41.7 seconds.
 File lengths (MBytes):  RWF=   6825 Int=      0 D2E=      0 Chk=    180 Scr=      1
 Normal termination of Gaussian 16 at Fri Oct 11 07:34:43 2019.
