 Entering Gaussian System, Link 0=g16
 Input=Geometria-121-.com
 Output=Geometria-121-.log
 Initial command:
 /usr/local/g16/l1.exe "/home/padawan/israel-mol/chlorophyll-b/spectra/abs/Gau-27475.inp" -scrdir="/home/padawan/israel-mol/chlorophyll-b/spectra/abs/"
 Entering Link 1 = /usr/local/g16/l1.exe PID=     27477.
  
 Copyright (c) 1988,1990,1992,1993,1995,1998,2003,2009,2016,
            Gaussian, Inc.  All Rights Reserved.
  
 This is part of the Gaussian(R) 16 program.  It is based on
 the Gaussian(R) 09 system (copyright 2009, Gaussian, Inc.),
 the Gaussian(R) 03 system (copyright 2003, Gaussian, Inc.),
 the Gaussian(R) 98 system (copyright 1998, Gaussian, Inc.),
 the Gaussian(R) 94 system (copyright 1995, Gaussian, Inc.),
 the Gaussian 92(TM) system (copyright 1992, Gaussian, Inc.),
 the Gaussian 90(TM) system (copyright 1990, Gaussian, Inc.),
 the Gaussian 88(TM) system (copyright 1988, Gaussian, Inc.),
 the Gaussian 86(TM) system (copyright 1986, Carnegie Mellon
 University), and the Gaussian 82(TM) system (copyright 1983,
 Carnegie Mellon University). Gaussian is a federally registered
 trademark of Gaussian, Inc.
  
 This software contains proprietary and confidential information,
 including trade secrets, belonging to Gaussian, Inc.
  
 This software is provided under written license and may be
 used, copied, transmitted, or stored only in accord with that
 written license.
  
 The following legend is applicable only to US Government
 contracts under FAR:
  
                    RESTRICTED RIGHTS LEGEND
  
 Use, reproduction and disclosure by the US Government is
 subject to restrictions as set forth in subparagraphs (a)
 and (c) of the Commercial Computer Software - Restricted
 Rights clause in FAR 52.227-19.
  
 Gaussian, Inc.
 340 Quinnipiac St., Bldg. 40, Wallingford CT 06492
  
  
 ---------------------------------------------------------------
 Warning -- This program may not be used in any manner that
 competes with the business of Gaussian, Inc. or will provide
 assistance to any competitor of Gaussian, Inc.  The licensee
 of this program is prohibited from giving any competitor of
 Gaussian, Inc. access to this program.  By using this program,
 the user acknowledges that Gaussian, Inc. is engaged in the
 business of creating and licensing software in the field of
 computational chemistry and represents and warrants to the
 licensee that it is not a competitor of Gaussian, Inc. and that
 it will not use this program in any manner prohibited above.
 ---------------------------------------------------------------
  

 Cite this work as:
 Gaussian 16, Revision A.03,
 M. J. Frisch, G. W. Trucks, H. B. Schlegel, G. E. Scuseria, 
 M. A. Robb, J. R. Cheeseman, G. Scalmani, V. Barone, 
 G. A. Petersson, H. Nakatsuji, X. Li, M. Caricato, A. V. Marenich, 
 J. Bloino, B. G. Janesko, R. Gomperts, B. Mennucci, H. P. Hratchian, 
 J. V. Ortiz, A. F. Izmaylov, J. L. Sonnenberg, D. Williams-Young, 
 F. Ding, F. Lipparini, F. Egidi, J. Goings, B. Peng, A. Petrone, 
 T. Henderson, D. Ranasinghe, V. G. Zakrzewski, J. Gao, N. Rega, 
 G. Zheng, W. Liang, M. Hada, M. Ehara, K. Toyota, R. Fukuda, 
 J. Hasegawa, M. Ishida, T. Nakajima, Y. Honda, O. Kitao, H. Nakai, 
 T. Vreven, K. Throssell, J. A. Montgomery, Jr., J. E. Peralta, 
 F. Ogliaro, M. J. Bearpark, J. J. Heyd, E. N. Brothers, K. N. Kudin, 
 V. N. Staroverov, T. A. Keith, R. Kobayashi, J. Normand, 
 K. Raghavachari, A. P. Rendell, J. C. Burant, S. S. Iyengar, 
 J. Tomasi, M. Cossi, J. M. Millam, M. Klene, C. Adamo, R. Cammi, 
 J. W. Ochterski, R. L. Martin, K. Morokuma, O. Farkas, 
 J. B. Foresman, and D. J. Fox, Gaussian, Inc., Wallingford CT, 2016.
 
 ******************************************
 Gaussian 16:  ES64L-G16RevA.03 25-Dec-2016
                 9-Oct-2019 
 ******************************************
 %nproc=4
 Will use up to    4 processors via shared memory.
 %Mem=4GB
 ----------------------------------------------------------------------
 # td=(NStates=1) iop(3/107=0140000000,3/108=0140000000) iop(3/107=0140
 000000,3/108=0140000000) CAM-B3LYP/6-31G(d,p)
 ----------------------------------------------------------------------
 1/38=1,172=1/1;
 2/12=2,17=6,18=5,40=1/2;
 3/5=1,6=6,7=101,11=9,25=1,30=1,74=-40,107=140000000,108=140000000/1,2,3,8;
 4//1;
 5/5=2,38=5/2;
 8/6=1,10=2,108=1/1;
 9/41=1,42=1,70=2/14;
 6/7=2,8=2,9=2,10=2/1;
 99/5=1,9=1/99;
 --
 TD
 --
 Symbolic Z-matrix:
 Charge =  0 Multiplicity = 1
 12                   -5.64773   1.21876   0.31504 
 6                    -4.99137  -2.18098  -0.4077 
 6                    -3.42137   1.14526   2.81034 
 6                    -6.14995   4.56663   0.63682 
 6                    -7.92341   1.13875  -2.38094 
 7                    -4.33673  -0.30455   1.0856 
 6                    -4.19957  -1.60682   0.67353 
 6                    -3.2434   -2.39965   1.48566 
 6                    -3.03776  -1.39366   2.68746 
 6                    -3.69844  -0.09994   2.24114 
 6                    -3.48453  -1.80024   4.10092 
 6                    -1.89118  -2.6618    0.75035 
 6                    -0.92255  -3.57597   1.48033 
 6                     0.33456  -3.84436   0.67931 
 8                     0.45293  -3.41258  -0.44917 
 8                     1.08491  -4.66876   1.2648 
 7                    -5.02929   2.60507   1.57115 
 6                    -4.13074   2.34034   2.675 
 6                    -3.73975   3.64198   3.22362 
 6                    -4.43462   4.651     2.57389 
 6                    -5.28154   3.92451   1.60086 
 6                    -2.7702    3.85665   4.345 
 6                    -4.59583   6.06176   2.81418 
 8                    -4.16017   6.6661    3.72083 
 7                    -6.7908    2.68799  -0.69606 
 6                    -6.89971   3.95666  -0.29296 
 6                    -7.96266   4.61507  -1.23964 
 6                    -8.42763   3.61005  -2.07648 
 6                    -7.72655   2.41448  -1.77134 
 6                    -8.35061   5.99477  -1.18875 
 6                    -9.53639   3.81622  -3.12131 
 6                    -8.86565   3.85767  -4.57392 
 7                    -6.36689  -0.08819  -1.14715 
 6                    -7.305    -0.01612  -2.04207 
 6                    -7.52639  -1.28286  -2.67048 
 6                    -6.64728  -2.18661  -2.03918 
 6                    -5.90997  -1.42305  -1.0966 
 6                    -8.36303  -1.74915  -3.78354 
 6                    -6.13109  -3.55816  -2.06059 
 8                    -6.60314  -4.52534  -2.73397 
 6                    -5.01587  -3.56652  -0.97094 
 6                    -5.37452  -4.64763   0.13961 
 8                    -5.85493  -4.39146   1.19698 
 8                    -4.97336  -5.88323  -0.30252 
 6                    -5.23377  -7.03719   0.49108 
 6                     2.32726  -4.94109   0.57744 
 6                     3.4032   -3.99188   0.87072 
 6                     3.94864  -3.05326  -0.03512 
 6                     3.68735  -3.09527  -1.46111 
 6                     5.0732   -2.17454   0.37372 
 6                     6.46053  -2.65738  -0.08555 
 6                     7.61456  -1.86458   0.62778 
 6                     8.94529  -2.00121   0.01556 
 6                     9.50263  -3.43096   0.06292 
 6                     9.96913  -0.9785    0.37196 
 6                     11.28356  -0.88174  -0.28735 
 6                     12.19072   0.31047   0.12973 
 6                     13.53524   0.44704  -0.62198 
 6                     14.38709  -0.7567   -0.35263 
 6                     14.32169   1.75833  -0.21181 
 6                     15.6073   2.10207  -0.93566 
 6                     16.07698   3.47104  -0.60276 
 6                     17.35236   3.84814  -1.24571 
 6                     17.22226   3.96614  -2.83544 
 6                     17.99299   5.13318  -0.60915 
 1                    -2.7656    1.1825    3.77866 
 1                    -6.38482   5.67728   0.88339 
 1                    -8.76788   1.31136  -3.21694 
 1                    -3.82475  -3.12677   1.86051 
 1                    -1.90043  -1.13728   2.78298 
 1                    -2.97631  -2.63607   4.55297 
 1                    -3.09649  -0.92974   4.71357 
 1                    -4.46524  -2.01615   4.13847 
 1                    -2.2598   -3.19078  -0.18588 
 1                    -1.49033  -1.91903   0.33607 
 1                    -0.63718  -3.15735   2.61008 
 1                    -1.60448  -4.35069   1.78585 
 1                    -1.77041   3.59784   4.10158 
 1                    -2.71111   4.91778   4.78284 
 1                    -2.90085   3.1158    5.17938 
 1                    -5.11035   6.72558   1.87773 
 1                    -10.32815   3.16814  -3.06245 
 1                    -10.10507   4.51953  -3.03132 
 1                    -9.75337   3.89215  -5.1946 
 1                    -8.30951   4.92205  -4.7525 
 1                    -8.19547   2.97899  -4.75735 
 1                    -8.24233  -1.25038  -4.89675 
 1                    -8.48504  -2.89244  -3.95008 
 1                    -9.40404  -1.38871  -3.55678 
 1                    -4.12608  -3.84272  -1.73096 
 1                     2.52647  -5.88229   0.84164 
 1                     2.11099  -5.00483  -0.43642 
 1                     3.57183  -3.68048   2.00317 
 1                     2.74396  -3.51765  -1.86731 
 1                     3.6854   -2.07227  -1.75821 
 1                     4.56091  -3.70363  -1.90682 
 1                     4.81684  -1.18875   0.06329 
 1                     5.04176  -2.06478   1.54285 
 1                     6.47789  -3.63385   0.21843 
 1                     6.50837  -2.37577  -1.14295 
 1                     7.04932  -0.814     0.62289 
 1                     7.56963  -1.98726   1.78698 
 1                     8.6496   -1.68014  -1.11909 
 1                     8.66706  -4.2289   -0.20776 
 1                     10.43467  -3.70959  -0.48908 
 1                     9.86108  -3.67621   1.00001 
 1                     9.38424   0.04292   0.27909 
 1                     10.23867  -1.00013   1.50516 
 1                     12.01964  -1.83475  -0.20193 
 1                     11.24681  -0.87758  -1.39033 
 1                     11.52246   1.15176  -0.06963 
 1                     12.23031   0.28953   1.23872 
 1                     13.29662   0.4307   -1.8128 
 1                     14.87037  -0.65963   0.5286 
 1                     13.7968  -1.63823  -0.73231 
 1                     15.40644  -0.78265  -1.09228 
 1                     13.54711   2.61853  -0.2663 
 1                     14.60928   1.8492    0.87315 
 1                     16.36177   1.30053  -0.72498 
 1                     15.39867   1.88869  -2.08799 
 1                     15.31149   4.20869  -0.57674 
 1                     16.16971   3.69589   0.51224 
 1                     18.04439   2.92189  -1.07562 
 1                     16.49269   4.80222  -3.43937 
 1                     18.17461   4.14714  -3.35919 
 1                     16.85673   2.97567  -3.1986 
 1                     18.11898   4.93068   0.42698 
 1                     19.02268   5.448    -0.99459 
 1                     17.20616   5.95122  -0.72578 
 1                    -4.75647  -7.90231  -0.04626 
 1                    -6.37209  -7.15718   0.66751 
 1                    -4.61416  -6.97255   1.52796 
 8                    -7.76233   6.83688  -0.55647 
 1                    -9.20042   6.36987  -1.65372 
 
 Stoichiometry    C54H68MgN4O7
 Framework group  C1[X(C54H68MgN4O7)]
 Deg. of freedom   396
 Full point group                 C1      NOp   1
 Largest Abelian subgroup         C1      NOp   1
 Largest concise Abelian subgroup C1      NOp   1
                         Standard orientation:                         
 ---------------------------------------------------------------------
 Center     Atomic      Atomic             Coordinates (Angstroms)
 Number     Number       Type             X           Y           Z
 ---------------------------------------------------------------------
      1         12           0       -5.647527    1.218447    0.298771
      2          6           0       -4.988061   -2.188612   -0.385624
      3          6           0       -3.422731    1.174505    2.796153
      4          6           0       -6.152563    4.569302    0.582914
      5          6           0       -7.921400    1.106630   -2.397599
      6          7           0       -4.335844   -0.295151    1.087092
      7          6           0       -4.197411   -1.601828    0.689645
      8          6           0       -3.241145   -2.384810    1.511171
      9          6           0       -3.037065   -1.365332    2.701812
     10          6           0       -3.698461   -0.077183    2.240687
     11          6           0       -3.484438   -1.756490    4.119436
     12          6           0       -1.888253   -2.654076    0.779689
     13          6           0       -0.919386   -3.559288    1.520428
     14          6           0        0.338453   -3.835603    0.723246
     15          8           0        0.457215   -3.416330   -0.409896
     16          8           0        1.089061   -4.652838    1.318369
     17          7           0       -5.030985    2.619153    1.539750
     18          6           0       -4.132936    2.367443    2.647055
     19          6           0       -3.743321    3.675422    3.181393
     20          6           0       -4.438554    4.676590    2.520012
     21          6           0       -5.284280    3.938644    1.554595
     22          6           0       -2.774663    3.903333    4.300927
     23          6           0       -4.601008    6.089819    2.744470
     24          8           0       -4.166404    6.704565    3.644604
     25          7           0       -6.791090    2.675426   -0.729367
     26          6           0       -6.901246    3.948419   -0.340496
     27          6           0       -7.964093    4.595411   -1.295128
     28          6           0       -8.427741    3.580765   -2.121014
     29          6           0       -7.725929    2.389219   -1.802132
     30          6           0       -8.353144    5.975289   -1.259862
     31          6           0       -9.535980    3.774417   -3.168785
     32          6           0       -8.864332    3.800208   -4.621345
     33          7           0       -6.364723   -0.105276   -1.149225
     34          6           0       -7.302314   -0.043911   -2.045491
     35          6           0       -7.522313   -1.317749   -2.659891
     36          6           0       -6.642914   -2.213718   -2.018000
     37          6           0       -5.906803   -1.439124   -1.083511
     38          6           0       -8.357871   -1.797061   -3.768216
     39          6           0       -6.125637   -3.585019   -2.023797
     40          8           0       -6.596508   -4.560010   -2.686661
     41          6           0       -5.011120   -3.580368   -0.933409
     42          6           0       -5.369654   -4.649314    0.188884
     43          8           0       -5.850943   -4.381755    1.243026
     44          8           0       -4.967240   -5.889448   -0.239196
     45          6           0       -5.227271   -7.034695    0.567049
     46          6           0        2.332075   -4.931834    0.634880
     47          6           0        3.407089   -3.978576    0.918256
     48          6           0        3.952385   -3.049678    0.002359
     49          6           0        3.692050   -3.107783   -1.423237
     50          6           0        5.075996   -2.165580    0.402102
     51          6           0        6.463995   -2.652415   -0.050872
     52          6           0        7.616943   -1.850810    0.654313
     53          6           0        8.948173   -1.993217    0.044509
     54          6           0        9.506595   -3.421912    0.108151
     55          6           0        9.970990   -0.965791    0.390142
     56          6           0       11.285769   -0.875351   -0.269363
     57          6           0       12.191733    0.322136    0.134985
     58          6           0       13.536632    0.451381   -0.617338
     59          6           0       14.389244   -0.748610   -0.334051
     60          6           0       14.321799    1.767778   -0.221304
     61          6           0       15.607617    2.104436   -0.948116
     62          6           0       16.076013    3.477402   -0.630191
     63          6           0       17.351516    3.848316   -1.276486
     64          6           0       17.222358    3.948494   -2.867512
     65          6           0       17.990733    5.140866   -0.653875
     66          1           0       -2.767618    1.223043    3.764419
     67          1           0       -6.388449    5.682449    0.816938
     68          1           0       -8.765461    1.269249   -3.236011
     69          1           0       -3.822179   -3.108159    1.893729
     70          1           0       -1.899997   -1.107011    2.795200
     71          1           0       -2.975858   -2.586827    4.581091
     72          1           0       -3.097470   -0.878914    4.722598
     73          1           0       -4.465002   -1.972735    4.158758
     74          1           0       -2.255853   -3.193737   -0.150824
     75          1           0       -1.487705   -1.915651    0.357416
     76          1           0       -0.635068   -3.127886    2.645620
     77          1           0       -1.600902   -4.331098    1.834124
     78          1           0       -1.774509    3.642607    4.061041
     79          1           0       -2.716680    4.969317    4.726960
     80          1           0       -2.905278    3.171722    5.143430
     81          1           0       -5.115445    6.742755    1.800356
     82          1           0      -10.327278    3.126407   -3.103216
     83          1           0      -10.105268    4.478233   -3.087006
     84          1           0       -9.751674    3.827069   -5.242938
     85          1           0       -8.308906    4.862967   -4.811409
     86          1           0       -8.193352    2.920058   -4.794537
     87          1           0       -8.236838   -1.310630   -4.886842
     88          1           0       -8.478883   -2.942239   -3.922088
     89          1           0       -9.399306   -1.434934   -3.546158
     90          1           0       -4.120624   -3.864314   -1.689734
     91          1           0        2.531846   -5.869876    0.909675
     92          1           0        2.116510   -5.007037   -0.378344
     93          1           0        3.574738   -3.654445    2.047264
     94          1           0        2.749248   -3.535395   -1.825312
     95          1           0        3.689497   -2.088155   -1.731720
     96          1           0        4.566366   -3.720386   -1.861587
     97          1           0        4.819070   -1.183504    0.080542
     98          1           0        5.043713   -2.042822    1.569914
     99          1           0        6.481912   -3.625422    0.263976
    100          1           0        6.512301   -2.382562   -1.111321
    101          1           0        7.050897   -0.800802    0.637359
    102          1           0        7.571360   -1.960602    1.814784
    103          1           0        8.652972   -1.685032   -1.093835
    104          1           0        8.671825   -4.223471   -0.154163
    105          1           0       10.439214   -3.705935   -0.440117
    106          1           0        9.864627   -3.656421    1.048141
    107          1           0        9.385366    0.054070    0.285528
    108          1           0       10.239819   -0.974582    1.523685
    109          1           0       12.022535   -1.826779   -0.172867
    110          1           0       11.249735   -0.883511   -1.372347
    111          1           0       11.522955    1.160632   -0.074159
    112          1           0       12.230622    0.313588    1.244167
    113          1           0       13.298796    0.421586   -1.808060
    114          1           0       14.871877   -0.641358    0.546349
    115          1           0       13.799883   -1.634786   -0.704263
    116          1           0       15.409097   -0.782006   -1.072712
    117          1           0       13.546591    2.626704   -0.285867
    118          1           0       14.608616    1.870948    0.862765
    119          1           0       16.362566    1.305886   -0.728037
    120          1           0       15.399889    1.878073   -2.098132
    121          1           0       15.309936    4.214690   -0.612879
    122          1           0       16.167846    3.714727    0.482295
    123          1           0       18.044153    2.924562   -1.095643
    124          1           0       16.492525    4.777217   -3.481186
    125          1           0       18.174904    4.124397   -3.392642
    126          1           0       16.857824    2.953751   -3.219849
    127          1           0       18.116209    4.950027    0.384531
    128          1           0       19.020429    5.452180   -1.042137
    129          1           0       17.203347    5.956945   -0.780111
    130          1           0       -4.748951   -7.905377    0.039687
    131          1           0       -6.365612   -7.153611    0.744077
    132          1           0       -4.608381   -6.958024    1.603536
    133          8           0       -7.765934    6.824852   -0.636633
    134          1           0       -9.202945    6.344522   -1.729527
 ---------------------------------------------------------------------
 Rotational constants (GHZ):           0.0347712           0.0080837           0.0071600
 Standard basis: 6-31G(d,p) (6D, 7F)
 There are  1334 symmetry adapted cartesian basis functions of A   symmetry.
 There are  1334 symmetry adapted basis functions of A   symmetry.
  1334 basis functions,  2348 primitive gaussians,  1334 cartesian basis functions
   244 alpha electrons      244 beta electrons
       nuclear repulsion energy      9110.1273009693 Hartrees.
 NAtoms=  134 NActive=  134 NUniq=  134 SFac= 1.00D+00 NAtFMM=   60 NAOKFM=T Big=T
 Integral buffers will be    131072 words long.
 Raffenetti 1 integral format.
 Two-electron integral symmetry is turned on.
 One-electron integrals computed using PRISM.
 NBasis=  1334 RedAO= T EigKep=  3.36D-04  NBF=  1334
 NBsUse=  1334 1.00D-06 EigRej= -1.00D+00 NBFU=  1334
 ExpMin= 4.21D-02 ExpMax= 1.17D+04 ExpMxC= 1.76D+03 IAcc=3 IRadAn=         5 AccDes= 0.00D+00
 Harris functional with IExCor=20419 and IRadAn=       5 diagonalized for initial guess.
 HarFok:  IExCor=20419 AccDes= 0.00D+00 IRadAn=         5 IDoV= 1 UseB2=F ITyADJ=14
 ICtDFT=  3500011 ScaDFX=  1.000000  1.000000  1.000000  1.000000
 FoFCou: FMM=F IPFlag=           0 FMFlag=      100000 FMFlg1=        2001
         NFxFlg=           0 DoJE=T BraDBF=F KetDBF=T FulRan=T
         wScrn=  0.000000 ICntrl=       500 IOpCl=  0 I1Cent=   200000004 NGrid=           0
         NMat0=    1 NMatS0=      1 NMatT0=    0 NMatD0=    1 NMtDS0=    0 NMtDT0=    0
 Petite list used in FoFCou.
 Requested convergence on RMS density matrix=1.00D-08 within 128 cycles.
 Requested convergence on MAX density matrix=1.00D-06.
 Requested convergence on             energy=1.00D-06.
 No special actions if energy rises.
 SCF Done:  E(RCAM-B3LYP) =  -3043.45737408     A.U. after   16 cycles
            NFock= 16  Conv=0.67D-08     -V/T= 2.0091
 DoSCS=F DFT=T ScalE2(SS,OS)=  1.000000  1.000000
 ExpMin= 4.21D-02 ExpMax= 1.17D+04 ExpMxC= 1.76D+03 IAcc=3 IRadAn=         5 AccDes= 0.00D+00
 HarFok:  IExCor=  205 AccDes= 0.00D+00 IRadAn=         5 IDoV=-2 UseB2=F ITyADJ=14
 ICtDFT= 12500011 ScaDFX=  1.000000  1.000000  1.000000  1.000000
 GSVD:  LWork=       -5460 too small for GESVD, short by       25550 words or       25550 for optimal perf.
 Range of M.O.s used for correlation:    71  1334
 NBasis=  1334 NAE=   244 NBE=   244 NFC=    70 NFV=     0
 NROrb=   1264 NOA=   174 NOB=   174 NVA=  1090 NVB=  1090
 Orbital symmetries:
       Occupied  (A) (A) (A) (A) (A) (A) (A) (A) (A) (A) (A) (A)
                 (A) (A) (A) (A) (A) (A) (A) (A) (A) (A) (A) (A)
                 (A) (A) (A) (A) (A) (A) (A) (A) (A) (A) (A) (A)
                 (A) (A) (A) (A) (A) (A) (A) (A) (A) (A) (A) (A)
                 (A) (A) (A) (A) (A) (A) (A) (A) (A) (A) (A) (A)
                 (A) (A) (A) (A) (A) (A) (A) (A) (A) (A) (A) (A)
                 (A) (A) (A) (A) (A) (A) (A) (A) (A) (A) (A) (A)
                 (A) (A) (A) (A) (A) (A) (A) (A) (A) (A) (A) (A)
                 (A) (A) (A) (A) (A) (A) (A) (A) (A) (A) (A) (A)
                 (A) (A) (A) (A) (A) (A) (A) (A) (A) (A) (A) (A)
                 (A) (A) (A) (A) (A) (A) (A) (A) (A) (A) (A) (A)
                 (A) (A) (A) (A) (A) (A) (A) (A) (A) (A) (A) (A)
                 (A) (A) (A) (A) (A) (A) (A) (A) (A) (A) (A) (A)
                 (A) (A) (A) (A) (A) (A) (A) (A) (A) (A) (A) (A)
                 (A) (A) (A) (A) (A) (A) (A) (A) (A) (A) (A) (A)
                 (A) (A) (A) (A) (A) (A) (A) (A) (A) (A) (A) (A)
                 (A) (A) (A) (A) (A) (A) (A) (A) (A) (A) (A) (A)
                 (A) (A) (A) (A) (A) (A) (A) (A) (A) (A) (A) (A)
                 (A) (A) (A) (A) (A) (A) (A) (A) (A) (A) (A) (A)
                 (A) (A) (A) (A) (A) (A) (A) (A) (A) (A) (A) (A)
                 (A) (A) (A) (A)
       Virtual   (A) (A) (A) (A) (A) (A) (A) (A) (A) (A) (A) (A)
                 (A) (A) (A) (A) (A) (A) (A) (A) (A) (A) (A) (A)
                 (A) (A) (A) (A) (A) (A) (A) (A) (A) (A) (A) (A)
                 (A) (A) (A) (A) (A) (A) (A) (A) (A) (A) (A) (A)
                 (A) (A) (A) (A) (A) (A) (A) (A) (A) (A) (A) (A)
                 (A) (A) (A) (A) (A) (A) (A) (A) (A) (A) (A) (A)
                 (A) (A) (A) (A) (A) (A) (A) (A) (A) (A) (A) (A)
                 (A) (A) (A) (A) (A) (A) (A) (A) (A) (A) (A) (A)
                 (A) (A) (A) (A) (A) (A) (A) (A) (A) (A) (A) (A)
                 (A) (A) (A) (A) (A) (A) (A) (A) (A) (A) (A) (A)
                 (A) (A) (A) (A) (A) (A) (A) (A) (A) (A) (A) (A)
                 (A) (A) (A) (A) (A) (A) (A) (A) (A) (A) (A) (A)
                 (A) (A) (A) (A) (A) (A) (A) (A) (A) (A) (A) (A)
                 (A) (A) (A) (A) (A) (A) (A) (A) (A) (A) (A) (A)
                 (A) (A) (A) (A) (A) (A) (A) (A) (A) (A) (A) (A)
                 (A) (A) (A) (A) (A) (A) (A) (A) (A) (A) (A) (A)
                 (A) (A) (A) (A) (A) (A) (A) (A) (A) (A) (A) (A)
                 (A) (A) (A) (A) (A) (A) (A) (A) (A) (A) (A) (A)
                 (A) (A) (A) (A) (A) (A) (A) (A) (A) (A) (A) (A)
                 (A) (A) (A) (A) (A) (A) (A) (A) (A) (A) (A) (A)
                 (A) (A) (A) (A) (A) (A) (A) (A) (A) (A) (A) (A)
                 (A) (A) (A) (A) (A) (A) (A) (A) (A) (A) (A) (A)
                 (A) (A) (A) (A) (A) (A) (A) (A) (A) (A) (A) (A)
                 (A) (A) (A) (A) (A) (A) (A) (A) (A) (A) (A) (A)
                 (A) (A) (A) (A) (A) (A) (A) (A) (A) (A) (A) (A)
                 (A) (A) (A) (A) (A) (A) (A) (A) (A) (A) (A) (A)
                 (A) (A) (A) (A) (A) (A) (A) (A) (A) (A) (A) (A)
                 (A) (A) (A) (A) (A) (A) (A) (A) (A) (A) (A) (A)
                 (A) (A) (A) (A) (A) (A) (A) (A) (A) (A) (A) (A)
                 (A) (A) (A) (A) (A) (A) (A) (A) (A) (A) (A) (A)
                 (A) (A) (A) (A) (A) (A) (A) (A) (A) (A) (A) (A)
                 (A) (A) (A) (A) (A) (A) (A) (A) (A) (A) (A) (A)
                 (A) (A) (A) (A) (A) (A) (A) (A) (A) (A) (A) (A)
                 (A) (A) (A) (A) (A) (A) (A) (A) (A) (A) (A) (A)
                 (A) (A) (A) (A) (A) (A) (A) (A) (A) (A) (A) (A)
                 (A) (A) (A) (A) (A) (A) (A) (A) (A) (A) (A) (A)
                 (A) (A) (A) (A) (A) (A) (A) (A) (A) (A) (A) (A)
                 (A) (A) (A) (A) (A) (A) (A) (A) (A) (A) (A) (A)
                 (A) (A) (A) (A) (A) (A) (A) (A) (A) (A) (A) (A)
                 (A) (A) (A) (A) (A) (A) (A) (A) (A) (A) (A) (A)
                 (A) (A) (A) (A) (A) (A) (A) (A) (A) (A) (A) (A)
                 (A) (A) (A) (A) (A) (A) (A) (A) (A) (A) (A) (A)
                 (A) (A) (A) (A) (A) (A) (A) (A) (A) (A) (A) (A)
                 (A) (A) (A) (A) (A) (A) (A) (A) (A) (A) (A) (A)
                 (A) (A) (A) (A) (A) (A) (A) (A) (A) (A) (A) (A)
                 (A) (A) (A) (A) (A) (A) (A) (A) (A) (A) (A) (A)
                 (A) (A) (A) (A) (A) (A) (A) (A) (A) (A) (A) (A)
                 (A) (A) (A) (A) (A) (A) (A) (A) (A) (A) (A) (A)
                 (A) (A) (A) (A) (A) (A) (A) (A) (A) (A) (A) (A)
                 (A) (A) (A) (A) (A) (A) (A) (A) (A) (A) (A) (A)
                 (A) (A) (A) (A) (A) (A) (A) (A) (A) (A) (A) (A)
                 (A) (A) (A) (A) (A) (A) (A) (A) (A) (A) (A) (A)
                 (A) (A) (A) (A) (A) (A) (A) (A) (A) (A) (A) (A)
                 (A) (A) (A) (A) (A) (A) (A) (A) (A) (A) (A) (A)
                 (A) (A) (A) (A) (A) (A) (A) (A) (A) (A) (A) (A)
                 (A) (A) (A) (A) (A) (A) (A) (A) (A) (A) (A) (A)
                 (A) (A) (A) (A) (A) (A) (A) (A) (A) (A) (A) (A)
                 (A) (A) (A) (A) (A) (A) (A) (A) (A) (A) (A) (A)
                 (A) (A) (A) (A) (A) (A) (A) (A) (A) (A) (A) (A)
                 (A) (A) (A) (A) (A) (A) (A) (A) (A) (A) (A) (A)
                 (A) (A) (A) (A) (A) (A) (A) (A) (A) (A) (A) (A)
                 (A) (A) (A) (A) (A) (A) (A) (A) (A) (A) (A) (A)
                 (A) (A) (A) (A) (A) (A) (A) (A) (A) (A) (A) (A)
                 (A) (A) (A) (A) (A) (A) (A) (A) (A) (A) (A) (A)
                 (A) (A) (A) (A) (A) (A) (A) (A) (A) (A) (A) (A)
                 (A) (A) (A) (A) (A) (A) (A) (A) (A) (A) (A) (A)
                 (A) (A) (A) (A) (A) (A) (A) (A) (A) (A) (A) (A)
                 (A) (A) (A) (A) (A) (A) (A) (A) (A) (A) (A) (A)
                 (A) (A) (A) (A) (A) (A) (A) (A) (A) (A) (A) (A)
                 (A) (A) (A) (A) (A) (A) (A) (A) (A) (A) (A) (A)
                 (A) (A) (A) (A) (A) (A) (A) (A) (A) (A) (A) (A)
                 (A) (A) (A) (A) (A) (A) (A) (A) (A) (A) (A) (A)
                 (A) (A) (A) (A) (A) (A) (A) (A) (A) (A) (A) (A)
                 (A) (A) (A) (A) (A) (A) (A) (A) (A) (A) (A) (A)
                 (A) (A) (A) (A) (A) (A) (A) (A) (A) (A) (A) (A)
                 (A) (A) (A) (A) (A) (A) (A) (A) (A) (A) (A) (A)
                 (A) (A) (A) (A) (A) (A) (A) (A) (A) (A) (A) (A)
                 (A) (A) (A) (A) (A) (A) (A) (A) (A) (A) (A) (A)
                 (A) (A) (A) (A) (A) (A) (A) (A) (A) (A) (A) (A)
                 (A) (A) (A) (A) (A) (A) (A) (A) (A) (A) (A) (A)
                 (A) (A) (A) (A) (A) (A) (A) (A) (A) (A) (A) (A)
                 (A) (A) (A) (A) (A) (A) (A) (A) (A) (A) (A) (A)
                 (A) (A) (A) (A) (A) (A) (A) (A) (A) (A) (A) (A)
                 (A) (A) (A) (A) (A) (A) (A) (A) (A) (A) (A) (A)
                 (A) (A) (A) (A) (A) (A) (A) (A) (A) (A) (A) (A)
                 (A) (A) (A) (A) (A) (A) (A) (A) (A) (A) (A) (A)
                 (A) (A) (A) (A) (A) (A) (A) (A) (A) (A) (A) (A)
                 (A) (A) (A) (A) (A) (A) (A) (A) (A) (A) (A) (A)
                 (A) (A) (A) (A) (A) (A) (A) (A) (A) (A) (A) (A)
                 (A) (A) (A) (A) (A) (A) (A) (A) (A) (A) (A) (A)
                 (A) (A) (A) (A) (A) (A) (A) (A) (A) (A)
     4 initial guesses have been made.
 Convergence on wavefunction:    0.001000000000000
 Iteration     1 Dimension     4 NMult     0 NNew      4
 CISAX will form     4 AO SS matrices at one time.
 Iteration     2 Dimension     6 NMult     4 NNew      2
 Iteration     3 Dimension     8 NMult     6 NNew      2
 Iteration     4 Dimension    10 NMult     8 NNew      2
 Iteration     5 Dimension    12 NMult    10 NNew      2
 Iteration     6 Dimension    14 NMult    12 NNew      2
 Iteration     7 Dimension    16 NMult    14 NNew      2
 Iteration     8 Dimension    18 NMult    16 NNew      2
 Iteration     9 Dimension    20 NMult    18 NNew      2
 ***********************************************************************
 Excited states from <AA,BB:AA,BB> singles matrix:
 ***********************************************************************
 
 Ground to excited state transition densities written to RWF  633
 Ground to excited state transition electric dipole moments (Au):
       state          X           Y           Z        Dip. S.      Osc.
         1         0.9602      0.9518      1.4681      3.9832      0.1885
 Ground to excited state transition velocity dipole moments (Au):
       state          X           Y           Z        Dip. S.      Osc.
         1        -0.0661     -0.0648     -0.1016      0.0189      0.1774
 Ground to excited state transition magnetic dipole moments (Au):
       state          X           Y           Z
         1        -0.6476     -1.2444      1.1882
 Ground to excited state transition velocity quadrupole moments (Au):
       state          XX          YY          ZZ          XY          XZ          YZ
         1         1.3928     -0.0526     -0.2098      0.4294      1.0132     -0.3244
 <0|del|b> * <b|rxdel|0> + <0|del|b> * <b|delr+rdel|0>
 Rotatory Strengths (R) in cgs (10**-40 erg-esu-cm/Gauss)
       state          XX          YY          ZZ    R(velocity)    E-M Angle
         1       -90.1513    -63.8690    181.0086      8.9961       89.39
 1/2[<0|r|b>*<b|rxdel|0> + (<0|rxdel|b>*<b|r|0>)*]
 Rotatory Strengths (R) in cgs (10**-40 erg-esu-cm/Gauss)
       state          XX          YY          ZZ     R(length)
         1       439.6939    837.6073  -1233.5213     14.5933
  1/2[<0|del|b>*<b|r|0> + (<0|r|b>*<b|del|0>)*] (Au)
       state          X           Y           Z        Dip. S.   Osc.(frdel)
         1        -0.0635     -0.0617     -0.1492      0.2743      0.1829

 Excitation energies and oscillator strengths:
 
 Excited State   1:      Singlet-A      1.9318 eV  641.80 nm  f=0.1885  <S**2>=0.000
     243 -> 246       -0.26258
     244 -> 245        0.65078
 This state for optimization and/or second-order correction.
 Total Energy, E(TD-HF/TD-DFT) =  -3043.38638138    
 Copying the excited state density for this state as the 1-particle RhoCI density.
 SavETr:  write IOETrn=   770 NScale= 10 NData=  16 NLR=1 NState=    1 LETran=      28.
 Hyperfine terms turned off by default for NAtoms > 100.

 **********************************************************************

            Population analysis using the SCF density.

 **********************************************************************

 Orbital symmetries:
       Occupied  (A) (A) (A) (A) (A) (A) (A) (A) (A) (A) (A) (A)
                 (A) (A) (A) (A) (A) (A) (A) (A) (A) (A) (A) (A)
                 (A) (A) (A) (A) (A) (A) (A) (A) (A) (A) (A) (A)
                 (A) (A) (A) (A) (A) (A) (A) (A) (A) (A) (A) (A)
                 (A) (A) (A) (A) (A) (A) (A) (A) (A) (A) (A) (A)
                 (A) (A) (A) (A) (A) (A) (A) (A) (A) (A) (A) (A)
                 (A) (A) (A) (A) (A) (A) (A) (A) (A) (A) (A) (A)
                 (A) (A) (A) (A) (A) (A) (A) (A) (A) (A) (A) (A)
                 (A) (A) (A) (A) (A) (A) (A) (A) (A) (A) (A) (A)
                 (A) (A) (A) (A) (A) (A) (A) (A) (A) (A) (A) (A)
                 (A) (A) (A) (A) (A) (A) (A) (A) (A) (A) (A) (A)
                 (A) (A) (A) (A) (A) (A) (A) (A) (A) (A) (A) (A)
                 (A) (A) (A) (A) (A) (A) (A) (A) (A) (A) (A) (A)
                 (A) (A) (A) (A) (A) (A) (A) (A) (A) (A) (A) (A)
                 (A) (A) (A) (A) (A) (A) (A) (A) (A) (A) (A) (A)
                 (A) (A) (A) (A) (A) (A) (A) (A) (A) (A) (A) (A)
                 (A) (A) (A) (A) (A) (A) (A) (A) (A) (A) (A) (A)
                 (A) (A) (A) (A) (A) (A) (A) (A) (A) (A) (A) (A)
                 (A) (A) (A) (A) (A) (A) (A) (A) (A) (A) (A) (A)
                 (A) (A) (A) (A) (A) (A) (A) (A) (A) (A) (A) (A)
                 (A) (A) (A) (A)
       Virtual   (A) (A) (A) (A) (A) (A) (A) (A) (A) (A) (A) (A)
                 (A) (A) (A) (A) (A) (A) (A) (A) (A) (A) (A) (A)
                 (A) (A) (A) (A) (A) (A) (A) (A) (A) (A) (A) (A)
                 (A) (A) (A) (A) (A) (A) (A) (A) (A) (A) (A) (A)
                 (A) (A) (A) (A) (A) (A) (A) (A) (A) (A) (A) (A)
                 (A) (A) (A) (A) (A) (A) (A) (A) (A) (A) (A) (A)
                 (A) (A) (A) (A) (A) (A) (A) (A) (A) (A) (A) (A)
                 (A) (A) (A) (A) (A) (A) (A) (A) (A) (A) (A) (A)
                 (A) (A) (A) (A) (A) (A) (A) (A) (A) (A) (A) (A)
                 (A) (A) (A) (A) (A) (A) (A) (A) (A) (A) (A) (A)
                 (A) (A) (A) (A) (A) (A) (A) (A) (A) (A) (A) (A)
                 (A) (A) (A) (A) (A) (A) (A) (A) (A) (A) (A) (A)
                 (A) (A) (A) (A) (A) (A) (A) (A) (A) (A) (A) (A)
                 (A) (A) (A) (A) (A) (A) (A) (A) (A) (A) (A) (A)
                 (A) (A) (A) (A) (A) (A) (A) (A) (A) (A) (A) (A)
                 (A) (A) (A) (A) (A) (A) (A) (A) (A) (A) (A) (A)
                 (A) (A) (A) (A) (A) (A) (A) (A) (A) (A) (A) (A)
                 (A) (A) (A) (A) (A) (A) (A) (A) (A) (A) (A) (A)
                 (A) (A) (A) (A) (A) (A) (A) (A) (A) (A) (A) (A)
                 (A) (A) (A) (A) (A) (A) (A) (A) (A) (A) (A) (A)
                 (A) (A) (A) (A) (A) (A) (A) (A) (A) (A) (A) (A)
                 (A) (A) (A) (A) (A) (A) (A) (A) (A) (A) (A) (A)
                 (A) (A) (A) (A) (A) (A) (A) (A) (A) (A) (A) (A)
                 (A) (A) (A) (A) (A) (A) (A) (A) (A) (A) (A) (A)
                 (A) (A) (A) (A) (A) (A) (A) (A) (A) (A) (A) (A)
                 (A) (A) (A) (A) (A) (A) (A) (A) (A) (A) (A) (A)
                 (A) (A) (A) (A) (A) (A) (A) (A) (A) (A) (A) (A)
                 (A) (A) (A) (A) (A) (A) (A) (A) (A) (A) (A) (A)
                 (A) (A) (A) (A) (A) (A) (A) (A) (A) (A) (A) (A)
                 (A) (A) (A) (A) (A) (A) (A) (A) (A) (A) (A) (A)
                 (A) (A) (A) (A) (A) (A) (A) (A) (A) (A) (A) (A)
                 (A) (A) (A) (A) (A) (A) (A) (A) (A) (A) (A) (A)
                 (A) (A) (A) (A) (A) (A) (A) (A) (A) (A) (A) (A)
                 (A) (A) (A) (A) (A) (A) (A) (A) (A) (A) (A) (A)
                 (A) (A) (A) (A) (A) (A) (A) (A) (A) (A) (A) (A)
                 (A) (A) (A) (A) (A) (A) (A) (A) (A) (A) (A) (A)
                 (A) (A) (A) (A) (A) (A) (A) (A) (A) (A) (A) (A)
                 (A) (A) (A) (A) (A) (A) (A) (A) (A) (A) (A) (A)
                 (A) (A) (A) (A) (A) (A) (A) (A) (A) (A) (A) (A)
                 (A) (A) (A) (A) (A) (A) (A) (A) (A) (A) (A) (A)
                 (A) (A) (A) (A) (A) (A) (A) (A) (A) (A) (A) (A)
                 (A) (A) (A) (A) (A) (A) (A) (A) (A) (A) (A) (A)
                 (A) (A) (A) (A) (A) (A) (A) (A) (A) (A) (A) (A)
                 (A) (A) (A) (A) (A) (A) (A) (A) (A) (A) (A) (A)
                 (A) (A) (A) (A) (A) (A) (A) (A) (A) (A) (A) (A)
                 (A) (A) (A) (A) (A) (A) (A) (A) (A) (A) (A) (A)
                 (A) (A) (A) (A) (A) (A) (A) (A) (A) (A) (A) (A)
                 (A) (A) (A) (A) (A) (A) (A) (A) (A) (A) (A) (A)
                 (A) (A) (A) (A) (A) (A) (A) (A) (A) (A) (A) (A)
                 (A) (A) (A) (A) (A) (A) (A) (A) (A) (A) (A) (A)
                 (A) (A) (A) (A) (A) (A) (A) (A) (A) (A) (A) (A)
                 (A) (A) (A) (A) (A) (A) (A) (A) (A) (A) (A) (A)
                 (A) (A) (A) (A) (A) (A) (A) (A) (A) (A) (A) (A)
                 (A) (A) (A) (A) (A) (A) (A) (A) (A) (A) (A) (A)
                 (A) (A) (A) (A) (A) (A) (A) (A) (A) (A) (A) (A)
                 (A) (A) (A) (A) (A) (A) (A) (A) (A) (A) (A) (A)
                 (A) (A) (A) (A) (A) (A) (A) (A) (A) (A) (A) (A)
                 (A) (A) (A) (A) (A) (A) (A) (A) (A) (A) (A) (A)
                 (A) (A) (A) (A) (A) (A) (A) (A) (A) (A) (A) (A)
                 (A) (A) (A) (A) (A) (A) (A) (A) (A) (A) (A) (A)
                 (A) (A) (A) (A) (A) (A) (A) (A) (A) (A) (A) (A)
                 (A) (A) (A) (A) (A) (A) (A) (A) (A) (A) (A) (A)
                 (A) (A) (A) (A) (A) (A) (A) (A) (A) (A) (A) (A)
                 (A) (A) (A) (A) (A) (A) (A) (A) (A) (A) (A) (A)
                 (A) (A) (A) (A) (A) (A) (A) (A) (A) (A) (A) (A)
                 (A) (A) (A) (A) (A) (A) (A) (A) (A) (A) (A) (A)
                 (A) (A) (A) (A) (A) (A) (A) (A) (A) (A) (A) (A)
                 (A) (A) (A) (A) (A) (A) (A) (A) (A) (A) (A) (A)
                 (A) (A) (A) (A) (A) (A) (A) (A) (A) (A) (A) (A)
                 (A) (A) (A) (A) (A) (A) (A) (A) (A) (A) (A) (A)
                 (A) (A) (A) (A) (A) (A) (A) (A) (A) (A) (A) (A)
                 (A) (A) (A) (A) (A) (A) (A) (A) (A) (A) (A) (A)
                 (A) (A) (A) (A) (A) (A) (A) (A) (A) (A) (A) (A)
                 (A) (A) (A) (A) (A) (A) (A) (A) (A) (A) (A) (A)
                 (A) (A) (A) (A) (A) (A) (A) (A) (A) (A) (A) (A)
                 (A) (A) (A) (A) (A) (A) (A) (A) (A) (A) (A) (A)
                 (A) (A) (A) (A) (A) (A) (A) (A) (A) (A) (A) (A)
                 (A) (A) (A) (A) (A) (A) (A) (A) (A) (A) (A) (A)
                 (A) (A) (A) (A) (A) (A) (A) (A) (A) (A) (A) (A)
                 (A) (A) (A) (A) (A) (A) (A) (A) (A) (A) (A) (A)
                 (A) (A) (A) (A) (A) (A) (A) (A) (A) (A) (A) (A)
                 (A) (A) (A) (A) (A) (A) (A) (A) (A) (A) (A) (A)
                 (A) (A) (A) (A) (A) (A) (A) (A) (A) (A) (A) (A)
                 (A) (A) (A) (A) (A) (A) (A) (A) (A) (A) (A) (A)
                 (A) (A) (A) (A) (A) (A) (A) (A) (A) (A) (A) (A)
                 (A) (A) (A) (A) (A) (A) (A) (A) (A) (A) (A) (A)
                 (A) (A) (A) (A) (A) (A) (A) (A) (A) (A) (A) (A)
                 (A) (A) (A) (A) (A) (A) (A) (A) (A) (A) (A) (A)
                 (A) (A) (A) (A) (A) (A) (A) (A) (A) (A) (A) (A)
                 (A) (A) (A) (A) (A) (A) (A) (A) (A) (A) (A) (A)
                 (A) (A) (A) (A) (A) (A) (A) (A) (A) (A)
 The electronic state is 1-A.
 Alpha  occ. eigenvalues --  -46.81655 -19.23528 -19.23225 -19.19171 -19.16973
 Alpha  occ. eigenvalues --  -19.16822 -19.16272 -19.15659 -14.39607 -14.36905
 Alpha  occ. eigenvalues --  -14.36437 -14.36302 -10.36806 -10.34644 -10.31740
 Alpha  occ. eigenvalues --  -10.30271 -10.29723 -10.28379 -10.28017 -10.27430
 Alpha  occ. eigenvalues --  -10.26972 -10.26881 -10.26480 -10.26396 -10.26329
 Alpha  occ. eigenvalues --  -10.25793 -10.25591 -10.25404 -10.24930 -10.24731
 Alpha  occ. eigenvalues --  -10.24719 -10.24583 -10.24533 -10.24383 -10.24176
 Alpha  occ. eigenvalues --  -10.24136 -10.24051 -10.23618 -10.23488 -10.23459
 Alpha  occ. eigenvalues --  -10.23368 -10.23076 -10.22977 -10.22906 -10.22748
 Alpha  occ. eigenvalues --  -10.22725 -10.22688 -10.22678 -10.22340 -10.22310
 Alpha  occ. eigenvalues --  -10.22075 -10.21840 -10.21788 -10.21762 -10.21732
 Alpha  occ. eigenvalues --  -10.21679 -10.21674 -10.21670 -10.21582 -10.21524
 Alpha  occ. eigenvalues --  -10.21452 -10.21176 -10.21157 -10.20985 -10.20921
 Alpha  occ. eigenvalues --  -10.20494  -3.10148  -1.85091  -1.84601  -1.84569
 Alpha  occ. eigenvalues --   -1.17103  -1.14277  -1.08873  -1.07096  -1.06578
 Alpha  occ. eigenvalues --   -1.05209  -1.04044  -1.01143  -1.00389  -0.98557
 Alpha  occ. eigenvalues --   -0.97194  -0.89695  -0.87259  -0.86051  -0.85762
 Alpha  occ. eigenvalues --   -0.85483  -0.85145  -0.84090  -0.83458  -0.83125
 Alpha  occ. eigenvalues --   -0.82496  -0.82482  -0.82420  -0.80764  -0.79814
 Alpha  occ. eigenvalues --   -0.79143  -0.78261  -0.77898  -0.77459  -0.76998
 Alpha  occ. eigenvalues --   -0.75953  -0.74873  -0.74124  -0.73152  -0.71774
 Alpha  occ. eigenvalues --   -0.71662  -0.70927  -0.70274  -0.70117  -0.69800
 Alpha  occ. eigenvalues --   -0.69641  -0.68475  -0.67769  -0.67469  -0.66793
 Alpha  occ. eigenvalues --   -0.65674  -0.64866  -0.63827  -0.63170  -0.62677
 Alpha  occ. eigenvalues --   -0.61637  -0.60665  -0.60397  -0.60273  -0.59140
 Alpha  occ. eigenvalues --   -0.59099  -0.58582  -0.58444  -0.57507  -0.57285
 Alpha  occ. eigenvalues --   -0.56314  -0.56008  -0.55475  -0.55081  -0.54696
 Alpha  occ. eigenvalues --   -0.54239  -0.53695  -0.52869  -0.52775  -0.52348
 Alpha  occ. eigenvalues --   -0.52007  -0.51797  -0.51633  -0.51344  -0.51100
 Alpha  occ. eigenvalues --   -0.50274  -0.49972  -0.49660  -0.49288  -0.49232
 Alpha  occ. eigenvalues --   -0.48845  -0.48723  -0.48364  -0.48269  -0.47786
 Alpha  occ. eigenvalues --   -0.47440  -0.47098  -0.47088  -0.46806  -0.46679
 Alpha  occ. eigenvalues --   -0.46438  -0.46377  -0.46195  -0.46047  -0.45976
 Alpha  occ. eigenvalues --   -0.45883  -0.45498  -0.45353  -0.45254  -0.45057
 Alpha  occ. eigenvalues --   -0.44561  -0.44405  -0.44317  -0.43846  -0.43698
 Alpha  occ. eigenvalues --   -0.43592  -0.43095  -0.42797  -0.42566  -0.42407
 Alpha  occ. eigenvalues --   -0.42280  -0.42178  -0.42029  -0.41948  -0.41665
 Alpha  occ. eigenvalues --   -0.41578  -0.41450  -0.41194  -0.41122  -0.40879
 Alpha  occ. eigenvalues --   -0.40841  -0.40741  -0.40488  -0.40086  -0.40018
 Alpha  occ. eigenvalues --   -0.39846  -0.39647  -0.39518  -0.39400  -0.39178
 Alpha  occ. eigenvalues --   -0.39045  -0.38886  -0.38665  -0.38288  -0.38104
 Alpha  occ. eigenvalues --   -0.37939  -0.37771  -0.37555  -0.37228  -0.37110
 Alpha  occ. eigenvalues --   -0.36860  -0.36707  -0.36614  -0.36244  -0.35893
 Alpha  occ. eigenvalues --   -0.35677  -0.35286  -0.34669  -0.34558  -0.34328
 Alpha  occ. eigenvalues --   -0.34083  -0.33941  -0.33908  -0.33732  -0.33550
 Alpha  occ. eigenvalues --   -0.33324  -0.33184  -0.32420  -0.32266  -0.31681
 Alpha  occ. eigenvalues --   -0.31471  -0.31310  -0.31300  -0.30608  -0.30213
 Alpha  occ. eigenvalues --   -0.28138  -0.27751  -0.27536  -0.27146  -0.27135
 Alpha  occ. eigenvalues --   -0.26753  -0.26743  -0.22731  -0.21020
 Alpha virt. eigenvalues --   -0.08465  -0.06282  -0.02526   0.00266   0.00694
 Alpha virt. eigenvalues --    0.01720   0.02638   0.03535   0.03928   0.04571
 Alpha virt. eigenvalues --    0.05068   0.05870   0.08048   0.09137   0.09328
 Alpha virt. eigenvalues --    0.09513   0.09664   0.09835   0.10558   0.10766
 Alpha virt. eigenvalues --    0.11097   0.11219   0.11602   0.11643   0.12061
 Alpha virt. eigenvalues --    0.12115   0.12408   0.12510   0.12799   0.12891
 Alpha virt. eigenvalues --    0.12937   0.13395   0.13747   0.13862   0.13934
 Alpha virt. eigenvalues --    0.14127   0.14319   0.14482   0.14619   0.14687
 Alpha virt. eigenvalues --    0.14902   0.15046   0.15413   0.15598   0.15803
 Alpha virt. eigenvalues --    0.15915   0.16041   0.16239   0.16396   0.16726
 Alpha virt. eigenvalues --    0.16788   0.17317   0.17346   0.17404   0.17658
 Alpha virt. eigenvalues --    0.17814   0.18003   0.18146   0.18388   0.18508
 Alpha virt. eigenvalues --    0.18605   0.18772   0.19003   0.19072   0.19166
 Alpha virt. eigenvalues --    0.19227   0.19512   0.19813   0.20071   0.20258
 Alpha virt. eigenvalues --    0.20472   0.20524   0.20602   0.20722   0.20803
 Alpha virt. eigenvalues --    0.20864   0.21190   0.21242   0.21377   0.21699
 Alpha virt. eigenvalues --    0.21917   0.22025   0.22460   0.22737   0.22966
 Alpha virt. eigenvalues --    0.22991   0.23431   0.23461   0.23520   0.23698
 Alpha virt. eigenvalues --    0.23929   0.24134   0.24342   0.24438   0.24596
 Alpha virt. eigenvalues --    0.24896   0.25037   0.25481   0.25576   0.25751
 Alpha virt. eigenvalues --    0.25888   0.25991   0.26372   0.26531   0.26617
 Alpha virt. eigenvalues --    0.26642   0.26940   0.27672   0.27737   0.28004
 Alpha virt. eigenvalues --    0.28130   0.28541   0.28766   0.28825   0.29254
 Alpha virt. eigenvalues --    0.29485   0.29725   0.29874   0.29977   0.30336
 Alpha virt. eigenvalues --    0.30604   0.31324   0.31696   0.32043   0.32613
 Alpha virt. eigenvalues --    0.33154   0.33310   0.33637   0.33942   0.34104
 Alpha virt. eigenvalues --    0.34778   0.34842   0.35670   0.35946   0.36089
 Alpha virt. eigenvalues --    0.36458   0.36690   0.37475   0.38022   0.38502
 Alpha virt. eigenvalues --    0.38571   0.39233   0.39843   0.40093   0.40384
 Alpha virt. eigenvalues --    0.41777   0.42037   0.42403   0.43022   0.43589
 Alpha virt. eigenvalues --    0.44156   0.45275   0.45893   0.46286   0.46741
 Alpha virt. eigenvalues --    0.47678   0.48479   0.48855   0.49448   0.49617
 Alpha virt. eigenvalues --    0.49948   0.50185   0.50276   0.50651   0.51252
 Alpha virt. eigenvalues --    0.51544   0.51895   0.52388   0.52527   0.52854
 Alpha virt. eigenvalues --    0.52880   0.53303   0.53517   0.53597   0.53903
 Alpha virt. eigenvalues --    0.54195   0.54405   0.54574   0.54782   0.54956
 Alpha virt. eigenvalues --    0.55132   0.55297   0.55523   0.55766   0.55950
 Alpha virt. eigenvalues --    0.56129   0.56384   0.56703   0.56997   0.57603
 Alpha virt. eigenvalues --    0.57675   0.57712   0.58166   0.58296   0.58688
 Alpha virt. eigenvalues --    0.58898   0.59035   0.59073   0.59458   0.59561
 Alpha virt. eigenvalues --    0.59884   0.60155   0.60307   0.60611   0.60774
 Alpha virt. eigenvalues --    0.61530   0.61885   0.61918   0.61950   0.62190
 Alpha virt. eigenvalues --    0.62516   0.62688   0.62986   0.63218   0.63344
 Alpha virt. eigenvalues --    0.63599   0.63821   0.64553   0.64605   0.65128
 Alpha virt. eigenvalues --    0.65443   0.65850   0.65971   0.66217   0.66407
 Alpha virt. eigenvalues --    0.66626   0.66917   0.67126   0.67447   0.67570
 Alpha virt. eigenvalues --    0.67812   0.68289   0.68424   0.68639   0.68706
 Alpha virt. eigenvalues --    0.68815   0.69169   0.69720   0.69800   0.70601
 Alpha virt. eigenvalues --    0.70691   0.70992   0.71258   0.71526   0.71695
 Alpha virt. eigenvalues --    0.71954   0.72215   0.72498   0.72705   0.72871
 Alpha virt. eigenvalues --    0.73120   0.73314   0.73601   0.73949   0.74202
 Alpha virt. eigenvalues --    0.74463   0.74562   0.74866   0.75079   0.75449
 Alpha virt. eigenvalues --    0.75769   0.75943   0.76278   0.76500   0.76737
 Alpha virt. eigenvalues --    0.76873   0.77131   0.77371   0.77579   0.77721
 Alpha virt. eigenvalues --    0.77921   0.78175   0.78461   0.78726   0.78895
 Alpha virt. eigenvalues --    0.79299   0.79469   0.79623   0.79738   0.79815
 Alpha virt. eigenvalues --    0.80464   0.80602   0.80664   0.81005   0.81338
 Alpha virt. eigenvalues --    0.81505   0.81693   0.81816   0.81892   0.82075
 Alpha virt. eigenvalues --    0.82277   0.82340   0.82564   0.82948   0.82975
 Alpha virt. eigenvalues --    0.83465   0.83680   0.83999   0.84092   0.84299
 Alpha virt. eigenvalues --    0.84397   0.84724   0.84850   0.85324   0.85397
 Alpha virt. eigenvalues --    0.85675   0.85781   0.86143   0.86288   0.86638
 Alpha virt. eigenvalues --    0.86675   0.86694   0.87269   0.87366   0.87770
 Alpha virt. eigenvalues --    0.87872   0.88174   0.88221   0.88314   0.88557
 Alpha virt. eigenvalues --    0.88854   0.89087   0.89263   0.89589   0.89696
 Alpha virt. eigenvalues --    0.89990   0.90093   0.90331   0.90397   0.90822
 Alpha virt. eigenvalues --    0.90936   0.91020   0.91327   0.91583   0.91690
 Alpha virt. eigenvalues --    0.91837   0.92128   0.92301   0.92374   0.92533
 Alpha virt. eigenvalues --    0.92828   0.93102   0.93487   0.93711   0.93781
 Alpha virt. eigenvalues --    0.94137   0.94253   0.94285   0.94331   0.94561
 Alpha virt. eigenvalues --    0.94885   0.95021   0.95241   0.95688   0.96275
 Alpha virt. eigenvalues --    0.96345   0.96665   0.96807   0.97121   0.97288
 Alpha virt. eigenvalues --    0.97398   0.97557   0.97773   0.98005   0.98415
 Alpha virt. eigenvalues --    0.98504   0.98613   0.98998   0.99327   0.99620
 Alpha virt. eigenvalues --    0.99708   0.99981   1.00146   1.00340   1.00510
 Alpha virt. eigenvalues --    1.00703   1.00983   1.01271   1.01412   1.01698
 Alpha virt. eigenvalues --    1.01725   1.02108   1.02422   1.02452   1.03111
 Alpha virt. eigenvalues --    1.03278   1.03413   1.03900   1.04373   1.04803
 Alpha virt. eigenvalues --    1.04861   1.05072   1.05672   1.05812   1.06095
 Alpha virt. eigenvalues --    1.06681   1.06872   1.07319   1.07363   1.07439
 Alpha virt. eigenvalues --    1.08098   1.08283   1.08819   1.09063   1.09621
 Alpha virt. eigenvalues --    1.10311   1.10784   1.11023   1.11805   1.12064
 Alpha virt. eigenvalues --    1.12879   1.13342   1.14101   1.14245   1.15096
 Alpha virt. eigenvalues --    1.15852   1.16459   1.17311   1.18009   1.18049
 Alpha virt. eigenvalues --    1.18701   1.19226   1.19667   1.20374   1.20859
 Alpha virt. eigenvalues --    1.21283   1.22092   1.22581   1.22993   1.23118
 Alpha virt. eigenvalues --    1.23700   1.24045   1.24350   1.24716   1.25393
 Alpha virt. eigenvalues --    1.26260   1.26497   1.26907   1.27263   1.27934
 Alpha virt. eigenvalues --    1.28264   1.29465   1.29888   1.30423   1.30865
 Alpha virt. eigenvalues --    1.31998   1.32163   1.32436   1.32668   1.33200
 Alpha virt. eigenvalues --    1.33567   1.33764   1.34332   1.34627   1.35232
 Alpha virt. eigenvalues --    1.35786   1.36342   1.36546   1.36907   1.37222
 Alpha virt. eigenvalues --    1.37609   1.37939   1.38375   1.39197   1.40247
 Alpha virt. eigenvalues --    1.40434   1.40739   1.41087   1.41293   1.41751
 Alpha virt. eigenvalues --    1.42335   1.42996   1.43703   1.44150   1.44729
 Alpha virt. eigenvalues --    1.45307   1.45658   1.46061   1.46931   1.47044
 Alpha virt. eigenvalues --    1.48009   1.48089   1.48296   1.49097   1.49785
 Alpha virt. eigenvalues --    1.50261   1.50498   1.50866   1.51625   1.51685
 Alpha virt. eigenvalues --    1.52228   1.52929   1.53532   1.53708   1.53994
 Alpha virt. eigenvalues --    1.54161   1.54719   1.55180   1.55214   1.55782
 Alpha virt. eigenvalues --    1.56123   1.56920   1.57338   1.57647   1.57908
 Alpha virt. eigenvalues --    1.58507   1.58672   1.58987   1.59056   1.59554
 Alpha virt. eigenvalues --    1.59606   1.60096   1.60779   1.60857   1.61208
 Alpha virt. eigenvalues --    1.61477   1.61736   1.61855   1.63429   1.63759
 Alpha virt. eigenvalues --    1.64031   1.64215   1.64886   1.65617   1.66343
 Alpha virt. eigenvalues --    1.66612   1.66733   1.67201   1.68187   1.68263
 Alpha virt. eigenvalues --    1.68921   1.69399   1.69877   1.70521   1.70941
 Alpha virt. eigenvalues --    1.71495   1.71854   1.72160   1.72504   1.72684
 Alpha virt. eigenvalues --    1.72836   1.73197   1.73917   1.74439   1.74588
 Alpha virt. eigenvalues --    1.75110   1.75166   1.75872   1.76003   1.76283
 Alpha virt. eigenvalues --    1.76876   1.76975   1.77324   1.77789   1.78266
 Alpha virt. eigenvalues --    1.78466   1.78917   1.79338   1.80074   1.80117
 Alpha virt. eigenvalues --    1.80332   1.80776   1.81098   1.81670   1.81733
 Alpha virt. eigenvalues --    1.82174   1.82259   1.82890   1.83057   1.83205
 Alpha virt. eigenvalues --    1.83406   1.83726   1.83781   1.84083   1.84212
 Alpha virt. eigenvalues --    1.84456   1.84816   1.84938   1.85179   1.85411
 Alpha virt. eigenvalues --    1.85624   1.86059   1.86174   1.86419   1.86785
 Alpha virt. eigenvalues --    1.87002   1.87053   1.87362   1.87636   1.87857
 Alpha virt. eigenvalues --    1.88381   1.88426   1.88727   1.88953   1.89266
 Alpha virt. eigenvalues --    1.89356   1.89507   1.89818   1.89899   1.90365
 Alpha virt. eigenvalues --    1.90696   1.90965   1.91024   1.91602   1.91836
 Alpha virt. eigenvalues --    1.91861   1.91931   1.92675   1.93119   1.93624
 Alpha virt. eigenvalues --    1.93684   1.93958   1.94152   1.94530   1.94862
 Alpha virt. eigenvalues --    1.95031   1.95125   1.95398   1.95465   1.95612
 Alpha virt. eigenvalues --    1.96094   1.96372   1.96754   1.96884   1.97282
 Alpha virt. eigenvalues --    1.97498   1.97655   1.98062   1.98204   1.98833
 Alpha virt. eigenvalues --    1.98999   1.99046   1.99123   1.99463   1.99615
 Alpha virt. eigenvalues --    1.99727   2.00260   2.00320   2.00451   2.00899
 Alpha virt. eigenvalues --    2.01367   2.02270   2.02519   2.02707   2.02871
 Alpha virt. eigenvalues --    2.03090   2.03433   2.03693   2.03715   2.04264
 Alpha virt. eigenvalues --    2.04342   2.04832   2.05278   2.05500   2.05664
 Alpha virt. eigenvalues --    2.06042   2.06171   2.06375   2.06916   2.07270
 Alpha virt. eigenvalues --    2.07402   2.07847   2.08115   2.08318   2.08750
 Alpha virt. eigenvalues --    2.09127   2.09329   2.09404   2.09922   2.10137
 Alpha virt. eigenvalues --    2.10602   2.10794   2.11127   2.11324   2.11511
 Alpha virt. eigenvalues --    2.11804   2.12075   2.12370   2.12610   2.12710
 Alpha virt. eigenvalues --    2.13117   2.13138   2.13787   2.14092   2.14182
 Alpha virt. eigenvalues --    2.14754   2.14984   2.15175   2.15987   2.16616
 Alpha virt. eigenvalues --    2.16789   2.17317   2.17371   2.17819   2.18029
 Alpha virt. eigenvalues --    2.18631   2.18796   2.18983   2.19272   2.19471
 Alpha virt. eigenvalues --    2.19892   2.20392   2.20890   2.21366   2.21974
 Alpha virt. eigenvalues --    2.22097   2.22259   2.22784   2.23091   2.23704
 Alpha virt. eigenvalues --    2.24622   2.24922   2.25406   2.25453   2.25970
 Alpha virt. eigenvalues --    2.26388   2.27137   2.27223   2.27606   2.27772
 Alpha virt. eigenvalues --    2.28116   2.28159   2.28483   2.29031   2.29211
 Alpha virt. eigenvalues --    2.29655   2.29685   2.29842   2.30438   2.31131
 Alpha virt. eigenvalues --    2.31383   2.31719   2.32019   2.32327   2.32500
 Alpha virt. eigenvalues --    2.32979   2.33056   2.33279   2.33783   2.34079
 Alpha virt. eigenvalues --    2.34351   2.34601   2.35092   2.35379   2.35420
 Alpha virt. eigenvalues --    2.35643   2.36153   2.36429   2.36587   2.37123
 Alpha virt. eigenvalues --    2.37443   2.37570   2.37744   2.38611   2.38857
 Alpha virt. eigenvalues --    2.39107   2.39358   2.39877   2.39953   2.40124
 Alpha virt. eigenvalues --    2.40340   2.40788   2.40955   2.41207   2.41777
 Alpha virt. eigenvalues --    2.41818   2.41997   2.42200   2.42804   2.42887
 Alpha virt. eigenvalues --    2.43411   2.43590   2.44057   2.44605   2.44886
 Alpha virt. eigenvalues --    2.45691   2.46060   2.46239   2.47052   2.47145
 Alpha virt. eigenvalues --    2.47307   2.47640   2.47685   2.48055   2.48559
 Alpha virt. eigenvalues --    2.48690   2.49555   2.49604   2.49753   2.50849
 Alpha virt. eigenvalues --    2.51032   2.51740   2.52193   2.52381   2.52724
 Alpha virt. eigenvalues --    2.52925   2.53185   2.53526   2.54356   2.54579
 Alpha virt. eigenvalues --    2.54966   2.55354   2.56174   2.56464   2.56664
 Alpha virt. eigenvalues --    2.56986   2.57406   2.57781   2.58011   2.58130
 Alpha virt. eigenvalues --    2.59098   2.59440   2.59657   2.59828   2.60358
 Alpha virt. eigenvalues --    2.61035   2.61094   2.61497   2.61652   2.61877
 Alpha virt. eigenvalues --    2.62617   2.62794   2.63204   2.63409   2.64019
 Alpha virt. eigenvalues --    2.64346   2.65027   2.65169   2.65611   2.65710
 Alpha virt. eigenvalues --    2.66115   2.67032   2.67197   2.67768   2.68156
 Alpha virt. eigenvalues --    2.68363   2.68708   2.68869   2.68992   2.69232
 Alpha virt. eigenvalues --    2.69354   2.69400   2.69928   2.70090   2.70318
 Alpha virt. eigenvalues --    2.70636   2.70878   2.70928   2.71311   2.71574
 Alpha virt. eigenvalues --    2.71996   2.72031   2.72470   2.72858   2.73186
 Alpha virt. eigenvalues --    2.73641   2.74385   2.74646   2.75354   2.75674
 Alpha virt. eigenvalues --    2.75821   2.76345   2.76559   2.76981   2.77316
 Alpha virt. eigenvalues --    2.77943   2.77973   2.78073   2.78405   2.78802
 Alpha virt. eigenvalues --    2.78950   2.79147   2.79571   2.79741   2.79927
 Alpha virt. eigenvalues --    2.80400   2.80791   2.81150   2.81268   2.81533
 Alpha virt. eigenvalues --    2.82131   2.82607   2.82938   2.83272   2.83567
 Alpha virt. eigenvalues --    2.83674   2.84073   2.84351   2.84523   2.84800
 Alpha virt. eigenvalues --    2.85358   2.85628   2.86305   2.86545   2.87452
 Alpha virt. eigenvalues --    2.87556   2.87687   2.87961   2.88044   2.88903
 Alpha virt. eigenvalues --    2.89496   2.89797   2.89921   2.90591   2.90956
 Alpha virt. eigenvalues --    2.91346   2.92106   2.92384   2.92626   2.92956
 Alpha virt. eigenvalues --    2.93629   2.94044   2.94136   2.94805   2.95166
 Alpha virt. eigenvalues --    2.95197   2.95382   2.95742   2.96636   2.97387
 Alpha virt. eigenvalues --    2.97558   2.98104   2.98904   2.99415   2.99866
 Alpha virt. eigenvalues --    3.00078   3.00506   3.01405   3.01634   3.02104
 Alpha virt. eigenvalues --    3.02425   3.03182   3.03582   3.03812   3.04078
 Alpha virt. eigenvalues --    3.04257   3.05094   3.05463   3.06533   3.07097
 Alpha virt. eigenvalues --    3.07242   3.07374   3.07637   3.08613   3.09084
 Alpha virt. eigenvalues --    3.09256   3.10897   3.11411   3.12144   3.12842
 Alpha virt. eigenvalues --    3.13867   3.15355   3.15452   3.15593   3.17163
 Alpha virt. eigenvalues --    3.17325   3.17819   3.19378   3.21137   3.21528
 Alpha virt. eigenvalues --    3.21992   3.22771   3.23966   3.24127   3.24650
 Alpha virt. eigenvalues --    3.25459   3.27078   3.27545   3.27849   3.28006
 Alpha virt. eigenvalues --    3.28229   3.29085   3.29248   3.29611   3.31353
 Alpha virt. eigenvalues --    3.32584   3.33085   3.33645   3.35658   3.36321
 Alpha virt. eigenvalues --    3.36834   3.37610   3.38038   3.38289   3.38920
 Alpha virt. eigenvalues --    3.39298   3.39844   3.40604   3.41081   3.41631
 Alpha virt. eigenvalues --    3.41669   3.42963   3.43544   3.43887   3.44461
 Alpha virt. eigenvalues --    3.44758   3.45451   3.45489   3.46349   3.48186
 Alpha virt. eigenvalues --    3.49063   3.49451   3.49527   3.49875   3.50384
 Alpha virt. eigenvalues --    3.52193   3.52698   3.53079   3.53710   3.54989
 Alpha virt. eigenvalues --    3.55501   3.56062   3.57970   3.59561   3.60042
 Alpha virt. eigenvalues --    3.60703   3.60880   3.65206   3.65240   3.65895
 Alpha virt. eigenvalues --    3.68320   3.69970   3.71496   3.92376   3.97510
 Alpha virt. eigenvalues --    4.02121   4.02895   4.04840   4.06665   4.07785
 Alpha virt. eigenvalues --    4.14844   4.15572   4.18427   4.19552   4.20577
 Alpha virt. eigenvalues --    4.21115   4.22094   4.24400   4.25863   4.26693
 Alpha virt. eigenvalues --    4.27955   4.28360   4.29031   4.30389   4.30700
 Alpha virt. eigenvalues --    4.33232   4.33877   4.34997   4.35572   4.36220
 Alpha virt. eigenvalues --    4.38210   4.39351   4.41191   4.41503   4.43127
 Alpha virt. eigenvalues --    4.43985   4.44622   4.45908   4.47434   4.47483
 Alpha virt. eigenvalues --    4.49106   4.49819   4.52056   4.52248   4.53149
 Alpha virt. eigenvalues --    4.54697   4.55728   4.56322   4.57015   4.57577
 Alpha virt. eigenvalues --    4.58441   4.61851   4.62067   4.62925   4.65010
 Alpha virt. eigenvalues --    4.66470   4.67320   4.69856   4.71065   4.72459
 Alpha virt. eigenvalues --    4.75837   4.76375   4.79681   4.80716   4.80859
 Alpha virt. eigenvalues --    4.81784   4.82538   4.83179   4.88350   4.97342
          Condensed to atoms (all electrons):
 Mulliken charges:
               1
     1  Mg   0.834404
     2  C    0.089428
     3  C   -0.168570
     4  C   -0.177683
     5  C   -0.175545
     6  N   -0.615426
     7  C    0.260080
     8  C   -0.138229
     9  C   -0.185967
    10  C    0.345399
    11  C   -0.304001
    12  C   -0.139580
    13  C   -0.274385
    14  C    0.620823
    15  O   -0.490930
    16  O   -0.418313
    17  N   -0.692758
    18  C    0.256442
    19  C    0.038918
    20  C    0.022757
    21  C    0.287475
    22  C   -0.408850
    23  C    0.224227
    24  O   -0.385758
    25  N   -0.694950
    26  C    0.348955
    27  C   -0.045241
    28  C    0.037506
    29  C    0.256766
    30  C    0.228583
    31  C   -0.206050
    32  C   -0.318127
    33  N   -0.737096
    34  C    0.354578
    35  C    0.033518
    36  C    0.041466
    37  C    0.277423
    38  C   -0.400735
    39  C    0.347911
    40  O   -0.484300
    41  C   -0.331758
    42  C    0.633688
    43  O   -0.437683
    44  O   -0.441160
    45  C   -0.082628
    46  C    0.010090
    47  C   -0.144256
    48  C    0.120616
    49  C   -0.364911
    50  C   -0.246307
    51  C   -0.152509
    52  C   -0.180958
    53  C   -0.018567
    54  C   -0.323128
    55  C   -0.159272
    56  C   -0.176142
    57  C   -0.166212
    58  C   -0.051574
    59  C   -0.283026
    60  C   -0.185542
    61  C   -0.161794
    62  C   -0.151424
    63  C   -0.044428
    64  C   -0.303702
    65  C   -0.317503
    66  H    0.082567
    67  H    0.135200
    68  H    0.098644
    69  H    0.124265
    70  H    0.099058
    71  H    0.111132
    72  H    0.101897
    73  H    0.131117
    74  H    0.100693
    75  H    0.122061
    76  H    0.093902
    77  H    0.137370
    78  H    0.133087
    79  H    0.152341
    80  H    0.115100
    81  H    0.045190
    82  H    0.113499
    83  H    0.102508
    84  H    0.113642
    85  H    0.103211
    86  H    0.121143
    87  H    0.105350
    88  H    0.152954
    89  H    0.115015
    90  H    0.165331
    91  H    0.117471
    92  H    0.129932
    93  H    0.069480
    94  H    0.141830
    95  H    0.117660
    96  H    0.117262
    97  H    0.106617
    98  H    0.082850
    99  H    0.117030
   100  H    0.107440
   101  H    0.076898
   102  H    0.078270
   103  H    0.060348
   104  H    0.086612
   105  H    0.107723
   106  H    0.117734
   107  H    0.076028
   108  H    0.073523
   109  H    0.065644
   110  H    0.088036
   111  H    0.093345
   112  H    0.088405
   113  H    0.066123
   114  H    0.120719
   115  H    0.105209
   116  H    0.054701
   117  H    0.076808
   118  H    0.086161
   119  H    0.092814
   120  H    0.082026
   121  H    0.099744
   122  H    0.072514
   123  H    0.076263
   124  H    0.065889
   125  H    0.101458
   126  H    0.100074
   127  H    0.107600
   128  H    0.098145
   129  H    0.099133
   130  H    0.134927
   131  H    0.133791
   132  H    0.101729
   133  O   -0.419259
   134  H    0.062937
 Sum of Mulliken charges =  -0.00000
 Mulliken charges with hydrogens summed into heavy atoms:
               1
     1  Mg   0.834404
     2  C    0.089428
     3  C   -0.086003
     4  C   -0.042484
     5  C   -0.076901
     6  N   -0.615426
     7  C    0.260080
     8  C   -0.013963
     9  C   -0.086909
    10  C    0.345399
    11  C    0.040145
    12  C    0.083174
    13  C   -0.043113
    14  C    0.620823
    15  O   -0.490930
    16  O   -0.418313
    17  N   -0.692758
    18  C    0.256442
    19  C    0.038918
    20  C    0.022757
    21  C    0.287475
    22  C   -0.008322
    23  C    0.269417
    24  O   -0.385758
    25  N   -0.694950
    26  C    0.348955
    27  C   -0.045241
    28  C    0.037506
    29  C    0.256766
    30  C    0.291519
    31  C    0.009957
    32  C    0.019869
    33  N   -0.737096
    34  C    0.354578
    35  C    0.033518
    36  C    0.041466
    37  C    0.277423
    38  C   -0.027416
    39  C    0.347911
    40  O   -0.484300
    41  C   -0.166427
    42  C    0.633688
    43  O   -0.437683
    44  O   -0.441160
    45  C    0.287820
    46  C    0.257493
    47  C   -0.074775
    48  C    0.120616
    49  C    0.011841
    50  C   -0.056840
    51  C    0.071961
    52  C   -0.025789
    53  C    0.041782
    54  C   -0.011060
    55  C   -0.009720
    56  C   -0.022461
    57  C    0.015538
    58  C    0.014549
    59  C   -0.002398
    60  C   -0.022573
    61  C    0.013045
    62  C    0.020834
    63  C    0.031834
    64  C   -0.036281
    65  C   -0.012625
   133  O   -0.419259
 Electronic spatial extent (au):  <R**2>=         147412.0104
 Charge=             -0.0000 electrons
 Dipole moment (field-independent basis, Debye):
    X=              2.9008    Y=             -6.1926    Z=              0.3106  Tot=              6.8454
 Quadrupole moment (field-independent basis, Debye-Ang):
   XX=           -372.4755   YY=           -439.5812   ZZ=           -395.8526
   XY=              7.4034   XZ=             23.9953   YZ=            -31.9197
 Traceless Quadrupole moment (field-independent basis, Debye-Ang):
   XX=             30.1609   YY=            -36.9448   ZZ=              6.7838
   XY=              7.4034   XZ=             23.9953   YZ=            -31.9197
 Octapole moment (field-independent basis, Debye-Ang**2):
  XXX=           -329.1724  YYY=           -639.9250  ZZZ=             -5.1905  XYY=            228.1678
  XXY=             -3.7068  XXZ=           -124.8298  XZZ=            -95.5781  YZZ=            -23.2337
  YYZ=            -58.4810  XYZ=            238.9550
 Hexadecapole moment (field-independent basis, Debye-Ang**3):
 XXXX=        -158679.3396 YYYY=         -31194.9622 ZZZZ=          -9260.3383 XXXY=          -1904.5910
 XXXZ=           4128.4417 YYYX=           2376.3990 YYYZ=          -1380.1899 ZZZX=            444.4425
 ZZZY=           -353.3633 XXYY=         -34152.5212 XXZZ=         -28807.8677 YYZZ=          -7042.7196
 XXYZ=          -1010.1087 YYXZ=            461.4327 ZZXY=           -269.8391
 N-N= 9.110127300969D+03 E-N=-2.530401645843D+04  KE= 3.015920101035D+03

 Test job not archived.
 1\1\GINC-RYZEN-SSD3\SP\RCAM-B3LYP TD-FC\6-31G(d,p)\C54H68Mg1N4O7\PADAW
 AN\09-Oct-2019\0\\# td=(NStates=1) iop(3/107=0140000000,3/108=01400000
 00) iop(3/107=0140000000,3/108=0140000000) CAM-B3LYP/6-31G(d,p)\\TD\\0
 ,1\Mg,0,-5.6477262792,1.21875675,0.3150401092\C,0,-4.9913695242,-2.180
 976561,-0.4076976366\C,0,-3.4213709262,1.1452648113,2.8103364069\C,0,-
 6.1499537911,4.5666299272,0.6368238912\C,0,-7.9234081079,1.1387547262,
 -2.3809357671\N,0,-4.3367279261,-0.3045486467,1.0855998988\C,0,-4.1995
 734848,-1.606824384,0.6735297026\C,0,-3.2433974642,-2.3996532681,1.485
 66293\C,0,-3.0377569467,-1.3936622571,2.6874553016\C,0,-3.6984372711,-
 0.099942622,2.2411386991\C,0,-3.4845314925,-1.8002434657,4.1009227917\
 C,0,-1.8911843116,-2.6618035897,0.7503503405\C,0,-0.9225538989,-3.5759
 651771,1.4803316212\C,0,0.3345585564,-3.8443582765,0.6793061253\O,0,0.
 4529253568,-3.4125785715,-0.4491711513\O,0,1.0849053362,-4.6687564929,
 1.2648010874\N,0,-5.0292937457,2.6050698839,1.5711473464\C,0,-4.130735
 1633,2.3403414558,2.6749981031\C,0,-3.739753479,3.6419827005,3.2236229
 185\C,0,-4.4346240151,4.650996628,2.57388666\C,0,-5.2815442586,3.92451
 05463,1.6008561779\C,0,-2.7702023833,3.8566530411,4.3449986893\C,0,-4.
 5958261132,6.0617635969,2.8141809229\O,0,-4.1601660646,6.6661044984,3.
 7208259825\N,0,-6.7908028802,2.6879886947,-0.6960612624\C,0,-6.8997126
 861,3.9566552827,-0.2929609848\C,0,-7.9626614525,4.6150682316,-1.23963
 80733\C,0,-8.4276322165,3.6100479347,-2.0764765921\C,0,-7.7265515457,2
 .4144774565,-1.7713430808\C,0,-8.3506080517,5.9947693863,-1.1887483836
 \C,0,-9.5363880021,3.8162220204,-3.1213067635\C,0,-8.8656480185,3.8576
 739136,-4.5739237964\N,0,-6.3668851075,-0.0881938371,-1.147149807\C,0,
 -7.3050000296,-0.0161176804,-2.0420684175\C,0,-7.5263901462,-1.2828599
 896,-2.6704795706\C,0,-6.6472842772,-2.1866082326,-2.0391800837\C,0,-5
 .9099694123,-1.4230458697,-1.09659579\C,0,-8.363031761,-1.7491450405,-
 3.7835352497\C,0,-6.1310867758,-3.5581614,-2.0605896141\O,0,-6.6031447
 1,-4.5253402324,-2.7339696621\C,0,-5.0158701491,-3.5665247051,-0.97093
 94137\C,0,-5.3745249299,-4.6476302041,0.1396076326\O,0,-5.8549312647,-
 4.3914581539,1.196976061\O,0,-4.9733570339,-5.8832295194,-0.3025233969
 \C,0,-5.2337709413,-7.0371855719,0.4910809379\C,0,2.3272636996,-4.9410
 852287,0.5774416986\C,0,3.4032048555,-3.9918793488,0.8707249723\C,0,3.
 9486442546,-3.0532581959,-0.035119877\C,0,3.6873530742,-3.0952744687,-
 1.4611056151\C,0,5.0732037462,-2.1745425019,0.3737211709\C,0,6.4605309
 244,-2.6573786631,-0.0855470873\C,0,7.6145567793,-1.8645758131,0.62777
 84683\C,0,8.9452853498,-2.0012149551,0.0155637739\C,0,9.5026266444,-3.
 4309637368,0.0629228346\C,0,9.9691274918,-0.9784980872,0.3719597115\C,
 0,11.283555658,-0.8817377807,-0.287347501\C,0,12.1907167603,0.31046567
 41,0.1297298206\C,0,13.5352359794,0.4470395739,-0.6219769609\C,0,14.38
 70870077,-0.7566950721,-0.3526294138\C,0,14.3216881084,1.7583320048,-0
 .2118104358\C,0,15.6073049209,2.102068235,-0.9356585609\C,0,16.0769802
 824,3.471041857,-0.6027608893\C,0,17.3523604851,3.8481426559,-1.245708
 5061\C,0,17.2222648162,3.9661415059,-2.8354357678\C,0,17.992988705,5.1
 331785832,-0.6091503739\H,0,-2.765602283,1.1825025257,3.7786583342\H,0
 ,-6.3848164604,5.6772831087,0.8833873304\H,0,-8.7678771949,1.311361439
 ,-3.2169371725\H,0,-3.8247535402,-3.1267679922,1.8605141122\H,0,-1.900
 4271666,-1.1372813897,2.7829795741\H,0,-2.9763074098,-2.6360667679,4.5
 529688409\H,0,-3.0964904417,-0.9297428787,4.7135733871\H,0,-4.46523903
 56,-2.016150696,4.1384677973\H,0,-2.2598012938,-3.1907785952,-0.185879
 2117\H,0,-1.4903268651,-1.9190310194,0.3360717288\H,0,-0.6371791514,-3
 .1573470303,2.6100752262\H,0,-1.6044751691,-4.3506922004,1.785850383\H
 ,0,-1.7704071545,3.5978393083,4.1015760673\H,0,-2.7111121013,4.9177789
 839,4.7828445422\H,0,-2.9008530803,3.1158025778,5.1793829443\H,0,-5.11
 03540993,6.7255767521,1.8777330947\H,0,-10.3281519487,3.1681374708,-3.
 0624494966\H,0,-10.105071305,4.5195257967,-3.031323423\H,0,-9.75336513
 63,3.8921476288,-5.1946046628\H,0,-8.3095104604,4.9220519506,-4.752495
 2045\H,0,-8.1954693959,2.9789872575,-4.7573456594\H,0,-8.2423318228,-1
 .2503755805,-4.8967506734\H,0,-8.4850394869,-2.8924426494,-3.950077644
 8\H,0,-9.4040404835,-1.388705694,-3.556782585\H,0,-4.1260799654,-3.842
 7190985,-1.7309563825\H,0,2.5264737804,-5.8822861716,0.8416401209\H,0,
 2.1109918426,-5.0048274588,-0.4364170913\H,0,3.5718293052,-3.680477329
 5,2.0031653241\H,0,2.7439593826,-3.5176473858,-1.8673092719\H,0,3.6854
 031536,-2.0722707864,-1.7582082913\H,0,4.5609082648,-3.7036340926,-1.9
 068196079\H,0,4.8168417251,-1.1887452985,0.0632882123\H,0,5.0417627036
 ,-2.0647781102,1.5428491652\H,0,6.4778853152,-3.6338465768,0.218429727
 \H,0,6.5083709975,-2.3757651855,-1.142954891\H,0,7.0493238637,-0.81400
 47256,0.6228895345\H,0,7.5696290658,-1.9872553086,1.7869830836\H,0,8.6
 495990692,-1.6801362888,-1.1190852466\H,0,8.6670612248,-4.2289016616,-
 0.2077645689\H,0,10.4346728081,-3.7095851606,-0.4890790214\H,0,9.86107
 51689,-3.6762087124,1.0000104437\H,0,9.3842375744,0.0429200182,0.27909
 32731\H,0,10.2386739649,-1.0001265466,1.505160056\H,0,12.019637105,-1.
 8347535073,-0.2019345667\H,0,11.2468107678,-0.877580663,-1.3903303666\
 H,0,11.5224632798,1.1517596052,-0.0696265179\H,0,12.2303078541,0.28953
 01444,1.2387221524\H,0,13.2966164623,0.4306975021,-1.8128035191\H,0,14
 .8703663749,-0.6596341761,0.5285985399\H,0,13.7967952505,-1.6382328396
 ,-0.7323095525\H,0,15.4064416326,-0.7826514633,-1.0922761201\H,0,13.54
 71129055,2.6185264717,-0.2662984175\H,0,14.6092776281,1.8491952087,0.8
 731545294\H,0,16.3617678326,1.3005286656,-0.7249789886\H,0,15.39866544
 99,1.8886927821,-2.0879901787\H,0,15.3114925539,4.2086862466,-0.576739
 6721\H,0,16.1697097411,3.69588623,0.5122411245\H,0,18.0443881202,2.921
 8936806,-1.0756166413\H,0,16.4926899894,4.8022167506,-3.4393662964\H,0
 ,18.1746133848,4.1471442277,-3.3591905242\H,0,16.8567258728,2.97566863
 69,-3.1985978944\H,0,18.118977945,4.9306842859,0.4269843626\H,0,19.022
 6797903,5.4479989521,-0.994586373\H,0,17.2061621671,5.9512246256,-0.72
 5776639\H,0,-4.7564709485,-7.9023096641,-0.0462581635\H,0,-6.372091639
 5,-7.1571828049,0.6675102585\H,0,-4.6141595846,-6.9725488305,1.5279572
 523\O,0,-7.762333825,6.8368801888,-0.5564734313\H,0,-9.2004183389,6.36
 98726322,-1.6537210549\\Version=ES64L-G16RevA.03\State=1-A\HF=-3043.45
 73741\RMSD=6.664e-09\PG=C01 [X(C54H68Mg1N4O7)]\\@


 Make no judgements where you have no compassion.
                               -- Anne McCaffrey
 Job cpu time:       1 days  2 hours 58 minutes 38.9 seconds.
 Elapsed time:       0 days  6 hours 45 minutes 39.3 seconds.
 File lengths (MBytes):  RWF=   6825 Int=      0 D2E=      0 Chk=    180 Scr=      1
 Normal termination of Gaussian 16 at Wed Oct  9 13:32:22 2019.
