 Entering Gaussian System, Link 0=g16
 Input=Geometria-140-.com
 Output=Geometria-140-.log
 Initial command:
 /usr/local/g16/l1.exe "/home/padawan/israel-mol/chlorophyll-b/spectra/abs/Gau-36262.inp" -scrdir="/home/padawan/israel-mol/chlorophyll-b/spectra/abs/"
 Entering Link 1 = /usr/local/g16/l1.exe PID=     36264.
  
 Copyright (c) 1988,1990,1992,1993,1995,1998,2003,2009,2016,
            Gaussian, Inc.  All Rights Reserved.
  
 This is part of the Gaussian(R) 16 program.  It is based on
 the Gaussian(R) 09 system (copyright 2009, Gaussian, Inc.),
 the Gaussian(R) 03 system (copyright 2003, Gaussian, Inc.),
 the Gaussian(R) 98 system (copyright 1998, Gaussian, Inc.),
 the Gaussian(R) 94 system (copyright 1995, Gaussian, Inc.),
 the Gaussian 92(TM) system (copyright 1992, Gaussian, Inc.),
 the Gaussian 90(TM) system (copyright 1990, Gaussian, Inc.),
 the Gaussian 88(TM) system (copyright 1988, Gaussian, Inc.),
 the Gaussian 86(TM) system (copyright 1986, Carnegie Mellon
 University), and the Gaussian 82(TM) system (copyright 1983,
 Carnegie Mellon University). Gaussian is a federally registered
 trademark of Gaussian, Inc.
  
 This software contains proprietary and confidential information,
 including trade secrets, belonging to Gaussian, Inc.
  
 This software is provided under written license and may be
 used, copied, transmitted, or stored only in accord with that
 written license.
  
 The following legend is applicable only to US Government
 contracts under FAR:
  
                    RESTRICTED RIGHTS LEGEND
  
 Use, reproduction and disclosure by the US Government is
 subject to restrictions as set forth in subparagraphs (a)
 and (c) of the Commercial Computer Software - Restricted
 Rights clause in FAR 52.227-19.
  
 Gaussian, Inc.
 340 Quinnipiac St., Bldg. 40, Wallingford CT 06492
  
  
 ---------------------------------------------------------------
 Warning -- This program may not be used in any manner that
 competes with the business of Gaussian, Inc. or will provide
 assistance to any competitor of Gaussian, Inc.  The licensee
 of this program is prohibited from giving any competitor of
 Gaussian, Inc. access to this program.  By using this program,
 the user acknowledges that Gaussian, Inc. is engaged in the
 business of creating and licensing software in the field of
 computational chemistry and represents and warrants to the
 licensee that it is not a competitor of Gaussian, Inc. and that
 it will not use this program in any manner prohibited above.
 ---------------------------------------------------------------
  

 Cite this work as:
 Gaussian 16, Revision A.03,
 M. J. Frisch, G. W. Trucks, H. B. Schlegel, G. E. Scuseria, 
 M. A. Robb, J. R. Cheeseman, G. Scalmani, V. Barone, 
 G. A. Petersson, H. Nakatsuji, X. Li, M. Caricato, A. V. Marenich, 
 J. Bloino, B. G. Janesko, R. Gomperts, B. Mennucci, H. P. Hratchian, 
 J. V. Ortiz, A. F. Izmaylov, J. L. Sonnenberg, D. Williams-Young, 
 F. Ding, F. Lipparini, F. Egidi, J. Goings, B. Peng, A. Petrone, 
 T. Henderson, D. Ranasinghe, V. G. Zakrzewski, J. Gao, N. Rega, 
 G. Zheng, W. Liang, M. Hada, M. Ehara, K. Toyota, R. Fukuda, 
 J. Hasegawa, M. Ishida, T. Nakajima, Y. Honda, O. Kitao, H. Nakai, 
 T. Vreven, K. Throssell, J. A. Montgomery, Jr., J. E. Peralta, 
 F. Ogliaro, M. J. Bearpark, J. J. Heyd, E. N. Brothers, K. N. Kudin, 
 V. N. Staroverov, T. A. Keith, R. Kobayashi, J. Normand, 
 K. Raghavachari, A. P. Rendell, J. C. Burant, S. S. Iyengar, 
 J. Tomasi, M. Cossi, J. M. Millam, M. Klene, C. Adamo, R. Cammi, 
 J. W. Ochterski, R. L. Martin, K. Morokuma, O. Farkas, 
 J. B. Foresman, and D. J. Fox, Gaussian, Inc., Wallingford CT, 2016.
 
 ******************************************
 Gaussian 16:  ES64L-G16RevA.03 25-Dec-2016
                 9-Oct-2019 
 ******************************************
 %nproc=4
 Will use up to    4 processors via shared memory.
 %Mem=4GB
 ----------------------------------------------------------------------
 # td=(NStates=1) iop(3/107=0140000000,3/108=0140000000) iop(3/107=0140
 000000,3/108=0140000000) CAM-B3LYP/6-31G(d,p)
 ----------------------------------------------------------------------
 1/38=1,172=1/1;
 2/12=2,17=6,18=5,40=1/2;
 3/5=1,6=6,7=101,11=9,25=1,30=1,74=-40,107=140000000,108=140000000/1,2,3,8;
 4//1;
 5/5=2,38=5/2;
 8/6=1,10=2,108=1/1;
 9/41=1,42=1,70=2/14;
 6/7=2,8=2,9=2,10=2/1;
 99/5=1,9=1/99;
 --
 TD
 --
 Symbolic Z-matrix:
 Charge =  0 Multiplicity = 1
 12                   -5.64708   1.20047   0.22128 
 6                    -4.97125  -2.21994  -0.33667 
 6                    -3.49909   1.19876   2.78136 
 6                    -6.24816   4.52597   0.69506 
 6                    -7.89211   1.14693  -2.41961 
 7                    -4.23458  -0.29914   1.02332 
 6                    -4.22224  -1.63657   0.61811 
 6                    -3.18941  -2.40969   1.53316 
 6                    -2.94556  -1.25957   2.68723 
 6                    -3.55939  -0.02734   2.1156 
 6                    -3.53877  -1.81914   3.98419 
 6                    -1.89565  -2.66755   0.75567 
 6                    -0.84162  -3.53528   1.49058 
 6                     0.32189  -3.93882   0.62766 
 8                     0.50617  -3.52456  -0.49687 
 8                     1.17463  -4.80988   1.31756 
 7                    -4.9723    2.63229   1.44485 
 6                    -4.01598   2.42148   2.49631 
 6                    -3.8174    3.60931   3.24666 
 6                    -4.56349   4.60312   2.60655 
 6                    -5.39133   3.95935   1.53624 
 6                    -2.82683   3.72923   4.37217 
 6                    -4.64408   6.02145   3.06844 
 8                    -3.85552   6.45391   3.90665 
 7                    -6.83066   2.6409   -0.79549 
 6                    -6.98295   3.95397  -0.37771 
 6                    -7.90615   4.58388  -1.33154 
 6                    -8.36398   3.62017  -2.20441 
 6                    -7.69793   2.4683   -1.87021 
 6                    -8.39188   5.97506  -1.24864 
 6                    -9.40221   3.76406  -3.23208 
 6                    -8.80771   4.25417  -4.56696 
 7                    -6.3029   -0.1623   -1.05721 
 6                    -7.18129  -0.03048  -2.15434 
 6                    -7.40337  -1.29617  -2.79803 
 6                    -6.52143  -2.16321  -2.15238 
 6                    -5.82334  -1.41954  -1.09685 
 6                    -8.38701  -1.53682  -3.78581 
 6                    -6.09288  -3.58069  -2.00639 
 8                    -6.41003  -4.51106  -2.66504 
 6                    -5.05379  -3.62045  -0.89374 
 6                    -5.4236   -4.681     0.1742 
 8                    -5.87845  -4.39559   1.32874 
 8                    -5.37375  -5.85761  -0.30374 
 6                    -5.70342  -6.83612   0.65893 
 6                     2.37613  -5.10468   0.64809 
 6                     3.46878  -4.26232   1.05807 
 6                     3.92862  -3.20356   0.22389 
 6                     3.60699  -2.9984   -1.35059 
 6                     5.12283  -2.37403   0.70926 
 6                     6.4774   -2.61447  -0.04304 
 6                     7.59353  -1.72996   0.46209 
 6                     8.99942  -1.94224  -0.1164 
 6                     9.54164  -3.32403   0.05179 
 6                     10.00126  -0.83137   0.41355 
 6                     11.34979  -0.91642  -0.38993 
 6                     12.23109   0.24944   0.11644 
 6                     13.54086   0.43506  -0.66979 
 6                     14.59682  -0.70183  -0.36118 
 6                     14.16002   1.8115   -0.24836 
 6                     15.39966   2.0827   -1.07438 
 6                     15.88395   3.5515   -0.701 
 6                     17.27556   3.8722   -1.25561 
 6                     17.12324   4.10443  -2.76936 
 6                     18.11022   5.08347  -0.67325 
 1                    -2.82112   1.29733   3.56879 
 1                    -6.49489   5.56106   0.75898 
 1                    -8.65881   1.14955  -3.22413 
 1                    -3.76878  -3.15689   2.08343 
 1                    -1.84067  -1.29823   2.94951 
 1                    -3.20397  -2.67681   4.41463 
 1                    -3.65005  -0.91534   4.5363 
 1                    -4.57046  -2.08123   3.8569 
 1                    -2.04865  -3.21576  -0.16325 
 1                    -1.45203  -1.71716   0.44819 
 1                    -0.54964  -2.70665   2.23465 
 1                    -1.42714  -4.46456   2.07431 
 1                    -1.84725   3.49323   4.04532 
 1                    -2.86168   4.79358   4.6732 
 1                    -3.49724   3.2822    5.35704 
 1                    -5.34661   6.66007   2.4536 
 1                    -9.79227   2.84736  -3.15546 
 1                    -10.01307   4.54234  -2.72636 
 1                    -9.68249   4.40549  -5.43558 
 1                    -8.32288   5.3064   -4.55033 
 1                    -8.03149   3.67668  -4.98167 
 1                    -8.03632  -0.91936  -4.56522 
 1                    -8.5077   -2.76112  -4.24434 
 1                    -9.40402  -1.33448  -3.41419 
 1                    -4.14907  -3.82887  -1.40964 
 1                     2.45192  -6.18287   0.80925 
 1                     1.86891  -5.03244  -0.43109 
 1                     4.11674  -4.31149   2.01218 
 1                     2.6305   -3.18851  -1.74014 
 1                     3.74952  -1.88308  -1.51304 
 1                     4.3223   -3.47062  -2.01637 
 1                     5.14706  -1.43153   0.32387 
 1                     5.27927  -2.39345   1.88454 
 1                     6.73998  -3.60977  -0.0122 
 1                     6.26335  -2.42761  -0.98557 
 1                     7.38853  -0.64337   0.1058 
 1                     7.6215   -1.85078   1.50073 
 1                     9.03497  -1.87883  -1.17153 
 1                     8.70032  -3.85721  -0.45723 
 1                     10.48067  -3.33875  -0.51453 
 1                     9.56675  -3.66199   1.16758 
 1                     9.58045   0.01585   0.15068 
 1                     10.06628  -0.94307   1.4617 
 1                     11.71819  -1.83599  -0.15578 
 1                     11.12621  -0.55309  -1.26942 
 1                     11.56793   1.22424   0.05928 
 1                     12.74013  -0.03331   1.13794 
 1                     13.32408   0.47384  -1.80591 
 1                     14.76014  -0.66032   0.67924 
 1                     14.03289  -1.57811  -0.52265 
 1                     15.60432  -0.59012  -0.7655 
 1                     13.58705   2.60326  -0.36655 
 1                     14.42965   2.05533   0.85197 
 1                     16.42708   1.43086  -0.96869 
 1                     15.07045   2.0018   -2.12547 
 1                     14.9979   4.13509  -0.99139 
 1                     16.0348   3.63832   0.39618 
 1                     17.79557   2.95565  -1.13504 
 1                     16.14939   4.57941  -3.25897 
 1                     18.02942   4.43437  -3.17242 
 1                     17.1483   3.01332  -3.3538 
 1                     18.30186   4.96906   0.3355 
 1                     19.12647   5.47715  -1.23839 
 1                     17.33062   6.00801  -0.72024 
 1                    -5.05553  -7.75058   0.27666 
 1                    -6.71052  -7.08735   0.55639 
 1                    -5.39226  -6.42333   1.91902 
 8                    -7.94407   6.78862  -0.45319 
 1                    -9.22109   6.27425  -1.7836 
 
 Stoichiometry    C54H68MgN4O7
 Framework group  C1[X(C54H68MgN4O7)]
 Deg. of freedom   396
 Full point group                 C1      NOp   1
 Largest Abelian subgroup         C1      NOp   1
 Largest concise Abelian subgroup C1      NOp   1
                         Standard orientation:                         
 ---------------------------------------------------------------------
 Center     Atomic      Atomic             Coordinates (Angstroms)
 Number     Number       Type             X           Y           Z
 ---------------------------------------------------------------------
      1         12           0       -5.645201    1.195856    0.222279
      2          6           0       -4.968897   -2.220868   -0.357295
      3          6           0       -3.501498    1.176792    2.785880
      4          6           0       -6.246637    4.518207    0.717176
      5          6           0       -7.885828    1.160209   -2.422658
      6          7           0       -4.234246   -0.309266    1.016683
      7          6           0       -4.221405   -1.643970    0.602602
      8          6           0       -3.190216   -2.423319    1.514205
      9          6           0       -2.948139   -1.280936    2.676308
     10          6           0       -3.560853   -0.044836    2.111867
     11          6           0       -3.543590   -1.849036    3.968527
     12          6           0       -1.895195   -2.676186    0.737182
     13          6           0       -0.842502   -3.548937    1.468063
     14          6           0        0.322389   -3.946890    0.604420
     15          8           0        0.508608   -3.525183   -0.517015
     16          8           0        1.173865   -4.822648    1.289927
     17          7           0       -4.972279    2.619401    1.456482
     18          6           0       -4.017753    2.401457    2.508108
     19          6           0       -3.820267    3.584238    3.266673
     20          6           0       -4.565148    4.582396    2.631951
     21          6           0       -5.391282    3.945886    1.555997
     22          6           0       -2.831561    3.696522    4.394617
     23          6           0       -4.646326    5.997630    3.103131
     24          8           0       -3.859105    6.424391    3.945526
     25          7           0       -6.826888    2.643192   -0.786860
     26          6           0       -6.979705    3.953465   -0.360603
     27          6           0       -7.901220    4.589843   -1.311759
     28          6           0       -8.357718    3.632033   -2.191790
     29          6           0       -7.692384    2.477872   -1.864155
     30          6           0       -8.386908    5.980513   -1.220420
     31          6           0       -9.394217    3.782908   -3.220212
     32          6           0       -8.797418    4.281812   -4.550810
     33          7           0       -6.299067   -0.158286   -1.066349
     34          6           0       -7.175602   -0.019038   -2.164042
     35          6           0       -7.396774   -1.280386   -2.816515
     36          6           0       -6.516035   -2.151826   -2.175176
     37          6           0       -5.819611   -1.415298   -1.113549
     38          6           0       -8.378800   -1.514317   -3.807511
     39          6           0       -6.087920   -3.570316   -2.037910
     40          8           0       -6.404085   -4.496231   -2.703266
     41          6           0       -5.050698   -3.617627   -0.923812
     42          6           0       -5.422431   -4.685211    0.136429
     43          8           0       -5.879177   -4.407421    1.292079
     44          8           0       -5.371936   -5.858614   -0.349253
     45          6           0       -5.703347   -6.843461    0.606332
     46          6           0        2.376437   -5.113161    0.620521
     47          6           0        3.468515   -4.273701    1.037930
     48          6           0        3.929892   -3.209486    0.211577
     49          6           0        3.610915   -2.993806   -1.362039
     50          6           0        5.123396   -2.383376    0.704461
     51          6           0        6.479194   -2.619002   -0.047165
     52          6           0        7.594597   -1.738032    0.465710
     53          6           0        9.001421   -1.946657   -0.111830
     54          6           0        9.543174   -3.329619    0.048066
     55          6           0       10.002521   -0.839488    0.427178
     56          6           0       11.352383   -0.919382   -0.374596
     57          6           0       12.232989    0.242956    0.140990
     58          6           0       13.544092    0.433614   -0.641797
     59          6           0       14.599385   -0.705455   -0.338994
     60          6           0       14.162736    1.807128   -0.210183
     61          6           0       15.403794    2.083640   -1.032305
     62          6           0       15.887652    3.549856   -0.648347
     63          6           0       17.280232    3.874034   -1.198482
     64          6           0       17.130476    4.116356   -2.710905
     65          6           0       18.114076    5.081289   -0.606676
     66          1           0       -2.824832    1.270025    3.575075
     67          1           0       -6.493329    5.552890    0.787577
     68          1           0       -8.651172    1.168294   -3.228421
     69          1           0       -3.770601   -3.174078    2.058519
     70          1           0       -1.843697   -1.321499    2.940172
     71          1           0       -3.209628   -2.709606    4.393802
     72          1           0       -3.655672   -0.948920    4.526448
     73          1           0       -4.575104   -2.110126    3.837770
     74          1           0       -2.046726   -3.218243   -0.185618
     75          1           0       -1.450933   -1.723831    0.436779
     76          1           0       -0.551661   -2.725321    2.218114
     77          1           0       -1.429123   -4.481999    2.044612
     78          1           0       -1.851474    3.462559    4.067840
     79          1           0       -2.866772    4.758846    4.702667
     80          1           0       -3.503682    3.243043    5.375367
     81          1           0       -5.347738    6.640430    2.491387
     82          1           0       -9.784521    2.865773   -3.150348
     83          1           0      -10.005816    4.557894   -2.710350
     84          1           0       -9.670720    4.439032   -5.419860
     85          1           0       -8.312476    5.333835   -4.526368
     86          1           0       -8.020584    3.706976   -4.968051
     87          1           0       -8.026721   -0.891732   -4.582209
     88          1           0       -8.498884   -2.735516   -4.274382
     89          1           0       -9.396399   -1.314304   -3.436255
     90          1           0       -4.145143   -3.822737   -1.439578
     91          1           0        2.451812   -6.192405    0.774626
     92          1           0        1.871031   -5.033665   -0.458995
     93          1           0        4.114875   -4.329317    1.992765
     94          1           0        2.635056   -3.181178   -1.754469
     95          1           0        3.753870   -1.877447   -1.516823
     96          1           0        4.327284   -3.461684   -2.029746
     97          1           0        5.148402   -1.438333    0.325393
     98          1           0        5.277865   -2.410639    1.879844
     99          1           0        6.741588   -3.614523   -0.022512
    100          1           0        6.266739   -2.425838   -0.988783
    101          1           0        7.390332   -0.649061    0.116314
    102          1           0        7.620814   -1.865766    1.503571
    103          1           0        9.038740   -1.876229   -1.166455
    104          1           0        8.702639   -3.859279   -0.465898
    105          1           0       10.483145   -3.340700   -0.516772
    106          1           0        9.566368   -3.674995    1.161618
    107          1           0        9.582261    0.009524    0.169247
    108          1           0       10.065769   -0.958169    1.474661
    109          1           0       11.720263   -1.840545   -0.145959
    110          1           0       11.130319   -0.550171   -1.252022
    111          1           0       11.570053    1.218208    0.089209
    112          1           0       12.740280   -0.046662    1.161439
    113          1           0       13.329221    0.479989   -1.777995
    114          1           0       14.760967   -0.670899    0.701954
    115          1           0       14.035609   -1.580557   -0.507234
    116          1           0       15.607578   -0.591205   -0.740881
    117          1           0       13.590065    2.599748   -0.324052
    118          1           0       14.430556    2.043589    0.892201
    119          1           0       16.430949    1.430968   -0.929240
    120          1           0       15.076330    2.009792   -2.084460
    121          1           0       15.002166    4.135492   -0.936327
    122          1           0       16.036673    3.629350    0.449638
    123          1           0       17.799917    2.956628   -1.083149
    124          1           0       16.157501    4.594734   -3.198969
    125          1           0       18.037367    4.448848   -3.110247
    126          1           0       17.156358    3.029163   -3.302556
    127          1           0       18.304009    4.960135    0.401601
    128          1           0       19.131322    5.478573   -1.167488
    129          1           0       17.334683    6.006231   -0.648814
    130          1           0       -5.054943   -7.755459    0.219074
    131          1           0       -6.710305   -7.093857    0.500441
    132          1           0       -5.394239   -6.439120    1.869659
    133          8           0       -7.940321    6.788694   -0.418825
    134          1           0       -9.215181    6.283382   -1.754762
 ---------------------------------------------------------------------
 Rotational constants (GHZ):           0.0346260           0.0080876           0.0071689
 Standard basis: 6-31G(d,p) (6D, 7F)
 There are  1334 symmetry adapted cartesian basis functions of A   symmetry.
 There are  1334 symmetry adapted basis functions of A   symmetry.
  1334 basis functions,  2348 primitive gaussians,  1334 cartesian basis functions
   244 alpha electrons      244 beta electrons
       nuclear repulsion energy      9116.7266461100 Hartrees.
 NAtoms=  134 NActive=  134 NUniq=  134 SFac= 1.00D+00 NAtFMM=   60 NAOKFM=T Big=T
 Integral buffers will be    131072 words long.
 Raffenetti 1 integral format.
 Two-electron integral symmetry is turned on.
 One-electron integrals computed using PRISM.
 NBasis=  1334 RedAO= T EigKep=  3.02D-04  NBF=  1334
 NBsUse=  1334 1.00D-06 EigRej= -1.00D+00 NBFU=  1334
 ExpMin= 4.21D-02 ExpMax= 1.17D+04 ExpMxC= 1.76D+03 IAcc=3 IRadAn=         5 AccDes= 0.00D+00
 Harris functional with IExCor=20419 and IRadAn=       5 diagonalized for initial guess.
 HarFok:  IExCor=20419 AccDes= 0.00D+00 IRadAn=         5 IDoV= 1 UseB2=F ITyADJ=14
 ICtDFT=  3500011 ScaDFX=  1.000000  1.000000  1.000000  1.000000
 FoFCou: FMM=F IPFlag=           0 FMFlag=      100000 FMFlg1=        2001
         NFxFlg=           0 DoJE=T BraDBF=F KetDBF=T FulRan=T
         wScrn=  0.000000 ICntrl=       500 IOpCl=  0 I1Cent=   200000004 NGrid=           0
         NMat0=    1 NMatS0=      1 NMatT0=    0 NMatD0=    1 NMtDS0=    0 NMtDT0=    0
 Petite list used in FoFCou.
 Requested convergence on RMS density matrix=1.00D-08 within 128 cycles.
 Requested convergence on MAX density matrix=1.00D-06.
 Requested convergence on             energy=1.00D-06.
 No special actions if energy rises.
 SCF Done:  E(RCAM-B3LYP) =  -3043.42307527     A.U. after   15 cycles
            NFock= 15  Conv=0.79D-08     -V/T= 2.0088
 DoSCS=F DFT=T ScalE2(SS,OS)=  1.000000  1.000000
 ExpMin= 4.21D-02 ExpMax= 1.17D+04 ExpMxC= 1.76D+03 IAcc=3 IRadAn=         5 AccDes= 0.00D+00
 HarFok:  IExCor=  205 AccDes= 0.00D+00 IRadAn=         5 IDoV=-2 UseB2=F ITyADJ=14
 ICtDFT= 12500011 ScaDFX=  1.000000  1.000000  1.000000  1.000000
 GSVD:  LWork=       -5460 too small for GESVD, short by       25550 words or       25550 for optimal perf.
 Range of M.O.s used for correlation:    71  1334
 NBasis=  1334 NAE=   244 NBE=   244 NFC=    70 NFV=     0
 NROrb=   1264 NOA=   174 NOB=   174 NVA=  1090 NVB=  1090
 Orbital symmetries:
       Occupied  (A) (A) (A) (A) (A) (A) (A) (A) (A) (A) (A) (A)
                 (A) (A) (A) (A) (A) (A) (A) (A) (A) (A) (A) (A)
                 (A) (A) (A) (A) (A) (A) (A) (A) (A) (A) (A) (A)
                 (A) (A) (A) (A) (A) (A) (A) (A) (A) (A) (A) (A)
                 (A) (A) (A) (A) (A) (A) (A) (A) (A) (A) (A) (A)
                 (A) (A) (A) (A) (A) (A) (A) (A) (A) (A) (A) (A)
                 (A) (A) (A) (A) (A) (A) (A) (A) (A) (A) (A) (A)
                 (A) (A) (A) (A) (A) (A) (A) (A) (A) (A) (A) (A)
                 (A) (A) (A) (A) (A) (A) (A) (A) (A) (A) (A) (A)
                 (A) (A) (A) (A) (A) (A) (A) (A) (A) (A) (A) (A)
                 (A) (A) (A) (A) (A) (A) (A) (A) (A) (A) (A) (A)
                 (A) (A) (A) (A) (A) (A) (A) (A) (A) (A) (A) (A)
                 (A) (A) (A) (A) (A) (A) (A) (A) (A) (A) (A) (A)
                 (A) (A) (A) (A) (A) (A) (A) (A) (A) (A) (A) (A)
                 (A) (A) (A) (A) (A) (A) (A) (A) (A) (A) (A) (A)
                 (A) (A) (A) (A) (A) (A) (A) (A) (A) (A) (A) (A)
                 (A) (A) (A) (A) (A) (A) (A) (A) (A) (A) (A) (A)
                 (A) (A) (A) (A) (A) (A) (A) (A) (A) (A) (A) (A)
                 (A) (A) (A) (A) (A) (A) (A) (A) (A) (A) (A) (A)
                 (A) (A) (A) (A) (A) (A) (A) (A) (A) (A) (A) (A)
                 (A) (A) (A) (A)
       Virtual   (A) (A) (A) (A) (A) (A) (A) (A) (A) (A) (A) (A)
                 (A) (A) (A) (A) (A) (A) (A) (A) (A) (A) (A) (A)
                 (A) (A) (A) (A) (A) (A) (A) (A) (A) (A) (A) (A)
                 (A) (A) (A) (A) (A) (A) (A) (A) (A) (A) (A) (A)
                 (A) (A) (A) (A) (A) (A) (A) (A) (A) (A) (A) (A)
                 (A) (A) (A) (A) (A) (A) (A) (A) (A) (A) (A) (A)
                 (A) (A) (A) (A) (A) (A) (A) (A) (A) (A) (A) (A)
                 (A) (A) (A) (A) (A) (A) (A) (A) (A) (A) (A) (A)
                 (A) (A) (A) (A) (A) (A) (A) (A) (A) (A) (A) (A)
                 (A) (A) (A) (A) (A) (A) (A) (A) (A) (A) (A) (A)
                 (A) (A) (A) (A) (A) (A) (A) (A) (A) (A) (A) (A)
                 (A) (A) (A) (A) (A) (A) (A) (A) (A) (A) (A) (A)
                 (A) (A) (A) (A) (A) (A) (A) (A) (A) (A) (A) (A)
                 (A) (A) (A) (A) (A) (A) (A) (A) (A) (A) (A) (A)
                 (A) (A) (A) (A) (A) (A) (A) (A) (A) (A) (A) (A)
                 (A) (A) (A) (A) (A) (A) (A) (A) (A) (A) (A) (A)
                 (A) (A) (A) (A) (A) (A) (A) (A) (A) (A) (A) (A)
                 (A) (A) (A) (A) (A) (A) (A) (A) (A) (A) (A) (A)
                 (A) (A) (A) (A) (A) (A) (A) (A) (A) (A) (A) (A)
                 (A) (A) (A) (A) (A) (A) (A) (A) (A) (A) (A) (A)
                 (A) (A) (A) (A) (A) (A) (A) (A) (A) (A) (A) (A)
                 (A) (A) (A) (A) (A) (A) (A) (A) (A) (A) (A) (A)
                 (A) (A) (A) (A) (A) (A) (A) (A) (A) (A) (A) (A)
                 (A) (A) (A) (A) (A) (A) (A) (A) (A) (A) (A) (A)
                 (A) (A) (A) (A) (A) (A) (A) (A) (A) (A) (A) (A)
                 (A) (A) (A) (A) (A) (A) (A) (A) (A) (A) (A) (A)
                 (A) (A) (A) (A) (A) (A) (A) (A) (A) (A) (A) (A)
                 (A) (A) (A) (A) (A) (A) (A) (A) (A) (A) (A) (A)
                 (A) (A) (A) (A) (A) (A) (A) (A) (A) (A) (A) (A)
                 (A) (A) (A) (A) (A) (A) (A) (A) (A) (A) (A) (A)
                 (A) (A) (A) (A) (A) (A) (A) (A) (A) (A) (A) (A)
                 (A) (A) (A) (A) (A) (A) (A) (A) (A) (A) (A) (A)
                 (A) (A) (A) (A) (A) (A) (A) (A) (A) (A) (A) (A)
                 (A) (A) (A) (A) (A) (A) (A) (A) (A) (A) (A) (A)
                 (A) (A) (A) (A) (A) (A) (A) (A) (A) (A) (A) (A)
                 (A) (A) (A) (A) (A) (A) (A) (A) (A) (A) (A) (A)
                 (A) (A) (A) (A) (A) (A) (A) (A) (A) (A) (A) (A)
                 (A) (A) (A) (A) (A) (A) (A) (A) (A) (A) (A) (A)
                 (A) (A) (A) (A) (A) (A) (A) (A) (A) (A) (A) (A)
                 (A) (A) (A) (A) (A) (A) (A) (A) (A) (A) (A) (A)
                 (A) (A) (A) (A) (A) (A) (A) (A) (A) (A) (A) (A)
                 (A) (A) (A) (A) (A) (A) (A) (A) (A) (A) (A) (A)
                 (A) (A) (A) (A) (A) (A) (A) (A) (A) (A) (A) (A)
                 (A) (A) (A) (A) (A) (A) (A) (A) (A) (A) (A) (A)
                 (A) (A) (A) (A) (A) (A) (A) (A) (A) (A) (A) (A)
                 (A) (A) (A) (A) (A) (A) (A) (A) (A) (A) (A) (A)
                 (A) (A) (A) (A) (A) (A) (A) (A) (A) (A) (A) (A)
                 (A) (A) (A) (A) (A) (A) (A) (A) (A) (A) (A) (A)
                 (A) (A) (A) (A) (A) (A) (A) (A) (A) (A) (A) (A)
                 (A) (A) (A) (A) (A) (A) (A) (A) (A) (A) (A) (A)
                 (A) (A) (A) (A) (A) (A) (A) (A) (A) (A) (A) (A)
                 (A) (A) (A) (A) (A) (A) (A) (A) (A) (A) (A) (A)
                 (A) (A) (A) (A) (A) (A) (A) (A) (A) (A) (A) (A)
                 (A) (A) (A) (A) (A) (A) (A) (A) (A) (A) (A) (A)
                 (A) (A) (A) (A) (A) (A) (A) (A) (A) (A) (A) (A)
                 (A) (A) (A) (A) (A) (A) (A) (A) (A) (A) (A) (A)
                 (A) (A) (A) (A) (A) (A) (A) (A) (A) (A) (A) (A)
                 (A) (A) (A) (A) (A) (A) (A) (A) (A) (A) (A) (A)
                 (A) (A) (A) (A) (A) (A) (A) (A) (A) (A) (A) (A)
                 (A) (A) (A) (A) (A) (A) (A) (A) (A) (A) (A) (A)
                 (A) (A) (A) (A) (A) (A) (A) (A) (A) (A) (A) (A)
                 (A) (A) (A) (A) (A) (A) (A) (A) (A) (A) (A) (A)
                 (A) (A) (A) (A) (A) (A) (A) (A) (A) (A) (A) (A)
                 (A) (A) (A) (A) (A) (A) (A) (A) (A) (A) (A) (A)
                 (A) (A) (A) (A) (A) (A) (A) (A) (A) (A) (A) (A)
                 (A) (A) (A) (A) (A) (A) (A) (A) (A) (A) (A) (A)
                 (A) (A) (A) (A) (A) (A) (A) (A) (A) (A) (A) (A)
                 (A) (A) (A) (A) (A) (A) (A) (A) (A) (A) (A) (A)
                 (A) (A) (A) (A) (A) (A) (A) (A) (A) (A) (A) (A)
                 (A) (A) (A) (A) (A) (A) (A) (A) (A) (A) (A) (A)
                 (A) (A) (A) (A) (A) (A) (A) (A) (A) (A) (A) (A)
                 (A) (A) (A) (A) (A) (A) (A) (A) (A) (A) (A) (A)
                 (A) (A) (A) (A) (A) (A) (A) (A) (A) (A) (A) (A)
                 (A) (A) (A) (A) (A) (A) (A) (A) (A) (A) (A) (A)
                 (A) (A) (A) (A) (A) (A) (A) (A) (A) (A) (A) (A)
                 (A) (A) (A) (A) (A) (A) (A) (A) (A) (A) (A) (A)
                 (A) (A) (A) (A) (A) (A) (A) (A) (A) (A) (A) (A)
                 (A) (A) (A) (A) (A) (A) (A) (A) (A) (A) (A) (A)
                 (A) (A) (A) (A) (A) (A) (A) (A) (A) (A) (A) (A)
                 (A) (A) (A) (A) (A) (A) (A) (A) (A) (A) (A) (A)
                 (A) (A) (A) (A) (A) (A) (A) (A) (A) (A) (A) (A)
                 (A) (A) (A) (A) (A) (A) (A) (A) (A) (A) (A) (A)
                 (A) (A) (A) (A) (A) (A) (A) (A) (A) (A) (A) (A)
                 (A) (A) (A) (A) (A) (A) (A) (A) (A) (A) (A) (A)
                 (A) (A) (A) (A) (A) (A) (A) (A) (A) (A) (A) (A)
                 (A) (A) (A) (A) (A) (A) (A) (A) (A) (A) (A) (A)
                 (A) (A) (A) (A) (A) (A) (A) (A) (A) (A) (A) (A)
                 (A) (A) (A) (A) (A) (A) (A) (A) (A) (A) (A) (A)
                 (A) (A) (A) (A) (A) (A) (A) (A) (A) (A) (A) (A)
                 (A) (A) (A) (A) (A) (A) (A) (A) (A) (A) (A) (A)
                 (A) (A) (A) (A) (A) (A) (A) (A) (A) (A)
     4 initial guesses have been made.
 Convergence on wavefunction:    0.001000000000000
 Iteration     1 Dimension     4 NMult     0 NNew      4
 CISAX will form     4 AO SS matrices at one time.
 Iteration     2 Dimension     6 NMult     4 NNew      2
 Iteration     3 Dimension     8 NMult     6 NNew      2
 Iteration     4 Dimension    10 NMult     8 NNew      2
 Iteration     5 Dimension    12 NMult    10 NNew      2
 Iteration     6 Dimension    14 NMult    12 NNew      2
 Iteration     7 Dimension    16 NMult    14 NNew      2
 Iteration     8 Dimension    18 NMult    16 NNew      2
 Iteration     9 Dimension    20 NMult    18 NNew      2
 ***********************************************************************
 Excited states from <AA,BB:AA,BB> singles matrix:
 ***********************************************************************
 
 Ground to excited state transition densities written to RWF  633
 Ground to excited state transition electric dipole moments (Au):
       state          X           Y           Z        Dip. S.      Osc.
         1         0.7543      0.6026      1.1197      2.1857      0.1138
 Ground to excited state transition velocity dipole moments (Au):
       state          X           Y           Z        Dip. S.      Osc.
         1        -0.0571     -0.0444     -0.0842      0.0123      0.1051
 Ground to excited state transition magnetic dipole moments (Au):
       state          X           Y           Z
         1        -1.4127     -1.3154      1.6173
 Ground to excited state transition velocity quadrupole moments (Au):
       state          XX          YY          ZZ          XY          XZ          YZ
         1         1.1283      0.0471     -0.1895      0.3380      0.8048     -0.1605
 <0|del|b> * <b|rxdel|0> + <0|del|b> * <b|delr+rdel|0>
 Rotatory Strengths (R) in cgs (10**-40 erg-esu-cm/Gauss)
       state          XX          YY          ZZ    R(velocity)    E-M Angle
         1      -319.1193    -80.8234    426.2827      8.7800       89.40
 1/2[<0|r|b>*<b|rxdel|0> + (<0|rxdel|b>*<b|r|0>)*]
 Rotatory Strengths (R) in cgs (10**-40 erg-esu-cm/Gauss)
       state          XX          YY          ZZ     R(length)
         1       753.5594    560.5503  -1280.5504     11.1864
  1/2[<0|del|b>*<b|r|0> + (<0|r|b>*<b|del|0>)*] (Au)
       state          X           Y           Z        Dip. S.   Osc.(frdel)
         1        -0.0431     -0.0267     -0.0942      0.1640      0.1094

 Excitation energies and oscillator strengths:
 
 Excited State   1:      Singlet-A      2.1251 eV  583.43 nm  f=0.1138  <S**2>=0.000
     243 -> 246        0.31062
     244 -> 245        0.62485
 This state for optimization and/or second-order correction.
 Total Energy, E(TD-HF/TD-DFT) =  -3043.34497984    
 Copying the excited state density for this state as the 1-particle RhoCI density.
 SavETr:  write IOETrn=   770 NScale= 10 NData=  16 NLR=1 NState=    1 LETran=      28.
 Hyperfine terms turned off by default for NAtoms > 100.

 **********************************************************************

            Population analysis using the SCF density.

 **********************************************************************

 Orbital symmetries:
       Occupied  (A) (A) (A) (A) (A) (A) (A) (A) (A) (A) (A) (A)
                 (A) (A) (A) (A) (A) (A) (A) (A) (A) (A) (A) (A)
                 (A) (A) (A) (A) (A) (A) (A) (A) (A) (A) (A) (A)
                 (A) (A) (A) (A) (A) (A) (A) (A) (A) (A) (A) (A)
                 (A) (A) (A) (A) (A) (A) (A) (A) (A) (A) (A) (A)
                 (A) (A) (A) (A) (A) (A) (A) (A) (A) (A) (A) (A)
                 (A) (A) (A) (A) (A) (A) (A) (A) (A) (A) (A) (A)
                 (A) (A) (A) (A) (A) (A) (A) (A) (A) (A) (A) (A)
                 (A) (A) (A) (A) (A) (A) (A) (A) (A) (A) (A) (A)
                 (A) (A) (A) (A) (A) (A) (A) (A) (A) (A) (A) (A)
                 (A) (A) (A) (A) (A) (A) (A) (A) (A) (A) (A) (A)
                 (A) (A) (A) (A) (A) (A) (A) (A) (A) (A) (A) (A)
                 (A) (A) (A) (A) (A) (A) (A) (A) (A) (A) (A) (A)
                 (A) (A) (A) (A) (A) (A) (A) (A) (A) (A) (A) (A)
                 (A) (A) (A) (A) (A) (A) (A) (A) (A) (A) (A) (A)
                 (A) (A) (A) (A) (A) (A) (A) (A) (A) (A) (A) (A)
                 (A) (A) (A) (A) (A) (A) (A) (A) (A) (A) (A) (A)
                 (A) (A) (A) (A) (A) (A) (A) (A) (A) (A) (A) (A)
                 (A) (A) (A) (A) (A) (A) (A) (A) (A) (A) (A) (A)
                 (A) (A) (A) (A) (A) (A) (A) (A) (A) (A) (A) (A)
                 (A) (A) (A) (A)
       Virtual   (A) (A) (A) (A) (A) (A) (A) (A) (A) (A) (A) (A)
                 (A) (A) (A) (A) (A) (A) (A) (A) (A) (A) (A) (A)
                 (A) (A) (A) (A) (A) (A) (A) (A) (A) (A) (A) (A)
                 (A) (A) (A) (A) (A) (A) (A) (A) (A) (A) (A) (A)
                 (A) (A) (A) (A) (A) (A) (A) (A) (A) (A) (A) (A)
                 (A) (A) (A) (A) (A) (A) (A) (A) (A) (A) (A) (A)
                 (A) (A) (A) (A) (A) (A) (A) (A) (A) (A) (A) (A)
                 (A) (A) (A) (A) (A) (A) (A) (A) (A) (A) (A) (A)
                 (A) (A) (A) (A) (A) (A) (A) (A) (A) (A) (A) (A)
                 (A) (A) (A) (A) (A) (A) (A) (A) (A) (A) (A) (A)
                 (A) (A) (A) (A) (A) (A) (A) (A) (A) (A) (A) (A)
                 (A) (A) (A) (A) (A) (A) (A) (A) (A) (A) (A) (A)
                 (A) (A) (A) (A) (A) (A) (A) (A) (A) (A) (A) (A)
                 (A) (A) (A) (A) (A) (A) (A) (A) (A) (A) (A) (A)
                 (A) (A) (A) (A) (A) (A) (A) (A) (A) (A) (A) (A)
                 (A) (A) (A) (A) (A) (A) (A) (A) (A) (A) (A) (A)
                 (A) (A) (A) (A) (A) (A) (A) (A) (A) (A) (A) (A)
                 (A) (A) (A) (A) (A) (A) (A) (A) (A) (A) (A) (A)
                 (A) (A) (A) (A) (A) (A) (A) (A) (A) (A) (A) (A)
                 (A) (A) (A) (A) (A) (A) (A) (A) (A) (A) (A) (A)
                 (A) (A) (A) (A) (A) (A) (A) (A) (A) (A) (A) (A)
                 (A) (A) (A) (A) (A) (A) (A) (A) (A) (A) (A) (A)
                 (A) (A) (A) (A) (A) (A) (A) (A) (A) (A) (A) (A)
                 (A) (A) (A) (A) (A) (A) (A) (A) (A) (A) (A) (A)
                 (A) (A) (A) (A) (A) (A) (A) (A) (A) (A) (A) (A)
                 (A) (A) (A) (A) (A) (A) (A) (A) (A) (A) (A) (A)
                 (A) (A) (A) (A) (A) (A) (A) (A) (A) (A) (A) (A)
                 (A) (A) (A) (A) (A) (A) (A) (A) (A) (A) (A) (A)
                 (A) (A) (A) (A) (A) (A) (A) (A) (A) (A) (A) (A)
                 (A) (A) (A) (A) (A) (A) (A) (A) (A) (A) (A) (A)
                 (A) (A) (A) (A) (A) (A) (A) (A) (A) (A) (A) (A)
                 (A) (A) (A) (A) (A) (A) (A) (A) (A) (A) (A) (A)
                 (A) (A) (A) (A) (A) (A) (A) (A) (A) (A) (A) (A)
                 (A) (A) (A) (A) (A) (A) (A) (A) (A) (A) (A) (A)
                 (A) (A) (A) (A) (A) (A) (A) (A) (A) (A) (A) (A)
                 (A) (A) (A) (A) (A) (A) (A) (A) (A) (A) (A) (A)
                 (A) (A) (A) (A) (A) (A) (A) (A) (A) (A) (A) (A)
                 (A) (A) (A) (A) (A) (A) (A) (A) (A) (A) (A) (A)
                 (A) (A) (A) (A) (A) (A) (A) (A) (A) (A) (A) (A)
                 (A) (A) (A) (A) (A) (A) (A) (A) (A) (A) (A) (A)
                 (A) (A) (A) (A) (A) (A) (A) (A) (A) (A) (A) (A)
                 (A) (A) (A) (A) (A) (A) (A) (A) (A) (A) (A) (A)
                 (A) (A) (A) (A) (A) (A) (A) (A) (A) (A) (A) (A)
                 (A) (A) (A) (A) (A) (A) (A) (A) (A) (A) (A) (A)
                 (A) (A) (A) (A) (A) (A) (A) (A) (A) (A) (A) (A)
                 (A) (A) (A) (A) (A) (A) (A) (A) (A) (A) (A) (A)
                 (A) (A) (A) (A) (A) (A) (A) (A) (A) (A) (A) (A)
                 (A) (A) (A) (A) (A) (A) (A) (A) (A) (A) (A) (A)
                 (A) (A) (A) (A) (A) (A) (A) (A) (A) (A) (A) (A)
                 (A) (A) (A) (A) (A) (A) (A) (A) (A) (A) (A) (A)
                 (A) (A) (A) (A) (A) (A) (A) (A) (A) (A) (A) (A)
                 (A) (A) (A) (A) (A) (A) (A) (A) (A) (A) (A) (A)
                 (A) (A) (A) (A) (A) (A) (A) (A) (A) (A) (A) (A)
                 (A) (A) (A) (A) (A) (A) (A) (A) (A) (A) (A) (A)
                 (A) (A) (A) (A) (A) (A) (A) (A) (A) (A) (A) (A)
                 (A) (A) (A) (A) (A) (A) (A) (A) (A) (A) (A) (A)
                 (A) (A) (A) (A) (A) (A) (A) (A) (A) (A) (A) (A)
                 (A) (A) (A) (A) (A) (A) (A) (A) (A) (A) (A) (A)
                 (A) (A) (A) (A) (A) (A) (A) (A) (A) (A) (A) (A)
                 (A) (A) (A) (A) (A) (A) (A) (A) (A) (A) (A) (A)
                 (A) (A) (A) (A) (A) (A) (A) (A) (A) (A) (A) (A)
                 (A) (A) (A) (A) (A) (A) (A) (A) (A) (A) (A) (A)
                 (A) (A) (A) (A) (A) (A) (A) (A) (A) (A) (A) (A)
                 (A) (A) (A) (A) (A) (A) (A) (A) (A) (A) (A) (A)
                 (A) (A) (A) (A) (A) (A) (A) (A) (A) (A) (A) (A)
                 (A) (A) (A) (A) (A) (A) (A) (A) (A) (A) (A) (A)
                 (A) (A) (A) (A) (A) (A) (A) (A) (A) (A) (A) (A)
                 (A) (A) (A) (A) (A) (A) (A) (A) (A) (A) (A) (A)
                 (A) (A) (A) (A) (A) (A) (A) (A) (A) (A) (A) (A)
                 (A) (A) (A) (A) (A) (A) (A) (A) (A) (A) (A) (A)
                 (A) (A) (A) (A) (A) (A) (A) (A) (A) (A) (A) (A)
                 (A) (A) (A) (A) (A) (A) (A) (A) (A) (A) (A) (A)
                 (A) (A) (A) (A) (A) (A) (A) (A) (A) (A) (A) (A)
                 (A) (A) (A) (A) (A) (A) (A) (A) (A) (A) (A) (A)
                 (A) (A) (A) (A) (A) (A) (A) (A) (A) (A) (A) (A)
                 (A) (A) (A) (A) (A) (A) (A) (A) (A) (A) (A) (A)
                 (A) (A) (A) (A) (A) (A) (A) (A) (A) (A) (A) (A)
                 (A) (A) (A) (A) (A) (A) (A) (A) (A) (A) (A) (A)
                 (A) (A) (A) (A) (A) (A) (A) (A) (A) (A) (A) (A)
                 (A) (A) (A) (A) (A) (A) (A) (A) (A) (A) (A) (A)
                 (A) (A) (A) (A) (A) (A) (A) (A) (A) (A) (A) (A)
                 (A) (A) (A) (A) (A) (A) (A) (A) (A) (A) (A) (A)
                 (A) (A) (A) (A) (A) (A) (A) (A) (A) (A) (A) (A)
                 (A) (A) (A) (A) (A) (A) (A) (A) (A) (A) (A) (A)
                 (A) (A) (A) (A) (A) (A) (A) (A) (A) (A) (A) (A)
                 (A) (A) (A) (A) (A) (A) (A) (A) (A) (A) (A) (A)
                 (A) (A) (A) (A) (A) (A) (A) (A) (A) (A) (A) (A)
                 (A) (A) (A) (A) (A) (A) (A) (A) (A) (A) (A) (A)
                 (A) (A) (A) (A) (A) (A) (A) (A) (A) (A) (A) (A)
                 (A) (A) (A) (A) (A) (A) (A) (A) (A) (A) (A) (A)
                 (A) (A) (A) (A) (A) (A) (A) (A) (A) (A)
 The electronic state is 1-A.
 Alpha  occ. eigenvalues --  -46.80880 -19.25455 -19.21223 -19.18560 -19.17561
 Alpha  occ. eigenvalues --  -19.17128 -19.17040 -19.16339 -14.38774 -14.36846
 Alpha  occ. eigenvalues --  -14.36141 -14.36046 -10.36203 -10.35680 -10.31227
 Alpha  occ. eigenvalues --  -10.30930 -10.29869 -10.29181 -10.27873 -10.27358
 Alpha  occ. eigenvalues --  -10.26728 -10.26297 -10.26155 -10.25990 -10.25968
 Alpha  occ. eigenvalues --  -10.25807 -10.25494 -10.25334 -10.25241 -10.25104
 Alpha  occ. eigenvalues --  -10.25021 -10.24874 -10.24413 -10.24122 -10.23821
 Alpha  occ. eigenvalues --  -10.23756 -10.23728 -10.23684 -10.23601 -10.22890
 Alpha  occ. eigenvalues --  -10.22852 -10.22814 -10.22806 -10.22615 -10.22287
 Alpha  occ. eigenvalues --  -10.22130 -10.22116 -10.22073 -10.22001 -10.21965
 Alpha  occ. eigenvalues --  -10.21820 -10.21749 -10.21741 -10.21703 -10.21611
 Alpha  occ. eigenvalues --  -10.20967 -10.20930 -10.20766 -10.20469 -10.20442
 Alpha  occ. eigenvalues --  -10.20331 -10.19795 -10.19502 -10.19311 -10.19188
 Alpha  occ. eigenvalues --  -10.18850  -3.09461  -1.84398  -1.83922  -1.83880
 Alpha  occ. eigenvalues --   -1.18154  -1.12893  -1.09133  -1.06502  -1.06087
 Alpha  occ. eigenvalues --   -1.05686  -1.03149  -1.00347  -0.99236  -0.98412
 Alpha  occ. eigenvalues --   -0.97112  -0.89413  -0.86366  -0.86306  -0.85150
 Alpha  occ. eigenvalues --   -0.85076  -0.84925  -0.84681  -0.83851  -0.83062
 Alpha  occ. eigenvalues --   -0.82578  -0.82273  -0.81517  -0.80802  -0.80150
 Alpha  occ. eigenvalues --   -0.78867  -0.78439  -0.78083  -0.77451  -0.76282
 Alpha  occ. eigenvalues --   -0.75422  -0.74805  -0.73891  -0.73605  -0.72505
 Alpha  occ. eigenvalues --   -0.71078  -0.70623  -0.70182  -0.69979  -0.69478
 Alpha  occ. eigenvalues --   -0.69242  -0.68757  -0.67780  -0.67136  -0.66355
 Alpha  occ. eigenvalues --   -0.65784  -0.64697  -0.63632  -0.62858  -0.62112
 Alpha  occ. eigenvalues --   -0.61703  -0.60744  -0.60606  -0.59563  -0.59138
 Alpha  occ. eigenvalues --   -0.58547  -0.58062  -0.57897  -0.57257  -0.57070
 Alpha  occ. eigenvalues --   -0.56240  -0.55915  -0.55758  -0.55542  -0.55136
 Alpha  occ. eigenvalues --   -0.55029  -0.53879  -0.53436  -0.53297  -0.52717
 Alpha  occ. eigenvalues --   -0.52385  -0.52227  -0.51956  -0.51548  -0.51449
 Alpha  occ. eigenvalues --   -0.50884  -0.50372  -0.49783  -0.49692  -0.49483
 Alpha  occ. eigenvalues --   -0.49218  -0.48733  -0.48491  -0.48176  -0.48167
 Alpha  occ. eigenvalues --   -0.48133  -0.47527  -0.47381  -0.46962  -0.46930
 Alpha  occ. eigenvalues --   -0.46754  -0.46530  -0.46301  -0.46005  -0.45888
 Alpha  occ. eigenvalues --   -0.45644  -0.45484  -0.45235  -0.44869  -0.44479
 Alpha  occ. eigenvalues --   -0.44420  -0.44154  -0.44003  -0.43817  -0.43647
 Alpha  occ. eigenvalues --   -0.43452  -0.43337  -0.43170  -0.42988  -0.42866
 Alpha  occ. eigenvalues --   -0.42574  -0.42271  -0.42066  -0.41973  -0.41847
 Alpha  occ. eigenvalues --   -0.41516  -0.41367  -0.41106  -0.40968  -0.40836
 Alpha  occ. eigenvalues --   -0.40762  -0.40546  -0.40258  -0.39974  -0.39883
 Alpha  occ. eigenvalues --   -0.39616  -0.39258  -0.39077  -0.38889  -0.38829
 Alpha  occ. eigenvalues --   -0.38490  -0.38400  -0.38357  -0.38204  -0.38020
 Alpha  occ. eigenvalues --   -0.37890  -0.37811  -0.37351  -0.36940  -0.36748
 Alpha  occ. eigenvalues --   -0.36678  -0.36594  -0.36356  -0.36108  -0.35522
 Alpha  occ. eigenvalues --   -0.35251  -0.34780  -0.34476  -0.34409  -0.34150
 Alpha  occ. eigenvalues --   -0.34126  -0.33821  -0.33671  -0.33414  -0.33259
 Alpha  occ. eigenvalues --   -0.32694  -0.32515  -0.32166  -0.31797  -0.31790
 Alpha  occ. eigenvalues --   -0.31619  -0.31146  -0.30533  -0.30230  -0.29861
 Alpha  occ. eigenvalues --   -0.28349  -0.27922  -0.27911  -0.27627  -0.27428
 Alpha  occ. eigenvalues --   -0.27192  -0.26355  -0.23157  -0.21753
 Alpha virt. eigenvalues --   -0.07960  -0.06783  -0.01538  -0.00606   0.00935
 Alpha virt. eigenvalues --    0.01513   0.02706   0.02755   0.03672   0.05069
 Alpha virt. eigenvalues --    0.05390   0.06034   0.08584   0.08620   0.09416
 Alpha virt. eigenvalues --    0.09709   0.09894   0.10213   0.10344   0.10583
 Alpha virt. eigenvalues --    0.10980   0.11029   0.11124   0.11849   0.12321
 Alpha virt. eigenvalues --    0.12627   0.12749   0.12913   0.13041   0.13256
 Alpha virt. eigenvalues --    0.13428   0.13712   0.13911   0.14043   0.14143
 Alpha virt. eigenvalues --    0.14266   0.14636   0.14711   0.14879   0.15035
 Alpha virt. eigenvalues --    0.15105   0.15485   0.15526   0.15715   0.15793
 Alpha virt. eigenvalues --    0.16272   0.16394   0.16477   0.16720   0.16760
 Alpha virt. eigenvalues --    0.17006   0.17097   0.17253   0.17573   0.17646
 Alpha virt. eigenvalues --    0.17807   0.18256   0.18585   0.18653   0.18812
 Alpha virt. eigenvalues --    0.18993   0.19203   0.19374   0.19450   0.19544
 Alpha virt. eigenvalues --    0.19826   0.19835   0.20143   0.20242   0.20297
 Alpha virt. eigenvalues --    0.20728   0.20841   0.20899   0.21323   0.21422
 Alpha virt. eigenvalues --    0.21576   0.21770   0.21840   0.22322   0.22491
 Alpha virt. eigenvalues --    0.22589   0.22683   0.22989   0.23077   0.23402
 Alpha virt. eigenvalues --    0.23853   0.24063   0.24149   0.24252   0.24724
 Alpha virt. eigenvalues --    0.24774   0.24827   0.24884   0.25051   0.25299
 Alpha virt. eigenvalues --    0.25488   0.25607   0.25911   0.26049   0.26241
 Alpha virt. eigenvalues --    0.26564   0.26808   0.26816   0.27163   0.27201
 Alpha virt. eigenvalues --    0.27614   0.27825   0.27907   0.28298   0.28440
 Alpha virt. eigenvalues --    0.28694   0.28853   0.29181   0.29367   0.29723
 Alpha virt. eigenvalues --    0.30126   0.30160   0.30220   0.30332   0.30686
 Alpha virt. eigenvalues --    0.31019   0.31627   0.32149   0.32225   0.32404
 Alpha virt. eigenvalues --    0.32874   0.33606   0.33672   0.34017   0.34261
 Alpha virt. eigenvalues --    0.34316   0.34790   0.35231   0.35525   0.35906
 Alpha virt. eigenvalues --    0.36423   0.36522   0.37559   0.38282   0.38566
 Alpha virt. eigenvalues --    0.38650   0.38714   0.39283   0.39748   0.40587
 Alpha virt. eigenvalues --    0.41372   0.41513   0.41905   0.42479   0.43394
 Alpha virt. eigenvalues --    0.44440   0.45234   0.45868   0.46348   0.46794
 Alpha virt. eigenvalues --    0.47555   0.48386   0.48755   0.49045   0.49305
 Alpha virt. eigenvalues --    0.49717   0.50247   0.50742   0.51018   0.51358
 Alpha virt. eigenvalues --    0.51819   0.52191   0.52447   0.52829   0.53269
 Alpha virt. eigenvalues --    0.53460   0.53721   0.53767   0.53975   0.54093
 Alpha virt. eigenvalues --    0.54506   0.54704   0.55116   0.55246   0.55347
 Alpha virt. eigenvalues --    0.55509   0.55679   0.55756   0.56216   0.56234
 Alpha virt. eigenvalues --    0.56382   0.56972   0.57014   0.57324   0.57644
 Alpha virt. eigenvalues --    0.57785   0.58125   0.58406   0.58518   0.58855
 Alpha virt. eigenvalues --    0.59349   0.59404   0.59410   0.59528   0.59930
 Alpha virt. eigenvalues --    0.60139   0.60382   0.60555   0.60744   0.60859
 Alpha virt. eigenvalues --    0.61320   0.61655   0.61861   0.62127   0.62223
 Alpha virt. eigenvalues --    0.62522   0.62695   0.63057   0.63315   0.63878
 Alpha virt. eigenvalues --    0.64104   0.64333   0.64498   0.64863   0.65277
 Alpha virt. eigenvalues --    0.65324   0.65539   0.65743   0.66251   0.66466
 Alpha virt. eigenvalues --    0.66910   0.66943   0.67090   0.67307   0.67749
 Alpha virt. eigenvalues --    0.67949   0.68066   0.68478   0.68600   0.68706
 Alpha virt. eigenvalues --    0.68975   0.69119   0.69484   0.69753   0.70026
 Alpha virt. eigenvalues --    0.70355   0.70478   0.70724   0.70782   0.71053
 Alpha virt. eigenvalues --    0.71132   0.71472   0.71763   0.71810   0.71966
 Alpha virt. eigenvalues --    0.72109   0.72780   0.73198   0.73384   0.73989
 Alpha virt. eigenvalues --    0.74244   0.74404   0.74727   0.74876   0.75009
 Alpha virt. eigenvalues --    0.75453   0.76102   0.76320   0.76592   0.76918
 Alpha virt. eigenvalues --    0.77030   0.77340   0.77558   0.77875   0.78280
 Alpha virt. eigenvalues --    0.78541   0.78647   0.78933   0.79237   0.79417
 Alpha virt. eigenvalues --    0.79528   0.80020   0.80183   0.80379   0.80570
 Alpha virt. eigenvalues --    0.80799   0.80829   0.81023   0.81426   0.81558
 Alpha virt. eigenvalues --    0.81804   0.82230   0.82303   0.82666   0.82883
 Alpha virt. eigenvalues --    0.83023   0.83138   0.83181   0.83298   0.83627
 Alpha virt. eigenvalues --    0.83859   0.84168   0.84277   0.84373   0.84665
 Alpha virt. eigenvalues --    0.84840   0.84924   0.85278   0.85643   0.85940
 Alpha virt. eigenvalues --    0.86186   0.86280   0.86419   0.86854   0.86980
 Alpha virt. eigenvalues --    0.87284   0.87632   0.87694   0.87936   0.87997
 Alpha virt. eigenvalues --    0.88211   0.88262   0.88580   0.88737   0.88779
 Alpha virt. eigenvalues --    0.88929   0.89139   0.89457   0.89636   0.89928
 Alpha virt. eigenvalues --    0.90132   0.90521   0.90688   0.90848   0.91307
 Alpha virt. eigenvalues --    0.91486   0.91557   0.91785   0.92020   0.92245
 Alpha virt. eigenvalues --    0.92580   0.92613   0.92747   0.92941   0.93292
 Alpha virt. eigenvalues --    0.93757   0.94076   0.94117   0.94357   0.94449
 Alpha virt. eigenvalues --    0.94652   0.95147   0.95485   0.95605   0.95750
 Alpha virt. eigenvalues --    0.95814   0.96188   0.96574   0.96790   0.96823
 Alpha virt. eigenvalues --    0.96894   0.96992   0.97489   0.97773   0.97788
 Alpha virt. eigenvalues --    0.98024   0.98472   0.98747   0.98841   0.99005
 Alpha virt. eigenvalues --    0.99289   0.99744   0.99891   0.99994   1.00215
 Alpha virt. eigenvalues --    1.00635   1.00700   1.01008   1.01057   1.01382
 Alpha virt. eigenvalues --    1.01689   1.01914   1.02102   1.02444   1.02576
 Alpha virt. eigenvalues --    1.02905   1.03259   1.03547   1.04015   1.04292
 Alpha virt. eigenvalues --    1.04711   1.05174   1.05350   1.05575   1.05889
 Alpha virt. eigenvalues --    1.06413   1.06693   1.06827   1.06999   1.07197
 Alpha virt. eigenvalues --    1.07705   1.08017   1.08295   1.08686   1.09060
 Alpha virt. eigenvalues --    1.09084   1.09513   1.09798   1.10154   1.10580
 Alpha virt. eigenvalues --    1.11147   1.11350   1.12221   1.12708   1.13235
 Alpha virt. eigenvalues --    1.13265   1.13816   1.14572   1.15428   1.16110
 Alpha virt. eigenvalues --    1.16661   1.17017   1.17260   1.18316   1.18891
 Alpha virt. eigenvalues --    1.19266   1.19592   1.20076   1.20300   1.21185
 Alpha virt. eigenvalues --    1.21408   1.21786   1.22449   1.22653   1.23287
 Alpha virt. eigenvalues --    1.23383   1.24495   1.25260   1.25517   1.25562
 Alpha virt. eigenvalues --    1.26274   1.26802   1.27998   1.28855   1.29245
 Alpha virt. eigenvalues --    1.29890   1.30419   1.30553   1.30798   1.31269
 Alpha virt. eigenvalues --    1.32269   1.32520   1.32816   1.33216   1.33395
 Alpha virt. eigenvalues --    1.33544   1.34005   1.34440   1.35235   1.35298
 Alpha virt. eigenvalues --    1.35910   1.36720   1.37281   1.37518   1.38088
 Alpha virt. eigenvalues --    1.38212   1.38519   1.39464   1.39737   1.40099
 Alpha virt. eigenvalues --    1.40299   1.40834   1.41229   1.41748   1.42208
 Alpha virt. eigenvalues --    1.43156   1.43597   1.43806   1.44404   1.44804
 Alpha virt. eigenvalues --    1.45326   1.45863   1.46157   1.46523   1.46954
 Alpha virt. eigenvalues --    1.47597   1.48239   1.48752   1.49422   1.49576
 Alpha virt. eigenvalues --    1.50335   1.50427   1.51374   1.51496   1.52100
 Alpha virt. eigenvalues --    1.52347   1.52645   1.53371   1.53916   1.53994
 Alpha virt. eigenvalues --    1.54141   1.54544   1.55217   1.55412   1.55956
 Alpha virt. eigenvalues --    1.56456   1.56586   1.56870   1.57452   1.58228
 Alpha virt. eigenvalues --    1.58463   1.59109   1.59947   1.60274   1.60825
 Alpha virt. eigenvalues --    1.61019   1.61338   1.61525   1.61964   1.62203
 Alpha virt. eigenvalues --    1.62359   1.62538   1.63549   1.63778   1.64316
 Alpha virt. eigenvalues --    1.65010   1.65355   1.65555   1.66218   1.66440
 Alpha virt. eigenvalues --    1.67176   1.67237   1.67644   1.68837   1.69252
 Alpha virt. eigenvalues --    1.69535   1.69773   1.70887   1.71210   1.71471
 Alpha virt. eigenvalues --    1.71518   1.71695   1.72131   1.72497   1.73136
 Alpha virt. eigenvalues --    1.73390   1.73560   1.73966   1.74290   1.74421
 Alpha virt. eigenvalues --    1.75083   1.75246   1.75952   1.76023   1.76219
 Alpha virt. eigenvalues --    1.76598   1.76770   1.77258   1.77332   1.77577
 Alpha virt. eigenvalues --    1.78195   1.79040   1.79452   1.79698   1.79967
 Alpha virt. eigenvalues --    1.80211   1.80846   1.81076   1.81240   1.81534
 Alpha virt. eigenvalues --    1.81745   1.81993   1.82105   1.82249   1.83093
 Alpha virt. eigenvalues --    1.83248   1.83340   1.83555   1.83686   1.84124
 Alpha virt. eigenvalues --    1.84249   1.84468   1.84914   1.85006   1.85305
 Alpha virt. eigenvalues --    1.85446   1.85722   1.85959   1.86071   1.86270
 Alpha virt. eigenvalues --    1.86387   1.86870   1.87340   1.87543   1.87673
 Alpha virt. eigenvalues --    1.88078   1.88141   1.88544   1.88812   1.89100
 Alpha virt. eigenvalues --    1.89686   1.89831   1.90086   1.90261   1.90591
 Alpha virt. eigenvalues --    1.90815   1.91057   1.91325   1.91455   1.91789
 Alpha virt. eigenvalues --    1.92030   1.92600   1.92831   1.93854   1.93918
 Alpha virt. eigenvalues --    1.94165   1.94370   1.94560   1.94961   1.95251
 Alpha virt. eigenvalues --    1.95434   1.95574   1.95876   1.96444   1.96667
 Alpha virt. eigenvalues --    1.96925   1.97095   1.97359   1.97751   1.97917
 Alpha virt. eigenvalues --    1.98154   1.98278   1.98822   1.99108   1.99543
 Alpha virt. eigenvalues --    1.99616   1.99664   1.99905   2.00332   2.00558
 Alpha virt. eigenvalues --    2.01173   2.01494   2.01852   2.01913   2.01990
 Alpha virt. eigenvalues --    2.02159   2.03122   2.03319   2.03637   2.04181
 Alpha virt. eigenvalues --    2.04348   2.04771   2.05000   2.05384   2.05614
 Alpha virt. eigenvalues --    2.05821   2.05959   2.06388   2.06969   2.07064
 Alpha virt. eigenvalues --    2.07510   2.07703   2.08027   2.08147   2.08314
 Alpha virt. eigenvalues --    2.08433   2.08962   2.09215   2.09827   2.09988
 Alpha virt. eigenvalues --    2.10640   2.10801   2.10914   2.11062   2.11294
 Alpha virt. eigenvalues --    2.11676   2.12074   2.12235   2.12544   2.13009
 Alpha virt. eigenvalues --    2.13345   2.13571   2.13930   2.14241   2.14548
 Alpha virt. eigenvalues --    2.14940   2.15077   2.15388   2.15715   2.16300
 Alpha virt. eigenvalues --    2.16335   2.16946   2.17240   2.17290   2.17729
 Alpha virt. eigenvalues --    2.18036   2.18226   2.18560   2.18876   2.19387
 Alpha virt. eigenvalues --    2.19855   2.19978   2.20396   2.20432   2.20729
 Alpha virt. eigenvalues --    2.21576   2.22058   2.22425   2.22639   2.22811
 Alpha virt. eigenvalues --    2.23204   2.23704   2.23728   2.24131   2.24501
 Alpha virt. eigenvalues --    2.24599   2.25189   2.25427   2.25606   2.25915
 Alpha virt. eigenvalues --    2.26231   2.26373   2.26632   2.27411   2.28003
 Alpha virt. eigenvalues --    2.28170   2.28539   2.28680   2.28777   2.29069
 Alpha virt. eigenvalues --    2.29362   2.29733   2.30704   2.30898   2.31179
 Alpha virt. eigenvalues --    2.32027   2.32479   2.32500   2.32590   2.32785
 Alpha virt. eigenvalues --    2.32974   2.33487   2.33616   2.33977   2.34226
 Alpha virt. eigenvalues --    2.34617   2.34897   2.35534   2.35631   2.35961
 Alpha virt. eigenvalues --    2.36098   2.36702   2.37133   2.37169   2.37908
 Alpha virt. eigenvalues --    2.37991   2.38496   2.38571   2.38845   2.39523
 Alpha virt. eigenvalues --    2.39952   2.40027   2.40373   2.40598   2.40779
 Alpha virt. eigenvalues --    2.41140   2.41508   2.41779   2.42359   2.42472
 Alpha virt. eigenvalues --    2.43278   2.43452   2.43630   2.44000   2.44383
 Alpha virt. eigenvalues --    2.44983   2.45046   2.45286   2.45388   2.45817
 Alpha virt. eigenvalues --    2.46144   2.46441   2.46765   2.47228   2.47654
 Alpha virt. eigenvalues --    2.47816   2.47994   2.48750   2.48883   2.49188
 Alpha virt. eigenvalues --    2.49671   2.49870   2.50100   2.50606   2.50927
 Alpha virt. eigenvalues --    2.51422   2.51830   2.52696   2.53179   2.53662
 Alpha virt. eigenvalues --    2.53702   2.54043   2.54296   2.54670   2.54833
 Alpha virt. eigenvalues --    2.55360   2.55774   2.56026   2.56203   2.56354
 Alpha virt. eigenvalues --    2.57096   2.57474   2.57974   2.58164   2.58592
 Alpha virt. eigenvalues --    2.58974   2.59627   2.59768   2.60254   2.60612
 Alpha virt. eigenvalues --    2.61113   2.61264   2.61480   2.61740   2.62175
 Alpha virt. eigenvalues --    2.62699   2.62857   2.63553   2.63932   2.64101
 Alpha virt. eigenvalues --    2.64526   2.64740   2.65317   2.65578   2.65718
 Alpha virt. eigenvalues --    2.66347   2.66625   2.66905   2.67156   2.67750
 Alpha virt. eigenvalues --    2.68198   2.68694   2.68834   2.69082   2.69830
 Alpha virt. eigenvalues --    2.70021   2.70269   2.70371   2.70884   2.71469
 Alpha virt. eigenvalues --    2.71631   2.71862   2.72350   2.72629   2.72887
 Alpha virt. eigenvalues --    2.73321   2.73697   2.74220   2.74410   2.74629
 Alpha virt. eigenvalues --    2.74797   2.75187   2.75451   2.75758   2.76504
 Alpha virt. eigenvalues --    2.76624   2.77082   2.77457   2.77761   2.78336
 Alpha virt. eigenvalues --    2.78592   2.78850   2.79100   2.79454   2.79620
 Alpha virt. eigenvalues --    2.80037   2.80741   2.81059   2.81438   2.81541
 Alpha virt. eigenvalues --    2.81735   2.81997   2.82312   2.82565   2.82872
 Alpha virt. eigenvalues --    2.83682   2.83739   2.84077   2.84593   2.84896
 Alpha virt. eigenvalues --    2.85411   2.85523   2.86458   2.86696   2.86922
 Alpha virt. eigenvalues --    2.87555   2.87785   2.87953   2.88509   2.89005
 Alpha virt. eigenvalues --    2.89092   2.89745   2.89793   2.90158   2.90469
 Alpha virt. eigenvalues --    2.90539   2.91144   2.91359   2.91705   2.91762
 Alpha virt. eigenvalues --    2.92432   2.93289   2.93468   2.93893   2.93974
 Alpha virt. eigenvalues --    2.94063   2.94451   2.95169   2.95403   2.95909
 Alpha virt. eigenvalues --    2.96622   2.96773   2.97770   2.98128   2.98507
 Alpha virt. eigenvalues --    2.98550   2.98871   2.99810   3.00168   3.00453
 Alpha virt. eigenvalues --    3.00862   3.02005   3.02322   3.02954   3.03078
 Alpha virt. eigenvalues --    3.03280   3.03812   3.03891   3.04443   3.04871
 Alpha virt. eigenvalues --    3.05278   3.05614   3.06642   3.07278   3.07419
 Alpha virt. eigenvalues --    3.08433   3.08709   3.09225   3.09532   3.10916
 Alpha virt. eigenvalues --    3.11136   3.11614   3.12441   3.14146   3.14422
 Alpha virt. eigenvalues --    3.16857   3.17209   3.18535   3.19752   3.20288
 Alpha virt. eigenvalues --    3.20778   3.21747   3.22244   3.22982   3.23336
 Alpha virt. eigenvalues --    3.23816   3.24033   3.24756   3.25884   3.26462
 Alpha virt. eigenvalues --    3.27802   3.27963   3.28656   3.28969   3.31056
 Alpha virt. eigenvalues --    3.32335   3.32665   3.32982   3.33608   3.33917
 Alpha virt. eigenvalues --    3.34829   3.35605   3.37073   3.37285   3.37794
 Alpha virt. eigenvalues --    3.38951   3.39396   3.39702   3.41332   3.41699
 Alpha virt. eigenvalues --    3.41996   3.43387   3.44425   3.44910   3.45889
 Alpha virt. eigenvalues --    3.46463   3.46511   3.47719   3.47829   3.49227
 Alpha virt. eigenvalues --    3.49871   3.51072   3.51266   3.53656   3.53697
 Alpha virt. eigenvalues --    3.53900   3.54374   3.55083   3.55626   3.55815
 Alpha virt. eigenvalues --    3.56329   3.56627   3.57512   3.57861   3.59410
 Alpha virt. eigenvalues --    3.60351   3.61435   3.62029   3.63299   3.63786
 Alpha virt. eigenvalues --    3.65454   3.65983   3.66595   3.67477   3.68914
 Alpha virt. eigenvalues --    3.70225   3.77402   3.77809   3.79410   3.84646
 Alpha virt. eigenvalues --    3.97874   4.00138   4.00692   4.08483   4.11905
 Alpha virt. eigenvalues --    4.15314   4.16395   4.16888   4.18006   4.19828
 Alpha virt. eigenvalues --    4.20235   4.22323   4.24298   4.24604   4.27899
 Alpha virt. eigenvalues --    4.28396   4.29010   4.30489   4.30868   4.32640
 Alpha virt. eigenvalues --    4.32995   4.34212   4.36451   4.37702   4.38571
 Alpha virt. eigenvalues --    4.40023   4.41671   4.42176   4.42349   4.43404
 Alpha virt. eigenvalues --    4.44255   4.44949   4.46608   4.47591   4.48975
 Alpha virt. eigenvalues --    4.49407   4.49724   4.49953   4.52703   4.52930
 Alpha virt. eigenvalues --    4.54499   4.55967   4.56839   4.57926   4.58590
 Alpha virt. eigenvalues --    4.61160   4.64098   4.64284   4.65011   4.65982
 Alpha virt. eigenvalues --    4.67928   4.68555   4.70812   4.71303   4.73135
 Alpha virt. eigenvalues --    4.76989   4.77472   4.81228   4.82320   4.82710
 Alpha virt. eigenvalues --    4.84242   4.86325   4.87781   4.88263   5.03999
          Condensed to atoms (all electrons):
 Mulliken charges:
               1
     1  Mg   0.817050
     2  C    0.143635
     3  C   -0.190046
     4  C   -0.177433
     5  C   -0.180372
     6  N   -0.637338
     7  C    0.244457
     8  C   -0.159533
     9  C   -0.180222
    10  C    0.393491
    11  C   -0.325803
    12  C   -0.173003
    13  C   -0.260239
    14  C    0.621808
    15  O   -0.455452
    16  O   -0.470996
    17  N   -0.734452
    18  C    0.324095
    19  C    0.052726
    20  C   -0.053279
    21  C    0.352950
    22  C   -0.390210
    23  C    0.247701
    24  O   -0.415664
    25  N   -0.687492
    26  C    0.283127
    27  C   -0.056278
    28  C    0.027714
    29  C    0.279152
    30  C    0.245160
    31  C   -0.204029
    32  C   -0.306930
    33  N   -0.736358
    34  C    0.265056
    35  C    0.067599
    36  C   -0.021813
    37  C    0.299000
    38  C   -0.385967
    39  C    0.365716
    40  O   -0.433916
    41  C   -0.324854
    42  C    0.615316
    43  O   -0.514860
    44  O   -0.361853
    45  C   -0.102482
    46  C   -0.014567
    47  C   -0.115132
    48  C    0.119825
    49  C   -0.380558
    50  C   -0.233409
    51  C   -0.195292
    52  C   -0.161730
    53  C   -0.085743
    54  C   -0.298130
    55  C   -0.172967
    56  C   -0.164239
    57  C   -0.178375
    58  C   -0.070918
    59  C   -0.318558
    60  C   -0.152541
    61  C   -0.172864
    62  C   -0.180320
    63  C   -0.043176
    64  C   -0.297183
    65  C   -0.309559
    66  H    0.080389
    67  H    0.120050
    68  H    0.087793
    69  H    0.130057
    70  H    0.096820
    71  H    0.126431
    72  H    0.108878
    73  H    0.123044
    74  H    0.109757
    75  H    0.124727
    76  H    0.135325
    77  H    0.113432
    78  H    0.138751
    79  H    0.172976
    80  H    0.105448
    81  H    0.093915
    82  H    0.114708
    83  H    0.112441
    84  H    0.081176
    85  H    0.110480
    86  H    0.128657
    87  H    0.141477
    88  H    0.111404
    89  H    0.138018
    90  H    0.173283
    91  H    0.106350
    92  H    0.117397
    93  H    0.090572
    94  H    0.150864
    95  H    0.098668
    96  H    0.126456
    97  H    0.113646
    98  H    0.079831
    99  H    0.103128
   100  H    0.107671
   101  H    0.074915
   102  H    0.097023
   103  H    0.080562
   104  H    0.096076
   105  H    0.103086
   106  H    0.081502
   107  H    0.090491
   108  H    0.091925
   109  H    0.109010
   110  H    0.102611
   111  H    0.076916
   112  H    0.077365
   113  H    0.065562
   114  H    0.107343
   115  H    0.103362
   116  H    0.112743
   117  H    0.097330
   118  H    0.073505
   119  H    0.063820
   120  H    0.099753
   121  H    0.091987
   122  H    0.080874
   123  H    0.097964
   124  H    0.094315
   125  H    0.107127
   126  H    0.056907
   127  H    0.112105
   128  H    0.088630
   129  H    0.082229
   130  H    0.113190
   131  H    0.152609
   132  H    0.123895
   133  O   -0.431342
   134  H    0.071143
 Sum of Mulliken charges =  -0.00000
 Mulliken charges with hydrogens summed into heavy atoms:
               1
     1  Mg   0.817050
     2  C    0.143635
     3  C   -0.109657
     4  C   -0.057382
     5  C   -0.092578
     6  N   -0.637338
     7  C    0.244457
     8  C   -0.029476
     9  C   -0.083402
    10  C    0.393491
    11  C    0.032550
    12  C    0.061482
    13  C   -0.011482
    14  C    0.621808
    15  O   -0.455452
    16  O   -0.470996
    17  N   -0.734452
    18  C    0.324095
    19  C    0.052726
    20  C   -0.053279
    21  C    0.352950
    22  C    0.026964
    23  C    0.341617
    24  O   -0.415664
    25  N   -0.687492
    26  C    0.283127
    27  C   -0.056278
    28  C    0.027714
    29  C    0.279152
    30  C    0.316303
    31  C    0.023120
    32  C    0.013383
    33  N   -0.736358
    34  C    0.265056
    35  C    0.067599
    36  C   -0.021813
    37  C    0.299000
    38  C    0.004932
    39  C    0.365716
    40  O   -0.433916
    41  C   -0.151571
    42  C    0.615316
    43  O   -0.514860
    44  O   -0.361853
    45  C    0.287212
    46  C    0.209180
    47  C   -0.024560
    48  C    0.119825
    49  C   -0.004570
    50  C   -0.039932
    51  C    0.015507
    52  C    0.010207
    53  C   -0.005181
    54  C   -0.017467
    55  C    0.009449
    56  C    0.047382
    57  C   -0.024094
    58  C   -0.005355
    59  C    0.004889
    60  C    0.018294
    61  C   -0.009291
    62  C   -0.007459
    63  C    0.054789
    64  C   -0.038834
    65  C   -0.026594
   133  O   -0.431342
 Electronic spatial extent (au):  <R**2>=         147365.4845
 Charge=             -0.0000 electrons
 Dipole moment (field-independent basis, Debye):
    X=              0.8334    Y=             -4.6999    Z=             -1.2641  Tot=              4.9377
 Quadrupole moment (field-independent basis, Debye-Ang):
   XX=           -379.6351   YY=           -435.7642   ZZ=           -395.3053
   XY=             12.9421   XZ=             19.8879   YZ=            -28.5286
 Traceless Quadrupole moment (field-independent basis, Debye-Ang):
   XX=             23.9331   YY=            -32.1960   ZZ=              8.2629
   XY=             12.9421   XZ=             19.8879   YZ=            -28.5286
 Octapole moment (field-independent basis, Debye-Ang**2):
  XXX=           -370.9685  YYY=           -524.1013  ZZZ=            -25.1496  XYY=            105.2506
  XXY=            -91.9318  XXZ=           -132.8736  XZZ=            -98.2531  YZZ=            -23.3380
  YYZ=            -63.8316  XYZ=            163.3288
 Hexadecapole moment (field-independent basis, Debye-Ang**3):
 XXXX=        -161749.9041 YYYY=         -31084.8039 ZZZZ=          -9433.3278 XXXY=           -853.5357
 XXXZ=           3089.8887 YYYX=           2147.4941 YYYZ=          -1202.9197 ZZZX=            362.1423
 ZZZY=           -344.2917 XXYY=         -34226.7988 XXZZ=         -28723.4005 YYZZ=          -7013.8014
 XXYZ=           -735.5518 YYXZ=            361.4023 ZZXY=           -337.5171
 N-N= 9.116726646110D+03 E-N=-2.531872018529D+04  KE= 3.016960241717D+03

 Test job not archived.
 1\1\GINC-RYZEN-SSD3\SP\RCAM-B3LYP TD-FC\6-31G(d,p)\C54H68Mg1N4O7\PADAW
 AN\10-Oct-2019\0\\# td=(NStates=1) iop(3/107=0140000000,3/108=01400000
 00) iop(3/107=0140000000,3/108=0140000000) CAM-B3LYP/6-31G(d,p)\\TD\\0
 ,1\Mg,0,-5.6470762142,1.2004749218,0.2212807333\C,0,-4.971247512,-2.21
 99404573,-0.3366705339\C,0,-3.499088698,1.1987601608,2.7813635097\C,0,
 -6.2481636121,4.5259658608,0.6950597148\C,0,-7.8921149786,1.1469255433
 ,-2.4196096345\N,0,-4.2345777111,-0.2991381056,1.0233236712\C,0,-4.222
 2357511,-1.6365673583,0.618114161\C,0,-3.1894120657,-2.4096942722,1.53
 31576795\C,0,-2.9455577268,-1.2595688478,2.6872252786\C,0,-3.559393366
 7,-0.0273353612,2.1155961448\C,0,-3.5387669161,-1.8191353549,3.9841911
 185\C,0,-1.8956547587,-2.6675541647,0.7556708726\C,0,-0.8416158051,-3.
 5352811087,1.4905826463\C,0,0.3218872892,-3.9388177225,0.6276609608\O,
 0,0.5061706814,-3.5245597696,-0.4968659208\O,0,1.1746343091,-4.8098806
 054,1.3175563629\N,0,-4.9722980461,2.6322926062,1.4448547172\C,0,-4.01
 59836882,2.4214795697,2.4963102343\C,0,-3.8174012438,3.6093094331,3.24
 66552217\C,0,-4.5634869014,4.6031218405,2.6065499263\C,0,-5.3913252367
 ,3.9593540306,1.5362397163\C,0,-2.8268280459,3.7292302988,4.3721714065
 \C,0,-4.6440809387,6.0214495655,3.0684363484\O,0,-3.8555155996,6.45391
 32793,3.9066545654\N,0,-6.8306568656,2.6409039862,-0.7954912054\C,0,-6
 .9829510099,3.9539650137,-0.3777094596\C,0,-7.906145801,4.5838751123,-
 1.3315372632\C,0,-8.3639758509,3.6201689468,-2.2044093853\C,0,-7.69792
 86834,2.4683028391,-1.8702129678\C,0,-8.3918821791,5.9750574151,-1.248
 6443732\C,0,-9.4022145848,3.7640568039,-3.2320778406\C,0,-8.8077122249
 ,4.2541735636,-4.5669631003\N,0,-6.3028987089,-0.1623012478,-1.0572108
 131\C,0,-7.1812876584,-0.0304791165,-2.1543396447\C,0,-7.403367844,-1.
 2961713207,-2.7980323258\C,0,-6.521431692,-2.1632058924,-2.1523814038\
 C,0,-5.8233407495,-1.4195355187,-1.096845815\C,0,-8.3870141592,-1.5368
 238084,-3.7858054767\C,0,-6.0928829554,-3.5806936533,-2.0063941945\O,0
 ,-6.410025398,-4.5110588043,-2.6650427694\C,0,-5.0537939415,-3.6204500
 976,-0.893741694\C,0,-5.4235998374,-4.6810035415,0.1742010919\O,0,-5.8
 78453617,-4.395588567,1.3287392373\O,0,-5.3737470729,-5.8576069571,-0.
 303743519\C,0,-5.703417906,-6.8361154648,0.6589277226\C,0,2.3761285861
 ,-5.1046815884,0.6480887633\C,0,3.4687814131,-4.2623163925,1.058073707
 2\C,0,3.9286222524,-3.2035632264,0.2238860236\C,0,3.6069850374,-2.9984
 047818,-1.350594564\C,0,5.1228287087,-2.3740324508,0.7092647253\C,0,6.
 4774026116,-2.6144743726,-0.0430428369\C,0,7.5935346771,-1.7299623517,
 0.4620918997\C,0,8.9994207634,-1.9422390575,-0.1163994224\C,0,9.541640
 5458,-3.3240330437,0.0517917215\C,0,10.0012607052,-0.8313733747,0.4135
 538709\C,0,11.3497922816,-0.916421249,-0.389927759\C,0,12.2310907977,0
 .2494395715,0.1164384914\C,0,13.5408565415,0.4350583757,-0.6697917424\
 C,0,14.5968179808,-0.7018295856,-0.3611802689\C,0,14.1600219418,1.8114
 973213,-0.2483640912\C,0,15.3996641568,2.0826962978,-1.0743824332\C,0,
 15.8839509795,3.5514999028,-0.7010007133\C,0,17.2755628054,3.872195061
 1,-1.2556094961\C,0,17.1232449142,4.1044253342,-2.7693591601\C,0,18.11
 02204281,5.0834736127,-0.6732467836\H,0,-2.8211178346,1.2973340088,3.5
 687873471\H,0,-6.4948874675,5.5610614865,0.7589848902\H,0,-8.658806287
 8,1.1495452574,-3.2241278916\H,0,-3.7687779426,-3.1568910045,2.0834264
 034\H,0,-1.840671191,-1.2982274843,2.9495062267\H,0,-3.2039701761,-2.6
 768108423,4.4146250065\H,0,-3.6500457973,-0.9153414385,4.5362956594\H,
 0,-4.5704595577,-2.0812272036,3.8568996405\H,0,-2.0486501787,-3.215761
 0934,-0.1632469485\H,0,-1.4520330357,-1.7171608324,0.4481929409\H,0,-0
 .5496403975,-2.7066519608,2.2346476835\H,0,-1.4271374353,-4.4645635876
 ,2.0743092289\H,0,-1.8472548393,3.4932288473,4.0453204417\H,0,-2.86167
 71578,4.7935765637,4.6732035781\H,0,-3.4972427193,3.2821992174,5.35704
 07101\H,0,-5.3466077247,6.6600702014,2.4536006815\H,0,-9.7922683603,2.
 8473553926,-3.1554587976\H,0,-10.0130721051,4.5423380779,-2.726362927\
 H,0,-9.6824880486,4.4054889629,-5.4355787602\H,0,-8.3228817976,5.30640
 03854,-4.5503349885\H,0,-8.0314929983,3.6766770265,-4.9816680916\H,0,-
 8.0363212217,-0.9193624791,-4.5652175201\H,0,-8.5077017532,-2.76111951
 71,-4.2443370707\H,0,-9.4040204815,-1.3344802714,-3.4141883255\H,0,-4.
 1490722646,-3.8288677134,-1.4096442513\H,0,2.4519163246,-6.1828662296,
 0.8092468816\H,0,1.8689076342,-5.0324402201,-0.4310865583\H,0,4.116743
 7967,-4.3114904308,2.0121762252\H,0,2.6304980365,-3.1885144725,-1.7401
 365547\H,0,3.7495195653,-1.8830818675,-1.5130437749\H,0,4.3223044044,-
 3.4706207913,-2.016370563\H,0,5.1470647474,-1.431529577,0.3238742709\H
 ,0,5.2792664539,-2.3934509775,1.8845433346\H,0,6.7399815249,-3.6097741
 695,-0.0122033363\H,0,6.263346495,-2.42761037,-0.9855691524\H,0,7.3885
 277841,-0.6433676619,0.1057978253\H,0,7.6215042533,-1.8507816613,1.500
 7344587\H,0,9.0349676061,-1.8788261578,-1.1715304911\H,0,8.7003245512,
 -3.8572144928,-0.4572295154\H,0,10.4806674075,-3.3387480769,-0.5145315
 667\H,0,9.566745736,-3.6619872902,1.1675772004\H,0,9.5804471953,0.0158
 473109,0.1506804318\H,0,10.0662767252,-0.943070841,1.4616957096\H,0,11
 .71818696,-1.8359936313,-0.1557799512\H,0,11.1262087076,-0.5530882137,
 -1.2694182754\H,0,11.5679278263,1.2242368529,0.0592763724\H,0,12.74012
 88362,-0.0333121398,1.1379420744\H,0,13.3240792086,0.4738418165,-1.805
 91283\H,0,14.7601353518,-0.6603242451,0.6792436044\H,0,14.0328888599,-
 1.578106827,-0.5226485864\H,0,15.6043214205,-0.5901222104,-0.765503442
 8\H,0,13.5870468989,2.6032649456,-0.3665484425\H,0,14.4296496653,2.055
 3258218,0.8519724111\H,0,16.4270843642,1.4308616989,-0.96869336\H,0,15
 .0704526287,2.0018040932,-2.1254739271\H,0,14.9979011947,4.1350888869,
 -0.9913911372\H,0,16.0347962497,3.6383204734,0.3961795184\H,0,17.79557
 32387,2.9556470559,-1.1350425839\H,0,16.149385659,4.5794144703,-3.2589
 682566\H,0,18.0294188654,4.4343729506,-3.1724218473\H,0,17.1482950297,
 3.0133224022,-3.3538034149\H,0,18.3018562328,4.9690581233,0.3354952137
 \H,0,19.1264701693,5.4771518674,-1.2383907535\H,0,17.3306246134,6.0080
 103041,-0.7202360849\H,0,-5.0555308545,-7.7505844915,0.2766641287\H,0,
 -6.7105154818,-7.0873458212,0.5563891464\H,0,-5.3922573943,-6.42333390
 9,1.9190163582\O,0,-7.9440719988,6.7886153623,-0.4531931033\H,0,-9.221
 0904061,6.2742530702,-1.7836040432\\Version=ES64L-G16RevA.03\State=1-A
 \HF=-3043.4230753\RMSD=7.885e-09\PG=C01 [X(C54H68Mg1N4O7)]\\@


 WE DON'T KNOW ONE MILLIONTH OF ONE PERCENT ABOUT
 ANYTHING.
                                     T. A. EDISON.
 Job cpu time:       1 days  3 hours 38 minutes  5.4 seconds.
 Elapsed time:       0 days  6 hours 56 minutes  3.6 seconds.
 File lengths (MBytes):  RWF=   6825 Int=      0 D2E=      0 Chk=    180 Scr=      1
 Normal termination of Gaussian 16 at Thu Oct 10 06:38:30 2019.
