 Entering Gaussian System, Link 0=g16
 Input=Geometria-62-.com
 Output=Geometria-62-.log
 Initial command:
 /usr/local/g16/l1.exe "/home/padawan/israel-mol/chlorophyll-b/spectra/abs/Gau-1850.inp" -scrdir="/home/padawan/israel-mol/chlorophyll-b/spectra/abs/"
 Entering Link 1 = /usr/local/g16/l1.exe PID=      2038.
  
 Copyright (c) 1988,1990,1992,1993,1995,1998,2003,2009,2016,
            Gaussian, Inc.  All Rights Reserved.
  
 This is part of the Gaussian(R) 16 program.  It is based on
 the Gaussian(R) 09 system (copyright 2009, Gaussian, Inc.),
 the Gaussian(R) 03 system (copyright 2003, Gaussian, Inc.),
 the Gaussian(R) 98 system (copyright 1998, Gaussian, Inc.),
 the Gaussian(R) 94 system (copyright 1995, Gaussian, Inc.),
 the Gaussian 92(TM) system (copyright 1992, Gaussian, Inc.),
 the Gaussian 90(TM) system (copyright 1990, Gaussian, Inc.),
 the Gaussian 88(TM) system (copyright 1988, Gaussian, Inc.),
 the Gaussian 86(TM) system (copyright 1986, Carnegie Mellon
 University), and the Gaussian 82(TM) system (copyright 1983,
 Carnegie Mellon University). Gaussian is a federally registered
 trademark of Gaussian, Inc.
  
 This software contains proprietary and confidential information,
 including trade secrets, belonging to Gaussian, Inc.
  
 This software is provided under written license and may be
 used, copied, transmitted, or stored only in accord with that
 written license.
  
 The following legend is applicable only to US Government
 contracts under FAR:
  
                    RESTRICTED RIGHTS LEGEND
  
 Use, reproduction and disclosure by the US Government is
 subject to restrictions as set forth in subparagraphs (a)
 and (c) of the Commercial Computer Software - Restricted
 Rights clause in FAR 52.227-19.
  
 Gaussian, Inc.
 340 Quinnipiac St., Bldg. 40, Wallingford CT 06492
  
  
 ---------------------------------------------------------------
 Warning -- This program may not be used in any manner that
 competes with the business of Gaussian, Inc. or will provide
 assistance to any competitor of Gaussian, Inc.  The licensee
 of this program is prohibited from giving any competitor of
 Gaussian, Inc. access to this program.  By using this program,
 the user acknowledges that Gaussian, Inc. is engaged in the
 business of creating and licensing software in the field of
 computational chemistry and represents and warrants to the
 licensee that it is not a competitor of Gaussian, Inc. and that
 it will not use this program in any manner prohibited above.
 ---------------------------------------------------------------
  

 Cite this work as:
 Gaussian 16, Revision A.03,
 M. J. Frisch, G. W. Trucks, H. B. Schlegel, G. E. Scuseria, 
 M. A. Robb, J. R. Cheeseman, G. Scalmani, V. Barone, 
 G. A. Petersson, H. Nakatsuji, X. Li, M. Caricato, A. V. Marenich, 
 J. Bloino, B. G. Janesko, R. Gomperts, B. Mennucci, H. P. Hratchian, 
 J. V. Ortiz, A. F. Izmaylov, J. L. Sonnenberg, D. Williams-Young, 
 F. Ding, F. Lipparini, F. Egidi, J. Goings, B. Peng, A. Petrone, 
 T. Henderson, D. Ranasinghe, V. G. Zakrzewski, J. Gao, N. Rega, 
 G. Zheng, W. Liang, M. Hada, M. Ehara, K. Toyota, R. Fukuda, 
 J. Hasegawa, M. Ishida, T. Nakajima, Y. Honda, O. Kitao, H. Nakai, 
 T. Vreven, K. Throssell, J. A. Montgomery, Jr., J. E. Peralta, 
 F. Ogliaro, M. J. Bearpark, J. J. Heyd, E. N. Brothers, K. N. Kudin, 
 V. N. Staroverov, T. A. Keith, R. Kobayashi, J. Normand, 
 K. Raghavachari, A. P. Rendell, J. C. Burant, S. S. Iyengar, 
 J. Tomasi, M. Cossi, J. M. Millam, M. Klene, C. Adamo, R. Cammi, 
 J. W. Ochterski, R. L. Martin, K. Morokuma, O. Farkas, 
 J. B. Foresman, and D. J. Fox, Gaussian, Inc., Wallingford CT, 2016.
 
 ******************************************
 Gaussian 16:  ES64L-G16RevA.03 25-Dec-2016
                 7-Oct-2019 
 ******************************************
 %nproc=4
 Will use up to    4 processors via shared memory.
 %Mem=4GB
 ----------------------------------------------------------------------
 # td=(NStates=1) iop(3/107=0140000000,3/108=0140000000) iop(3/107=0140
 000000,3/108=0140000000) CAM-B3LYP/6-31G(d,p)
 ----------------------------------------------------------------------
 1/38=1,172=1/1;
 2/12=2,17=6,18=5,40=1/2;
 3/5=1,6=6,7=101,11=9,25=1,30=1,74=-40,107=140000000,108=140000000/1,2,3,8;
 4//1;
 5/5=2,38=5/2;
 8/6=1,10=2,108=1/1;
 9/41=1,42=1,70=2/14;
 6/7=2,8=2,9=2,10=2/1;
 99/5=1,9=1/99;
 --
 TD
 --
 Symbolic Z-matrix:
 Charge =  0 Multiplicity = 1
 12                   -5.57096   1.26108   0.15924 
 6                    -4.8561   -2.09203  -0.41398 
 6                    -3.46948   1.1707    2.81723 
 6                    -6.17023   4.6465    0.57339 
 6                    -7.93424   1.15387  -2.38353 
 7                    -4.35291  -0.25475   1.04612 
 6                    -4.19     -1.59178   0.65835 
 6                    -3.20188  -2.35131   1.44908 
 6                    -2.87009  -1.2776    2.61897 
 6                    -3.63547  -0.07561   2.1515 
 6                    -3.52213  -1.81336   3.93044 
 6                    -1.89401  -2.73377   0.67856 
 6                    -1.03339  -3.53592   1.44147 
 6                     0.25677  -3.92467   0.77333 
 8                     0.47855  -3.62831  -0.40507 
 8                     1.06339  -4.70044   1.51828 
 7                    -5.04546   2.66879   1.42541 
 6                    -4.03459   2.43194   2.40288 
 6                    -3.76075   3.62292   3.12198 
 6                    -4.61329   4.61415   2.48448 
 6                    -5.28534   3.99592   1.51678 
 6                    -2.73634   3.92917   4.18453 
 6                    -4.45818   6.01204   2.87207 
 8                    -3.93326   6.57052   3.74191 
 7                    -6.80911   2.69476  -0.81231 
 6                    -6.95025   4.02249  -0.43167 
 6                    -8.06648   4.59998  -1.13283 
 6                    -8.6282    3.61144  -1.99648 
 6                    -7.74615   2.38251  -1.72472 
 6                    -8.49237   6.0308   -0.98657 
 6                    -9.62646   3.768    -2.97745 
 6                    -8.99829   4.13126  -4.41456 
 7                    -6.28681  -0.18808  -1.0579 
 6                    -7.20824  -0.09748  -2.11073 
 6                    -7.43158  -1.33439  -2.71584 
 6                    -6.53507  -2.14965  -2.1432 
 6                    -5.87136  -1.38208  -1.11534 
 6                    -8.53876  -1.44954  -3.72925 
 6                    -6.06371  -3.40664  -2.20307 
 8                    -6.26599  -4.38873  -2.76066 
 6                    -5.06494  -3.53012  -0.96443 
 6                    -5.27264  -4.56787   0.0196 
 8                    -5.72013  -4.40442   1.14836 
 8                    -5.05997  -5.8238   -0.51623 
 6                    -5.3727   -6.94264   0.39712 
 6                     2.27473  -5.10418   0.8366 
 6                     3.46086  -4.12676   1.12506 
 6                     4.03001  -3.36843   0.17283 
 6                     3.70266  -3.17337  -1.28621 
 6                     5.16212  -2.46832   0.7092 
 6                     6.539    -2.78507   0.07696 
 6                     7.68078  -1.90581   0.60375 
 6                     9.08599  -2.03781  -0.03947 
 6                     9.60937  -3.47272   0.04214 
 6                     10.09798  -1.00822   0.44913 
 6                     11.40348  -0.87509  -0.41393 
 6                     12.28223   0.2278    0.27165 
 6                     13.59485   0.48951  -0.47994 
 6                     14.51002  -0.74509  -0.33116 
 6                     14.20397   1.8026   -0.02622 
 6                     15.412    2.10659  -0.89344 
 6                     15.89325   3.59125  -0.69544 
 6                     17.12634   3.90493  -1.42726 
 6                     16.97623   4.01028  -3.00507 
 6                     17.83979   5.16479  -0.94993 
 1                    -2.68274   1.06932   3.43943 
 1                    -6.25978   5.67992   0.8917 
 1                    -8.62486   1.051    -3.20096 
 1                    -3.71708  -3.23697   1.71504 
 1                    -1.82123  -1.33135   2.59439 
 1                    -2.85951  -2.7913    4.35072 
 1                    -3.57934  -0.98211   4.78827 
 1                    -4.50383  -2.15258   3.91155 
 1                    -2.189    -3.30483  -0.21122 
 1                    -1.30754  -1.87441   0.53992 
 1                    -0.48574  -2.99906   2.30909 
 1                    -1.24432  -4.58302   1.81837 
 1                    -1.79968   3.30227   3.85741 
 1                    -2.68972   4.91228   4.35241 
 1                    -3.07593   3.51728   5.17007 
 1                    -5.14668   6.6014    2.21693 
 1                    -10.42556   2.97764  -3.04659 
 1                    -10.29432   4.59352  -2.79242 
 1                    -9.66911   4.29383  -5.18602 
 1                    -8.3232    4.95235  -4.4538 
 1                    -8.26147   3.37173  -4.81308 
 1                    -8.24288  -0.9027   -4.63779 
 1                    -8.49776  -2.48993  -4.1321 
 1                    -9.6218   -1.39627  -3.28043 
 1                    -4.04279  -3.84318  -1.30217 
 1                     2.70066  -5.79495   1.54156 
 1                     2.1655   -5.39232  -0.18977 
 1                     3.60506  -4.10295   2.09874 
 1                     2.59433  -3.56883  -1.55778 
 1                     3.98684  -2.15391  -1.60658 
 1                     4.4081   -3.87419  -1.62851 
 1                     4.98846  -1.49912   0.68957 
 1                     5.38855  -2.72986   1.79166 
 1                     6.87669  -3.91973   0.23932 
 1                     6.52539  -2.52787  -1.0919 
 1                     7.31743  -0.80747   0.50008 
 1                     7.9983   -2.06301   1.7625 
 1                     8.9212   -1.86365  -1.18221 
 1                     8.97192  -4.15089  -0.3961 
 1                     10.57163  -3.55463  -0.20023 
 1                     9.80153  -3.65272   1.08299 
 1                     9.47851  -0.03175   0.4923 
 1                     10.32915  -1.3697    1.40012 
 1                     11.6366  -1.98433  -0.31865 
 1                     11.18202  -0.53273  -1.38991 
 1                     11.26792   1.01792   0.44681 
 1                     12.50037  -0.18034   1.3236 
 1                     13.2457   0.43416  -1.47506 
 1                     14.70035  -0.8789    0.73457 
 1                     14.13315  -1.66261  -0.60929 
 1                     15.49691  -0.55634  -0.63793 
 1                     13.48441   2.62462  -0.22434 
 1                     14.49515   1.87184   1.15325 
 1                     16.20774   1.3551   -0.57953 
 1                     14.84473   2.09585  -1.89806 
 1                     15.0975   4.33587  -1.04944 
 1                     16.16379   3.86724   0.46436 
 1                     18.11244   3.24179  -1.20303 
 1                     16.05439   4.67949  -3.27262 
 1                     17.99801   4.55859  -3.40657 
 1                     16.78013   2.9181   -3.43157 
 1                     18.06504   5.03539   0.05101 
 1                     18.73591   5.48759  -1.36692 
 1                     17.13308   5.97307  -1.34858 
 1                    -4.77014  -7.79356  -0.05773 
 1                    -6.60432  -7.07589   0.16864 
 1                    -5.08253  -6.59956   1.4545 
 8                    -8.0771    6.82149  -0.24898 
 1                    -9.45247   6.24198  -1.74032 
 
 Stoichiometry    C54H68MgN4O7
 Framework group  C1[X(C54H68MgN4O7)]
 Deg. of freedom   396
 Full point group                 C1      NOp   1
 Largest Abelian subgroup         C1      NOp   1
 Largest concise Abelian subgroup C1      NOp   1
                         Standard orientation:                         
 ---------------------------------------------------------------------
 Center     Atomic      Atomic             Coordinates (Angstroms)
 Number     Number       Type             X           Y           Z
 ---------------------------------------------------------------------
      1         12           0       -5.578932    1.224571    0.164861
      2          6           0       -4.842245   -2.122284   -0.417209
      3          6           0       -3.474990    1.141534    2.821138
      4          6           0       -6.200355    4.604896    0.587852
      5          6           0       -7.943272    1.107991   -2.376512
      6          7           0       -4.350215   -0.285344    1.047102
      7          6           0       -4.178717   -1.620295    0.655893
      8          6           0       -3.185012   -2.375207    1.444038
      9          6           0       -2.859513   -1.302231    2.616364
     10          6           0       -3.633188   -0.104190    2.152426
     11          6           0       -3.507038   -1.845569    3.926950
     12          6           0       -1.875187   -2.747064    0.671656
     13          6           0       -1.008717   -3.545377    1.431958
     14          6           0        0.283521   -3.923888    0.761946
     15          8           0        0.502481   -3.623139   -0.415860
     16          8           0        1.095808   -4.696139    1.504398
     17          7           0       -5.061874    2.632583    1.434162
     18          6           0       -4.048754    2.400024    2.410329
     19          6           0       -3.782308    3.591005    3.132202
     20          6           0       -4.641870    4.578137    2.497764
     21          6           0       -5.310499    3.957861    1.528999
     22          6           0       -2.759195    3.901406    4.194793
     23          6           0       -4.495763    5.976054    2.888724
     24          8           0       -3.973938    6.535849    3.759585
     25          7           0       -6.827271    2.652409   -0.802256
     26          6           0       -6.976939    3.978226   -0.418214
     27          6           0       -8.097483    4.550029   -1.117145
     28          6           0       -8.653250    3.559933   -1.982861
     29          6           0       -7.762871    2.336220   -1.714779
     30          6           0       -8.532754    5.977629   -0.967025
     31          6           0       -9.653225    3.712300   -2.962742
     32          6           0       -9.028515    4.083296   -4.399378
     33          7           0       -6.286021   -0.226284   -1.055387
     34          6           0       -7.208790   -0.139178   -2.107336
     35          6           0       -7.424351   -1.376035   -2.715376
     36          6           0       -6.522042   -2.186756   -2.145393
     37          6           0       -5.862696   -1.417352   -1.116087
     38          6           0       -8.531467   -1.496013   -3.728290
     39          6           0       -6.042391   -3.440429   -2.208726
     40          8           0       -6.238550   -4.422452   -2.768616
     41          6           0       -5.041931   -3.560359   -0.971092
     42          6           0       -5.242044   -4.601908    0.010491
     43          8           0       -5.689792   -4.444235    1.139973
     44          8           0       -5.021419   -5.855065   -0.528614
     45          6           0       -5.326072   -6.978215    0.382173
     46          6           0        2.309306   -5.090136    0.820867
     47          6           0        3.489133   -4.105586    1.110932
     48          6           0        4.052557   -3.341127    0.160195
     49          6           0        3.722875   -3.144622   -1.298124
     50          6           0        5.179053   -2.434860    0.698015
     51          6           0        6.557547   -2.740891    0.064018
     52          6           0        7.693849   -1.855382    0.592192
     53          6           0        9.099439   -1.976452   -0.052336
     54          6           0        9.632386   -3.408054    0.025337
     55          6           0       10.104925   -0.941387    0.438116
     56          6           0       11.408891   -0.797446   -0.425522
     57          6           0       12.280792    0.309540    0.262190
     58          6           0       13.591114    0.581831   -0.489672
     59          6           0       14.514560   -0.647041   -0.344602
     60          6           0       14.191826    1.897796   -0.033110
     61          6           0       15.397189    2.211955   -0.900419
     62          6           0       15.868724    3.699285   -0.699056
     63          6           0       17.099177    4.022955   -1.430953
     64          6           0       16.947242    4.131225   -3.008397
     65          6           0       17.804598    5.286337   -0.950996
     66          1           0       -2.687157    1.043836    3.442539
     67          1           0       -6.296540    5.636910    0.908797
     68          1           0       -8.633784    1.002570   -3.193711
     69          1           0       -3.694132   -3.264926    1.708153
     70          1           0       -1.810336   -1.348957    2.590918
     71          1           0       -2.837642   -2.820128    4.344332
     72          1           0       -3.569151   -1.016845    4.786892
     73          1           0       -4.486486   -2.191250    3.907902
     74          1           0       -2.167019   -3.317856   -0.219341
     75          1           0       -1.294527   -1.883484    0.534744
     76          1           0       -0.464018   -3.007052    2.300525
     77          1           0       -1.212417   -4.594782    1.806403
     78          1           0       -1.818631    3.281551    3.865456
     79          1           0       -2.718980    4.884382    4.365087
     80          1           0       -3.095338    3.484825    5.179542
     81          1           0       -5.188624    6.562463    2.235536
     82          1           0      -10.447117    2.916828   -3.033285
     83          1           0      -10.326419    4.532912   -2.775186
     84          1           0       -9.700947    4.243323   -5.169967
     85          1           0       -8.358917    4.908947   -4.437044
     86          1           0       -8.286951    3.329661   -4.800308
     87          1           0       -8.239877   -0.944971   -4.635677
     88          1           0       -8.483854   -2.535111   -4.133753
     89          1           0       -9.614518   -1.451050   -3.278585
     90          1           0       -4.017975   -3.865785   -1.310331
     91          1           0        2.740319   -5.779810    1.523809
     92          1           0        2.201254   -5.376438   -0.206140
     93          1           0        3.633872   -4.083236    2.084571
     94          1           0        2.617000   -3.546754   -1.569902
     95          1           0        4.000053   -2.122502   -1.616159
     96          1           0        4.432703   -3.839890   -1.642666
     97          1           0        4.998947   -1.466783    0.680916
     98          1           0        5.407985   -2.697584    1.779661
     99          1           0        6.902872   -3.873679    0.223319
    100          1           0        6.541396   -2.480882   -1.104187
    101          1           0        7.323142   -0.759228    0.491513
    102          1           0        8.013235   -2.013353    1.750329
    103          1           0        8.932674   -1.800556   -1.194523
    104          1           0        8.999140   -4.089355   -0.414148
    105          1           0       10.594993   -3.482974   -0.217912
    106          1           0        9.826484   -3.589359    1.065598
    107          1           0        9.479017    0.030843    0.484158
    108          1           0       10.339173   -1.303689    1.388043
    109          1           0       11.649436   -1.905348   -0.333164
    110          1           0       11.184471   -0.454138   -1.400491
    111          1           0       11.261389    1.092471    0.440018
    112          1           0       12.502399   -0.099750    1.312964
    113          1           0       13.241624    0.526632   -1.484679
    114          1           0       14.706538   -0.782225    0.720654
    115          1           0       14.143587   -1.566339   -0.624752
    116          1           0       15.499957   -0.450977   -0.651596
    117          1           0       13.466685    2.715512   -0.228681
    118          1           0       14.483386    1.966037    1.146329
    119          1           0       16.198130    1.464991   -0.588939
    120          1           0       14.829287    2.199951   -1.904662
    121          1           0       15.067796    4.439479   -1.050640
    122          1           0       16.138256    3.974181    0.461234
    123          1           0       18.089823    3.365818   -1.209069
    124          1           0       16.020785    4.794973   -3.273631
    125          1           0       17.965068    4.687301   -3.409238
    126          1           0       16.758086    3.038838   -3.437476
    127          1           0       18.031419    5.155951    0.049462
    128          1           0       18.698255    5.616114   -1.367808
    129          1           0       17.092256    6.090891   -1.347131
    130          1           0       -4.718202   -7.823986   -0.075217
    131          1           0       -6.556944   -7.119078    0.154224
    132          1           0       -5.037418   -6.635851    1.440199
    133          8           0       -8.122205    6.769218   -0.227764
    134          1           0       -9.494776    6.184301   -1.719576
 ---------------------------------------------------------------------
 Rotational constants (GHZ):           0.0347108           0.0081142           0.0071650
 Standard basis: 6-31G(d,p) (6D, 7F)
 There are  1334 symmetry adapted cartesian basis functions of A   symmetry.
 There are  1334 symmetry adapted basis functions of A   symmetry.
  1334 basis functions,  2348 primitive gaussians,  1334 cartesian basis functions
   244 alpha electrons      244 beta electrons
       nuclear repulsion energy      9136.1844746559 Hartrees.
 NAtoms=  134 NActive=  134 NUniq=  134 SFac= 1.00D+00 NAtFMM=   60 NAOKFM=T Big=T
 Integral buffers will be    131072 words long.
 Raffenetti 1 integral format.
 Two-electron integral symmetry is turned on.
 One-electron integrals computed using PRISM.
 NBasis=  1334 RedAO= T EigKep=  2.49D-04  NBF=  1334
 NBsUse=  1334 1.00D-06 EigRej= -1.00D+00 NBFU=  1334
 ExpMin= 4.21D-02 ExpMax= 1.17D+04 ExpMxC= 1.76D+03 IAcc=3 IRadAn=         5 AccDes= 0.00D+00
 Harris functional with IExCor=20419 and IRadAn=       5 diagonalized for initial guess.
 HarFok:  IExCor=20419 AccDes= 0.00D+00 IRadAn=         5 IDoV= 1 UseB2=F ITyADJ=14
 ICtDFT=  3500011 ScaDFX=  1.000000  1.000000  1.000000  1.000000
 FoFCou: FMM=F IPFlag=           0 FMFlag=      100000 FMFlg1=        2001
         NFxFlg=           0 DoJE=T BraDBF=F KetDBF=T FulRan=T
         wScrn=  0.000000 ICntrl=       500 IOpCl=  0 I1Cent=   200000004 NGrid=           0
         NMat0=    1 NMatS0=      1 NMatT0=    0 NMatD0=    1 NMtDS0=    0 NMtDT0=    0
 Petite list used in FoFCou.
 Requested convergence on RMS density matrix=1.00D-08 within 128 cycles.
 Requested convergence on MAX density matrix=1.00D-06.
 Requested convergence on             energy=1.00D-06.
 No special actions if energy rises.
 SCF Done:  E(RCAM-B3LYP) =  -3043.42006350     A.U. after   16 cycles
            NFock= 16  Conv=0.42D-08     -V/T= 2.0086
 DoSCS=F DFT=T ScalE2(SS,OS)=  1.000000  1.000000
 ExpMin= 4.21D-02 ExpMax= 1.17D+04 ExpMxC= 1.76D+03 IAcc=3 IRadAn=         5 AccDes= 0.00D+00
 HarFok:  IExCor=  205 AccDes= 0.00D+00 IRadAn=         5 IDoV=-2 UseB2=F ITyADJ=14
 ICtDFT= 12500011 ScaDFX=  1.000000  1.000000  1.000000  1.000000
 GSVD:  LWork=       -5460 too small for GESVD, short by       25550 words or       25550 for optimal perf.
 Range of M.O.s used for correlation:    71  1334
 NBasis=  1334 NAE=   244 NBE=   244 NFC=    70 NFV=     0
 NROrb=   1264 NOA=   174 NOB=   174 NVA=  1090 NVB=  1090
 Orbital symmetries:
       Occupied  (A) (A) (A) (A) (A) (A) (A) (A) (A) (A) (A) (A)
                 (A) (A) (A) (A) (A) (A) (A) (A) (A) (A) (A) (A)
                 (A) (A) (A) (A) (A) (A) (A) (A) (A) (A) (A) (A)
                 (A) (A) (A) (A) (A) (A) (A) (A) (A) (A) (A) (A)
                 (A) (A) (A) (A) (A) (A) (A) (A) (A) (A) (A) (A)
                 (A) (A) (A) (A) (A) (A) (A) (A) (A) (A) (A) (A)
                 (A) (A) (A) (A) (A) (A) (A) (A) (A) (A) (A) (A)
                 (A) (A) (A) (A) (A) (A) (A) (A) (A) (A) (A) (A)
                 (A) (A) (A) (A) (A) (A) (A) (A) (A) (A) (A) (A)
                 (A) (A) (A) (A) (A) (A) (A) (A) (A) (A) (A) (A)
                 (A) (A) (A) (A) (A) (A) (A) (A) (A) (A) (A) (A)
                 (A) (A) (A) (A) (A) (A) (A) (A) (A) (A) (A) (A)
                 (A) (A) (A) (A) (A) (A) (A) (A) (A) (A) (A) (A)
                 (A) (A) (A) (A) (A) (A) (A) (A) (A) (A) (A) (A)
                 (A) (A) (A) (A) (A) (A) (A) (A) (A) (A) (A) (A)
                 (A) (A) (A) (A) (A) (A) (A) (A) (A) (A) (A) (A)
                 (A) (A) (A) (A) (A) (A) (A) (A) (A) (A) (A) (A)
                 (A) (A) (A) (A) (A) (A) (A) (A) (A) (A) (A) (A)
                 (A) (A) (A) (A) (A) (A) (A) (A) (A) (A) (A) (A)
                 (A) (A) (A) (A) (A) (A) (A) (A) (A) (A) (A) (A)
                 (A) (A) (A) (A)
       Virtual   (A) (A) (A) (A) (A) (A) (A) (A) (A) (A) (A) (A)
                 (A) (A) (A) (A) (A) (A) (A) (A) (A) (A) (A) (A)
                 (A) (A) (A) (A) (A) (A) (A) (A) (A) (A) (A) (A)
                 (A) (A) (A) (A) (A) (A) (A) (A) (A) (A) (A) (A)
                 (A) (A) (A) (A) (A) (A) (A) (A) (A) (A) (A) (A)
                 (A) (A) (A) (A) (A) (A) (A) (A) (A) (A) (A) (A)
                 (A) (A) (A) (A) (A) (A) (A) (A) (A) (A) (A) (A)
                 (A) (A) (A) (A) (A) (A) (A) (A) (A) (A) (A) (A)
                 (A) (A) (A) (A) (A) (A) (A) (A) (A) (A) (A) (A)
                 (A) (A) (A) (A) (A) (A) (A) (A) (A) (A) (A) (A)
                 (A) (A) (A) (A) (A) (A) (A) (A) (A) (A) (A) (A)
                 (A) (A) (A) (A) (A) (A) (A) (A) (A) (A) (A) (A)
                 (A) (A) (A) (A) (A) (A) (A) (A) (A) (A) (A) (A)
                 (A) (A) (A) (A) (A) (A) (A) (A) (A) (A) (A) (A)
                 (A) (A) (A) (A) (A) (A) (A) (A) (A) (A) (A) (A)
                 (A) (A) (A) (A) (A) (A) (A) (A) (A) (A) (A) (A)
                 (A) (A) (A) (A) (A) (A) (A) (A) (A) (A) (A) (A)
                 (A) (A) (A) (A) (A) (A) (A) (A) (A) (A) (A) (A)
                 (A) (A) (A) (A) (A) (A) (A) (A) (A) (A) (A) (A)
                 (A) (A) (A) (A) (A) (A) (A) (A) (A) (A) (A) (A)
                 (A) (A) (A) (A) (A) (A) (A) (A) (A) (A) (A) (A)
                 (A) (A) (A) (A) (A) (A) (A) (A) (A) (A) (A) (A)
                 (A) (A) (A) (A) (A) (A) (A) (A) (A) (A) (A) (A)
                 (A) (A) (A) (A) (A) (A) (A) (A) (A) (A) (A) (A)
                 (A) (A) (A) (A) (A) (A) (A) (A) (A) (A) (A) (A)
                 (A) (A) (A) (A) (A) (A) (A) (A) (A) (A) (A) (A)
                 (A) (A) (A) (A) (A) (A) (A) (A) (A) (A) (A) (A)
                 (A) (A) (A) (A) (A) (A) (A) (A) (A) (A) (A) (A)
                 (A) (A) (A) (A) (A) (A) (A) (A) (A) (A) (A) (A)
                 (A) (A) (A) (A) (A) (A) (A) (A) (A) (A) (A) (A)
                 (A) (A) (A) (A) (A) (A) (A) (A) (A) (A) (A) (A)
                 (A) (A) (A) (A) (A) (A) (A) (A) (A) (A) (A) (A)
                 (A) (A) (A) (A) (A) (A) (A) (A) (A) (A) (A) (A)
                 (A) (A) (A) (A) (A) (A) (A) (A) (A) (A) (A) (A)
                 (A) (A) (A) (A) (A) (A) (A) (A) (A) (A) (A) (A)
                 (A) (A) (A) (A) (A) (A) (A) (A) (A) (A) (A) (A)
                 (A) (A) (A) (A) (A) (A) (A) (A) (A) (A) (A) (A)
                 (A) (A) (A) (A) (A) (A) (A) (A) (A) (A) (A) (A)
                 (A) (A) (A) (A) (A) (A) (A) (A) (A) (A) (A) (A)
                 (A) (A) (A) (A) (A) (A) (A) (A) (A) (A) (A) (A)
                 (A) (A) (A) (A) (A) (A) (A) (A) (A) (A) (A) (A)
                 (A) (A) (A) (A) (A) (A) (A) (A) (A) (A) (A) (A)
                 (A) (A) (A) (A) (A) (A) (A) (A) (A) (A) (A) (A)
                 (A) (A) (A) (A) (A) (A) (A) (A) (A) (A) (A) (A)
                 (A) (A) (A) (A) (A) (A) (A) (A) (A) (A) (A) (A)
                 (A) (A) (A) (A) (A) (A) (A) (A) (A) (A) (A) (A)
                 (A) (A) (A) (A) (A) (A) (A) (A) (A) (A) (A) (A)
                 (A) (A) (A) (A) (A) (A) (A) (A) (A) (A) (A) (A)
                 (A) (A) (A) (A) (A) (A) (A) (A) (A) (A) (A) (A)
                 (A) (A) (A) (A) (A) (A) (A) (A) (A) (A) (A) (A)
                 (A) (A) (A) (A) (A) (A) (A) (A) (A) (A) (A) (A)
                 (A) (A) (A) (A) (A) (A) (A) (A) (A) (A) (A) (A)
                 (A) (A) (A) (A) (A) (A) (A) (A) (A) (A) (A) (A)
                 (A) (A) (A) (A) (A) (A) (A) (A) (A) (A) (A) (A)
                 (A) (A) (A) (A) (A) (A) (A) (A) (A) (A) (A) (A)
                 (A) (A) (A) (A) (A) (A) (A) (A) (A) (A) (A) (A)
                 (A) (A) (A) (A) (A) (A) (A) (A) (A) (A) (A) (A)
                 (A) (A) (A) (A) (A) (A) (A) (A) (A) (A) (A) (A)
                 (A) (A) (A) (A) (A) (A) (A) (A) (A) (A) (A) (A)
                 (A) (A) (A) (A) (A) (A) (A) (A) (A) (A) (A) (A)
                 (A) (A) (A) (A) (A) (A) (A) (A) (A) (A) (A) (A)
                 (A) (A) (A) (A) (A) (A) (A) (A) (A) (A) (A) (A)
                 (A) (A) (A) (A) (A) (A) (A) (A) (A) (A) (A) (A)
                 (A) (A) (A) (A) (A) (A) (A) (A) (A) (A) (A) (A)
                 (A) (A) (A) (A) (A) (A) (A) (A) (A) (A) (A) (A)
                 (A) (A) (A) (A) (A) (A) (A) (A) (A) (A) (A) (A)
                 (A) (A) (A) (A) (A) (A) (A) (A) (A) (A) (A) (A)
                 (A) (A) (A) (A) (A) (A) (A) (A) (A) (A) (A) (A)
                 (A) (A) (A) (A) (A) (A) (A) (A) (A) (A) (A) (A)
                 (A) (A) (A) (A) (A) (A) (A) (A) (A) (A) (A) (A)
                 (A) (A) (A) (A) (A) (A) (A) (A) (A) (A) (A) (A)
                 (A) (A) (A) (A) (A) (A) (A) (A) (A) (A) (A) (A)
                 (A) (A) (A) (A) (A) (A) (A) (A) (A) (A) (A) (A)
                 (A) (A) (A) (A) (A) (A) (A) (A) (A) (A) (A) (A)
                 (A) (A) (A) (A) (A) (A) (A) (A) (A) (A) (A) (A)
                 (A) (A) (A) (A) (A) (A) (A) (A) (A) (A) (A) (A)
                 (A) (A) (A) (A) (A) (A) (A) (A) (A) (A) (A) (A)
                 (A) (A) (A) (A) (A) (A) (A) (A) (A) (A) (A) (A)
                 (A) (A) (A) (A) (A) (A) (A) (A) (A) (A) (A) (A)
                 (A) (A) (A) (A) (A) (A) (A) (A) (A) (A) (A) (A)
                 (A) (A) (A) (A) (A) (A) (A) (A) (A) (A) (A) (A)
                 (A) (A) (A) (A) (A) (A) (A) (A) (A) (A) (A) (A)
                 (A) (A) (A) (A) (A) (A) (A) (A) (A) (A) (A) (A)
                 (A) (A) (A) (A) (A) (A) (A) (A) (A) (A) (A) (A)
                 (A) (A) (A) (A) (A) (A) (A) (A) (A) (A) (A) (A)
                 (A) (A) (A) (A) (A) (A) (A) (A) (A) (A) (A) (A)
                 (A) (A) (A) (A) (A) (A) (A) (A) (A) (A) (A) (A)
                 (A) (A) (A) (A) (A) (A) (A) (A) (A) (A) (A) (A)
                 (A) (A) (A) (A) (A) (A) (A) (A) (A) (A) (A) (A)
                 (A) (A) (A) (A) (A) (A) (A) (A) (A) (A) (A) (A)
                 (A) (A) (A) (A) (A) (A) (A) (A) (A) (A)
     4 initial guesses have been made.
 Convergence on wavefunction:    0.001000000000000
 Iteration     1 Dimension     4 NMult     0 NNew      4
 CISAX will form     4 AO SS matrices at one time.
 New state      1 was old state      2
 Iteration     2 Dimension     6 NMult     4 NNew      2
 Iteration     3 Dimension     8 NMult     6 NNew      2
 Iteration     4 Dimension    10 NMult     8 NNew      2
 Iteration     5 Dimension    12 NMult    10 NNew      2
 Iteration     6 Dimension    14 NMult    12 NNew      2
 Iteration     7 Dimension    16 NMult    14 NNew      2
 Iteration     8 Dimension    18 NMult    16 NNew      2
 Iteration     9 Dimension    20 NMult    18 NNew      2
 ***********************************************************************
 Excited states from <AA,BB:AA,BB> singles matrix:
 ***********************************************************************
 
 Ground to excited state transition densities written to RWF  633
 Ground to excited state transition electric dipole moments (Au):
       state          X           Y           Z        Dip. S.      Osc.
         1        -1.0733     -0.8248     -1.5229      4.1513      0.1986
 Ground to excited state transition velocity dipole moments (Au):
       state          X           Y           Z        Dip. S.      Osc.
         1         0.0727      0.0584      0.1049      0.0197      0.1830
 Ground to excited state transition magnetic dipole moments (Au):
       state          X           Y           Z
         1         1.1652      1.4228     -1.5736
 Ground to excited state transition velocity quadrupole moments (Au):
       state          XX          YY          ZZ          XY          XZ          YZ
         1        -1.4318     -0.0426      0.2045     -0.4808     -1.0074      0.1493
 <0|del|b> * <b|rxdel|0> + <0|del|b> * <b|delr+rdel|0>
 Rotatory Strengths (R) in cgs (10**-40 erg-esu-cm/Gauss)
       state          XX          YY          ZZ    R(velocity)    E-M Angle
         1      -362.0250    -93.8715    483.4866      9.1967       89.53
 1/2[<0|r|b>*<b|rxdel|0> + (<0|rxdel|b>*<b|r|0>)*]
 Rotatory Strengths (R) in cgs (10**-40 erg-esu-cm/Gauss)
       state          XX          YY          ZZ     R(length)
         1       884.3984    829.8817  -1694.6228      6.5524
  1/2[<0|del|b>*<b|r|0> + (<0|r|b>*<b|del|0>)*] (Au)
       state          X           Y           Z        Dip. S.   Osc.(frdel)
         1        -0.0780     -0.0482     -0.1597      0.2859      0.1906

 Excitation energies and oscillator strengths:
 
 Excited State   1:      Singlet-A      1.9528 eV  634.90 nm  f=0.1986  <S**2>=0.000
     243 -> 245        0.10478
     243 -> 246        0.21285
     244 -> 245        0.65677
 This state for optimization and/or second-order correction.
 Total Energy, E(TD-HF/TD-DFT) =  -3043.34829906    
 Copying the excited state density for this state as the 1-particle RhoCI density.
 SavETr:  write IOETrn=   770 NScale= 10 NData=  16 NLR=1 NState=    1 LETran=      28.
 Hyperfine terms turned off by default for NAtoms > 100.

 **********************************************************************

            Population analysis using the SCF density.

 **********************************************************************

 Orbital symmetries:
       Occupied  (A) (A) (A) (A) (A) (A) (A) (A) (A) (A) (A) (A)
                 (A) (A) (A) (A) (A) (A) (A) (A) (A) (A) (A) (A)
                 (A) (A) (A) (A) (A) (A) (A) (A) (A) (A) (A) (A)
                 (A) (A) (A) (A) (A) (A) (A) (A) (A) (A) (A) (A)
                 (A) (A) (A) (A) (A) (A) (A) (A) (A) (A) (A) (A)
                 (A) (A) (A) (A) (A) (A) (A) (A) (A) (A) (A) (A)
                 (A) (A) (A) (A) (A) (A) (A) (A) (A) (A) (A) (A)
                 (A) (A) (A) (A) (A) (A) (A) (A) (A) (A) (A) (A)
                 (A) (A) (A) (A) (A) (A) (A) (A) (A) (A) (A) (A)
                 (A) (A) (A) (A) (A) (A) (A) (A) (A) (A) (A) (A)
                 (A) (A) (A) (A) (A) (A) (A) (A) (A) (A) (A) (A)
                 (A) (A) (A) (A) (A) (A) (A) (A) (A) (A) (A) (A)
                 (A) (A) (A) (A) (A) (A) (A) (A) (A) (A) (A) (A)
                 (A) (A) (A) (A) (A) (A) (A) (A) (A) (A) (A) (A)
                 (A) (A) (A) (A) (A) (A) (A) (A) (A) (A) (A) (A)
                 (A) (A) (A) (A) (A) (A) (A) (A) (A) (A) (A) (A)
                 (A) (A) (A) (A) (A) (A) (A) (A) (A) (A) (A) (A)
                 (A) (A) (A) (A) (A) (A) (A) (A) (A) (A) (A) (A)
                 (A) (A) (A) (A) (A) (A) (A) (A) (A) (A) (A) (A)
                 (A) (A) (A) (A) (A) (A) (A) (A) (A) (A) (A) (A)
                 (A) (A) (A) (A)
       Virtual   (A) (A) (A) (A) (A) (A) (A) (A) (A) (A) (A) (A)
                 (A) (A) (A) (A) (A) (A) (A) (A) (A) (A) (A) (A)
                 (A) (A) (A) (A) (A) (A) (A) (A) (A) (A) (A) (A)
                 (A) (A) (A) (A) (A) (A) (A) (A) (A) (A) (A) (A)
                 (A) (A) (A) (A) (A) (A) (A) (A) (A) (A) (A) (A)
                 (A) (A) (A) (A) (A) (A) (A) (A) (A) (A) (A) (A)
                 (A) (A) (A) (A) (A) (A) (A) (A) (A) (A) (A) (A)
                 (A) (A) (A) (A) (A) (A) (A) (A) (A) (A) (A) (A)
                 (A) (A) (A) (A) (A) (A) (A) (A) (A) (A) (A) (A)
                 (A) (A) (A) (A) (A) (A) (A) (A) (A) (A) (A) (A)
                 (A) (A) (A) (A) (A) (A) (A) (A) (A) (A) (A) (A)
                 (A) (A) (A) (A) (A) (A) (A) (A) (A) (A) (A) (A)
                 (A) (A) (A) (A) (A) (A) (A) (A) (A) (A) (A) (A)
                 (A) (A) (A) (A) (A) (A) (A) (A) (A) (A) (A) (A)
                 (A) (A) (A) (A) (A) (A) (A) (A) (A) (A) (A) (A)
                 (A) (A) (A) (A) (A) (A) (A) (A) (A) (A) (A) (A)
                 (A) (A) (A) (A) (A) (A) (A) (A) (A) (A) (A) (A)
                 (A) (A) (A) (A) (A) (A) (A) (A) (A) (A) (A) (A)
                 (A) (A) (A) (A) (A) (A) (A) (A) (A) (A) (A) (A)
                 (A) (A) (A) (A) (A) (A) (A) (A) (A) (A) (A) (A)
                 (A) (A) (A) (A) (A) (A) (A) (A) (A) (A) (A) (A)
                 (A) (A) (A) (A) (A) (A) (A) (A) (A) (A) (A) (A)
                 (A) (A) (A) (A) (A) (A) (A) (A) (A) (A) (A) (A)
                 (A) (A) (A) (A) (A) (A) (A) (A) (A) (A) (A) (A)
                 (A) (A) (A) (A) (A) (A) (A) (A) (A) (A) (A) (A)
                 (A) (A) (A) (A) (A) (A) (A) (A) (A) (A) (A) (A)
                 (A) (A) (A) (A) (A) (A) (A) (A) (A) (A) (A) (A)
                 (A) (A) (A) (A) (A) (A) (A) (A) (A) (A) (A) (A)
                 (A) (A) (A) (A) (A) (A) (A) (A) (A) (A) (A) (A)
                 (A) (A) (A) (A) (A) (A) (A) (A) (A) (A) (A) (A)
                 (A) (A) (A) (A) (A) (A) (A) (A) (A) (A) (A) (A)
                 (A) (A) (A) (A) (A) (A) (A) (A) (A) (A) (A) (A)
                 (A) (A) (A) (A) (A) (A) (A) (A) (A) (A) (A) (A)
                 (A) (A) (A) (A) (A) (A) (A) (A) (A) (A) (A) (A)
                 (A) (A) (A) (A) (A) (A) (A) (A) (A) (A) (A) (A)
                 (A) (A) (A) (A) (A) (A) (A) (A) (A) (A) (A) (A)
                 (A) (A) (A) (A) (A) (A) (A) (A) (A) (A) (A) (A)
                 (A) (A) (A) (A) (A) (A) (A) (A) (A) (A) (A) (A)
                 (A) (A) (A) (A) (A) (A) (A) (A) (A) (A) (A) (A)
                 (A) (A) (A) (A) (A) (A) (A) (A) (A) (A) (A) (A)
                 (A) (A) (A) (A) (A) (A) (A) (A) (A) (A) (A) (A)
                 (A) (A) (A) (A) (A) (A) (A) (A) (A) (A) (A) (A)
                 (A) (A) (A) (A) (A) (A) (A) (A) (A) (A) (A) (A)
                 (A) (A) (A) (A) (A) (A) (A) (A) (A) (A) (A) (A)
                 (A) (A) (A) (A) (A) (A) (A) (A) (A) (A) (A) (A)
                 (A) (A) (A) (A) (A) (A) (A) (A) (A) (A) (A) (A)
                 (A) (A) (A) (A) (A) (A) (A) (A) (A) (A) (A) (A)
                 (A) (A) (A) (A) (A) (A) (A) (A) (A) (A) (A) (A)
                 (A) (A) (A) (A) (A) (A) (A) (A) (A) (A) (A) (A)
                 (A) (A) (A) (A) (A) (A) (A) (A) (A) (A) (A) (A)
                 (A) (A) (A) (A) (A) (A) (A) (A) (A) (A) (A) (A)
                 (A) (A) (A) (A) (A) (A) (A) (A) (A) (A) (A) (A)
                 (A) (A) (A) (A) (A) (A) (A) (A) (A) (A) (A) (A)
                 (A) (A) (A) (A) (A) (A) (A) (A) (A) (A) (A) (A)
                 (A) (A) (A) (A) (A) (A) (A) (A) (A) (A) (A) (A)
                 (A) (A) (A) (A) (A) (A) (A) (A) (A) (A) (A) (A)
                 (A) (A) (A) (A) (A) (A) (A) (A) (A) (A) (A) (A)
                 (A) (A) (A) (A) (A) (A) (A) (A) (A) (A) (A) (A)
                 (A) (A) (A) (A) (A) (A) (A) (A) (A) (A) (A) (A)
                 (A) (A) (A) (A) (A) (A) (A) (A) (A) (A) (A) (A)
                 (A) (A) (A) (A) (A) (A) (A) (A) (A) (A) (A) (A)
                 (A) (A) (A) (A) (A) (A) (A) (A) (A) (A) (A) (A)
                 (A) (A) (A) (A) (A) (A) (A) (A) (A) (A) (A) (A)
                 (A) (A) (A) (A) (A) (A) (A) (A) (A) (A) (A) (A)
                 (A) (A) (A) (A) (A) (A) (A) (A) (A) (A) (A) (A)
                 (A) (A) (A) (A) (A) (A) (A) (A) (A) (A) (A) (A)
                 (A) (A) (A) (A) (A) (A) (A) (A) (A) (A) (A) (A)
                 (A) (A) (A) (A) (A) (A) (A) (A) (A) (A) (A) (A)
                 (A) (A) (A) (A) (A) (A) (A) (A) (A) (A) (A) (A)
                 (A) (A) (A) (A) (A) (A) (A) (A) (A) (A) (A) (A)
                 (A) (A) (A) (A) (A) (A) (A) (A) (A) (A) (A) (A)
                 (A) (A) (A) (A) (A) (A) (A) (A) (A) (A) (A) (A)
                 (A) (A) (A) (A) (A) (A) (A) (A) (A) (A) (A) (A)
                 (A) (A) (A) (A) (A) (A) (A) (A) (A) (A) (A) (A)
                 (A) (A) (A) (A) (A) (A) (A) (A) (A) (A) (A) (A)
                 (A) (A) (A) (A) (A) (A) (A) (A) (A) (A) (A) (A)
                 (A) (A) (A) (A) (A) (A) (A) (A) (A) (A) (A) (A)
                 (A) (A) (A) (A) (A) (A) (A) (A) (A) (A) (A) (A)
                 (A) (A) (A) (A) (A) (A) (A) (A) (A) (A) (A) (A)
                 (A) (A) (A) (A) (A) (A) (A) (A) (A) (A) (A) (A)
                 (A) (A) (A) (A) (A) (A) (A) (A) (A) (A) (A) (A)
                 (A) (A) (A) (A) (A) (A) (A) (A) (A) (A) (A) (A)
                 (A) (A) (A) (A) (A) (A) (A) (A) (A) (A) (A) (A)
                 (A) (A) (A) (A) (A) (A) (A) (A) (A) (A) (A) (A)
                 (A) (A) (A) (A) (A) (A) (A) (A) (A) (A) (A) (A)
                 (A) (A) (A) (A) (A) (A) (A) (A) (A) (A) (A) (A)
                 (A) (A) (A) (A) (A) (A) (A) (A) (A) (A) (A) (A)
                 (A) (A) (A) (A) (A) (A) (A) (A) (A) (A) (A) (A)
                 (A) (A) (A) (A) (A) (A) (A) (A) (A) (A) (A) (A)
                 (A) (A) (A) (A) (A) (A) (A) (A) (A) (A) (A) (A)
                 (A) (A) (A) (A) (A) (A) (A) (A) (A) (A)
 The electronic state is 1-A.
 Alpha  occ. eigenvalues --  -46.81608 -19.23061 -19.21413 -19.18424 -19.17288
 Alpha  occ. eigenvalues --  -19.16581 -19.16573 -19.16518 -14.39095 -14.37200
 Alpha  occ. eigenvalues --  -14.36731 -14.36465 -10.34691 -10.34260 -10.31508
 Alpha  occ. eigenvalues --  -10.29918 -10.29540 -10.29153 -10.27436 -10.27066
 Alpha  occ. eigenvalues --  -10.26934 -10.26882 -10.26713 -10.26698 -10.26024
 Alpha  occ. eigenvalues --  -10.25718 -10.25544 -10.25280 -10.25109 -10.24482
 Alpha  occ. eigenvalues --  -10.24451 -10.24205 -10.24182 -10.24140 -10.24069
 Alpha  occ. eigenvalues --  -10.23900 -10.23881 -10.23466 -10.23395 -10.23263
 Alpha  occ. eigenvalues --  -10.23240 -10.23152 -10.23115 -10.22946 -10.22670
 Alpha  occ. eigenvalues --  -10.22623 -10.22595 -10.22570 -10.22428 -10.22015
 Alpha  occ. eigenvalues --  -10.22009 -10.22002 -10.21813 -10.21774 -10.21701
 Alpha  occ. eigenvalues --  -10.21686 -10.21599 -10.21537 -10.21266 -10.21037
 Alpha  occ. eigenvalues --  -10.21034 -10.20595 -10.20315 -10.19110 -10.18869
 Alpha  occ. eigenvalues --  -10.18279  -3.10221  -1.85156  -1.84702  -1.84628
 Alpha  occ. eigenvalues --   -1.13560  -1.11660  -1.11033  -1.10673  -1.10144
 Alpha  occ. eigenvalues --   -1.03927  -1.03252  -1.02692  -1.00331  -0.99642
 Alpha  occ. eigenvalues --   -0.98753  -0.88500  -0.87555  -0.86019  -0.85913
 Alpha  occ. eigenvalues --   -0.85512  -0.85281  -0.84490  -0.83975  -0.83297
 Alpha  occ. eigenvalues --   -0.83256  -0.82931  -0.82264  -0.80364  -0.79799
 Alpha  occ. eigenvalues --   -0.79130  -0.78570  -0.77316  -0.76952  -0.76657
 Alpha  occ. eigenvalues --   -0.75700  -0.75515  -0.74449  -0.72551  -0.71962
 Alpha  occ. eigenvalues --   -0.71559  -0.71149  -0.70684  -0.70426  -0.69674
 Alpha  occ. eigenvalues --   -0.69565  -0.68842  -0.67424  -0.67080  -0.66761
 Alpha  occ. eigenvalues --   -0.65956  -0.65052  -0.64561  -0.63110  -0.62360
 Alpha  occ. eigenvalues --   -0.61270  -0.60574  -0.59454  -0.58675  -0.58572
 Alpha  occ. eigenvalues --   -0.58488  -0.57840  -0.57465  -0.57012  -0.56916
 Alpha  occ. eigenvalues --   -0.56484  -0.56357  -0.56023  -0.55834  -0.54310
 Alpha  occ. eigenvalues --   -0.54106  -0.53492  -0.52972  -0.52686  -0.52122
 Alpha  occ. eigenvalues --   -0.51608  -0.51390  -0.51266  -0.51199  -0.50589
 Alpha  occ. eigenvalues --   -0.50145  -0.49738  -0.49537  -0.49315  -0.49277
 Alpha  occ. eigenvalues --   -0.49182  -0.48871  -0.48440  -0.48110  -0.48002
 Alpha  occ. eigenvalues --   -0.47880  -0.47621  -0.47326  -0.47164  -0.47124
 Alpha  occ. eigenvalues --   -0.46855  -0.46754  -0.46685  -0.46289  -0.46174
 Alpha  occ. eigenvalues --   -0.45984  -0.45793  -0.45598  -0.45123  -0.45020
 Alpha  occ. eigenvalues --   -0.44848  -0.44720  -0.44451  -0.44337  -0.44123
 Alpha  occ. eigenvalues --   -0.43873  -0.43639  -0.43478  -0.43435  -0.43093
 Alpha  occ. eigenvalues --   -0.42846  -0.42646  -0.42466  -0.42363  -0.42326
 Alpha  occ. eigenvalues --   -0.42021  -0.41777  -0.41730  -0.41480  -0.41184
 Alpha  occ. eigenvalues --   -0.41080  -0.40973  -0.40823  -0.40644  -0.40441
 Alpha  occ. eigenvalues --   -0.40376  -0.40083  -0.39748  -0.39645  -0.39476
 Alpha  occ. eigenvalues --   -0.39440  -0.38950  -0.38699  -0.38639  -0.38447
 Alpha  occ. eigenvalues --   -0.38159  -0.37692  -0.37646  -0.37522  -0.37400
 Alpha  occ. eigenvalues --   -0.37348  -0.36493  -0.36089  -0.35630  -0.35556
 Alpha  occ. eigenvalues --   -0.35316  -0.34984  -0.34766  -0.34620  -0.34457
 Alpha  occ. eigenvalues --   -0.34250  -0.33724  -0.33545  -0.33142  -0.32819
 Alpha  occ. eigenvalues --   -0.32265  -0.32056  -0.31806  -0.31699  -0.31206
 Alpha  occ. eigenvalues --   -0.30780  -0.30718  -0.30241  -0.29986  -0.29771
 Alpha  occ. eigenvalues --   -0.29064  -0.28348  -0.28052  -0.27431  -0.27296
 Alpha  occ. eigenvalues --   -0.26948  -0.26908  -0.22875  -0.21516
 Alpha virt. eigenvalues --   -0.09241  -0.06183  -0.01066   0.00254   0.01457
 Alpha virt. eigenvalues --    0.03185   0.03354   0.04114   0.04478   0.04680
 Alpha virt. eigenvalues --    0.04954   0.05922   0.08448   0.08910   0.09349
 Alpha virt. eigenvalues --    0.09726   0.10113   0.10291   0.10474   0.10757
 Alpha virt. eigenvalues --    0.10794   0.11363   0.11590   0.11628   0.11949
 Alpha virt. eigenvalues --    0.12348   0.12392   0.12839   0.12949   0.13152
 Alpha virt. eigenvalues --    0.13328   0.13528   0.13699   0.14115   0.14188
 Alpha virt. eigenvalues --    0.14409   0.14473   0.14528   0.14782   0.15095
 Alpha virt. eigenvalues --    0.15266   0.15357   0.15417   0.15711   0.15797
 Alpha virt. eigenvalues --    0.15980   0.16139   0.16315   0.16835   0.16956
 Alpha virt. eigenvalues --    0.17063   0.17193   0.17258   0.17361   0.17621
 Alpha virt. eigenvalues --    0.17811   0.18052   0.18125   0.18446   0.18684
 Alpha virt. eigenvalues --    0.18703   0.18891   0.19077   0.19166   0.19358
 Alpha virt. eigenvalues --    0.19591   0.19656   0.19711   0.19773   0.19967
 Alpha virt. eigenvalues --    0.20312   0.20663   0.20722   0.20858   0.21019
 Alpha virt. eigenvalues --    0.21145   0.21273   0.21389   0.21442   0.21611
 Alpha virt. eigenvalues --    0.22111   0.22567   0.22683   0.23047   0.23076
 Alpha virt. eigenvalues --    0.23248   0.23780   0.23816   0.23979   0.24109
 Alpha virt. eigenvalues --    0.24237   0.24502   0.24605   0.24957   0.24963
 Alpha virt. eigenvalues --    0.25230   0.25384   0.25468   0.25673   0.25926
 Alpha virt. eigenvalues --    0.26322   0.26469   0.26677   0.26909   0.27079
 Alpha virt. eigenvalues --    0.27189   0.27456   0.27635   0.27775   0.28224
 Alpha virt. eigenvalues --    0.28337   0.28873   0.28983   0.29122   0.29142
 Alpha virt. eigenvalues --    0.29928   0.30318   0.30478   0.30645   0.31027
 Alpha virt. eigenvalues --    0.31214   0.31650   0.32127   0.32179   0.32437
 Alpha virt. eigenvalues --    0.32979   0.33015   0.34003   0.34263   0.34895
 Alpha virt. eigenvalues --    0.34996   0.35169   0.35509   0.35670   0.36236
 Alpha virt. eigenvalues --    0.37005   0.37354   0.38336   0.38732   0.38882
 Alpha virt. eigenvalues --    0.38963   0.39638   0.40012   0.40218   0.41440
 Alpha virt. eigenvalues --    0.41857   0.42338   0.42900   0.43587   0.44036
 Alpha virt. eigenvalues --    0.45053   0.45388   0.45680   0.46233   0.46698
 Alpha virt. eigenvalues --    0.47478   0.48369   0.48482   0.49658   0.50012
 Alpha virt. eigenvalues --    0.50416   0.50705   0.51114   0.51250   0.51713
 Alpha virt. eigenvalues --    0.52155   0.52387   0.52444   0.52665   0.52749
 Alpha virt. eigenvalues --    0.52931   0.53352   0.53450   0.53729   0.54105
 Alpha virt. eigenvalues --    0.54503   0.54899   0.55037   0.55424   0.55706
 Alpha virt. eigenvalues --    0.55763   0.56102   0.56239   0.56336   0.56472
 Alpha virt. eigenvalues --    0.56937   0.57099   0.57328   0.57521   0.57712
 Alpha virt. eigenvalues --    0.57858   0.57963   0.58073   0.58302   0.58462
 Alpha virt. eigenvalues --    0.58810   0.59051   0.59179   0.59548   0.59852
 Alpha virt. eigenvalues --    0.59902   0.60460   0.60610   0.60903   0.61099
 Alpha virt. eigenvalues --    0.61579   0.61755   0.61911   0.62130   0.62200
 Alpha virt. eigenvalues --    0.62634   0.62720   0.63055   0.63269   0.63368
 Alpha virt. eigenvalues --    0.63662   0.63776   0.64007   0.64201   0.64350
 Alpha virt. eigenvalues --    0.64663   0.64952   0.65574   0.65848   0.65986
 Alpha virt. eigenvalues --    0.66512   0.67103   0.67164   0.67411   0.67697
 Alpha virt. eigenvalues --    0.67873   0.68195   0.68294   0.68361   0.68530
 Alpha virt. eigenvalues --    0.69078   0.69381   0.69766   0.69822   0.69874
 Alpha virt. eigenvalues --    0.70252   0.70593   0.70842   0.71057   0.71360
 Alpha virt. eigenvalues --    0.71444   0.71703   0.72303   0.72762   0.72881
 Alpha virt. eigenvalues --    0.73331   0.73854   0.73939   0.74485   0.74661
 Alpha virt. eigenvalues --    0.74913   0.75240   0.75543   0.75812   0.76021
 Alpha virt. eigenvalues --    0.76244   0.76593   0.76622   0.77148   0.77286
 Alpha virt. eigenvalues --    0.77564   0.77976   0.78080   0.78135   0.78277
 Alpha virt. eigenvalues --    0.78526   0.78751   0.78988   0.79122   0.79863
 Alpha virt. eigenvalues --    0.80026   0.80224   0.80434   0.80566   0.80621
 Alpha virt. eigenvalues --    0.81007   0.81136   0.81269   0.81448   0.81561
 Alpha virt. eigenvalues --    0.81730   0.81830   0.82126   0.82404   0.82483
 Alpha virt. eigenvalues --    0.82831   0.83009   0.83138   0.83347   0.83634
 Alpha virt. eigenvalues --    0.83982   0.84231   0.84408   0.84603   0.85004
 Alpha virt. eigenvalues --    0.85170   0.85368   0.85558   0.85738   0.86038
 Alpha virt. eigenvalues --    0.86478   0.86573   0.86662   0.87051   0.87274
 Alpha virt. eigenvalues --    0.87388   0.87509   0.87632   0.87841   0.87902
 Alpha virt. eigenvalues --    0.88211   0.88323   0.88639   0.88861   0.88958
 Alpha virt. eigenvalues --    0.89004   0.89183   0.89419   0.89561   0.89694
 Alpha virt. eigenvalues --    0.89802   0.90331   0.90491   0.90655   0.90672
 Alpha virt. eigenvalues --    0.91050   0.91331   0.91439   0.91865   0.92010
 Alpha virt. eigenvalues --    0.92067   0.92217   0.92578   0.92692   0.92904
 Alpha virt. eigenvalues --    0.92967   0.93157   0.93560   0.93655   0.93880
 Alpha virt. eigenvalues --    0.93950   0.94150   0.94462   0.94619   0.95008
 Alpha virt. eigenvalues --    0.95082   0.95583   0.95646   0.96211   0.96502
 Alpha virt. eigenvalues --    0.96668   0.97108   0.97498   0.97618   0.98075
 Alpha virt. eigenvalues --    0.98098   0.98192   0.98510   0.98698   0.98868
 Alpha virt. eigenvalues --    0.99328   0.99414   0.99683   0.99962   1.00085
 Alpha virt. eigenvalues --    1.00284   1.00518   1.00684   1.00986   1.01268
 Alpha virt. eigenvalues --    1.01615   1.01859   1.01908   1.02228   1.02393
 Alpha virt. eigenvalues --    1.02612   1.02861   1.03148   1.03527   1.03794
 Alpha virt. eigenvalues --    1.04091   1.04242   1.04335   1.04437   1.04789
 Alpha virt. eigenvalues --    1.05106   1.05887   1.06137   1.07056   1.07404
 Alpha virt. eigenvalues --    1.07670   1.07734   1.08203   1.08684   1.08959
 Alpha virt. eigenvalues --    1.09292   1.09790   1.10288   1.11345   1.11466
 Alpha virt. eigenvalues --    1.11761   1.12077   1.12443   1.13683   1.13846
 Alpha virt. eigenvalues --    1.14614   1.14982   1.15438   1.15546   1.16196
 Alpha virt. eigenvalues --    1.17806   1.18515   1.18965   1.19745   1.19970
 Alpha virt. eigenvalues --    1.20304   1.20395   1.21084   1.21751   1.22543
 Alpha virt. eigenvalues --    1.23022   1.23352   1.23936   1.24143   1.24543
 Alpha virt. eigenvalues --    1.24941   1.25476   1.25478   1.26215   1.26621
 Alpha virt. eigenvalues --    1.26716   1.27515   1.28111   1.28199   1.28790
 Alpha virt. eigenvalues --    1.29788   1.30490   1.30506   1.30767   1.31015
 Alpha virt. eigenvalues --    1.31713   1.31944   1.32789   1.33142   1.33602
 Alpha virt. eigenvalues --    1.33929   1.34165   1.34615   1.34871   1.35260
 Alpha virt. eigenvalues --    1.35789   1.35934   1.36642   1.37176   1.37539
 Alpha virt. eigenvalues --    1.38055   1.38229   1.39195   1.39612   1.39787
 Alpha virt. eigenvalues --    1.40732   1.40988   1.41303   1.41953   1.42576
 Alpha virt. eigenvalues --    1.42640   1.42847   1.43902   1.44639   1.45184
 Alpha virt. eigenvalues --    1.45364   1.46131   1.46816   1.47020   1.47297
 Alpha virt. eigenvalues --    1.48316   1.49366   1.49445   1.49971   1.50373
 Alpha virt. eigenvalues --    1.50664   1.51133   1.51788   1.52346   1.52652
 Alpha virt. eigenvalues --    1.53507   1.53847   1.53867   1.54396   1.54657
 Alpha virt. eigenvalues --    1.54726   1.55491   1.55786   1.56394   1.57063
 Alpha virt. eigenvalues --    1.57320   1.57402   1.57870   1.58171   1.58536
 Alpha virt. eigenvalues --    1.58630   1.58817   1.59129   1.59574   1.59801
 Alpha virt. eigenvalues --    1.60465   1.60617   1.60998   1.61700   1.62338
 Alpha virt. eigenvalues --    1.62434   1.63348   1.63471   1.63651   1.64192
 Alpha virt. eigenvalues --    1.64428   1.64969   1.65103   1.66088   1.66370
 Alpha virt. eigenvalues --    1.66729   1.67059   1.67822   1.67927   1.68527
 Alpha virt. eigenvalues --    1.69411   1.69447   1.69917   1.70349   1.70909
 Alpha virt. eigenvalues --    1.71373   1.71818   1.72413   1.72463   1.73069
 Alpha virt. eigenvalues --    1.73247   1.73643   1.74065   1.74253   1.74776
 Alpha virt. eigenvalues --    1.75303   1.76014   1.76351   1.76687   1.76745
 Alpha virt. eigenvalues --    1.77034   1.77191   1.77226   1.78152   1.78662
 Alpha virt. eigenvalues --    1.78796   1.79276   1.79796   1.80111   1.80463
 Alpha virt. eigenvalues --    1.80705   1.81032   1.81294   1.81500   1.81653
 Alpha virt. eigenvalues --    1.82368   1.82461   1.82802   1.82933   1.83278
 Alpha virt. eigenvalues --    1.83478   1.83650   1.83888   1.84236   1.84700
 Alpha virt. eigenvalues --    1.84912   1.85122   1.85341   1.85805   1.85909
 Alpha virt. eigenvalues --    1.86295   1.86679   1.86833   1.87099   1.87287
 Alpha virt. eigenvalues --    1.87577   1.87698   1.88178   1.88234   1.88484
 Alpha virt. eigenvalues --    1.88812   1.88992   1.89127   1.89512   1.89904
 Alpha virt. eigenvalues --    1.90343   1.90594   1.90944   1.91230   1.91659
 Alpha virt. eigenvalues --    1.91808   1.92042   1.92096   1.92371   1.92655
 Alpha virt. eigenvalues --    1.92711   1.93043   1.93112   1.93200   1.93737
 Alpha virt. eigenvalues --    1.93909   1.94264   1.94413   1.94575   1.94800
 Alpha virt. eigenvalues --    1.94880   1.94996   1.95068   1.95268   1.96066
 Alpha virt. eigenvalues --    1.96259   1.96429   1.96618   1.97268   1.97347
 Alpha virt. eigenvalues --    1.97779   1.97906   1.98285   1.98358   1.99094
 Alpha virt. eigenvalues --    1.99116   1.99567   1.99740   1.99837   2.00254
 Alpha virt. eigenvalues --    2.00516   2.00831   2.01116   2.01276   2.01563
 Alpha virt. eigenvalues --    2.01889   2.02546   2.02789   2.02802   2.02861
 Alpha virt. eigenvalues --    2.03321   2.03711   2.03921   2.04687   2.04879
 Alpha virt. eigenvalues --    2.05327   2.05575   2.05686   2.06080   2.06329
 Alpha virt. eigenvalues --    2.06570   2.06833   2.07040   2.07324   2.07625
 Alpha virt. eigenvalues --    2.07879   2.08264   2.08335   2.08525   2.08787
 Alpha virt. eigenvalues --    2.08844   2.09414   2.09657   2.09896   2.10211
 Alpha virt. eigenvalues --    2.10600   2.11001   2.11804   2.11836   2.12763
 Alpha virt. eigenvalues --    2.12912   2.13076   2.13464   2.13622   2.14371
 Alpha virt. eigenvalues --    2.14615   2.15086   2.15245   2.15356   2.16189
 Alpha virt. eigenvalues --    2.16562   2.17175   2.17217   2.17514   2.17554
 Alpha virt. eigenvalues --    2.17714   2.18066   2.18720   2.19060   2.19189
 Alpha virt. eigenvalues --    2.19792   2.20254   2.20392   2.20599   2.20912
 Alpha virt. eigenvalues --    2.21358   2.21807   2.22050   2.22904   2.23380
 Alpha virt. eigenvalues --    2.24022   2.24210   2.24320   2.25003   2.25117
 Alpha virt. eigenvalues --    2.25216   2.25553   2.25740   2.26291   2.26563
 Alpha virt. eigenvalues --    2.27002   2.27222   2.27414   2.27815   2.27982
 Alpha virt. eigenvalues --    2.28847   2.28959   2.28978   2.29135   2.29783
 Alpha virt. eigenvalues --    2.30214   2.30714   2.30871   2.31224   2.31498
 Alpha virt. eigenvalues --    2.31566   2.32275   2.32540   2.32703   2.33077
 Alpha virt. eigenvalues --    2.33957   2.34187   2.34246   2.34355   2.34626
 Alpha virt. eigenvalues --    2.35189   2.35267   2.35590   2.35875   2.36150
 Alpha virt. eigenvalues --    2.36278   2.36884   2.37233   2.37678   2.37734
 Alpha virt. eigenvalues --    2.38741   2.39010   2.39348   2.39495   2.39518
 Alpha virt. eigenvalues --    2.39840   2.40596   2.40995   2.41127   2.41233
 Alpha virt. eigenvalues --    2.41567   2.41780   2.42072   2.42100   2.42783
 Alpha virt. eigenvalues --    2.43188   2.43261   2.43607   2.43669   2.43902
 Alpha virt. eigenvalues --    2.44232   2.44464   2.44740   2.45041   2.45748
 Alpha virt. eigenvalues --    2.45989   2.46184   2.46307   2.46664   2.46693
 Alpha virt. eigenvalues --    2.47494   2.47818   2.48209   2.48870   2.49478
 Alpha virt. eigenvalues --    2.49564   2.49739   2.50335   2.50361   2.50861
 Alpha virt. eigenvalues --    2.51412   2.51721   2.52218   2.52528   2.52726
 Alpha virt. eigenvalues --    2.52976   2.53454   2.53653   2.54465   2.54709
 Alpha virt. eigenvalues --    2.54979   2.55272   2.55490   2.56574   2.56838
 Alpha virt. eigenvalues --    2.57008   2.57741   2.57925   2.58999   2.59076
 Alpha virt. eigenvalues --    2.59544   2.59849   2.59927   2.60545   2.60623
 Alpha virt. eigenvalues --    2.61081   2.61267   2.61532   2.62206   2.62421
 Alpha virt. eigenvalues --    2.62921   2.63352   2.63813   2.64072   2.64293
 Alpha virt. eigenvalues --    2.64965   2.65333   2.65438   2.65463   2.66265
 Alpha virt. eigenvalues --    2.66666   2.66802   2.66868   2.67071   2.67192
 Alpha virt. eigenvalues --    2.67693   2.67883   2.68384   2.68805   2.68985
 Alpha virt. eigenvalues --    2.69753   2.70184   2.70328   2.70653   2.70692
 Alpha virt. eigenvalues --    2.71042   2.71579   2.71737   2.71883   2.72283
 Alpha virt. eigenvalues --    2.72881   2.73069   2.73411   2.73690   2.73902
 Alpha virt. eigenvalues --    2.74333   2.74434   2.74865   2.74940   2.75383
 Alpha virt. eigenvalues --    2.75645   2.75925   2.76205   2.76635   2.76890
 Alpha virt. eigenvalues --    2.77411   2.77779   2.78064   2.78114   2.78409
 Alpha virt. eigenvalues --    2.78786   2.79415   2.79946   2.80067   2.80996
 Alpha virt. eigenvalues --    2.81198   2.81488   2.81771   2.82898   2.83096
 Alpha virt. eigenvalues --    2.83183   2.83583   2.83863   2.83906   2.84204
 Alpha virt. eigenvalues --    2.84455   2.84781   2.85141   2.85234   2.85460
 Alpha virt. eigenvalues --    2.86435   2.86887   2.87220   2.88338   2.88835
 Alpha virt. eigenvalues --    2.88953   2.89197   2.89538   2.90054   2.90174
 Alpha virt. eigenvalues --    2.90818   2.90842   2.90978   2.91589   2.92020
 Alpha virt. eigenvalues --    2.92459   2.92739   2.93112   2.93482   2.93690
 Alpha virt. eigenvalues --    2.94832   2.95271   2.95331   2.95700   2.96248
 Alpha virt. eigenvalues --    2.96538   2.97848   2.97913   2.98464   2.98644
 Alpha virt. eigenvalues --    2.99149   2.99414   2.99670   3.00801   3.01022
 Alpha virt. eigenvalues --    3.01926   3.02076   3.02244   3.02645   3.03484
 Alpha virt. eigenvalues --    3.03644   3.04539   3.04841   3.05523   3.06094
 Alpha virt. eigenvalues --    3.06339   3.06844   3.07497   3.07824   3.08405
 Alpha virt. eigenvalues --    3.09934   3.10183   3.10391   3.11000   3.12531
 Alpha virt. eigenvalues --    3.12795   3.13512   3.14888   3.15286   3.16285
 Alpha virt. eigenvalues --    3.16439   3.17415   3.17603   3.19283   3.19360
 Alpha virt. eigenvalues --    3.19981   3.21208   3.22150   3.22209   3.22540
 Alpha virt. eigenvalues --    3.22777   3.23403   3.24065   3.25083   3.27243
 Alpha virt. eigenvalues --    3.27387   3.27545   3.27952   3.29199   3.29819
 Alpha virt. eigenvalues --    3.30335   3.31408   3.31861   3.32727   3.33159
 Alpha virt. eigenvalues --    3.33414   3.34071   3.34229   3.35607   3.35968
 Alpha virt. eigenvalues --    3.36031   3.36436   3.38153   3.38221   3.38955
 Alpha virt. eigenvalues --    3.40381   3.40567   3.41593   3.42890   3.44058
 Alpha virt. eigenvalues --    3.44133   3.44653   3.44781   3.45063   3.45789
 Alpha virt. eigenvalues --    3.46645   3.48055   3.48535   3.49647   3.50262
 Alpha virt. eigenvalues --    3.50549   3.51449   3.52295   3.53084   3.53943
 Alpha virt. eigenvalues --    3.54840   3.55251   3.55741   3.56584   3.57638
 Alpha virt. eigenvalues --    3.58019   3.59563   3.60353   3.61310   3.61473
 Alpha virt. eigenvalues --    3.63143   3.64330   3.64648   3.65530   3.66417
 Alpha virt. eigenvalues --    3.69593   3.70521   3.72846   3.74226   3.79799
 Alpha virt. eigenvalues --    4.01770   4.03255   4.07340   4.07687   4.11801
 Alpha virt. eigenvalues --    4.16380   4.17096   4.17830   4.19917   4.20528
 Alpha virt. eigenvalues --    4.21212   4.22948   4.23975   4.25805   4.28078
 Alpha virt. eigenvalues --    4.28237   4.30366   4.31720   4.32860   4.34508
 Alpha virt. eigenvalues --    4.34941   4.36229   4.36451   4.38413   4.40250
 Alpha virt. eigenvalues --    4.40721   4.41243   4.41384   4.44135   4.44814
 Alpha virt. eigenvalues --    4.44950   4.46109   4.46811   4.48685   4.48738
 Alpha virt. eigenvalues --    4.51152   4.51931   4.54107   4.54340   4.54642
 Alpha virt. eigenvalues --    4.56904   4.57270   4.57751   4.57981   4.59163
 Alpha virt. eigenvalues --    4.60101   4.63866   4.65126   4.65308   4.67443
 Alpha virt. eigenvalues --    4.68695   4.69811   4.70183   4.73291   4.75108
 Alpha virt. eigenvalues --    4.76411   4.78582   4.80621   4.81879   4.83709
 Alpha virt. eigenvalues --    4.85023   4.85405   4.86168   4.92935   5.04713
          Condensed to atoms (all electrons):
 Mulliken charges:
               1
     1  Mg   0.831483
     2  C    0.073903
     3  C   -0.152570
     4  C   -0.167989
     5  C   -0.160638
     6  N   -0.621306
     7  C    0.297862
     8  C   -0.161101
     9  C   -0.152791
    10  C    0.336205
    11  C   -0.297984
    12  C   -0.155919
    13  C   -0.254985
    14  C    0.591180
    15  O   -0.489990
    16  O   -0.463831
    17  N   -0.734289
    18  C    0.268196
    19  C    0.040746
    20  C   -0.032901
    21  C    0.321683
    22  C   -0.362454
    23  C    0.262685
    24  O   -0.390146
    25  N   -0.685532
    26  C    0.300237
    27  C   -0.033740
    28  C    0.059200
    29  C    0.317927
    30  C    0.267064
    31  C   -0.289343
    32  C   -0.330871
    33  N   -0.719026
    34  C    0.217349
    35  C    0.082466
    36  C    0.060008
    37  C    0.327022
    38  C   -0.395591
    39  C    0.293537
    40  O   -0.398421
    41  C   -0.345797
    42  C    0.608449
    43  O   -0.491172
    44  O   -0.463118
    45  C   -0.078826
    46  C    0.007516
    47  C   -0.159831
    48  C    0.136130
    49  C   -0.371824
    50  C   -0.221754
    51  C   -0.175756
    52  C   -0.145310
    53  C   -0.064209
    54  C   -0.312467
    55  C   -0.186107
    56  C   -0.178463
    57  C   -0.148469
    58  C   -0.055745
    59  C   -0.330297
    60  C   -0.167189
    61  C   -0.163482
    62  C   -0.149499
    63  C   -0.039152
    64  C   -0.296705
    65  C   -0.303714
    66  H    0.078128
    67  H    0.125300
    68  H    0.098218
    69  H    0.134309
    70  H    0.108654
    71  H    0.079141
    72  H    0.090369
    73  H    0.148613
    74  H    0.124714
    75  H    0.122340
    76  H    0.122821
    77  H    0.135989
    78  H    0.107262
    79  H    0.158083
    80  H    0.125553
    81  H    0.031512
    82  H    0.113463
    83  H    0.126961
    84  H    0.120941
    85  H    0.125817
    86  H    0.102826
    87  H    0.139660
    88  H    0.136480
    89  H    0.134775
    90  H    0.142002
    91  H    0.112771
    92  H    0.129695
    93  H    0.087544
    94  H    0.141865
    95  H    0.118190
    96  H    0.139574
    97  H    0.110617
    98  H    0.094150
    99  H    0.084561
   100  H    0.074909
   101  H    0.073844
   102  H    0.058716
   103  H    0.055867
   104  H    0.112035
   105  H    0.107239
   106  H    0.089373
   107  H    0.074236
   108  H    0.097896
   109  H    0.086138
   110  H    0.103283
   111  H    0.056614
   112  H    0.079168
   113  H    0.093727
   114  H    0.096980
   115  H    0.116712
   116  H    0.108615
   117  H    0.093910
   118  H    0.069464
   119  H    0.101464
   120  H    0.096223
   121  H    0.084619
   122  H    0.064859
   123  H    0.058879
   124  H    0.087762
   125  H    0.085195
   126  H    0.096685
   127  H    0.102547
   128  H    0.106029
   129  H    0.076997
   130  H    0.129707
   131  H    0.115463
   132  H    0.142576
   133  O   -0.367484
   134  H    0.016312
 Sum of Mulliken charges =  -0.00000
 Mulliken charges with hydrogens summed into heavy atoms:
               1
     1  Mg   0.831483
     2  C    0.073903
     3  C   -0.074442
     4  C   -0.042689
     5  C   -0.062420
     6  N   -0.621306
     7  C    0.297862
     8  C   -0.026792
     9  C   -0.044137
    10  C    0.336205
    11  C    0.020139
    12  C    0.091135
    13  C    0.003825
    14  C    0.591180
    15  O   -0.489990
    16  O   -0.463831
    17  N   -0.734289
    18  C    0.268196
    19  C    0.040746
    20  C   -0.032901
    21  C    0.321683
    22  C    0.028444
    23  C    0.294196
    24  O   -0.390146
    25  N   -0.685532
    26  C    0.300237
    27  C   -0.033740
    28  C    0.059200
    29  C    0.317927
    30  C    0.283376
    31  C   -0.048919
    32  C    0.018713
    33  N   -0.719026
    34  C    0.217349
    35  C    0.082466
    36  C    0.060008
    37  C    0.327022
    38  C    0.015323
    39  C    0.293537
    40  O   -0.398421
    41  C   -0.203795
    42  C    0.608449
    43  O   -0.491172
    44  O   -0.463118
    45  C    0.308919
    46  C    0.249982
    47  C   -0.072287
    48  C    0.136130
    49  C    0.027806
    50  C   -0.016987
    51  C   -0.016286
    52  C   -0.012750
    53  C   -0.008342
    54  C   -0.003820
    55  C   -0.013976
    56  C    0.010958
    57  C   -0.012688
    58  C    0.037983
    59  C   -0.007990
    60  C   -0.003814
    61  C    0.034205
    62  C   -0.000021
    63  C    0.019727
    64  C   -0.027063
    65  C   -0.018141
   133  O   -0.367484
 Electronic spatial extent (au):  <R**2>=         147149.9843
 Charge=             -0.0000 electrons
 Dipole moment (field-independent basis, Debye):
    X=              1.4823    Y=             -4.1977    Z=             -1.6580  Tot=              4.7504
 Quadrupole moment (field-independent basis, Debye-Ang):
   XX=           -368.1393   YY=           -440.7681   ZZ=           -397.0466
   XY=              1.3027   XZ=             31.1314   YZ=            -34.9519
 Traceless Quadrupole moment (field-independent basis, Debye-Ang):
   XX=             33.8454   YY=            -38.7835   ZZ=              4.9381
   XY=              1.3027   XZ=             31.1314   YZ=            -34.9519
 Octapole moment (field-independent basis, Debye-Ang**2):
  XXX=           -300.8310  YYY=           -530.1887  ZZZ=            -35.1227  XYY=            219.3436
  XXY=           -101.1797  XXZ=           -224.8766  XZZ=           -130.2267  YZZ=            -18.3736
  YYZ=            -83.3976  XYZ=            161.5795
 Hexadecapole moment (field-independent basis, Debye-Ang**3):
 XXXX=        -157218.7470 YYYY=         -31643.0694 ZZZZ=          -8955.7134 XXXY=          -1099.0204
 XXXZ=           4176.7246 YYYX=           1807.6509 YYYZ=          -1337.2988 ZZZX=            673.8977
 ZZZY=           -308.2799 XXYY=         -34297.7836 XXZZ=         -28745.5713 YYZZ=          -7030.6040
 XXYZ=          -1184.7300 YYXZ=            430.2058 ZZXY=           -339.1181
 N-N= 9.136184474656D+03 E-N=-2.535750429810D+04  KE= 3.017444682360D+03

 Test job not archived.
 1\1\GINC-RYZEN-SSD3\SP\RCAM-B3LYP TD-FC\6-31G(d,p)\C54H68Mg1N4O7\PADAW
 AN\07-Oct-2019\0\\# td=(NStates=1) iop(3/107=0140000000,3/108=01400000
 00) iop(3/107=0140000000,3/108=0140000000) CAM-B3LYP/6-31G(d,p)\\TD\\0
 ,1\Mg,0,-5.5709586025,1.2610809824,0.1592445297\C,0,-4.8560959968,-2.0
 920276661,-0.4139782646\C,0,-3.4694757367,1.1706973545,2.817227096\C,0
 ,-6.1702258183,4.646497914,0.5733875476\C,0,-7.934239191,1.1538662373,
 -2.3835260261\N,0,-4.3529095443,-0.2547536672,1.0461159504\C,0,-4.1900
 025278,-1.5917828799,0.6583481844\C,0,-3.2018833128,-2.3513084336,1.44
 90792716\C,0,-2.87009018,-1.277600651,2.6189684529\C,0,-3.6354709745,-
 0.0756101887,2.1514997352\C,0,-3.5221252519,-1.8133647779,3.930435743\
 C,0,-1.8940145947,-2.7337707864,0.6785631618\C,0,-1.033394983,-3.53592
 11727,1.4414677348\C,0,0.2567707776,-3.9246663073,0.7733255273\O,0,0.4
 785479191,-3.6283101446,-0.4050667409\O,0,1.063393185,-4.7004396613,1.
 5182764349\N,0,-5.0454553618,2.6687862555,1.425412773\C,0,-4.034585548
 4,2.4319406158,2.4028808914\C,0,-3.7607455783,3.6229207943,3.121982754
 5\C,0,-4.6132918819,4.6141529436,2.4844777191\C,0,-5.2853446387,3.9959
 17687,1.5167777701\C,0,-2.736338997,3.9291702928,4.1845326427\C,0,-4.4
 581823488,6.0120386244,2.8720667115\O,0,-3.9332633743,6.5705249405,3.7
 419080907\N,0,-6.8091147114,2.6947593717,-0.8123128876\C,0,-6.95024773
 96,4.0224918664,-0.4316748562\C,0,-8.0664818346,4.5999767225,-1.132827
 3922\C,0,-8.6282022735,3.6114380737,-1.9964785923\C,0,-7.7461535059,2.
 3825142602,-1.7247184183\C,0,-8.4923722281,6.0308029897,-0.9865681656\
 C,0,-9.626457009,3.7679971979,-2.977452378\C,0,-8.9982912828,4.1312612
 723,-4.4145578598\N,0,-6.2868070997,-0.1880838261,-1.0579008821\C,0,-7
 .2082403536,-0.0974758162,-2.1107252832\C,0,-7.4315806653,-1.334385142
 1,-2.715844107\C,0,-6.5350730561,-2.1496545373,-2.1432004857\C,0,-5.87
 1355551,-1.3820817733,-1.1153376642\C,0,-8.5387593337,-1.4495350795,-3
 .7292498212\C,0,-6.0637100381,-3.4066362475,-2.2030738625\O,0,-6.26599
 09946,-4.3887265711,-2.7606623313\C,0,-5.0649350556,-3.5301210647,-0.9
 644287627\C,0,-5.2726447419,-4.5678722283,0.0195956314\O,0,-5.72012778
 44,-4.40441945,1.1483611995\O,0,-5.0599656948,-5.8238035768,-0.5162347
 681\C,0,-5.3727048347,-6.9426361169,0.397121542\C,0,2.274728446,-5.104
 1815384,0.8365976142\C,0,3.4608606211,-4.1267628372,1.1250604058\C,0,4
 .0300123914,-3.3684297131,0.1728309181\C,0,3.7026646054,-3.1733722785,
 -1.2862081253\C,0,5.1621226381,-2.4683218798,0.7092047193\C,0,6.538998
 7712,-2.7850714323,0.0769591633\C,0,7.6807834019,-1.9058099365,0.60374
 60651\C,0,9.0859894202,-2.0378086145,-0.0394717297\C,0,9.6093673184,-3
 .4727179122,0.0421407564\C,0,10.0979803771,-1.0082210595,0.4491274282\
 C,0,11.4034776502,-0.8750871156,-0.4139301592\C,0,12.2822259112,0.2277
 974072,0.271654013\C,0,13.594851941,0.4895138213,-0.4799427575\C,0,14.
 5100193009,-0.745093912,-0.3311572666\C,0,14.2039663362,1.8025964312,-
 0.026221877\C,0,15.4119953899,2.1065886871,-0.8934443394\C,0,15.893251
 9096,3.5912538782,-0.6954401572\C,0,17.1263378829,3.9049283344,-1.4272
 566609\C,0,16.9762302127,4.0102759193,-3.0050727315\C,0,17.8397933854,
 5.1647917445,-0.9499344523\H,0,-2.6827439972,1.0693212075,3.4394344118
 \H,0,-6.2597839572,5.6799233727,0.8916981615\H,0,-8.6248628935,1.05099
 54024,-3.2009555744\H,0,-3.7170827731,-3.2369690123,1.7150395648\H,0,-
 1.8212292468,-1.3313507967,2.5943907152\H,0,-2.8595057297,-2.791302291
 4,4.3507186159\H,0,-3.5793387266,-0.9821081152,4.7882708569\H,0,-4.503
 832895,-2.1525843393,3.911545105\H,0,-2.1890042141,-3.3048300003,-0.21
 1221746\H,0,-1.3075385863,-1.874406557,0.5399221138\H,0,-0.4857440079,
 -2.9990612017,2.3090851272\H,0,-1.2443191535,-4.5830154327,1.818373635
 4\H,0,-1.7996800818,3.3022697514,3.8574116509\H,0,-2.6897199621,4.9122
 784338,4.3524114988\H,0,-3.0759305881,3.5172827258,5.1700720132\H,0,-5
 .1466777317,6.6014043348,2.2169270141\H,0,-10.4255616897,2.9776384209,
 -3.0465879105\H,0,-10.2943202299,4.5935231964,-2.7924195327\H,0,-9.669
 1067105,4.2938277968,-5.1860238047\H,0,-8.3232018296,4.9523549809,-4.4
 537953345\H,0,-8.2614659956,3.3717265315,-4.8130812329\H,0,-8.24288187
 78,-0.902700813,-4.6377947778\H,0,-8.4977607591,-2.4899323983,-4.13209
 58466\H,0,-9.6218022597,-1.39626645,-3.2804349502\H,0,-4.0427916366,-3
 .8431791445,-1.3021735043\H,0,2.7006611991,-5.7949474377,1.5415601129\
 H,0,2.1654972931,-5.3923162077,-0.1897724268\H,0,3.6050626286,-4.10294
 95768,2.0987448821\H,0,2.5943344201,-3.5688325044,-1.5577783188\H,0,3.
 9868432976,-2.1539089502,-1.6065831288\H,0,4.4081029843,-3.8741911483,
 -1.6285117771\H,0,4.9884588868,-1.4991163356,0.6895708406\H,0,5.388547
 382,-2.7298646189,1.7916640467\H,0,6.8766851952,-3.9197251646,0.239321
 8162\H,0,6.5253926997,-2.527870396,-1.0918997855\H,0,7.3174306744,-0.8
 074740725,0.5000772532\H,0,7.9983019331,-2.0630128844,1.7625006354\H,0
 ,8.9211962289,-1.8636546407,-1.1822115593\H,0,8.9719217109,-4.15089386
 08,-0.3961034027\H,0,10.5716265035,-3.5546296651,-0.2002301365\H,0,9.8
 015292143,-3.6527163631,1.0829887416\H,0,9.4785070013,-0.0317474485,0.
 4923045943\H,0,10.3291530128,-1.3697035043,1.400119552\H,0,11.63659880
 12,-1.9843284647,-0.3186462378\H,0,11.1820242891,-0.5327261775,-1.3899
 103246\H,0,11.2679178253,1.0179162208,0.4468051253\H,0,12.5003748608,-
 0.1803368423,1.3236006403\H,0,13.2457013708,0.4341578481,-1.4750597447
 \H,0,14.7003493732,-0.8788961023,0.7345691369\H,0,14.1331488859,-1.662
 6052768,-0.6092872502\H,0,15.4969106795,-0.5563388321,-0.6379306856\H,
 0,13.4844066349,2.6246170808,-0.2243442221\H,0,14.4951462149,1.8718374
 729,1.1532525392\H,0,16.20774243,1.3551041231,-0.5795344441\H,0,14.844
 7300564,2.0958534981,-1.8980611858\H,0,15.0975011547,4.3358689649,-1.0
 494369418\H,0,16.163789149,3.8672433657,0.464356336\H,0,18.1124449259,
 3.2417856698,-1.2030293825\H,0,16.054386159,4.6794944783,-3.2726196218
 \H,0,17.9980057241,4.5585853718,-3.4065652616\H,0,16.780128213,2.91810
 28803,-3.4315711917\H,0,18.0650425515,5.035394757,0.0510067649\H,0,18.
 7359111134,5.4875929115,-1.3669236068\H,0,17.1330848594,5.9730668098,-
 1.3485789192\H,0,-4.7701423156,-7.793558789,-0.0577293106\H,0,-6.60432
 48628,-7.0758946761,0.1686403715\H,0,-5.0825264212,-6.5995615318,1.454
 4999066\O,0,-8.0770953011,6.8214886497,-0.2489826823\H,0,-9.4524735445
 ,6.2419798429,-1.7403197148\\Version=ES64L-G16RevA.03\State=1-A\HF=-30
 43.4200635\RMSD=4.207e-09\PG=C01 [X(C54H68Mg1N4O7)]\\@


 My opinions may have changed, but not the fact that I am right.
                       -- Ashleigh Brilliant
 Job cpu time:       1 days  2 hours 32 minutes 46.5 seconds.
 Elapsed time:       0 days  6 hours 38 minutes 53.5 seconds.
 File lengths (MBytes):  RWF=   6825 Int=      0 D2E=      0 Chk=    180 Scr=      1
 Normal termination of Gaussian 16 at Mon Oct  7 13:29:33 2019.
