 Entering Gaussian System, Link 0=g16
 Input=Geometria-65-.com
 Output=Geometria-65-.log
 Initial command:
 /usr/local/g16/l1.exe "/home/padawan/israel-mol/chlorophyll-b/spectra/abs/Gau-1859.inp" -scrdir="/home/padawan/israel-mol/chlorophyll-b/spectra/abs/"
 Entering Link 1 = /usr/local/g16/l1.exe PID=      2026.
  
 Copyright (c) 1988,1990,1992,1993,1995,1998,2003,2009,2016,
            Gaussian, Inc.  All Rights Reserved.
  
 This is part of the Gaussian(R) 16 program.  It is based on
 the Gaussian(R) 09 system (copyright 2009, Gaussian, Inc.),
 the Gaussian(R) 03 system (copyright 2003, Gaussian, Inc.),
 the Gaussian(R) 98 system (copyright 1998, Gaussian, Inc.),
 the Gaussian(R) 94 system (copyright 1995, Gaussian, Inc.),
 the Gaussian 92(TM) system (copyright 1992, Gaussian, Inc.),
 the Gaussian 90(TM) system (copyright 1990, Gaussian, Inc.),
 the Gaussian 88(TM) system (copyright 1988, Gaussian, Inc.),
 the Gaussian 86(TM) system (copyright 1986, Carnegie Mellon
 University), and the Gaussian 82(TM) system (copyright 1983,
 Carnegie Mellon University). Gaussian is a federally registered
 trademark of Gaussian, Inc.
  
 This software contains proprietary and confidential information,
 including trade secrets, belonging to Gaussian, Inc.
  
 This software is provided under written license and may be
 used, copied, transmitted, or stored only in accord with that
 written license.
  
 The following legend is applicable only to US Government
 contracts under FAR:
  
                    RESTRICTED RIGHTS LEGEND
  
 Use, reproduction and disclosure by the US Government is
 subject to restrictions as set forth in subparagraphs (a)
 and (c) of the Commercial Computer Software - Restricted
 Rights clause in FAR 52.227-19.
  
 Gaussian, Inc.
 340 Quinnipiac St., Bldg. 40, Wallingford CT 06492
  
  
 ---------------------------------------------------------------
 Warning -- This program may not be used in any manner that
 competes with the business of Gaussian, Inc. or will provide
 assistance to any competitor of Gaussian, Inc.  The licensee
 of this program is prohibited from giving any competitor of
 Gaussian, Inc. access to this program.  By using this program,
 the user acknowledges that Gaussian, Inc. is engaged in the
 business of creating and licensing software in the field of
 computational chemistry and represents and warrants to the
 licensee that it is not a competitor of Gaussian, Inc. and that
 it will not use this program in any manner prohibited above.
 ---------------------------------------------------------------
  

 Cite this work as:
 Gaussian 16, Revision A.03,
 M. J. Frisch, G. W. Trucks, H. B. Schlegel, G. E. Scuseria, 
 M. A. Robb, J. R. Cheeseman, G. Scalmani, V. Barone, 
 G. A. Petersson, H. Nakatsuji, X. Li, M. Caricato, A. V. Marenich, 
 J. Bloino, B. G. Janesko, R. Gomperts, B. Mennucci, H. P. Hratchian, 
 J. V. Ortiz, A. F. Izmaylov, J. L. Sonnenberg, D. Williams-Young, 
 F. Ding, F. Lipparini, F. Egidi, J. Goings, B. Peng, A. Petrone, 
 T. Henderson, D. Ranasinghe, V. G. Zakrzewski, J. Gao, N. Rega, 
 G. Zheng, W. Liang, M. Hada, M. Ehara, K. Toyota, R. Fukuda, 
 J. Hasegawa, M. Ishida, T. Nakajima, Y. Honda, O. Kitao, H. Nakai, 
 T. Vreven, K. Throssell, J. A. Montgomery, Jr., J. E. Peralta, 
 F. Ogliaro, M. J. Bearpark, J. J. Heyd, E. N. Brothers, K. N. Kudin, 
 V. N. Staroverov, T. A. Keith, R. Kobayashi, J. Normand, 
 K. Raghavachari, A. P. Rendell, J. C. Burant, S. S. Iyengar, 
 J. Tomasi, M. Cossi, J. M. Millam, M. Klene, C. Adamo, R. Cammi, 
 J. W. Ochterski, R. L. Martin, K. Morokuma, O. Farkas, 
 J. B. Foresman, and D. J. Fox, Gaussian, Inc., Wallingford CT, 2016.
 
 ******************************************
 Gaussian 16:  ES64L-G16RevA.03 25-Dec-2016
                 7-Oct-2019 
 ******************************************
 %nproc=4
 Will use up to    4 processors via shared memory.
 %Mem=4GB
 ----------------------------------------------------------------------
 # td=(NStates=1) iop(3/107=0140000000,3/108=0140000000) iop(3/107=0140
 000000,3/108=0140000000) CAM-B3LYP/6-31G(d,p)
 ----------------------------------------------------------------------
 1/38=1,172=1/1;
 2/12=2,17=6,18=5,40=1/2;
 3/5=1,6=6,7=101,11=9,25=1,30=1,74=-40,107=140000000,108=140000000/1,2,3,8;
 4//1;
 5/5=2,38=5/2;
 8/6=1,10=2,108=1/1;
 9/41=1,42=1,70=2/14;
 6/7=2,8=2,9=2,10=2/1;
 99/5=1,9=1/99;
 --
 TD
 --
 Symbolic Z-matrix:
 Charge =  0 Multiplicity = 1
 12                   -5.50431   1.28123   0.20182 
 6                    -4.94918  -2.2047   -0.32575 
 6                    -3.38024   1.2177    2.71278 
 6                    -6.15508   4.64833   0.59108 
 6                    -7.96527   1.19739  -2.41761 
 7                    -4.29566  -0.23017   1.04113 
 6                    -4.29063  -1.58817   0.70378 
 6                    -3.26178  -2.31305   1.58533 
 6                    -2.94598  -1.30708   2.72996 
 6                    -3.56056  -0.09323   2.10355 
 6                    -3.5085   -1.87038   3.96016 
 6                    -2.00578  -2.66088   0.6216 
 6                    -1.0701   -3.54579   1.40776 
 6                     0.26754  -3.82521   0.60532 
 8                     0.41005  -3.27024  -0.5584 
 8                     1.08459  -4.7941    1.1643 
 7                    -4.94132   2.64442   1.44616 
 6                    -3.96815   2.44996   2.49604 
 6                    -3.76813   3.67158   3.15654 
 6                    -4.54249   4.68809   2.48665 
 6                    -5.2592    3.9629    1.33667 
 6                    -2.80586   3.89414   4.32072 
 6                    -4.7073    6.09036   2.94605 
 8                    -3.97509   6.61807   3.85395 
 7                    -6.90054   2.566    -0.68633 
 6                    -6.94168   3.92045  -0.32637 
 6                    -7.9189    4.62648  -1.221 
 6                    -8.45231   3.61073  -2.11933 
 6                    -7.78953   2.44927  -1.72649 
 6                    -8.36221   5.9575   -1.13276 
 6                    -9.5608    3.81822  -3.16832 
 6                    -8.87426   4.07282  -4.57199 
 7                    -6.39773  -0.17504  -1.03131 
 6                    -7.30457  -0.0252   -2.00827 
 6                    -7.50232  -1.25868  -2.6621 
 6                    -6.57047  -2.19048  -2.13412 
 6                    -5.9543   -1.4336   -1.07621 
 6                    -8.52029  -1.45947  -3.80307 
 6                    -6.20038  -3.57246  -2.01345 
 8                    -6.65713  -4.59828  -2.60101 
 6                    -5.08492  -3.59733  -0.82228 
 6                    -5.38067  -4.75566   0.15856 
 8                    -5.82756  -4.56123   1.24962 
 8                    -5.03047  -5.91291  -0.36134 
 6                    -5.37763  -7.04404   0.49868 
 6                     2.31841  -5.04168   0.50315 
 6                     3.38376  -4.10269   0.92123 
 6                     4.17537  -3.34822   0.1084 
 6                     3.78369  -3.20441  -1.44547 
 6                     5.25867  -2.467     0.62336 
 6                     6.5973   -2.83456  -0.03095 
 6                     7.64235  -1.80325   0.51737 
 6                     9.05561  -1.88246  -0.08287 
 6                     9.57598  -3.2837    0.2221 
 6                     10.0188  -0.91642   0.48104 
 6                     11.39178  -0.9655   -0.2235 
 6                     12.28545   0.23512   0.13528 
 6                     13.63296   0.36379  -0.49012 
 6                     14.60471  -0.85012  -0.17926 
 6                     14.30367   1.784    -0.09036 
 6                     15.46231   2.16874  -0.96896 
 6                     16.0419   3.45729  -0.6587 
 6                     17.34032   3.98268  -1.40192 
 6                     17.03345   4.06019  -2.91371 
 6                     17.76752   5.32761  -0.74098 
 1                    -2.75444   1.15591   3.61787 
 1                    -6.54235   5.68398   0.61815 
 1                    -8.75559   1.13252  -3.13304 
 1                    -3.72161  -3.25328   1.93061 
 1                    -1.92576  -1.10543   2.87555 
 1                    -2.99839  -2.67839   4.35739 
 1                    -3.3457   -1.14226   4.83639 
 1                    -4.57343  -1.85359   3.79466 
 1                    -2.5075   -3.19491  -0.17798 
 1                    -1.46808  -1.71486   0.47748 
 1                    -1.02524  -3.13315   2.35288 
 1                    -1.44813  -4.54312   1.82397 
 1                    -1.71613   3.40514   3.93579 
 1                    -2.81298   5.0547    4.51888 
 1                    -2.98921   3.37046   5.45512 
 1                    -5.51756   6.62058   2.40437 
 1                    -10.11461   2.99291  -3.23922 
 1                    -10.1599   4.60629  -2.83694 
 1                    -9.84854   4.40722  -5.00256 
 1                    -8.24953   4.96999  -4.41243 
 1                    -8.24788   3.18884  -4.65524 
 1                    -8.23469  -0.90639  -4.63384 
 1                    -8.51838  -2.43722  -4.09349 
 1                    -9.68372  -1.33958  -3.82338 
 1                    -4.08966  -3.83947  -1.24968 
 1                     2.52929  -6.10342   1.03948 
 1                     2.32202  -5.06644  -0.52245 
 1                     3.64611  -4.17654   1.81109 
 1                     2.68755  -2.96608  -1.42398 
 1                     4.24563  -2.2853   -1.83441 
 1                     4.17056  -4.11455  -2.0317 
 1                     4.99318  -1.40741   0.72596 
 1                     5.47731  -2.57046   1.68825 
 1                     6.87618  -3.80982   0.20929 
 1                     6.44343  -2.57649  -0.95714 
 1                     7.12147  -0.67249   0.28642 
 1                     7.73098  -1.77629   1.68946 
 1                     8.82704  -1.88978  -1.13554 
 1                     8.89323  -4.19699  -0.30029 
 1                     10.67732  -3.48432  -0.3304 
 1                     9.95126  -3.49497   1.20729 
 1                     9.62764   0.25798   0.30462 
 1                     10.03937  -0.8923    1.68698 
 1                     11.97469  -1.87646   0.01903 
 1                     11.13923  -1.13016  -1.29529 
 1                     11.78678   1.16602   0.02669 
 1                     12.40184   0.16699   1.18682 
 1                     13.62269   0.37418  -1.60101 
 1                     14.91614  -0.71516   0.97528 
 1                     14.31201  -1.81911  -0.33583 
 1                     15.44421  -0.84141  -0.782 
 1                     13.4658   2.48406  -0.06219 
 1                     14.59276   1.80894   0.99894 
 1                     16.20066   1.30629  -0.99024 
 1                     15.12357   2.07306  -2.17726 
 1                     15.25268   4.22281  -0.57737 
 1                     16.25041   3.37066   0.55896 
 1                     18.00327   3.28204  -1.19026 
 1                     16.357    4.68175  -3.22662 
 1                     17.94507   4.18538  -3.70121 
 1                     16.61042   3.01048  -3.39365 
 1                     17.93361   5.19122   0.42135 
 1                     18.71929   5.61163  -1.271 
 1                     16.86368   6.16316  -0.74143 
 1                    -5.14042  -8.0398   -0.10023 
 1                    -6.34892  -7.15346   0.73256 
 1                    -4.94358  -6.8463    1.47253 
 8                    -7.87165   6.82255  -0.36023 
 1                    -9.05672   6.49947  -1.90748 
 
 Stoichiometry    C54H68MgN4O7
 Framework group  C1[X(C54H68MgN4O7)]
 Deg. of freedom   396
 Full point group                 C1      NOp   1
 Largest Abelian subgroup         C1      NOp   1
 Largest concise Abelian subgroup C1      NOp   1
                         Standard orientation:                         
 ---------------------------------------------------------------------
 Center     Atomic      Atomic             Coordinates (Angstroms)
 Number     Number       Type             X           Y           Z
 ---------------------------------------------------------------------
      1         12           0       -5.506199    1.270242    0.200704
      2          6           0       -4.944277   -2.215944   -0.317931
      3          6           0       -3.380149    1.217813    2.710247
      4          6           0       -6.163613    4.637023    0.581422
      5          6           0       -7.968910    1.174315   -2.416663
      6          7           0       -4.293825   -0.236418    1.043162
      7          6           0       -4.286247   -1.595306    0.709456
      8          6           0       -3.255255   -2.315704    1.592182
      9          6           0       -2.940681   -1.306020    2.733874
     10          6           0       -3.558225   -0.095119    2.104675
     11          6           0       -3.501140   -1.867171    3.965996
     12          6           0       -1.999248   -2.663533    0.628451
     13          6           0       -1.061173   -3.544404    1.416292
     14          6           0        0.276449   -3.823218    0.613606
     15          8           0        0.416958   -3.271087   -0.551704
     16          8           0        1.095896   -4.788926    1.174576
     17          7           0       -4.945103    2.637919    1.440974
     18          6           0       -3.970755    2.448276    2.490645
     19          6           0       -3.772761    3.672065    3.147715
     20          6           0       -4.549713    4.685185    2.475680
     21          6           0       -5.265773    3.955445    1.328182
     22          6           0       -2.810093    3.899725    4.310580
     23          6           0       -4.717063    6.088336    2.931448
     24          8           0       -3.985273    6.619986    3.837382
     25          7           0       -6.905726    2.549745   -0.689848
     26          6           0       -6.949382    3.905073   -0.333493
     27          6           0       -7.928712    4.606688   -1.229279
     28          6           0       -8.460699    3.587437   -2.124492
     29          6           0       -7.795234    2.428403   -1.729030
     30          6           0       -8.374698    5.937022   -1.144284
     31          6           0       -9.570382    3.789837   -3.173212
     32          6           0       -8.885400    4.042077   -4.578070
     33          7           0       -6.397524   -0.191169   -1.027852
     34          6           0       -7.305392   -0.045811   -2.004533
     35          6           0       -7.501082   -1.281443   -2.654912
     36          6           0       -6.566926   -2.209907   -2.125129
     37          6           0       -5.951543   -1.448925   -1.069713
     38          6           0       -8.519476   -1.487383   -3.794582
     39          6           0       -6.193911   -3.590798   -2.001035
     40          8           0       -6.648978   -4.619122   -2.585496
     41          6           0       -5.077518   -3.610175   -0.810631
     42          6           0       -5.370159   -4.766480    0.173534
     43          8           0       -5.816648   -4.570038    1.264402
     44          8           0       -5.017968   -5.924399   -0.343521
     45          6           0       -5.362158   -7.053923    0.519786
     46          6           0        2.329743   -5.035737    0.513180
     47          6           0        3.393466   -4.093445    0.927947
     48          6           0        4.182916   -3.339529    0.112515
     49          6           0        3.789803   -3.200690   -1.441453
     50          6           0        5.264785   -2.454709    0.624299
     51          6           0        6.603688   -2.821264   -0.030015
     52          6           0        7.647012   -1.786344    0.514762
     53          6           0        9.059986   -1.864260   -0.086305
     54          6           0        9.583472   -3.263601    0.222028
     55          6           0       10.021607   -0.894732    0.474295
     56          6           0       11.394160   -0.942872   -0.231131
     57          6           0       12.285621    0.260535    0.123768
     58          6           0       13.632402    0.390301   -0.502979
     59          6           0       14.606880   -0.820776   -0.189586
     60          6           0       14.300482    1.812958   -0.107519
     61          6           0       15.457684    2.197722   -0.988010
     62          6           0       16.034845    3.488284   -0.681630
     63          6           0       17.331636    4.014344   -1.427226
     64          6           0       17.023490    4.087173   -2.938990
     65          6           0       17.756550    5.361919   -0.770210
     66          1           0       -2.753561    1.159735    3.615040
     67          1           0       -6.552992    5.671949    0.606005
     68          1           0       -8.759616    1.105905   -3.131329
     69          1           0       -3.712898   -3.255944    1.940320
     70          1           0       -1.920773   -1.101877    2.878165
     71          1           0       -2.989072   -2.673063    4.365012
     72          1           0       -3.339186   -1.136374    4.840147
     73          1           0       -4.566220   -1.853019    3.801246
     74          1           0       -2.500457   -3.200731   -0.169318
     75          1           0       -1.463612   -1.716796    0.481395
     76          1           0       -1.016465   -3.129142    2.360264
     77          1           0       -1.436843   -4.541389    1.835454
     78          1           0       -1.719649    3.411940    3.926157
     79          1           0       -2.819463    5.060801    4.505636
     80          1           0       -2.991536    3.378714    5.446520
     81          1           0       -5.528819    6.615434    2.388942
     82          1           0      -10.122544    2.963201   -3.241484
     83          1           0      -10.170855    4.577562   -2.843503
     84          1           0       -9.860689    4.373320   -5.008804
     85          1           0       -8.262406    4.940955   -4.421377
     86          1           0       -8.257269    3.159169   -4.659408
     87          1           0       -8.235631   -0.935952   -4.627050
     88          1           0       -8.515773   -2.465904   -4.082387
     89          1           0       -9.683166   -1.369945   -3.814352
     90          1           0       -4.082076   -3.851414   -1.238112
     91          1           0        2.543204   -6.095602    1.052193
     92          1           0        2.332649   -5.063248   -0.512352
     93          1           0        3.656617   -4.164366    1.817803
     94          1           0        2.693192   -2.964564   -1.419789
     95          1           0        4.249560   -2.281685   -1.833189
     96          1           0        4.178110   -4.111601   -2.025526
     97          1           0        4.997187   -1.395392    0.724264
     98          1           0        5.484416   -2.554860    1.689307
     99          1           0        6.884743   -3.795309    0.212631
    100          1           0        6.448605   -2.565995   -0.956774
    101          1           0        7.123637   -0.657282    0.281168
    102          1           0        7.736445   -1.756063    1.686716
    103          1           0        8.830657   -1.874868   -1.138783
    104          1           0        8.902218   -4.179690   -0.297408
    105          1           0       10.684808   -3.463440   -0.330752
    106          1           0        9.959911   -3.471457    1.207504
    107          1           0        9.627900    0.278387    0.295014
    108          1           0       10.043017   -0.867330    1.680148
    109          1           0       11.979128   -1.851979    0.013405
    110          1           0       11.141164   -1.110924   -1.302288
    111          1           0       11.784959    1.190116    0.013056
    112          1           0       12.402924    0.195465    1.175396
    113          1           0       13.621295    0.397692   -1.613883
    114          1           0       14.918884   -0.682075    0.964362
    115          1           0       14.316058   -1.790778   -0.343339
    116          1           0       15.445912   -0.811949   -0.792963
    117          1           0       13.461202    2.511365   -0.080604
    118          1           0       14.590322    1.841410    0.981491
    119          1           0       16.197793    1.336733   -1.007520
    120          1           0       15.118249    2.098102   -2.195795
    121          1           0       15.244111    4.252392   -0.601770
    122          1           0       16.244431    3.405352    0.536095
    123          1           0       17.996187    3.315642   -1.214175
    124          1           0       16.345532    4.706503   -3.253054
    125          1           0       17.934275    4.212122   -3.727500
    126          1           0       16.602274    3.035313   -3.415795
    127          1           0       17.923780    5.228990    0.392365
    128          1           0       18.707346    5.646470   -1.301696
    129          1           0       16.850994    6.195602   -0.772223
    130          1           0       -5.123345   -8.050803   -0.076635
    131          1           0       -6.333053   -7.164719    0.754674
    132          1           0       -4.927806   -6.852680    1.492780
    133          8           0       -7.885356    6.805151   -0.374441
    134          1           0       -9.070897    6.475483   -1.919932
 ---------------------------------------------------------------------
 Rotational constants (GHZ):           0.0343941           0.0080715           0.0071241
 Standard basis: 6-31G(d,p) (6D, 7F)
 There are  1334 symmetry adapted cartesian basis functions of A   symmetry.
 There are  1334 symmetry adapted basis functions of A   symmetry.
  1334 basis functions,  2348 primitive gaussians,  1334 cartesian basis functions
   244 alpha electrons      244 beta electrons
       nuclear repulsion energy      9089.1195213495 Hartrees.
 NAtoms=  134 NActive=  134 NUniq=  134 SFac= 1.00D+00 NAtFMM=   60 NAOKFM=T Big=T
 Integral buffers will be    131072 words long.
 Raffenetti 1 integral format.
 Two-electron integral symmetry is turned on.
 One-electron integrals computed using PRISM.
 NBasis=  1334 RedAO= T EigKep=  3.68D-04  NBF=  1334
 NBsUse=  1334 1.00D-06 EigRej= -1.00D+00 NBFU=  1334
 ExpMin= 4.21D-02 ExpMax= 1.17D+04 ExpMxC= 1.76D+03 IAcc=3 IRadAn=         5 AccDes= 0.00D+00
 Harris functional with IExCor=20419 and IRadAn=       5 diagonalized for initial guess.
 HarFok:  IExCor=20419 AccDes= 0.00D+00 IRadAn=         5 IDoV= 1 UseB2=F ITyADJ=14
 ICtDFT=  3500011 ScaDFX=  1.000000  1.000000  1.000000  1.000000
 FoFCou: FMM=F IPFlag=           0 FMFlag=      100000 FMFlg1=        2001
         NFxFlg=           0 DoJE=T BraDBF=F KetDBF=T FulRan=T
         wScrn=  0.000000 ICntrl=       500 IOpCl=  0 I1Cent=   200000004 NGrid=           0
         NMat0=    1 NMatS0=      1 NMatT0=    0 NMatD0=    1 NMtDS0=    0 NMtDT0=    0
 Petite list used in FoFCou.
 Requested convergence on RMS density matrix=1.00D-08 within 128 cycles.
 Requested convergence on MAX density matrix=1.00D-06.
 Requested convergence on             energy=1.00D-06.
 No special actions if energy rises.
 SCF Done:  E(RCAM-B3LYP) =  -3043.42506298     A.U. after   16 cycles
            NFock= 16  Conv=0.37D-08     -V/T= 2.0094
 DoSCS=F DFT=T ScalE2(SS,OS)=  1.000000  1.000000
 ExpMin= 4.21D-02 ExpMax= 1.17D+04 ExpMxC= 1.76D+03 IAcc=3 IRadAn=         5 AccDes= 0.00D+00
 HarFok:  IExCor=  205 AccDes= 0.00D+00 IRadAn=         5 IDoV=-2 UseB2=F ITyADJ=14
 ICtDFT= 12500011 ScaDFX=  1.000000  1.000000  1.000000  1.000000
 GSVD:  LWork=       -5460 too small for GESVD, short by       25550 words or       25550 for optimal perf.
 Range of M.O.s used for correlation:    71  1334
 NBasis=  1334 NAE=   244 NBE=   244 NFC=    70 NFV=     0
 NROrb=   1264 NOA=   174 NOB=   174 NVA=  1090 NVB=  1090
 Orbital symmetries:
       Occupied  (A) (A) (A) (A) (A) (A) (A) (A) (A) (A) (A) (A)
                 (A) (A) (A) (A) (A) (A) (A) (A) (A) (A) (A) (A)
                 (A) (A) (A) (A) (A) (A) (A) (A) (A) (A) (A) (A)
                 (A) (A) (A) (A) (A) (A) (A) (A) (A) (A) (A) (A)
                 (A) (A) (A) (A) (A) (A) (A) (A) (A) (A) (A) (A)
                 (A) (A) (A) (A) (A) (A) (A) (A) (A) (A) (A) (A)
                 (A) (A) (A) (A) (A) (A) (A) (A) (A) (A) (A) (A)
                 (A) (A) (A) (A) (A) (A) (A) (A) (A) (A) (A) (A)
                 (A) (A) (A) (A) (A) (A) (A) (A) (A) (A) (A) (A)
                 (A) (A) (A) (A) (A) (A) (A) (A) (A) (A) (A) (A)
                 (A) (A) (A) (A) (A) (A) (A) (A) (A) (A) (A) (A)
                 (A) (A) (A) (A) (A) (A) (A) (A) (A) (A) (A) (A)
                 (A) (A) (A) (A) (A) (A) (A) (A) (A) (A) (A) (A)
                 (A) (A) (A) (A) (A) (A) (A) (A) (A) (A) (A) (A)
                 (A) (A) (A) (A) (A) (A) (A) (A) (A) (A) (A) (A)
                 (A) (A) (A) (A) (A) (A) (A) (A) (A) (A) (A) (A)
                 (A) (A) (A) (A) (A) (A) (A) (A) (A) (A) (A) (A)
                 (A) (A) (A) (A) (A) (A) (A) (A) (A) (A) (A) (A)
                 (A) (A) (A) (A) (A) (A) (A) (A) (A) (A) (A) (A)
                 (A) (A) (A) (A) (A) (A) (A) (A) (A) (A) (A) (A)
                 (A) (A) (A) (A)
       Virtual   (A) (A) (A) (A) (A) (A) (A) (A) (A) (A) (A) (A)
                 (A) (A) (A) (A) (A) (A) (A) (A) (A) (A) (A) (A)
                 (A) (A) (A) (A) (A) (A) (A) (A) (A) (A) (A) (A)
                 (A) (A) (A) (A) (A) (A) (A) (A) (A) (A) (A) (A)
                 (A) (A) (A) (A) (A) (A) (A) (A) (A) (A) (A) (A)
                 (A) (A) (A) (A) (A) (A) (A) (A) (A) (A) (A) (A)
                 (A) (A) (A) (A) (A) (A) (A) (A) (A) (A) (A) (A)
                 (A) (A) (A) (A) (A) (A) (A) (A) (A) (A) (A) (A)
                 (A) (A) (A) (A) (A) (A) (A) (A) (A) (A) (A) (A)
                 (A) (A) (A) (A) (A) (A) (A) (A) (A) (A) (A) (A)
                 (A) (A) (A) (A) (A) (A) (A) (A) (A) (A) (A) (A)
                 (A) (A) (A) (A) (A) (A) (A) (A) (A) (A) (A) (A)
                 (A) (A) (A) (A) (A) (A) (A) (A) (A) (A) (A) (A)
                 (A) (A) (A) (A) (A) (A) (A) (A) (A) (A) (A) (A)
                 (A) (A) (A) (A) (A) (A) (A) (A) (A) (A) (A) (A)
                 (A) (A) (A) (A) (A) (A) (A) (A) (A) (A) (A) (A)
                 (A) (A) (A) (A) (A) (A) (A) (A) (A) (A) (A) (A)
                 (A) (A) (A) (A) (A) (A) (A) (A) (A) (A) (A) (A)
                 (A) (A) (A) (A) (A) (A) (A) (A) (A) (A) (A) (A)
                 (A) (A) (A) (A) (A) (A) (A) (A) (A) (A) (A) (A)
                 (A) (A) (A) (A) (A) (A) (A) (A) (A) (A) (A) (A)
                 (A) (A) (A) (A) (A) (A) (A) (A) (A) (A) (A) (A)
                 (A) (A) (A) (A) (A) (A) (A) (A) (A) (A) (A) (A)
                 (A) (A) (A) (A) (A) (A) (A) (A) (A) (A) (A) (A)
                 (A) (A) (A) (A) (A) (A) (A) (A) (A) (A) (A) (A)
                 (A) (A) (A) (A) (A) (A) (A) (A) (A) (A) (A) (A)
                 (A) (A) (A) (A) (A) (A) (A) (A) (A) (A) (A) (A)
                 (A) (A) (A) (A) (A) (A) (A) (A) (A) (A) (A) (A)
                 (A) (A) (A) (A) (A) (A) (A) (A) (A) (A) (A) (A)
                 (A) (A) (A) (A) (A) (A) (A) (A) (A) (A) (A) (A)
                 (A) (A) (A) (A) (A) (A) (A) (A) (A) (A) (A) (A)
                 (A) (A) (A) (A) (A) (A) (A) (A) (A) (A) (A) (A)
                 (A) (A) (A) (A) (A) (A) (A) (A) (A) (A) (A) (A)
                 (A) (A) (A) (A) (A) (A) (A) (A) (A) (A) (A) (A)
                 (A) (A) (A) (A) (A) (A) (A) (A) (A) (A) (A) (A)
                 (A) (A) (A) (A) (A) (A) (A) (A) (A) (A) (A) (A)
                 (A) (A) (A) (A) (A) (A) (A) (A) (A) (A) (A) (A)
                 (A) (A) (A) (A) (A) (A) (A) (A) (A) (A) (A) (A)
                 (A) (A) (A) (A) (A) (A) (A) (A) (A) (A) (A) (A)
                 (A) (A) (A) (A) (A) (A) (A) (A) (A) (A) (A) (A)
                 (A) (A) (A) (A) (A) (A) (A) (A) (A) (A) (A) (A)
                 (A) (A) (A) (A) (A) (A) (A) (A) (A) (A) (A) (A)
                 (A) (A) (A) (A) (A) (A) (A) (A) (A) (A) (A) (A)
                 (A) (A) (A) (A) (A) (A) (A) (A) (A) (A) (A) (A)
                 (A) (A) (A) (A) (A) (A) (A) (A) (A) (A) (A) (A)
                 (A) (A) (A) (A) (A) (A) (A) (A) (A) (A) (A) (A)
                 (A) (A) (A) (A) (A) (A) (A) (A) (A) (A) (A) (A)
                 (A) (A) (A) (A) (A) (A) (A) (A) (A) (A) (A) (A)
                 (A) (A) (A) (A) (A) (A) (A) (A) (A) (A) (A) (A)
                 (A) (A) (A) (A) (A) (A) (A) (A) (A) (A) (A) (A)
                 (A) (A) (A) (A) (A) (A) (A) (A) (A) (A) (A) (A)
                 (A) (A) (A) (A) (A) (A) (A) (A) (A) (A) (A) (A)
                 (A) (A) (A) (A) (A) (A) (A) (A) (A) (A) (A) (A)
                 (A) (A) (A) (A) (A) (A) (A) (A) (A) (A) (A) (A)
                 (A) (A) (A) (A) (A) (A) (A) (A) (A) (A) (A) (A)
                 (A) (A) (A) (A) (A) (A) (A) (A) (A) (A) (A) (A)
                 (A) (A) (A) (A) (A) (A) (A) (A) (A) (A) (A) (A)
                 (A) (A) (A) (A) (A) (A) (A) (A) (A) (A) (A) (A)
                 (A) (A) (A) (A) (A) (A) (A) (A) (A) (A) (A) (A)
                 (A) (A) (A) (A) (A) (A) (A) (A) (A) (A) (A) (A)
                 (A) (A) (A) (A) (A) (A) (A) (A) (A) (A) (A) (A)
                 (A) (A) (A) (A) (A) (A) (A) (A) (A) (A) (A) (A)
                 (A) (A) (A) (A) (A) (A) (A) (A) (A) (A) (A) (A)
                 (A) (A) (A) (A) (A) (A) (A) (A) (A) (A) (A) (A)
                 (A) (A) (A) (A) (A) (A) (A) (A) (A) (A) (A) (A)
                 (A) (A) (A) (A) (A) (A) (A) (A) (A) (A) (A) (A)
                 (A) (A) (A) (A) (A) (A) (A) (A) (A) (A) (A) (A)
                 (A) (A) (A) (A) (A) (A) (A) (A) (A) (A) (A) (A)
                 (A) (A) (A) (A) (A) (A) (A) (A) (A) (A) (A) (A)
                 (A) (A) (A) (A) (A) (A) (A) (A) (A) (A) (A) (A)
                 (A) (A) (A) (A) (A) (A) (A) (A) (A) (A) (A) (A)
                 (A) (A) (A) (A) (A) (A) (A) (A) (A) (A) (A) (A)
                 (A) (A) (A) (A) (A) (A) (A) (A) (A) (A) (A) (A)
                 (A) (A) (A) (A) (A) (A) (A) (A) (A) (A) (A) (A)
                 (A) (A) (A) (A) (A) (A) (A) (A) (A) (A) (A) (A)
                 (A) (A) (A) (A) (A) (A) (A) (A) (A) (A) (A) (A)
                 (A) (A) (A) (A) (A) (A) (A) (A) (A) (A) (A) (A)
                 (A) (A) (A) (A) (A) (A) (A) (A) (A) (A) (A) (A)
                 (A) (A) (A) (A) (A) (A) (A) (A) (A) (A) (A) (A)
                 (A) (A) (A) (A) (A) (A) (A) (A) (A) (A) (A) (A)
                 (A) (A) (A) (A) (A) (A) (A) (A) (A) (A) (A) (A)
                 (A) (A) (A) (A) (A) (A) (A) (A) (A) (A) (A) (A)
                 (A) (A) (A) (A) (A) (A) (A) (A) (A) (A) (A) (A)
                 (A) (A) (A) (A) (A) (A) (A) (A) (A) (A) (A) (A)
                 (A) (A) (A) (A) (A) (A) (A) (A) (A) (A) (A) (A)
                 (A) (A) (A) (A) (A) (A) (A) (A) (A) (A) (A) (A)
                 (A) (A) (A) (A) (A) (A) (A) (A) (A) (A) (A) (A)
                 (A) (A) (A) (A) (A) (A) (A) (A) (A) (A) (A) (A)
                 (A) (A) (A) (A) (A) (A) (A) (A) (A) (A) (A) (A)
                 (A) (A) (A) (A) (A) (A) (A) (A) (A) (A) (A) (A)
                 (A) (A) (A) (A) (A) (A) (A) (A) (A) (A)
     4 initial guesses have been made.
 Convergence on wavefunction:    0.001000000000000
 Iteration     1 Dimension     4 NMult     0 NNew      4
 CISAX will form     4 AO SS matrices at one time.
 Iteration     2 Dimension     6 NMult     4 NNew      2
 Iteration     3 Dimension     8 NMult     6 NNew      2
 Iteration     4 Dimension    10 NMult     8 NNew      2
 Iteration     5 Dimension    12 NMult    10 NNew      2
 Iteration     6 Dimension    14 NMult    12 NNew      2
 Iteration     7 Dimension    16 NMult    14 NNew      2
 Iteration     8 Dimension    18 NMult    16 NNew      2
 Iteration     9 Dimension    20 NMult    18 NNew      2
 ***********************************************************************
 Excited states from <AA,BB:AA,BB> singles matrix:
 ***********************************************************************
 
 Ground to excited state transition densities written to RWF  633
 Ground to excited state transition electric dipole moments (Au):
       state          X           Y           Z        Dip. S.      Osc.
         1         1.0302      0.6623      1.3452      3.3094      0.1611
 Ground to excited state transition velocity dipole moments (Au):
       state          X           Y           Z        Dip. S.      Osc.
         1        -0.0719     -0.0453     -0.0936      0.0160      0.1458
 Ground to excited state transition magnetic dipole moments (Au):
       state          X           Y           Z
         1        -1.2567     -1.3289      1.6162
 Ground to excited state transition velocity quadrupole moments (Au):
       state          XX          YY          ZZ          XY          XZ          YZ
         1         1.4390      0.0685     -0.1801      0.3228      0.9175     -0.1703
 <0|del|b> * <b|rxdel|0> + <0|del|b> * <b|delr+rdel|0>
 Rotatory Strengths (R) in cgs (10**-40 erg-esu-cm/Gauss)
       state          XX          YY          ZZ    R(velocity)    E-M Angle
         1      -386.1096    -89.2310    468.4629     -2.2926       90.13
 1/2[<0|r|b>*<b|rxdel|0> + (<0|rxdel|b>*<b|r|0>)*]
 Rotatory Strengths (R) in cgs (10**-40 erg-esu-cm/Gauss)
       state          XX          YY          ZZ     R(length)
         1       915.5238    622.3822  -1537.4409      0.1550
  1/2[<0|del|b>*<b|r|0> + (<0|r|b>*<b|del|0>)*] (Au)
       state          X           Y           Z        Dip. S.   Osc.(frdel)
         1        -0.0741     -0.0300     -0.1258      0.2299      0.1533

 Excitation energies and oscillator strengths:
 
 Excited State   1:      Singlet-A      1.9863 eV  624.19 nm  f=0.1611  <S**2>=0.000
     243 -> 246        0.24982
     244 -> 245        0.65364
 This state for optimization and/or second-order correction.
 Total Energy, E(TD-HF/TD-DFT) =  -3043.35206658    
 Copying the excited state density for this state as the 1-particle RhoCI density.
 SavETr:  write IOETrn=   770 NScale= 10 NData=  16 NLR=1 NState=    1 LETran=      28.
 Hyperfine terms turned off by default for NAtoms > 100.

 **********************************************************************

            Population analysis using the SCF density.

 **********************************************************************

 Orbital symmetries:
       Occupied  (A) (A) (A) (A) (A) (A) (A) (A) (A) (A) (A) (A)
                 (A) (A) (A) (A) (A) (A) (A) (A) (A) (A) (A) (A)
                 (A) (A) (A) (A) (A) (A) (A) (A) (A) (A) (A) (A)
                 (A) (A) (A) (A) (A) (A) (A) (A) (A) (A) (A) (A)
                 (A) (A) (A) (A) (A) (A) (A) (A) (A) (A) (A) (A)
                 (A) (A) (A) (A) (A) (A) (A) (A) (A) (A) (A) (A)
                 (A) (A) (A) (A) (A) (A) (A) (A) (A) (A) (A) (A)
                 (A) (A) (A) (A) (A) (A) (A) (A) (A) (A) (A) (A)
                 (A) (A) (A) (A) (A) (A) (A) (A) (A) (A) (A) (A)
                 (A) (A) (A) (A) (A) (A) (A) (A) (A) (A) (A) (A)
                 (A) (A) (A) (A) (A) (A) (A) (A) (A) (A) (A) (A)
                 (A) (A) (A) (A) (A) (A) (A) (A) (A) (A) (A) (A)
                 (A) (A) (A) (A) (A) (A) (A) (A) (A) (A) (A) (A)
                 (A) (A) (A) (A) (A) (A) (A) (A) (A) (A) (A) (A)
                 (A) (A) (A) (A) (A) (A) (A) (A) (A) (A) (A) (A)
                 (A) (A) (A) (A) (A) (A) (A) (A) (A) (A) (A) (A)
                 (A) (A) (A) (A) (A) (A) (A) (A) (A) (A) (A) (A)
                 (A) (A) (A) (A) (A) (A) (A) (A) (A) (A) (A) (A)
                 (A) (A) (A) (A) (A) (A) (A) (A) (A) (A) (A) (A)
                 (A) (A) (A) (A) (A) (A) (A) (A) (A) (A) (A) (A)
                 (A) (A) (A) (A)
       Virtual   (A) (A) (A) (A) (A) (A) (A) (A) (A) (A) (A) (A)
                 (A) (A) (A) (A) (A) (A) (A) (A) (A) (A) (A) (A)
                 (A) (A) (A) (A) (A) (A) (A) (A) (A) (A) (A) (A)
                 (A) (A) (A) (A) (A) (A) (A) (A) (A) (A) (A) (A)
                 (A) (A) (A) (A) (A) (A) (A) (A) (A) (A) (A) (A)
                 (A) (A) (A) (A) (A) (A) (A) (A) (A) (A) (A) (A)
                 (A) (A) (A) (A) (A) (A) (A) (A) (A) (A) (A) (A)
                 (A) (A) (A) (A) (A) (A) (A) (A) (A) (A) (A) (A)
                 (A) (A) (A) (A) (A) (A) (A) (A) (A) (A) (A) (A)
                 (A) (A) (A) (A) (A) (A) (A) (A) (A) (A) (A) (A)
                 (A) (A) (A) (A) (A) (A) (A) (A) (A) (A) (A) (A)
                 (A) (A) (A) (A) (A) (A) (A) (A) (A) (A) (A) (A)
                 (A) (A) (A) (A) (A) (A) (A) (A) (A) (A) (A) (A)
                 (A) (A) (A) (A) (A) (A) (A) (A) (A) (A) (A) (A)
                 (A) (A) (A) (A) (A) (A) (A) (A) (A) (A) (A) (A)
                 (A) (A) (A) (A) (A) (A) (A) (A) (A) (A) (A) (A)
                 (A) (A) (A) (A) (A) (A) (A) (A) (A) (A) (A) (A)
                 (A) (A) (A) (A) (A) (A) (A) (A) (A) (A) (A) (A)
                 (A) (A) (A) (A) (A) (A) (A) (A) (A) (A) (A) (A)
                 (A) (A) (A) (A) (A) (A) (A) (A) (A) (A) (A) (A)
                 (A) (A) (A) (A) (A) (A) (A) (A) (A) (A) (A) (A)
                 (A) (A) (A) (A) (A) (A) (A) (A) (A) (A) (A) (A)
                 (A) (A) (A) (A) (A) (A) (A) (A) (A) (A) (A) (A)
                 (A) (A) (A) (A) (A) (A) (A) (A) (A) (A) (A) (A)
                 (A) (A) (A) (A) (A) (A) (A) (A) (A) (A) (A) (A)
                 (A) (A) (A) (A) (A) (A) (A) (A) (A) (A) (A) (A)
                 (A) (A) (A) (A) (A) (A) (A) (A) (A) (A) (A) (A)
                 (A) (A) (A) (A) (A) (A) (A) (A) (A) (A) (A) (A)
                 (A) (A) (A) (A) (A) (A) (A) (A) (A) (A) (A) (A)
                 (A) (A) (A) (A) (A) (A) (A) (A) (A) (A) (A) (A)
                 (A) (A) (A) (A) (A) (A) (A) (A) (A) (A) (A) (A)
                 (A) (A) (A) (A) (A) (A) (A) (A) (A) (A) (A) (A)
                 (A) (A) (A) (A) (A) (A) (A) (A) (A) (A) (A) (A)
                 (A) (A) (A) (A) (A) (A) (A) (A) (A) (A) (A) (A)
                 (A) (A) (A) (A) (A) (A) (A) (A) (A) (A) (A) (A)
                 (A) (A) (A) (A) (A) (A) (A) (A) (A) (A) (A) (A)
                 (A) (A) (A) (A) (A) (A) (A) (A) (A) (A) (A) (A)
                 (A) (A) (A) (A) (A) (A) (A) (A) (A) (A) (A) (A)
                 (A) (A) (A) (A) (A) (A) (A) (A) (A) (A) (A) (A)
                 (A) (A) (A) (A) (A) (A) (A) (A) (A) (A) (A) (A)
                 (A) (A) (A) (A) (A) (A) (A) (A) (A) (A) (A) (A)
                 (A) (A) (A) (A) (A) (A) (A) (A) (A) (A) (A) (A)
                 (A) (A) (A) (A) (A) (A) (A) (A) (A) (A) (A) (A)
                 (A) (A) (A) (A) (A) (A) (A) (A) (A) (A) (A) (A)
                 (A) (A) (A) (A) (A) (A) (A) (A) (A) (A) (A) (A)
                 (A) (A) (A) (A) (A) (A) (A) (A) (A) (A) (A) (A)
                 (A) (A) (A) (A) (A) (A) (A) (A) (A) (A) (A) (A)
                 (A) (A) (A) (A) (A) (A) (A) (A) (A) (A) (A) (A)
                 (A) (A) (A) (A) (A) (A) (A) (A) (A) (A) (A) (A)
                 (A) (A) (A) (A) (A) (A) (A) (A) (A) (A) (A) (A)
                 (A) (A) (A) (A) (A) (A) (A) (A) (A) (A) (A) (A)
                 (A) (A) (A) (A) (A) (A) (A) (A) (A) (A) (A) (A)
                 (A) (A) (A) (A) (A) (A) (A) (A) (A) (A) (A) (A)
                 (A) (A) (A) (A) (A) (A) (A) (A) (A) (A) (A) (A)
                 (A) (A) (A) (A) (A) (A) (A) (A) (A) (A) (A) (A)
                 (A) (A) (A) (A) (A) (A) (A) (A) (A) (A) (A) (A)
                 (A) (A) (A) (A) (A) (A) (A) (A) (A) (A) (A) (A)
                 (A) (A) (A) (A) (A) (A) (A) (A) (A) (A) (A) (A)
                 (A) (A) (A) (A) (A) (A) (A) (A) (A) (A) (A) (A)
                 (A) (A) (A) (A) (A) (A) (A) (A) (A) (A) (A) (A)
                 (A) (A) (A) (A) (A) (A) (A) (A) (A) (A) (A) (A)
                 (A) (A) (A) (A) (A) (A) (A) (A) (A) (A) (A) (A)
                 (A) (A) (A) (A) (A) (A) (A) (A) (A) (A) (A) (A)
                 (A) (A) (A) (A) (A) (A) (A) (A) (A) (A) (A) (A)
                 (A) (A) (A) (A) (A) (A) (A) (A) (A) (A) (A) (A)
                 (A) (A) (A) (A) (A) (A) (A) (A) (A) (A) (A) (A)
                 (A) (A) (A) (A) (A) (A) (A) (A) (A) (A) (A) (A)
                 (A) (A) (A) (A) (A) (A) (A) (A) (A) (A) (A) (A)
                 (A) (A) (A) (A) (A) (A) (A) (A) (A) (A) (A) (A)
                 (A) (A) (A) (A) (A) (A) (A) (A) (A) (A) (A) (A)
                 (A) (A) (A) (A) (A) (A) (A) (A) (A) (A) (A) (A)
                 (A) (A) (A) (A) (A) (A) (A) (A) (A) (A) (A) (A)
                 (A) (A) (A) (A) (A) (A) (A) (A) (A) (A) (A) (A)
                 (A) (A) (A) (A) (A) (A) (A) (A) (A) (A) (A) (A)
                 (A) (A) (A) (A) (A) (A) (A) (A) (A) (A) (A) (A)
                 (A) (A) (A) (A) (A) (A) (A) (A) (A) (A) (A) (A)
                 (A) (A) (A) (A) (A) (A) (A) (A) (A) (A) (A) (A)
                 (A) (A) (A) (A) (A) (A) (A) (A) (A) (A) (A) (A)
                 (A) (A) (A) (A) (A) (A) (A) (A) (A) (A) (A) (A)
                 (A) (A) (A) (A) (A) (A) (A) (A) (A) (A) (A) (A)
                 (A) (A) (A) (A) (A) (A) (A) (A) (A) (A) (A) (A)
                 (A) (A) (A) (A) (A) (A) (A) (A) (A) (A) (A) (A)
                 (A) (A) (A) (A) (A) (A) (A) (A) (A) (A) (A) (A)
                 (A) (A) (A) (A) (A) (A) (A) (A) (A) (A) (A) (A)
                 (A) (A) (A) (A) (A) (A) (A) (A) (A) (A) (A) (A)
                 (A) (A) (A) (A) (A) (A) (A) (A) (A) (A) (A) (A)
                 (A) (A) (A) (A) (A) (A) (A) (A) (A) (A) (A) (A)
                 (A) (A) (A) (A) (A) (A) (A) (A) (A) (A) (A) (A)
                 (A) (A) (A) (A) (A) (A) (A) (A) (A) (A) (A) (A)
                 (A) (A) (A) (A) (A) (A) (A) (A) (A) (A) (A) (A)
                 (A) (A) (A) (A) (A) (A) (A) (A) (A) (A)
 The electronic state is 1-A.
 Alpha  occ. eigenvalues --  -46.81590 -19.23836 -19.23833 -19.18014 -19.17529
 Alpha  occ. eigenvalues --  -19.17452 -19.16792 -19.16043 -14.40187 -14.37297
 Alpha  occ. eigenvalues --  -14.37062 -14.36805 -10.36935 -10.35445 -10.31907
 Alpha  occ. eigenvalues --  -10.31173 -10.30090 -10.29072 -10.27792 -10.27774
 Alpha  occ. eigenvalues --  -10.27661 -10.27556 -10.27287 -10.27018 -10.26229
 Alpha  occ. eigenvalues --  -10.26187 -10.25894 -10.25750 -10.25516 -10.25507
 Alpha  occ. eigenvalues --  -10.25282 -10.25011 -10.24846 -10.24698 -10.24528
 Alpha  occ. eigenvalues --  -10.24398 -10.24316 -10.24147 -10.23759 -10.23755
 Alpha  occ. eigenvalues --  -10.23543 -10.23272 -10.23184 -10.23083 -10.22925
 Alpha  occ. eigenvalues --  -10.22802 -10.22792 -10.22723 -10.22685 -10.22448
 Alpha  occ. eigenvalues --  -10.22386 -10.21982 -10.21969 -10.21895 -10.21892
 Alpha  occ. eigenvalues --  -10.21889 -10.21685 -10.21552 -10.21268 -10.21267
 Alpha  occ. eigenvalues --  -10.21219 -10.21158 -10.20112 -10.19774 -10.19682
 Alpha  occ. eigenvalues --  -10.19406  -3.10279  -1.85205  -1.84770  -1.84678
 Alpha  occ. eigenvalues --   -1.15294  -1.12299  -1.06272  -1.04241  -1.03826
 Alpha  occ. eigenvalues --   -1.03661  -1.02474  -1.02354  -1.01040  -0.98993
 Alpha  occ. eigenvalues --   -0.97934  -0.88699  -0.87075  -0.86416  -0.85784
 Alpha  occ. eigenvalues --   -0.85220  -0.84682  -0.84515  -0.83817  -0.83079
 Alpha  occ. eigenvalues --   -0.82881  -0.82242  -0.81817  -0.80837  -0.79889
 Alpha  occ. eigenvalues --   -0.79150  -0.78800  -0.78085  -0.77812  -0.76402
 Alpha  occ. eigenvalues --   -0.75104  -0.74354  -0.74015  -0.73648  -0.72062
 Alpha  occ. eigenvalues --   -0.71065  -0.70719  -0.70428  -0.70146  -0.69634
 Alpha  occ. eigenvalues --   -0.69072  -0.68901  -0.67615  -0.66974  -0.66501
 Alpha  occ. eigenvalues --   -0.66148  -0.65322  -0.64492  -0.62996  -0.62468
 Alpha  occ. eigenvalues --   -0.62246  -0.61415  -0.60805  -0.60597  -0.59823
 Alpha  occ. eigenvalues --   -0.59458  -0.59057  -0.58502  -0.58065  -0.57739
 Alpha  occ. eigenvalues --   -0.56971  -0.56306  -0.56100  -0.55351  -0.54701
 Alpha  occ. eigenvalues --   -0.54319  -0.53945  -0.53257  -0.52929  -0.52750
 Alpha  occ. eigenvalues --   -0.52055  -0.51827  -0.51674  -0.51442  -0.51062
 Alpha  occ. eigenvalues --   -0.50453  -0.50234  -0.49786  -0.49404  -0.49164
 Alpha  occ. eigenvalues --   -0.48981  -0.48678  -0.48444  -0.48283  -0.48164
 Alpha  occ. eigenvalues --   -0.47511  -0.46883  -0.46691  -0.46584  -0.46431
 Alpha  occ. eigenvalues --   -0.46314  -0.46161  -0.45861  -0.45819  -0.45786
 Alpha  occ. eigenvalues --   -0.45554  -0.45205  -0.45071  -0.45005  -0.44777
 Alpha  occ. eigenvalues --   -0.44662  -0.44145  -0.43854  -0.43738  -0.43577
 Alpha  occ. eigenvalues --   -0.43295  -0.43078  -0.42968  -0.42621  -0.42545
 Alpha  occ. eigenvalues --   -0.42491  -0.42083  -0.41999  -0.41924  -0.41579
 Alpha  occ. eigenvalues --   -0.41486  -0.41181  -0.41011  -0.40953  -0.40718
 Alpha  occ. eigenvalues --   -0.40448  -0.40176  -0.40119  -0.40021  -0.39990
 Alpha  occ. eigenvalues --   -0.39940  -0.39833  -0.39741  -0.39330  -0.39224
 Alpha  occ. eigenvalues --   -0.39112  -0.38906  -0.38729  -0.38634  -0.38597
 Alpha  occ. eigenvalues --   -0.38446  -0.38188  -0.37772  -0.37721  -0.36963
 Alpha  occ. eigenvalues --   -0.36702  -0.36329  -0.36218  -0.36108  -0.35808
 Alpha  occ. eigenvalues --   -0.35445  -0.35132  -0.35051  -0.34655  -0.34615
 Alpha  occ. eigenvalues --   -0.34526  -0.34388  -0.34217  -0.34177  -0.33422
 Alpha  occ. eigenvalues --   -0.33001  -0.32791  -0.32192  -0.31830  -0.31677
 Alpha  occ. eigenvalues --   -0.31384  -0.31012  -0.30943  -0.30703  -0.29782
 Alpha  occ. eigenvalues --   -0.28355  -0.27962  -0.27825  -0.27646  -0.27397
 Alpha  occ. eigenvalues --   -0.27165  -0.27140  -0.23556  -0.22002
 Alpha virt. eigenvalues --   -0.09136  -0.07476  -0.02540  -0.01630   0.00127
 Alpha virt. eigenvalues --    0.01007   0.02758   0.03023   0.03941   0.04611
 Alpha virt. eigenvalues --    0.04792   0.05223   0.07916   0.08663   0.09368
 Alpha virt. eigenvalues --    0.09549   0.09732   0.10399   0.10595   0.10806
 Alpha virt. eigenvalues --    0.11078   0.11262   0.11510   0.11733   0.12057
 Alpha virt. eigenvalues --    0.12138   0.12266   0.12408   0.12697   0.12731
 Alpha virt. eigenvalues --    0.12957   0.13144   0.13326   0.13446   0.13665
 Alpha virt. eigenvalues --    0.13868   0.13996   0.14241   0.14524   0.14745
 Alpha virt. eigenvalues --    0.14793   0.14876   0.15578   0.15647   0.15823
 Alpha virt. eigenvalues --    0.16092   0.16256   0.16311   0.16448   0.16795
 Alpha virt. eigenvalues --    0.16916   0.17086   0.17206   0.17356   0.17398
 Alpha virt. eigenvalues --    0.17662   0.17718   0.18148   0.18195   0.18290
 Alpha virt. eigenvalues --    0.18535   0.18567   0.18683   0.18735   0.18840
 Alpha virt. eigenvalues --    0.19215   0.19244   0.19546   0.19642   0.19795
 Alpha virt. eigenvalues --    0.19903   0.20060   0.20277   0.20609   0.20782
 Alpha virt. eigenvalues --    0.21088   0.21167   0.21265   0.21421   0.21587
 Alpha virt. eigenvalues --    0.21843   0.22187   0.22300   0.22525   0.22576
 Alpha virt. eigenvalues --    0.22970   0.23132   0.23217   0.23315   0.23641
 Alpha virt. eigenvalues --    0.24026   0.24263   0.24360   0.24553   0.24872
 Alpha virt. eigenvalues --    0.25179   0.25315   0.25469   0.25628   0.26028
 Alpha virt. eigenvalues --    0.26117   0.26326   0.26548   0.26740   0.26807
 Alpha virt. eigenvalues --    0.27037   0.27401   0.27662   0.27746   0.27869
 Alpha virt. eigenvalues --    0.28077   0.28110   0.28519   0.28742   0.28885
 Alpha virt. eigenvalues --    0.28957   0.29466   0.29521   0.29718   0.30278
 Alpha virt. eigenvalues --    0.30392   0.30711   0.30992   0.31162   0.31246
 Alpha virt. eigenvalues --    0.31504   0.31922   0.32604   0.32777   0.33857
 Alpha virt. eigenvalues --    0.34259   0.34343   0.34497   0.35044   0.35638
 Alpha virt. eigenvalues --    0.35787   0.36950   0.37407   0.37555   0.37949
 Alpha virt. eigenvalues --    0.38281   0.38866   0.40135   0.40714   0.41053
 Alpha virt. eigenvalues --    0.41308   0.41500   0.42056   0.43130   0.43825
 Alpha virt. eigenvalues --    0.43995   0.45072   0.45179   0.46197   0.46375
 Alpha virt. eigenvalues --    0.47038   0.47801   0.48168   0.48863   0.49326
 Alpha virt. eigenvalues --    0.50474   0.50533   0.50867   0.51023   0.51158
 Alpha virt. eigenvalues --    0.51628   0.51942   0.52209   0.52257   0.52394
 Alpha virt. eigenvalues --    0.52809   0.53373   0.53432   0.53509   0.53779
 Alpha virt. eigenvalues --    0.53933   0.54091   0.54378   0.54582   0.54738
 Alpha virt. eigenvalues --    0.54985   0.55031   0.55559   0.55680   0.55855
 Alpha virt. eigenvalues --    0.55935   0.56324   0.56497   0.56749   0.57010
 Alpha virt. eigenvalues --    0.57040   0.57331   0.57734   0.57812   0.57847
 Alpha virt. eigenvalues --    0.58566   0.58691   0.58775   0.58830   0.59351
 Alpha virt. eigenvalues --    0.59493   0.59769   0.60021   0.60424   0.60810
 Alpha virt. eigenvalues --    0.61046   0.61195   0.61602   0.61683   0.62135
 Alpha virt. eigenvalues --    0.62464   0.62686   0.62836   0.63066   0.63263
 Alpha virt. eigenvalues --    0.63435   0.63835   0.63884   0.64056   0.64582
 Alpha virt. eigenvalues --    0.65053   0.65175   0.65415   0.65814   0.66035
 Alpha virt. eigenvalues --    0.66385   0.66610   0.66869   0.67040   0.67357
 Alpha virt. eigenvalues --    0.67469   0.67803   0.67949   0.68128   0.68316
 Alpha virt. eigenvalues --    0.68593   0.68833   0.68959   0.69277   0.69483
 Alpha virt. eigenvalues --    0.69718   0.69969   0.70268   0.70514   0.70668
 Alpha virt. eigenvalues --    0.71229   0.71341   0.71783   0.72009   0.72134
 Alpha virt. eigenvalues --    0.72733   0.73101   0.73294   0.73394   0.73620
 Alpha virt. eigenvalues --    0.73828   0.74253   0.74285   0.74569   0.74765
 Alpha virt. eigenvalues --    0.74993   0.75155   0.75426   0.75738   0.76254
 Alpha virt. eigenvalues --    0.76625   0.76962   0.77137   0.77380   0.77617
 Alpha virt. eigenvalues --    0.78104   0.78210   0.78617   0.78698   0.78805
 Alpha virt. eigenvalues --    0.78899   0.79127   0.79456   0.79556   0.79789
 Alpha virt. eigenvalues --    0.80110   0.80143   0.80849   0.80996   0.81058
 Alpha virt. eigenvalues --    0.81628   0.81734   0.81830   0.82052   0.82237
 Alpha virt. eigenvalues --    0.82413   0.82463   0.82957   0.83247   0.83460
 Alpha virt. eigenvalues --    0.83785   0.83926   0.83966   0.84065   0.84368
 Alpha virt. eigenvalues --    0.84614   0.85086   0.85109   0.85355   0.85622
 Alpha virt. eigenvalues --    0.86018   0.86168   0.86409   0.86744   0.86887
 Alpha virt. eigenvalues --    0.86974   0.86989   0.87301   0.87440   0.87689
 Alpha virt. eigenvalues --    0.87815   0.88094   0.88249   0.88359   0.88387
 Alpha virt. eigenvalues --    0.88650   0.89226   0.89362   0.89415   0.89563
 Alpha virt. eigenvalues --    0.90017   0.90175   0.90511   0.90920   0.91033
 Alpha virt. eigenvalues --    0.91197   0.91411   0.92197   0.92243   0.92363
 Alpha virt. eigenvalues --    0.92494   0.92687   0.92881   0.93066   0.93496
 Alpha virt. eigenvalues --    0.93605   0.94155   0.94429   0.94568   0.94829
 Alpha virt. eigenvalues --    0.94932   0.95278   0.95350   0.95442   0.95596
 Alpha virt. eigenvalues --    0.95924   0.95977   0.96203   0.96355   0.96675
 Alpha virt. eigenvalues --    0.97063   0.97409   0.97781   0.97844   0.98026
 Alpha virt. eigenvalues --    0.98225   0.98470   0.98509   0.98652   0.98889
 Alpha virt. eigenvalues --    0.98954   0.99599   0.99825   1.00156   1.00179
 Alpha virt. eigenvalues --    1.00328   1.00681   1.00892   1.01128   1.01387
 Alpha virt. eigenvalues --    1.01418   1.01614   1.02089   1.02317   1.02468
 Alpha virt. eigenvalues --    1.02649   1.02955   1.03058   1.03572   1.03681
 Alpha virt. eigenvalues --    1.03887   1.04140   1.04286   1.05248   1.05382
 Alpha virt. eigenvalues --    1.05592   1.06026   1.06245   1.06523   1.06637
 Alpha virt. eigenvalues --    1.07387   1.07827   1.08357   1.08619   1.09163
 Alpha virt. eigenvalues --    1.09414   1.09576   1.10463   1.10580   1.11054
 Alpha virt. eigenvalues --    1.11185   1.11672   1.12111   1.12401   1.12980
 Alpha virt. eigenvalues --    1.13593   1.14677   1.15034   1.15269   1.15987
 Alpha virt. eigenvalues --    1.16139   1.16936   1.17305   1.17678   1.18206
 Alpha virt. eigenvalues --    1.19027   1.19806   1.20421   1.20681   1.20862
 Alpha virt. eigenvalues --    1.21329   1.21775   1.22011   1.22141   1.22578
 Alpha virt. eigenvalues --    1.23453   1.24171   1.24582   1.24991   1.25941
 Alpha virt. eigenvalues --    1.26182   1.26721   1.27441   1.27777   1.28489
 Alpha virt. eigenvalues --    1.28698   1.29141   1.29944   1.30232   1.30851
 Alpha virt. eigenvalues --    1.30912   1.31374   1.31697   1.32226   1.32756
 Alpha virt. eigenvalues --    1.33118   1.33847   1.34935   1.35138   1.35583
 Alpha virt. eigenvalues --    1.35817   1.36168   1.36743   1.37242   1.37500
 Alpha virt. eigenvalues --    1.37854   1.38068   1.38704   1.39365   1.40159
 Alpha virt. eigenvalues --    1.40432   1.40543   1.40844   1.41249   1.41518
 Alpha virt. eigenvalues --    1.42013   1.42616   1.42978   1.43208   1.43690
 Alpha virt. eigenvalues --    1.44577   1.45725   1.46692   1.47016   1.47357
 Alpha virt. eigenvalues --    1.48215   1.48358   1.48487   1.48722   1.49279
 Alpha virt. eigenvalues --    1.49413   1.49690   1.50241   1.50451   1.50968
 Alpha virt. eigenvalues --    1.51341   1.52349   1.52390   1.52947   1.53812
 Alpha virt. eigenvalues --    1.54099   1.54585   1.54992   1.55301   1.55871
 Alpha virt. eigenvalues --    1.56361   1.56619   1.56815   1.57183   1.57388
 Alpha virt. eigenvalues --    1.57489   1.58288   1.58475   1.59237   1.59501
 Alpha virt. eigenvalues --    1.59959   1.59967   1.60323   1.60810   1.61209
 Alpha virt. eigenvalues --    1.61556   1.62178   1.62473   1.62560   1.63331
 Alpha virt. eigenvalues --    1.63804   1.64329   1.64498   1.65217   1.65786
 Alpha virt. eigenvalues --    1.66028   1.66753   1.66869   1.67289   1.67355
 Alpha virt. eigenvalues --    1.68101   1.68610   1.68739   1.69097   1.69884
 Alpha virt. eigenvalues --    1.70529   1.70916   1.71077   1.71224   1.72332
 Alpha virt. eigenvalues --    1.72615   1.72666   1.72919   1.73713   1.73931
 Alpha virt. eigenvalues --    1.74148   1.74708   1.74903   1.75214   1.76007
 Alpha virt. eigenvalues --    1.76107   1.76604   1.76869   1.77104   1.77198
 Alpha virt. eigenvalues --    1.78501   1.78636   1.79266   1.79381   1.79509
 Alpha virt. eigenvalues --    1.79770   1.79928   1.80206   1.80623   1.80707
 Alpha virt. eigenvalues --    1.81186   1.81564   1.81675   1.81867   1.82512
 Alpha virt. eigenvalues --    1.82706   1.83050   1.83497   1.83754   1.83805
 Alpha virt. eigenvalues --    1.84136   1.84599   1.84740   1.84950   1.85101
 Alpha virt. eigenvalues --    1.85314   1.85535   1.85718   1.86002   1.86141
 Alpha virt. eigenvalues --    1.86285   1.86360   1.86639   1.86888   1.87153
 Alpha virt. eigenvalues --    1.87434   1.87630   1.87811   1.88204   1.88645
 Alpha virt. eigenvalues --    1.88991   1.89185   1.89532   1.89764   1.89824
 Alpha virt. eigenvalues --    1.90212   1.90337   1.90815   1.91325   1.91421
 Alpha virt. eigenvalues --    1.91586   1.91695   1.91929   1.92002   1.92443
 Alpha virt. eigenvalues --    1.92848   1.93028   1.93171   1.93370   1.93517
 Alpha virt. eigenvalues --    1.93782   1.94090   1.94605   1.95090   1.95261
 Alpha virt. eigenvalues --    1.95547   1.95685   1.95969   1.96071   1.96130
 Alpha virt. eigenvalues --    1.96732   1.97002   1.97221   1.97868   1.98050
 Alpha virt. eigenvalues --    1.98368   1.98844   1.99216   1.99322   1.99458
 Alpha virt. eigenvalues --    1.99655   2.00142   2.00420   2.00617   2.00976
 Alpha virt. eigenvalues --    2.01200   2.01654   2.01956   2.02164   2.02584
 Alpha virt. eigenvalues --    2.02769   2.02941   2.03556   2.03799   2.04116
 Alpha virt. eigenvalues --    2.04338   2.04710   2.04875   2.05101   2.05337
 Alpha virt. eigenvalues --    2.05751   2.06089   2.06448   2.06781   2.06907
 Alpha virt. eigenvalues --    2.07136   2.07438   2.07896   2.08129   2.08512
 Alpha virt. eigenvalues --    2.09062   2.09197   2.09852   2.10014   2.10543
 Alpha virt. eigenvalues --    2.10577   2.10874   2.11083   2.11548   2.11718
 Alpha virt. eigenvalues --    2.12248   2.12352   2.12655   2.12724   2.13046
 Alpha virt. eigenvalues --    2.13481   2.13622   2.14351   2.14777   2.15043
 Alpha virt. eigenvalues --    2.15959   2.16119   2.16207   2.16645   2.16998
 Alpha virt. eigenvalues --    2.17133   2.17556   2.17650   2.18001   2.18327
 Alpha virt. eigenvalues --    2.19553   2.19651   2.20045   2.20373   2.20944
 Alpha virt. eigenvalues --    2.21044   2.21540   2.21738   2.22314   2.23095
 Alpha virt. eigenvalues --    2.23394   2.23718   2.23910   2.24082   2.24199
 Alpha virt. eigenvalues --    2.25141   2.25285   2.25444   2.25549   2.25983
 Alpha virt. eigenvalues --    2.26149   2.26532   2.26557   2.27114   2.27197
 Alpha virt. eigenvalues --    2.27561   2.27699   2.28072   2.28852   2.29390
 Alpha virt. eigenvalues --    2.29524   2.29751   2.30188   2.30426   2.30623
 Alpha virt. eigenvalues --    2.31178   2.31247   2.32034   2.32209   2.32627
 Alpha virt. eigenvalues --    2.32959   2.33064   2.33726   2.33896   2.34064
 Alpha virt. eigenvalues --    2.34160   2.34289   2.34635   2.34919   2.35046
 Alpha virt. eigenvalues --    2.35831   2.36012   2.36454   2.36587   2.36942
 Alpha virt. eigenvalues --    2.37075   2.37514   2.37567   2.38176   2.38493
 Alpha virt. eigenvalues --    2.38815   2.38914   2.39098   2.39512   2.39860
 Alpha virt. eigenvalues --    2.39936   2.40210   2.40381   2.41141   2.41570
 Alpha virt. eigenvalues --    2.41734   2.41921   2.42417   2.42841   2.43597
 Alpha virt. eigenvalues --    2.43765   2.44263   2.44512   2.44701   2.44930
 Alpha virt. eigenvalues --    2.45219   2.45336   2.45718   2.46101   2.46496
 Alpha virt. eigenvalues --    2.46933   2.47792   2.48182   2.48440   2.48796
 Alpha virt. eigenvalues --    2.49320   2.49544   2.49853   2.49990   2.50080
 Alpha virt. eigenvalues --    2.50724   2.51151   2.51604   2.51958   2.52462
 Alpha virt. eigenvalues --    2.52680   2.52941   2.53257   2.53788   2.53912
 Alpha virt. eigenvalues --    2.54139   2.54559   2.54874   2.55574   2.55881
 Alpha virt. eigenvalues --    2.56138   2.56954   2.57321   2.57709   2.58241
 Alpha virt. eigenvalues --    2.58423   2.58587   2.58949   2.59192   2.59249
 Alpha virt. eigenvalues --    2.59590   2.60157   2.60820   2.60982   2.61493
 Alpha virt. eigenvalues --    2.61555   2.61963   2.62592   2.63126   2.63291
 Alpha virt. eigenvalues --    2.63573   2.63656   2.64296   2.64602   2.64706
 Alpha virt. eigenvalues --    2.65044   2.65745   2.66141   2.66204   2.66658
 Alpha virt. eigenvalues --    2.67069   2.67127   2.67604   2.67701   2.67890
 Alpha virt. eigenvalues --    2.67996   2.68140   2.68747   2.69327   2.69461
 Alpha virt. eigenvalues --    2.69870   2.70474   2.71027   2.71233   2.71326
 Alpha virt. eigenvalues --    2.71879   2.72086   2.72297   2.72757   2.73068
 Alpha virt. eigenvalues --    2.73330   2.73907   2.74065   2.74696   2.75001
 Alpha virt. eigenvalues --    2.75494   2.75733   2.75792   2.75870   2.76776
 Alpha virt. eigenvalues --    2.77007   2.77058   2.77168   2.77924   2.78229
 Alpha virt. eigenvalues --    2.78717   2.78840   2.79666   2.80086   2.80312
 Alpha virt. eigenvalues --    2.80521   2.80856   2.81102   2.81250   2.81604
 Alpha virt. eigenvalues --    2.81864   2.82339   2.82704   2.83049   2.83247
 Alpha virt. eigenvalues --    2.84225   2.84493   2.84646   2.84761   2.85218
 Alpha virt. eigenvalues --    2.86037   2.86205   2.86279   2.86765   2.87577
 Alpha virt. eigenvalues --    2.87857   2.88014   2.88435   2.88999   2.89331
 Alpha virt. eigenvalues --    2.89598   2.89823   2.90054   2.90181   2.90790
 Alpha virt. eigenvalues --    2.90990   2.91344   2.91563   2.92265   2.92573
 Alpha virt. eigenvalues --    2.92694   2.93462   2.93780   2.94031   2.94399
 Alpha virt. eigenvalues --    2.94980   2.95318   2.95527   2.96375   2.97036
 Alpha virt. eigenvalues --    2.97487   2.97568   2.98238   2.98314   2.98354
 Alpha virt. eigenvalues --    2.98870   2.99523   3.00669   3.00959   3.01402
 Alpha virt. eigenvalues --    3.01672   3.02160   3.02913   3.03524   3.03730
 Alpha virt. eigenvalues --    3.04060   3.04332   3.04836   3.06382   3.06669
 Alpha virt. eigenvalues --    3.08135   3.08413   3.08773   3.09110   3.10321
 Alpha virt. eigenvalues --    3.11213   3.11656   3.11715   3.12745   3.15084
 Alpha virt. eigenvalues --    3.15959   3.16601   3.17080   3.17838   3.18421
 Alpha virt. eigenvalues --    3.18498   3.19234   3.19282   3.20310   3.21492
 Alpha virt. eigenvalues --    3.22077   3.23017   3.24070   3.26266   3.26407
 Alpha virt. eigenvalues --    3.26955   3.26981   3.27466   3.27843   3.28955
 Alpha virt. eigenvalues --    3.29498   3.29866   3.30736   3.31011   3.31662
 Alpha virt. eigenvalues --    3.31940   3.32503   3.33321   3.34159   3.34744
 Alpha virt. eigenvalues --    3.36723   3.36840   3.37088   3.37586   3.38263
 Alpha virt. eigenvalues --    3.39346   3.39713   3.39725   3.41299   3.42295
 Alpha virt. eigenvalues --    3.44571   3.46201   3.46778   3.48161   3.48163
 Alpha virt. eigenvalues --    3.48546   3.49070   3.49383   3.51813   3.52425
 Alpha virt. eigenvalues --    3.52833   3.53333   3.53676   3.55259   3.55931
 Alpha virt. eigenvalues --    3.56487   3.57581   3.57643   3.57775   3.57945
 Alpha virt. eigenvalues --    3.58114   3.59582   3.59736   3.61225   3.61559
 Alpha virt. eigenvalues --    3.63749   3.64097   3.65851   3.67048   3.67105
 Alpha virt. eigenvalues --    3.71947   3.73904   3.79601   3.81103   3.95320
 Alpha virt. eigenvalues --    3.99312   4.00753   4.01829   4.02863   4.08409
 Alpha virt. eigenvalues --    4.12969   4.14677   4.15559   4.15888   4.18667
 Alpha virt. eigenvalues --    4.19265   4.19878   4.20525   4.22592   4.23221
 Alpha virt. eigenvalues --    4.25625   4.27278   4.29393   4.31640   4.32829
 Alpha virt. eigenvalues --    4.34721   4.35418   4.35889   4.36606   4.38125
 Alpha virt. eigenvalues --    4.39294   4.40060   4.41339   4.41441   4.42968
 Alpha virt. eigenvalues --    4.43444   4.44811   4.45459   4.46238   4.47888
 Alpha virt. eigenvalues --    4.48921   4.50005   4.50931   4.51505   4.52482
 Alpha virt. eigenvalues --    4.54612   4.55614   4.56408   4.56609   4.56696
 Alpha virt. eigenvalues --    4.57391   4.63642   4.63715   4.64583   4.65580
 Alpha virt. eigenvalues --    4.67589   4.68718   4.70506   4.71254   4.74232
 Alpha virt. eigenvalues --    4.74980   4.75620   4.79682   4.79933   4.80912
 Alpha virt. eigenvalues --    4.81825   4.82999   4.84409   4.87291   4.96631
          Condensed to atoms (all electrons):
 Mulliken charges:
               1
     1  Mg   0.841797
     2  C    0.113502
     3  C   -0.228071
     4  C   -0.155368
     5  C   -0.146788
     6  N   -0.616010
     7  C    0.282247
     8  C   -0.209124
     9  C   -0.134917
    10  C    0.365302
    11  C   -0.298239
    12  C   -0.134477
    13  C   -0.274484
    14  C    0.603722
    15  O   -0.483323
    16  O   -0.449542
    17  N   -0.775145
    18  C    0.352166
    19  C    0.070930
    20  C   -0.068831
    21  C    0.352251
    22  C   -0.380705
    23  C    0.249512
    24  O   -0.444924
    25  N   -0.687585
    26  C    0.293234
    27  C   -0.039101
    28  C    0.041986
    29  C    0.276674
    30  C    0.190818
    31  C   -0.247530
    32  C   -0.306586
    33  N   -0.708478
    34  C    0.307432
    35  C   -0.010377
    36  C    0.048590
    37  C    0.244705
    38  C   -0.397849
    39  C    0.355411
    40  O   -0.486246
    41  C   -0.343824
    42  C    0.623678
    43  O   -0.471513
    44  O   -0.421789
    45  C   -0.101244
    46  C    0.004389
    47  C   -0.083841
    48  C    0.105309
    49  C   -0.391810
    50  C   -0.254565
    51  C   -0.158939
    52  C   -0.169997
    53  C   -0.032948
    54  C   -0.301053
    55  C   -0.153764
    56  C   -0.177869
    57  C   -0.170687
    58  C   -0.059897
    59  C   -0.312806
    60  C   -0.179529
    61  C   -0.145919
    62  C   -0.166754
    63  C   -0.030598
    64  C   -0.303258
    65  C   -0.297983
    66  H    0.081626
    67  H    0.160510
    68  H    0.103561
    69  H    0.123944
    70  H    0.115068
    71  H    0.130281
    72  H    0.089848
    73  H    0.134337
    74  H    0.116362
    75  H    0.129479
    76  H    0.133217
    77  H    0.123210
    78  H    0.093638
    79  H    0.173044
    80  H    0.098781
    81  H    0.109078
    82  H    0.124905
    83  H    0.121734
    84  H    0.124184
    85  H    0.122333
    86  H    0.123465
    87  H    0.133829
    88  H    0.148957
    89  H    0.111285
    90  H    0.161475
    91  H    0.095478
    92  H    0.132504
    93  H    0.059638
    94  H    0.161166
    95  H    0.107160
    96  H    0.115127
    97  H    0.112678
    98  H    0.095344
    99  H    0.116184
   100  H    0.114722
   101  H    0.046065
   102  H    0.071044
   103  H    0.097279
   104  H    0.075353
   105  H    0.064304
   106  H    0.117607
   107  H    0.056847
   108  H    0.077272
   109  H    0.097951
   110  H    0.092306
   111  H    0.089600
   112  H    0.095646
   113  H    0.082045
   114  H    0.074583
   115  H    0.107354
   116  H    0.105930
   117  H    0.090974
   118  H    0.083658
   119  H    0.091465
   120  H    0.051271
   121  H    0.092001
   122  H    0.049168
   123  H    0.106746
   124  H    0.126869
   125  H    0.073910
   126  H    0.074606
   127  H    0.093868
   128  H    0.103659
   129  H    0.083297
   130  H    0.122428
   131  H    0.151890
   132  H    0.132865
   133  O   -0.452892
   134  H    0.065513
 Sum of Mulliken charges =  -0.00000
 Mulliken charges with hydrogens summed into heavy atoms:
               1
     1  Mg   0.841797
     2  C    0.113502
     3  C   -0.146445
     4  C    0.005142
     5  C   -0.043228
     6  N   -0.616010
     7  C    0.282247
     8  C   -0.085180
     9  C   -0.019849
    10  C    0.365302
    11  C    0.056227
    12  C    0.111364
    13  C   -0.018057
    14  C    0.603722
    15  O   -0.483323
    16  O   -0.449542
    17  N   -0.775145
    18  C    0.352166
    19  C    0.070930
    20  C   -0.068831
    21  C    0.352251
    22  C   -0.015242
    23  C    0.358590
    24  O   -0.444924
    25  N   -0.687585
    26  C    0.293234
    27  C   -0.039101
    28  C    0.041986
    29  C    0.276674
    30  C    0.256331
    31  C   -0.000890
    32  C    0.063396
    33  N   -0.708478
    34  C    0.307432
    35  C   -0.010377
    36  C    0.048590
    37  C    0.244705
    38  C   -0.003779
    39  C    0.355411
    40  O   -0.486246
    41  C   -0.182350
    42  C    0.623678
    43  O   -0.471513
    44  O   -0.421789
    45  C    0.305938
    46  C    0.232372
    47  C   -0.024203
    48  C    0.105309
    49  C   -0.008357
    50  C   -0.046543
    51  C    0.071968
    52  C   -0.052889
    53  C    0.064331
    54  C   -0.043789
    55  C   -0.019644
    56  C    0.012388
    57  C    0.014558
    58  C    0.022148
    59  C   -0.024939
    60  C   -0.004897
    61  C   -0.003183
    62  C   -0.025585
    63  C    0.076148
    64  C   -0.027874
    65  C   -0.017159
   133  O   -0.452892
 Electronic spatial extent (au):  <R**2>=         148010.0583
 Charge=              0.0000 electrons
 Dipole moment (field-independent basis, Debye):
    X=              2.2744    Y=             -5.4041    Z=             -0.2823  Tot=              5.8700
 Quadrupole moment (field-independent basis, Debye-Ang):
   XX=           -375.2721   YY=           -441.1354   ZZ=           -395.2306
   XY=              3.5590   XZ=             20.9396   YZ=            -40.3968
 Traceless Quadrupole moment (field-independent basis, Debye-Ang):
   XX=             28.6073   YY=            -37.2561   ZZ=              8.6488
   XY=              3.5590   XZ=             20.9396   YZ=            -40.3968
 Octapole moment (field-independent basis, Debye-Ang**2):
  XXX=           -235.3029  YYY=           -629.2020  ZZZ=             -7.4497  XYY=            205.5884
  XXY=            -34.0762  XXZ=           -277.3748  XZZ=            -74.2569  YZZ=            -49.5124
  YYZ=            -75.5229  XYZ=            221.4894
 Hexadecapole moment (field-independent basis, Debye-Ang**3):
 XXXX=        -159950.2305 YYYY=         -31742.7605 ZZZZ=          -9190.5367 XXXY=          -1957.3425
 XXXZ=           2323.6113 YYYX=           2398.6346 YYYZ=          -1559.7423 ZZZX=            296.6796
 ZZZY=           -408.8310 XXYY=         -34308.2736 XXZZ=         -28372.6256 YYZZ=          -7179.5922
 XXYZ=          -1301.4246 YYXZ=            356.3599 ZZXY=           -168.1349
 N-N= 9.089119521350D+03 E-N=-2.526112380253D+04  KE= 3.015170820634D+03

 Test job not archived.
 1\1\GINC-RYZEN-SSD3\SP\RCAM-B3LYP TD-FC\6-31G(d,p)\C54H68Mg1N4O7\PADAW
 AN\07-Oct-2019\0\\# td=(NStates=1) iop(3/107=0140000000,3/108=01400000
 00) iop(3/107=0140000000,3/108=0140000000) CAM-B3LYP/6-31G(d,p)\\TD\\0
 ,1\Mg,0,-5.5043119378,1.2812329976,0.2018187871\C,0,-4.9491753047,-2.2
 046989332,-0.3257494417\C,0,-3.3802368128,1.217702055,2.712776651\C,0,
 -6.1550843041,4.648328097,0.5910793167\C,0,-7.9652722943,1.1973905898,
 -2.4176094344\N,0,-4.2956638197,-0.2301712089,1.0411254513\C,0,-4.2906
 325908,-1.5881725189,0.7037827279\C,0,-3.2617793024,-2.3130546083,1.58
 5332897\C,0,-2.9459777688,-1.3070835993,2.7299595521\C,0,-3.5605634837
 ,-0.0932319509,2.1035549407\C,0,-3.5085038898,-1.8703804794,3.96015871
 53\C,0,-2.0057757708,-2.6608834976,0.6215974652\C,0,-1.0700986534,-3.5
 457921598,1.4077643644\C,0,0.2675418547,-3.8252063613,0.6053187266\O,0
 ,0.4100510694,-3.270244338,-0.5584020744\O,0,1.0845853042,-4.794099027
 2,1.1643010374\N,0,-4.9413249488,2.6444238193,1.4461648482\C,0,-3.9681
 489047,2.4499624179,2.4960402073\C,0,-3.7681263163,3.6715756598,3.1565
 362098\C,0,-4.5424948022,4.6880903373,2.4866479361\C,0,-5.2592020244,3
 .9629043856,1.3366697593\C,0,-2.8058559487,3.8941367895,4.320716261\C,
 0,-4.7072972603,6.0903564561,2.9460541102\O,0,-3.9750875568,6.61806969
 5,3.8539492948\N,0,-6.9005438543,2.5659964954,-0.6863302893\C,0,-6.941
 6768825,3.9204516624,-0.3263743261\C,0,-7.9188970761,4.6264793727,-1.2
 209962091\C,0,-8.4523146848,3.6107280027,-2.1193308775\C,0,-7.78952784
 33,2.4492709359,-1.7264885954\C,0,-8.3622092118,5.957495659,-1.1327627
 851\C,0,-9.5608004433,3.8182222204,-3.1683214649\C,0,-8.8742588796,4.0
 728154277,-4.5719936034\N,0,-6.3977281918,-0.175042522,-1.0313082228\C
 ,0,-7.3045699866,-0.0251985885,-2.0082650372\C,0,-7.502317739,-1.25867
 75714,-2.6620987325\C,0,-6.5704665955,-2.1904786197,-2.1341195777\C,0,
 -5.9543038458,-1.4335969248,-1.0762137518\C,0,-8.5202874865,-1.4594660
 726,-3.8030672029\C,0,-6.2003837055,-3.5724628302,-2.0134549006\O,0,-6
 .6571301085,-4.5982775262,-2.6010063657\C,0,-5.0849170538,-3.597327785
 4,-0.8222845483\C,0,-5.380665544,-4.7556610072,0.1585595278\O,0,-5.827
 5585275,-4.5612251306,1.2496213255\O,0,-5.0304727455,-5.9129124876,-0.
 3613392785\C,0,-5.3776253267,-7.0440362569,0.498681698\C,0,2.318412814
 5,-5.0416752877,0.5031542698\C,0,3.3837629113,-4.1026904299,0.92123002
 28\C,0,4.1753669269,-3.3482176919,0.1084044754\C,0,3.7836927082,-3.204
 4053818,-1.4454740519\C,0,5.258672293,-2.4670017478,0.6233561344\C,0,6
 .5973046018,-2.8345563808,-0.0309516278\C,0,7.6423495586,-1.8032496805
 ,0.5173674272\C,0,9.0556063819,-1.8824630799,-0.0828660691\C,0,9.57598
 39801,-3.2836990103,0.2220987522\C,0,10.0188024593,-0.9164218796,0.481
 0406196\C,0,11.39177648,-0.9654961565,-0.2235011163\C,0,12.2854462332,
 0.2351181393,0.1352803756\C,0,13.6329557514,0.363791249,-0.4901237756\
 C,0,14.6047087699,-0.850124415,-0.1792620771\C,0,14.3036663062,1.78400
 45721,-0.0903582906\C,0,15.4623104214,2.1687449027,-0.9689618912\C,0,1
 6.0418967741,3.4572904818,-0.6586964828\C,0,17.340319281,3.9826761092,
 -1.4019241276\C,0,17.0334459343,4.0601909108,-2.9137135956\C,0,17.7675
 161577,5.3276080261,-0.7409835573\H,0,-2.7544411669,1.1559098664,3.617
 8722556\H,0,-6.542352214,5.6839837788,0.6181508068\H,0,-8.7555859658,1
 .1325235553,-3.1330387827\H,0,-3.7216132261,-3.2532806435,1.9306111219
 \H,0,-1.9257596999,-1.1054282044,2.875548831\H,0,-2.9983896181,-2.6783
 910003,4.3573892829\H,0,-3.3456953622,-1.1422641308,4.8363856684\H,0,-
 4.5734298547,-1.8535944403,3.7946634168\H,0,-2.5074960633,-3.194909008
 2,-0.1779784216\H,0,-1.4680846409,-1.7148606024,0.4774758692\H,0,-1.02
 52379573,-3.1331546111,2.3528795067\H,0,-1.4481295346,-4.5431214433,1.
 8239741954\H,0,-1.716131727,3.4051400384,3.9357894886\H,0,-2.812982288
 3,5.0547026763,4.5188781455\H,0,-2.9892119162,3.3704580433,5.455120518
 1\H,0,-5.5175648204,6.620576252,2.404365758\H,0,-10.1146105946,2.99290
 99481,-3.2392171734\H,0,-10.1598967876,4.6062944735,-2.8369439851\H,0,
 -9.8485446543,4.4072191359,-5.0025554578\H,0,-8.2495344628,4.969986744
 1,-4.4124311981\H,0,-8.2478846375,3.1888382426,-4.6552354483\H,0,-8.23
 46910587,-0.906391182,-4.6338443827\H,0,-8.5183828213,-2.4372171268,-4
 .0934919862\H,0,-9.6837184513,-1.3395807815,-3.8233792446\H,0,-4.08965
 6323,-3.8394687735,-1.2496782547\H,0,2.5292940624,-6.1034182848,1.0394
 799049\H,0,2.3220229457,-5.0664436205,-0.5224456942\H,0,3.646106733,-4
 .1765369355,1.8110861162\H,0,2.6875537421,-2.9660822293,-1.4239849395\
 H,0,4.2456291762,-2.2853020895,-1.8344059111\H,0,4.1705592299,-4.11454
 51837,-2.0317020961\H,0,4.9931793588,-1.4074071647,0.7259644799\H,0,5.
 4773062579,-2.5704586783,1.6882537057\H,0,6.8761751442,-3.8098241745,0
 .2092888129\H,0,6.4434345039,-2.5764852575,-0.9571363091\H,0,7.1214710
 784,-0.6724905742,0.2864158871\H,0,7.7309752004,-1.7762942125,1.689463
 3316\H,0,8.827036813,-1.8897772529,-1.1355368918\H,0,8.8932338421,-4.1
 969884702,-0.3002938218\H,0,10.6773170725,-3.4843226344,-0.3304031538\
 H,0,9.9512641878,-3.4949705886,1.2072911718\H,0,9.6276419148,0.2579815
 244,0.3046158254\H,0,10.0393740349,-0.8922957635,1.6869782378\H,0,11.9
 746926106,-1.8764576777,0.0190275296\H,0,11.1392300097,-1.1301559205,-
 1.2952908627\H,0,11.7867797115,1.1660210313,0.0266931141\H,0,12.401835
 0068,0.1669878902,1.1868169619\H,0,13.6226890696,0.3741818505,-1.60101
 23399\H,0,14.9161409524,-0.7151597287,0.9752832083\H,0,14.3120067717,-
 1.8191109274,-0.3358299045\H,0,15.4442054089,-0.8414073389,-0.78199509
 2\H,0,13.4658047747,2.4840630254,-0.0621880065\H,0,14.5927559759,1.808
 9411833,0.9989371076\H,0,16.200661722,1.3062892416,-0.9902355143\H,0,1
 5.1235679402,2.0730612189,-2.1772591056\H,0,15.2526766723,4.2228076588
 ,-0.5773697351\H,0,16.2504078109,3.3706637078,0.558955796\H,0,18.00327
 40088,3.2820396952,-1.1902581054\H,0,16.35699642,4.6817547044,-3.22661
 50213\H,0,17.9450704305,4.1853780511,-3.7012147266\H,0,16.6104212423,3
 .0104821182,-3.3936473993\H,0,17.9336094081,5.1912203395,0.4213537996\
 H,0,18.7192894512,5.6116253147,-1.2710040148\H,0,16.8636779187,6.16315
 58187,-0.7414282041\H,0,-5.1404193433,-8.0398034134,-0.1002335611\H,0,
 -6.3489193222,-7.1534624328,0.7325567632\H,0,-4.9435825269,-6.84629620
 52,1.4725317098\O,0,-7.8716547571,6.8225487557,-0.3602338074\H,0,-9.05
 67239695,6.4994655915,-1.9074764304\\Version=ES64L-G16RevA.03\State=1-
 A\HF=-3043.425063\RMSD=3.687e-09\PG=C01 [X(C54H68Mg1N4O7)]\\@


 LEARN FROM YESTERDAY,
 LIVE FOR TODAY,
 LOOK TO TOMORROW,
 REST THIS AFTERNOON.

           -- SNOOPY
 Job cpu time:       1 days  1 hours  3 minutes 48.5 seconds.
 Elapsed time:       0 days  6 hours 16 minutes 40.4 seconds.
 File lengths (MBytes):  RWF=   6825 Int=      0 D2E=      0 Chk=    180 Scr=      1
 Normal termination of Gaussian 16 at Mon Oct  7 13:07:20 2019.
