 Entering Gaussian System, Link 0=g16
 Input=Geometria-31-.com
 Output=Geometria-31-.log
 Initial command:
 /usr/local/g16/l1.exe "/home/padawan/israel-mol/chlorophyll-b/spectra/abs/Gau-14873.inp" -scrdir="/home/padawan/israel-mol/chlorophyll-b/spectra/abs/"
 Entering Link 1 = /usr/local/g16/l1.exe PID=     14875.
  
 Copyright (c) 1988,1990,1992,1993,1995,1998,2003,2009,2016,
            Gaussian, Inc.  All Rights Reserved.
  
 This is part of the Gaussian(R) 16 program.  It is based on
 the Gaussian(R) 09 system (copyright 2009, Gaussian, Inc.),
 the Gaussian(R) 03 system (copyright 2003, Gaussian, Inc.),
 the Gaussian(R) 98 system (copyright 1998, Gaussian, Inc.),
 the Gaussian(R) 94 system (copyright 1995, Gaussian, Inc.),
 the Gaussian 92(TM) system (copyright 1992, Gaussian, Inc.),
 the Gaussian 90(TM) system (copyright 1990, Gaussian, Inc.),
 the Gaussian 88(TM) system (copyright 1988, Gaussian, Inc.),
 the Gaussian 86(TM) system (copyright 1986, Carnegie Mellon
 University), and the Gaussian 82(TM) system (copyright 1983,
 Carnegie Mellon University). Gaussian is a federally registered
 trademark of Gaussian, Inc.
  
 This software contains proprietary and confidential information,
 including trade secrets, belonging to Gaussian, Inc.
  
 This software is provided under written license and may be
 used, copied, transmitted, or stored only in accord with that
 written license.
  
 The following legend is applicable only to US Government
 contracts under FAR:
  
                    RESTRICTED RIGHTS LEGEND
  
 Use, reproduction and disclosure by the US Government is
 subject to restrictions as set forth in subparagraphs (a)
 and (c) of the Commercial Computer Software - Restricted
 Rights clause in FAR 52.227-19.
  
 Gaussian, Inc.
 340 Quinnipiac St., Bldg. 40, Wallingford CT 06492
  
  
 ---------------------------------------------------------------
 Warning -- This program may not be used in any manner that
 competes with the business of Gaussian, Inc. or will provide
 assistance to any competitor of Gaussian, Inc.  The licensee
 of this program is prohibited from giving any competitor of
 Gaussian, Inc. access to this program.  By using this program,
 the user acknowledges that Gaussian, Inc. is engaged in the
 business of creating and licensing software in the field of
 computational chemistry and represents and warrants to the
 licensee that it is not a competitor of Gaussian, Inc. and that
 it will not use this program in any manner prohibited above.
 ---------------------------------------------------------------
  

 Cite this work as:
 Gaussian 16, Revision A.03,
 M. J. Frisch, G. W. Trucks, H. B. Schlegel, G. E. Scuseria, 
 M. A. Robb, J. R. Cheeseman, G. Scalmani, V. Barone, 
 G. A. Petersson, H. Nakatsuji, X. Li, M. Caricato, A. V. Marenich, 
 J. Bloino, B. G. Janesko, R. Gomperts, B. Mennucci, H. P. Hratchian, 
 J. V. Ortiz, A. F. Izmaylov, J. L. Sonnenberg, D. Williams-Young, 
 F. Ding, F. Lipparini, F. Egidi, J. Goings, B. Peng, A. Petrone, 
 T. Henderson, D. Ranasinghe, V. G. Zakrzewski, J. Gao, N. Rega, 
 G. Zheng, W. Liang, M. Hada, M. Ehara, K. Toyota, R. Fukuda, 
 J. Hasegawa, M. Ishida, T. Nakajima, Y. Honda, O. Kitao, H. Nakai, 
 T. Vreven, K. Throssell, J. A. Montgomery, Jr., J. E. Peralta, 
 F. Ogliaro, M. J. Bearpark, J. J. Heyd, E. N. Brothers, K. N. Kudin, 
 V. N. Staroverov, T. A. Keith, R. Kobayashi, J. Normand, 
 K. Raghavachari, A. P. Rendell, J. C. Burant, S. S. Iyengar, 
 J. Tomasi, M. Cossi, J. M. Millam, M. Klene, C. Adamo, R. Cammi, 
 J. W. Ochterski, R. L. Martin, K. Morokuma, O. Farkas, 
 J. B. Foresman, and D. J. Fox, Gaussian, Inc., Wallingford CT, 2016.
 
 ******************************************
 Gaussian 16:  ES64L-G16RevA.03 25-Dec-2016
                 4-Oct-2019 
 ******************************************
 %nproc=4
 Will use up to    4 processors via shared memory.
 %Mem=4GB
 ----------------------------------------------------------------------
 # td=(NStates=1) iop(3/107=0140000000,3/108=0140000000) iop(3/107=0140
 000000,3/108=0140000000) CAM-B3LYP/6-31G(d,p)
 ----------------------------------------------------------------------
 1/38=1,172=1/1;
 2/12=2,17=6,18=5,40=1/2;
 3/5=1,6=6,7=101,11=9,25=1,30=1,74=-40,107=140000000,108=140000000/1,2,3,8;
 4//1;
 5/5=2,38=5/2;
 8/6=1,10=2,108=1/1;
 9/41=1,42=1,70=2/14;
 6/7=2,8=2,9=2,10=2/1;
 99/5=1,9=1/99;
 --
 TD
 --
 Symbolic Z-matrix:
 Charge =  0 Multiplicity = 1
 12                   -5.61008   1.19183   0.202 
 6                    -5.01483  -2.03638  -0.37796 
 6                    -3.34388   1.20551   2.77363 
 6                    -6.19334   4.49023   0.6872 
 6                    -7.9457    1.20734  -2.42867 
 7                    -4.34306  -0.24032   1.11399 
 6                    -4.27937  -1.62541   0.6964 
 6                    -3.22084  -2.31527   1.47175 
 6                    -2.92876  -1.30181   2.64728 
 6                    -3.57823  -0.0022    2.20284 
 6                    -3.3703   -1.69005   3.93666 
 6                    -2.04374  -2.7739    0.62049 
 6                    -1.0726   -3.65614   1.37081 
 6                     0.25722  -3.91674   0.62153 
 8                     0.47995  -3.39082  -0.4795 
 8                     1.05026  -4.73269   1.27127 
 7                    -5.04979   2.62796   1.53197 
 6                    -3.93819   2.38165   2.46543 
 6                    -3.66725   3.68409   3.11577 
 6                    -4.54405   4.59636   2.56181 
 6                    -5.24454   3.91913   1.50009 
 6                    -2.81018   3.77308   4.37906 
 6                    -4.58853   5.9861    2.96103 
 8                    -4.03109   6.61187   3.80901 
 7                    -6.78565   2.62893  -0.66889 
 6                    -6.85031   3.98538  -0.37142 
 6                    -7.82872   4.6381   -1.32196 
 6                    -8.40042   3.63093  -1.97597 
 6                    -7.75317   2.36662  -1.70495 
 6                    -8.29899   5.95879  -1.16564 
 6                    -9.32146   3.67012  -3.14152 
 6                    -8.79741   4.09549  -4.42697 
 7                    -6.43175  -0.13443  -1.13005 
 6                    -7.40497  -0.02644  -2.1173 
 6                    -7.54848  -1.41877  -2.69868 
 6                    -6.53164  -2.20405  -2.11679 
 6                    -5.93569  -1.41243  -1.15035 
 6                    -8.45745  -1.66208  -3.84312 
 6                    -6.08269  -3.58355  -2.04593 
 8                    -6.45445  -4.50124  -2.75673 
 6                    -4.92789  -3.45804  -0.95333 
 6                    -5.37588  -4.54793   0.05299 
 8                    -5.71521  -4.40318   1.26594 
 8                    -5.01825  -5.76865  -0.40453 
 6                    -5.29875  -6.84862   0.56208 
 6                     2.37937  -5.14893   0.6988 
 6                     3.40839  -4.12286   1.05924 
 6                     4.00188  -3.3252    0.19758 
 6                     3.73708  -3.42266  -1.27666 
 6                     5.1041   -2.41233   0.68708 
 6                     6.44274  -2.67014   0.06331 
 6                     7.52081  -1.7225    0.60926 
 6                     8.86816  -1.855    -0.14197 
 6                     9.45501  -3.33179  -0.04739 
 6                     9.91922  -0.81622   0.39694 
 6                     11.29556  -0.85928  -0.25342 
 6                     12.1441   0.31442   0.23954 
 6                     13.5076   0.42071  -0.61311 
 6                     14.41741  -0.79636  -0.3483 
 6                     14.1802   1.68187  -0.2286 
 6                     15.47718   2.19627  -1.02171 
 6                     15.98089   3.49609  -0.57741 
 6                     17.32778   3.87066  -1.29558 
 6                     17.01984   4.04556  -2.77642 
 6                     17.94753   5.13121  -0.8191 
 1                    -2.84398   1.35842   3.72209 
 1                    -6.25176   5.70016   0.7626 
 1                    -8.77841   1.22928  -3.10078 
 1                    -3.63321  -3.30955   2.07048 
 1                    -1.89558  -1.1253    2.69808 
 1                    -3.03792  -2.54637   4.14435 
 1                    -2.82313  -0.82203   4.74794 
 1                    -4.5975   -1.78911   4.0082 
 1                    -2.48159  -3.17524  -0.24486 
 1                    -1.59341  -1.77249   0.08313 
 1                    -0.56757  -3.07803   2.26742 
 1                    -1.44642  -4.51152   1.98272 
 1                    -1.60618   3.75286   4.08754 
 1                    -3.01864   4.89766   4.65426 
 1                    -2.82347   3.08635   5.17448 
 1                    -5.26654   6.46573   2.20963 
 1                    -9.9002    2.79754  -3.41781 
 1                    -10.20309   4.57963  -3.03637 
 1                    -9.40603   4.34735  -5.22445 
 1                    -8.18466   5.00147  -4.38697 
 1                    -8.05183   3.21367  -4.86332 
 1                    -8.0521   -1.12345  -4.82148 
 1                    -8.36727  -2.74268  -3.83239 
 1                    -9.42272  -1.33592  -3.4069 
 1                    -3.89856  -3.79367  -1.29135 
 1                     2.44969  -6.08161   1.03295 
 1                     2.25845  -5.07454  -0.37385 
 1                     3.56827  -4.08297   2.11797 
 1                     2.75127  -3.9709   -1.48242 
 1                     3.80749  -2.44146  -1.70651 
 1                     4.52376  -3.95673  -1.83 
 1                     4.92347  -1.25071   0.51191 
 1                     5.28079  -2.21553   1.71277 
 1                     6.59552  -3.71109   0.17506 
 1                     6.26383  -2.42908  -0.94058 
 1                     6.89854  -0.70209   0.21253 
 1                     7.61863  -1.57169   1.65988 
 1                     8.81124  -1.75576  -1.178 
 1                     8.99013  -4.12512  -0.54273 
 1                     10.40139  -3.39395  -0.60931 
 1                     9.683    -3.52994   1.1184 
 1                     9.2907    0.17784   0.15623 
 1                     9.91168  -0.87699   1.46757 
 1                     11.7812  -1.84128  -0.18931 
 1                     11.26137  -0.61413  -1.27334 
 1                     11.59366   1.15072   0.01801 
 1                     12.29123   0.28994   1.32944 
 1                     12.95979   0.58448  -1.58038 
 1                     14.65546  -0.65315   0.58132 
 1                     14.10121  -1.88603  -0.61097 
 1                     15.42738  -0.5938   -0.67505 
 1                     13.39994   2.35393  -0.19956 
 1                     14.58773   1.61164   0.85927 
 1                     16.21429   1.58692  -0.86277 
 1                     15.1456   2.29241  -2.07052 
 1                     15.32749   4.18735  -0.83253 
 1                     16.14979   3.50741   0.42725 
 1                     18.05022   3.08077  -1.39478 
 1                     16.35984   4.98286  -3.12435 
 1                     17.90477   4.48518  -3.41334 
 1                     16.45405   3.15381  -3.14962 
 1                     17.97842   4.9338    0.24773 
 1                     18.95551   5.02633  -1.36637 
 1                     17.32566   5.99726  -1.14604 
 1                    -5.20948  -7.80105  -0.07381 
 1                    -6.31458  -6.79751   1.02211 
 1                    -4.60247  -6.80345   1.52308 
 8                    -7.85485   6.77311  -0.35124 
 1                    -9.02712   6.19768  -1.89521 
 
 Stoichiometry    C54H68MgN4O7
 Framework group  C1[X(C54H68MgN4O7)]
 Deg. of freedom   396
 Full point group                 C1      NOp   1
 Largest Abelian subgroup         C1      NOp   1
 Largest concise Abelian subgroup C1      NOp   1
                         Standard orientation:                         
 ---------------------------------------------------------------------
 Center     Atomic      Atomic             Coordinates (Angstroms)
 Number     Number       Type             X           Y           Z
 ---------------------------------------------------------------------
      1         12           0       -5.609865    1.188401    0.190405
      2          6           0       -5.012221   -2.043319   -0.367151
      3          6           0       -3.345417    1.221012    2.763410
      4          6           0       -6.195494    4.489663    0.652730
      5          6           0       -7.943711    1.184528   -2.441879
      6          7           0       -4.342572   -0.236717    1.112987
      7          6           0       -4.277743   -1.624574    0.704886
      8          6           0       -3.219304   -2.308483    1.485629
      9          6           0       -2.928649   -1.286854    2.654423
     10          6           0       -3.578623    0.009292    2.200706
     11          6           0       -3.370825   -1.666577    3.946116
     12          6           0       -2.041349   -2.772166    0.638301
     13          6           0       -1.070169   -3.648666    1.395271
     14          6           0        0.260319   -3.913526    0.648678
     15          8           0        0.483465   -3.394981   -0.455764
     16          8           0        1.053426   -4.724543    1.304497
     17          7           0       -5.051360    2.633906    1.510942
     18          6           0       -3.940240    2.394649    2.446799
     19          6           0       -3.670548    3.701659    3.088438
     20          6           0       -4.547547    4.609591    2.527679
     21          6           0       -5.246893    3.924705    1.470128
     22          6           0       -2.814389    3.799796    4.351669
     23          6           0       -4.593149    6.001985    2.917392
     24          8           0       -4.036679    6.633868    3.761473
     25          7           0       -6.785736    2.618799   -0.691043
     26          6           0       -6.851434    3.977199   -0.402865
     27          6           0       -7.829605    4.622819   -1.358485
     28          6           0       -8.400239    3.610860   -2.006003
     29          6           0       -7.752394    2.348833   -1.725941
     30          6           0       -8.300804    5.944245   -1.211483
     31          6           0       -9.320511    3.641531   -3.172415
     32          6           0       -8.795859    4.058462   -4.460380
     33          7           0       -6.429810   -0.147418   -1.133127
     34          6           0       -7.402427   -0.046764   -2.121743
     35          6           0       -7.544682   -1.443117   -2.693726
     36          6           0       -6.527750   -2.223776   -2.105811
     37          6           0       -5.932945   -1.425223   -1.144389
     38          6           0       -8.452725   -1.694778   -3.837092
     39          6           0       -6.077992   -3.602484   -2.025253
     40          8           0       -6.448700   -4.525221   -2.730038
     41          6           0       -4.924009   -3.468812   -0.932756
     42          6           0       -5.371999   -4.552098    0.080661
     43          8           0       -5.712241   -4.399299    1.292372
     44          8           0       -5.013309   -5.775680   -0.368294
     45          6           0       -5.293789   -6.849214    0.605464
     46          6           0        2.383178   -5.143836    0.735772
     47          6           0        3.411313   -4.114698    1.089906
     48          6           0        4.004896   -3.322549    0.223230
     49          6           0        3.741153   -3.430217   -1.250490
     50          6           0        5.106216   -2.405678    0.707240
     51          6           0        6.445439   -2.666899    0.086137
     52          6           0        7.522550   -1.714890    0.626342
     53          6           0        8.870491   -1.851662   -0.123060
     54          6           0        9.458196   -3.327410   -0.018022
     55          6           0        9.920546   -0.808580    0.409472
     56          6           0       11.297347   -0.855203   -0.239660
     57          6           0       12.144830    0.322349    0.245868
     58          6           0       13.508842    0.423681   -0.606566
     59          6           0       14.419224   -0.790985   -0.332861
     60          6           0       14.180400    1.687858   -0.230210
     61          6           0       15.477596    2.197646   -1.025929
     62          6           0       15.980198    3.500784   -0.590157
     63          6           0       17.327338    3.871295   -1.309961
     64          6           0       17.020299    4.035905   -2.792161
     65          6           0       17.945990    5.135442   -0.841661
     66          1           0       -2.846251    1.380691    3.711143
     67          1           0       -6.254721    5.700035    0.719843
     68          1           0       -8.775977    1.201371   -3.114678
     69          1           0       -3.631472   -3.298910    2.090835
     70          1           0       -1.895614   -1.109354    2.704714
     71          1           0       -3.038059   -2.521250    4.159860
     72          1           0       -2.824746   -0.792708    4.751832
     73          1           0       -4.598014   -1.765909    4.017512
     74          1           0       -2.478368   -3.179658   -0.224581
     75          1           0       -1.591273   -1.774151    0.094433
     76          1           0       -0.566108   -3.064142    2.288261
     77          1           0       -1.443873   -4.500086    2.012742
     78          1           0       -1.610184    3.778343    4.061106
     79          1           0       -3.023739    4.926087    4.619060
     80          1           0       -2.827790    3.118488    5.151740
     81          1           0       -5.270952    6.476066    2.162287
     82          1           0       -9.898525    2.766731   -3.443139
     83          1           0      -10.202780    4.551190   -3.074062
     84          1           0       -9.404095    4.304508   -5.259966
     85          1           0       -8.183695    4.965078   -4.426141
     86          1           0       -8.049431    3.174158   -4.890208
     87          1           0       -8.047048   -1.162579   -4.818828
     88          1           0       -8.361879   -2.775225   -3.818934
     89          1           0       -9.418493   -1.366261   -3.403750
     90          1           0       -3.894239   -3.806095   -1.267794
     91          1           0        2.453847   -6.074174    1.076311
     92          1           0        2.262935   -5.076839   -0.337445
     93          1           0        3.570456   -4.067492    2.148440
     94          1           0        2.755825   -3.980467   -1.453177
     95          1           0        3.811243   -2.451925   -1.686973
     96          1           0        4.528545   -3.967555   -1.799654
     97          1           0        4.924990   -1.245396    0.524039
     98          1           0        5.282089   -2.201792    1.731678
     99          1           0        6.598787   -3.706972    0.205077
    100          1           0        6.267057   -2.432796   -0.919494
    101          1           0        6.899918   -0.697597    0.222253
    102          1           0        7.619572   -1.556867    1.675980
    103          1           0        8.814208   -1.759521   -1.159779
    104          1           0        8.994145   -4.124384   -0.508258
    105          1           0       10.404992   -3.392805   -0.578872
    106          1           0        9.685515   -3.517471    1.149244
    107          1           0        9.291569    0.183430    0.161571
    108          1           0        9.912318   -0.862062    1.480480
    109          1           0       11.783558   -1.836449   -0.168534
    110          1           0       11.263701   -0.617037   -1.261244
    111          1           0       11.594020    1.156780    0.018277
    112          1           0       12.291239    0.305391    1.336009
    113          1           0       12.961585    0.580521   -1.575301
    114          1           0       14.656560   -0.641301    0.595925
    115          1           0       14.103873   -1.882615   -0.588312
    116          1           0       15.429293   -0.590028   -0.660309
    117          1           0       13.399699    2.359608   -0.206274
    118          1           0       14.587229    1.625292    0.858392
    119          1           0       16.214977    1.589853   -0.862351
    120          1           0       15.146664    2.286438   -2.075593
    121          1           0       15.326545    4.189882   -0.850417
    122          1           0       16.148407    3.519046    0.414517
    123          1           0       18.050336    3.081193   -1.403286
    124          1           0       16.359946    4.970406   -3.146918
    125          1           0       17.905379    4.471727   -3.431462
    126          1           0       16.455306    3.141277   -3.159661
    127          1           0       17.976280    4.945329    0.226507
    128          1           0       18.954404    5.027464   -1.387528
    129          1           0       17.323805    5.998857   -1.174909
    130          1           0       -5.203497   -7.805901   -0.023861
    131          1           0       -6.309960   -6.795606    1.064449
    132          1           0       -4.598189   -6.797069    1.566601
    133          8           0       -7.857721    6.764379   -0.402358
    134          1           0       -9.028587    6.177704   -1.943152
 ---------------------------------------------------------------------
 Rotational constants (GHZ):           0.0348990           0.0081573           0.0072164
 Standard basis: 6-31G(d,p) (6D, 7F)
 There are  1334 symmetry adapted cartesian basis functions of A   symmetry.
 There are  1334 symmetry adapted basis functions of A   symmetry.
  1334 basis functions,  2348 primitive gaussians,  1334 cartesian basis functions
   244 alpha electrons      244 beta electrons
       nuclear repulsion energy      9155.7945277611 Hartrees.
 NAtoms=  134 NActive=  134 NUniq=  134 SFac= 1.00D+00 NAtFMM=   60 NAOKFM=T Big=T
 Integral buffers will be    131072 words long.
 Raffenetti 1 integral format.
 Two-electron integral symmetry is turned on.
 One-electron integrals computed using PRISM.
 NBasis=  1334 RedAO= T EigKep=  3.41D-04  NBF=  1334
 NBsUse=  1334 1.00D-06 EigRej= -1.00D+00 NBFU=  1334
 ExpMin= 4.21D-02 ExpMax= 1.17D+04 ExpMxC= 1.76D+03 IAcc=3 IRadAn=         5 AccDes= 0.00D+00
 Harris functional with IExCor=20419 and IRadAn=       5 diagonalized for initial guess.
 HarFok:  IExCor=20419 AccDes= 0.00D+00 IRadAn=         5 IDoV= 1 UseB2=F ITyADJ=14
 ICtDFT=  3500011 ScaDFX=  1.000000  1.000000  1.000000  1.000000
 FoFCou: FMM=F IPFlag=           0 FMFlag=      100000 FMFlg1=        2001
         NFxFlg=           0 DoJE=T BraDBF=F KetDBF=T FulRan=T
         wScrn=  0.000000 ICntrl=       500 IOpCl=  0 I1Cent=   200000004 NGrid=           0
         NMat0=    1 NMatS0=      1 NMatT0=    0 NMatD0=    1 NMtDS0=    0 NMtDT0=    0
 Petite list used in FoFCou.
 Requested convergence on RMS density matrix=1.00D-08 within 128 cycles.
 Requested convergence on MAX density matrix=1.00D-06.
 Requested convergence on             energy=1.00D-06.
 No special actions if energy rises.
 SCF Done:  E(RCAM-B3LYP) =  -3043.42924548     A.U. after   16 cycles
            NFock= 16  Conv=0.45D-08     -V/T= 2.0085
 DoSCS=F DFT=T ScalE2(SS,OS)=  1.000000  1.000000
 ExpMin= 4.21D-02 ExpMax= 1.17D+04 ExpMxC= 1.76D+03 IAcc=3 IRadAn=         5 AccDes= 0.00D+00
 HarFok:  IExCor=  205 AccDes= 0.00D+00 IRadAn=         5 IDoV=-2 UseB2=F ITyADJ=14
 ICtDFT= 12500011 ScaDFX=  1.000000  1.000000  1.000000  1.000000
 GSVD:  LWork=       -5460 too small for GESVD, short by       25550 words or       25550 for optimal perf.
 Range of M.O.s used for correlation:    71  1334
 NBasis=  1334 NAE=   244 NBE=   244 NFC=    70 NFV=     0
 NROrb=   1264 NOA=   174 NOB=   174 NVA=  1090 NVB=  1090
 Orbital symmetries:
       Occupied  (A) (A) (A) (A) (A) (A) (A) (A) (A) (A) (A) (A)
                 (A) (A) (A) (A) (A) (A) (A) (A) (A) (A) (A) (A)
                 (A) (A) (A) (A) (A) (A) (A) (A) (A) (A) (A) (A)
                 (A) (A) (A) (A) (A) (A) (A) (A) (A) (A) (A) (A)
                 (A) (A) (A) (A) (A) (A) (A) (A) (A) (A) (A) (A)
                 (A) (A) (A) (A) (A) (A) (A) (A) (A) (A) (A) (A)
                 (A) (A) (A) (A) (A) (A) (A) (A) (A) (A) (A) (A)
                 (A) (A) (A) (A) (A) (A) (A) (A) (A) (A) (A) (A)
                 (A) (A) (A) (A) (A) (A) (A) (A) (A) (A) (A) (A)
                 (A) (A) (A) (A) (A) (A) (A) (A) (A) (A) (A) (A)
                 (A) (A) (A) (A) (A) (A) (A) (A) (A) (A) (A) (A)
                 (A) (A) (A) (A) (A) (A) (A) (A) (A) (A) (A) (A)
                 (A) (A) (A) (A) (A) (A) (A) (A) (A) (A) (A) (A)
                 (A) (A) (A) (A) (A) (A) (A) (A) (A) (A) (A) (A)
                 (A) (A) (A) (A) (A) (A) (A) (A) (A) (A) (A) (A)
                 (A) (A) (A) (A) (A) (A) (A) (A) (A) (A) (A) (A)
                 (A) (A) (A) (A) (A) (A) (A) (A) (A) (A) (A) (A)
                 (A) (A) (A) (A) (A) (A) (A) (A) (A) (A) (A) (A)
                 (A) (A) (A) (A) (A) (A) (A) (A) (A) (A) (A) (A)
                 (A) (A) (A) (A) (A) (A) (A) (A) (A) (A) (A) (A)
                 (A) (A) (A) (A)
       Virtual   (A) (A) (A) (A) (A) (A) (A) (A) (A) (A) (A) (A)
                 (A) (A) (A) (A) (A) (A) (A) (A) (A) (A) (A) (A)
                 (A) (A) (A) (A) (A) (A) (A) (A) (A) (A) (A) (A)
                 (A) (A) (A) (A) (A) (A) (A) (A) (A) (A) (A) (A)
                 (A) (A) (A) (A) (A) (A) (A) (A) (A) (A) (A) (A)
                 (A) (A) (A) (A) (A) (A) (A) (A) (A) (A) (A) (A)
                 (A) (A) (A) (A) (A) (A) (A) (A) (A) (A) (A) (A)
                 (A) (A) (A) (A) (A) (A) (A) (A) (A) (A) (A) (A)
                 (A) (A) (A) (A) (A) (A) (A) (A) (A) (A) (A) (A)
                 (A) (A) (A) (A) (A) (A) (A) (A) (A) (A) (A) (A)
                 (A) (A) (A) (A) (A) (A) (A) (A) (A) (A) (A) (A)
                 (A) (A) (A) (A) (A) (A) (A) (A) (A) (A) (A) (A)
                 (A) (A) (A) (A) (A) (A) (A) (A) (A) (A) (A) (A)
                 (A) (A) (A) (A) (A) (A) (A) (A) (A) (A) (A) (A)
                 (A) (A) (A) (A) (A) (A) (A) (A) (A) (A) (A) (A)
                 (A) (A) (A) (A) (A) (A) (A) (A) (A) (A) (A) (A)
                 (A) (A) (A) (A) (A) (A) (A) (A) (A) (A) (A) (A)
                 (A) (A) (A) (A) (A) (A) (A) (A) (A) (A) (A) (A)
                 (A) (A) (A) (A) (A) (A) (A) (A) (A) (A) (A) (A)
                 (A) (A) (A) (A) (A) (A) (A) (A) (A) (A) (A) (A)
                 (A) (A) (A) (A) (A) (A) (A) (A) (A) (A) (A) (A)
                 (A) (A) (A) (A) (A) (A) (A) (A) (A) (A) (A) (A)
                 (A) (A) (A) (A) (A) (A) (A) (A) (A) (A) (A) (A)
                 (A) (A) (A) (A) (A) (A) (A) (A) (A) (A) (A) (A)
                 (A) (A) (A) (A) (A) (A) (A) (A) (A) (A) (A) (A)
                 (A) (A) (A) (A) (A) (A) (A) (A) (A) (A) (A) (A)
                 (A) (A) (A) (A) (A) (A) (A) (A) (A) (A) (A) (A)
                 (A) (A) (A) (A) (A) (A) (A) (A) (A) (A) (A) (A)
                 (A) (A) (A) (A) (A) (A) (A) (A) (A) (A) (A) (A)
                 (A) (A) (A) (A) (A) (A) (A) (A) (A) (A) (A) (A)
                 (A) (A) (A) (A) (A) (A) (A) (A) (A) (A) (A) (A)
                 (A) (A) (A) (A) (A) (A) (A) (A) (A) (A) (A) (A)
                 (A) (A) (A) (A) (A) (A) (A) (A) (A) (A) (A) (A)
                 (A) (A) (A) (A) (A) (A) (A) (A) (A) (A) (A) (A)
                 (A) (A) (A) (A) (A) (A) (A) (A) (A) (A) (A) (A)
                 (A) (A) (A) (A) (A) (A) (A) (A) (A) (A) (A) (A)
                 (A) (A) (A) (A) (A) (A) (A) (A) (A) (A) (A) (A)
                 (A) (A) (A) (A) (A) (A) (A) (A) (A) (A) (A) (A)
                 (A) (A) (A) (A) (A) (A) (A) (A) (A) (A) (A) (A)
                 (A) (A) (A) (A) (A) (A) (A) (A) (A) (A) (A) (A)
                 (A) (A) (A) (A) (A) (A) (A) (A) (A) (A) (A) (A)
                 (A) (A) (A) (A) (A) (A) (A) (A) (A) (A) (A) (A)
                 (A) (A) (A) (A) (A) (A) (A) (A) (A) (A) (A) (A)
                 (A) (A) (A) (A) (A) (A) (A) (A) (A) (A) (A) (A)
                 (A) (A) (A) (A) (A) (A) (A) (A) (A) (A) (A) (A)
                 (A) (A) (A) (A) (A) (A) (A) (A) (A) (A) (A) (A)
                 (A) (A) (A) (A) (A) (A) (A) (A) (A) (A) (A) (A)
                 (A) (A) (A) (A) (A) (A) (A) (A) (A) (A) (A) (A)
                 (A) (A) (A) (A) (A) (A) (A) (A) (A) (A) (A) (A)
                 (A) (A) (A) (A) (A) (A) (A) (A) (A) (A) (A) (A)
                 (A) (A) (A) (A) (A) (A) (A) (A) (A) (A) (A) (A)
                 (A) (A) (A) (A) (A) (A) (A) (A) (A) (A) (A) (A)
                 (A) (A) (A) (A) (A) (A) (A) (A) (A) (A) (A) (A)
                 (A) (A) (A) (A) (A) (A) (A) (A) (A) (A) (A) (A)
                 (A) (A) (A) (A) (A) (A) (A) (A) (A) (A) (A) (A)
                 (A) (A) (A) (A) (A) (A) (A) (A) (A) (A) (A) (A)
                 (A) (A) (A) (A) (A) (A) (A) (A) (A) (A) (A) (A)
                 (A) (A) (A) (A) (A) (A) (A) (A) (A) (A) (A) (A)
                 (A) (A) (A) (A) (A) (A) (A) (A) (A) (A) (A) (A)
                 (A) (A) (A) (A) (A) (A) (A) (A) (A) (A) (A) (A)
                 (A) (A) (A) (A) (A) (A) (A) (A) (A) (A) (A) (A)
                 (A) (A) (A) (A) (A) (A) (A) (A) (A) (A) (A) (A)
                 (A) (A) (A) (A) (A) (A) (A) (A) (A) (A) (A) (A)
                 (A) (A) (A) (A) (A) (A) (A) (A) (A) (A) (A) (A)
                 (A) (A) (A) (A) (A) (A) (A) (A) (A) (A) (A) (A)
                 (A) (A) (A) (A) (A) (A) (A) (A) (A) (A) (A) (A)
                 (A) (A) (A) (A) (A) (A) (A) (A) (A) (A) (A) (A)
                 (A) (A) (A) (A) (A) (A) (A) (A) (A) (A) (A) (A)
                 (A) (A) (A) (A) (A) (A) (A) (A) (A) (A) (A) (A)
                 (A) (A) (A) (A) (A) (A) (A) (A) (A) (A) (A) (A)
                 (A) (A) (A) (A) (A) (A) (A) (A) (A) (A) (A) (A)
                 (A) (A) (A) (A) (A) (A) (A) (A) (A) (A) (A) (A)
                 (A) (A) (A) (A) (A) (A) (A) (A) (A) (A) (A) (A)
                 (A) (A) (A) (A) (A) (A) (A) (A) (A) (A) (A) (A)
                 (A) (A) (A) (A) (A) (A) (A) (A) (A) (A) (A) (A)
                 (A) (A) (A) (A) (A) (A) (A) (A) (A) (A) (A) (A)
                 (A) (A) (A) (A) (A) (A) (A) (A) (A) (A) (A) (A)
                 (A) (A) (A) (A) (A) (A) (A) (A) (A) (A) (A) (A)
                 (A) (A) (A) (A) (A) (A) (A) (A) (A) (A) (A) (A)
                 (A) (A) (A) (A) (A) (A) (A) (A) (A) (A) (A) (A)
                 (A) (A) (A) (A) (A) (A) (A) (A) (A) (A) (A) (A)
                 (A) (A) (A) (A) (A) (A) (A) (A) (A) (A) (A) (A)
                 (A) (A) (A) (A) (A) (A) (A) (A) (A) (A) (A) (A)
                 (A) (A) (A) (A) (A) (A) (A) (A) (A) (A) (A) (A)
                 (A) (A) (A) (A) (A) (A) (A) (A) (A) (A) (A) (A)
                 (A) (A) (A) (A) (A) (A) (A) (A) (A) (A) (A) (A)
                 (A) (A) (A) (A) (A) (A) (A) (A) (A) (A) (A) (A)
                 (A) (A) (A) (A) (A) (A) (A) (A) (A) (A) (A) (A)
                 (A) (A) (A) (A) (A) (A) (A) (A) (A) (A) (A) (A)
                 (A) (A) (A) (A) (A) (A) (A) (A) (A) (A) (A) (A)
                 (A) (A) (A) (A) (A) (A) (A) (A) (A) (A)
     4 initial guesses have been made.
 Convergence on wavefunction:    0.001000000000000
 Iteration     1 Dimension     4 NMult     0 NNew      4
 CISAX will form     4 AO SS matrices at one time.
 Iteration     2 Dimension     6 NMult     4 NNew      2
 Iteration     3 Dimension     8 NMult     6 NNew      2
 Iteration     4 Dimension    10 NMult     8 NNew      2
 Iteration     5 Dimension    12 NMult    10 NNew      2
 Iteration     6 Dimension    14 NMult    12 NNew      2
 Iteration     7 Dimension    16 NMult    14 NNew      2
 Iteration     8 Dimension    18 NMult    16 NNew      2
 Iteration     9 Dimension    20 NMult    18 NNew      2
 ***********************************************************************
 Excited states from <AA,BB:AA,BB> singles matrix:
 ***********************************************************************
 
 Ground to excited state transition densities written to RWF  633
 Ground to excited state transition electric dipole moments (Au):
       state          X           Y           Z        Dip. S.      Osc.
         1         0.9518      1.2691      1.4599      4.6480      0.2256
 Ground to excited state transition velocity dipole moments (Au):
       state          X           Y           Z        Dip. S.      Osc.
         1        -0.0667     -0.0900     -0.1035      0.0233      0.2130
 Ground to excited state transition magnetic dipole moments (Au):
       state          X           Y           Z
         1        -0.8028     -1.3445      1.6389
 Ground to excited state transition velocity quadrupole moments (Au):
       state          XX          YY          ZZ          XY          XZ          YZ
         1         1.4010     -0.1785     -0.1659      0.7204      1.0244     -0.2924
 <0|del|b> * <b|rxdel|0> + <0|del|b> * <b|delr+rdel|0>
 Rotatory Strengths (R) in cgs (10**-40 erg-esu-cm/Gauss)
       state          XX          YY          ZZ    R(velocity)    E-M Angle
         1      -151.0620   -107.0185    305.2540     15.7245       89.20
 1/2[<0|r|b>*<b|rxdel|0> + (<0|rxdel|b>*<b|r|0>)*]
 Rotatory Strengths (R) in cgs (10**-40 erg-esu-cm/Gauss)
       state          XX          YY          ZZ     R(length)
         1       540.3921   1206.6385  -1692.0059     18.3416
  1/2[<0|del|b>*<b|r|0> + (<0|r|b>*<b|del|0>)*] (Au)
       state          X           Y           Z        Dip. S.   Osc.(frdel)
         1        -0.0635     -0.1142     -0.1511      0.3288      0.2192

 Excitation energies and oscillator strengths:
 
 Excited State   1:      Singlet-A      1.9810 eV  625.87 nm  f=0.2256  <S**2>=0.000
     243 -> 246       -0.24047
     244 -> 245        0.65600
 This state for optimization and/or second-order correction.
 Total Energy, E(TD-HF/TD-DFT) =  -3043.35644514    
 Copying the excited state density for this state as the 1-particle RhoCI density.
 SavETr:  write IOETrn=   770 NScale= 10 NData=  16 NLR=1 NState=    1 LETran=      28.
 Hyperfine terms turned off by default for NAtoms > 100.

 **********************************************************************

            Population analysis using the SCF density.

 **********************************************************************

 Orbital symmetries:
       Occupied  (A) (A) (A) (A) (A) (A) (A) (A) (A) (A) (A) (A)
                 (A) (A) (A) (A) (A) (A) (A) (A) (A) (A) (A) (A)
                 (A) (A) (A) (A) (A) (A) (A) (A) (A) (A) (A) (A)
                 (A) (A) (A) (A) (A) (A) (A) (A) (A) (A) (A) (A)
                 (A) (A) (A) (A) (A) (A) (A) (A) (A) (A) (A) (A)
                 (A) (A) (A) (A) (A) (A) (A) (A) (A) (A) (A) (A)
                 (A) (A) (A) (A) (A) (A) (A) (A) (A) (A) (A) (A)
                 (A) (A) (A) (A) (A) (A) (A) (A) (A) (A) (A) (A)
                 (A) (A) (A) (A) (A) (A) (A) (A) (A) (A) (A) (A)
                 (A) (A) (A) (A) (A) (A) (A) (A) (A) (A) (A) (A)
                 (A) (A) (A) (A) (A) (A) (A) (A) (A) (A) (A) (A)
                 (A) (A) (A) (A) (A) (A) (A) (A) (A) (A) (A) (A)
                 (A) (A) (A) (A) (A) (A) (A) (A) (A) (A) (A) (A)
                 (A) (A) (A) (A) (A) (A) (A) (A) (A) (A) (A) (A)
                 (A) (A) (A) (A) (A) (A) (A) (A) (A) (A) (A) (A)
                 (A) (A) (A) (A) (A) (A) (A) (A) (A) (A) (A) (A)
                 (A) (A) (A) (A) (A) (A) (A) (A) (A) (A) (A) (A)
                 (A) (A) (A) (A) (A) (A) (A) (A) (A) (A) (A) (A)
                 (A) (A) (A) (A) (A) (A) (A) (A) (A) (A) (A) (A)
                 (A) (A) (A) (A) (A) (A) (A) (A) (A) (A) (A) (A)
                 (A) (A) (A) (A)
       Virtual   (A) (A) (A) (A) (A) (A) (A) (A) (A) (A) (A) (A)
                 (A) (A) (A) (A) (A) (A) (A) (A) (A) (A) (A) (A)
                 (A) (A) (A) (A) (A) (A) (A) (A) (A) (A) (A) (A)
                 (A) (A) (A) (A) (A) (A) (A) (A) (A) (A) (A) (A)
                 (A) (A) (A) (A) (A) (A) (A) (A) (A) (A) (A) (A)
                 (A) (A) (A) (A) (A) (A) (A) (A) (A) (A) (A) (A)
                 (A) (A) (A) (A) (A) (A) (A) (A) (A) (A) (A) (A)
                 (A) (A) (A) (A) (A) (A) (A) (A) (A) (A) (A) (A)
                 (A) (A) (A) (A) (A) (A) (A) (A) (A) (A) (A) (A)
                 (A) (A) (A) (A) (A) (A) (A) (A) (A) (A) (A) (A)
                 (A) (A) (A) (A) (A) (A) (A) (A) (A) (A) (A) (A)
                 (A) (A) (A) (A) (A) (A) (A) (A) (A) (A) (A) (A)
                 (A) (A) (A) (A) (A) (A) (A) (A) (A) (A) (A) (A)
                 (A) (A) (A) (A) (A) (A) (A) (A) (A) (A) (A) (A)
                 (A) (A) (A) (A) (A) (A) (A) (A) (A) (A) (A) (A)
                 (A) (A) (A) (A) (A) (A) (A) (A) (A) (A) (A) (A)
                 (A) (A) (A) (A) (A) (A) (A) (A) (A) (A) (A) (A)
                 (A) (A) (A) (A) (A) (A) (A) (A) (A) (A) (A) (A)
                 (A) (A) (A) (A) (A) (A) (A) (A) (A) (A) (A) (A)
                 (A) (A) (A) (A) (A) (A) (A) (A) (A) (A) (A) (A)
                 (A) (A) (A) (A) (A) (A) (A) (A) (A) (A) (A) (A)
                 (A) (A) (A) (A) (A) (A) (A) (A) (A) (A) (A) (A)
                 (A) (A) (A) (A) (A) (A) (A) (A) (A) (A) (A) (A)
                 (A) (A) (A) (A) (A) (A) (A) (A) (A) (A) (A) (A)
                 (A) (A) (A) (A) (A) (A) (A) (A) (A) (A) (A) (A)
                 (A) (A) (A) (A) (A) (A) (A) (A) (A) (A) (A) (A)
                 (A) (A) (A) (A) (A) (A) (A) (A) (A) (A) (A) (A)
                 (A) (A) (A) (A) (A) (A) (A) (A) (A) (A) (A) (A)
                 (A) (A) (A) (A) (A) (A) (A) (A) (A) (A) (A) (A)
                 (A) (A) (A) (A) (A) (A) (A) (A) (A) (A) (A) (A)
                 (A) (A) (A) (A) (A) (A) (A) (A) (A) (A) (A) (A)
                 (A) (A) (A) (A) (A) (A) (A) (A) (A) (A) (A) (A)
                 (A) (A) (A) (A) (A) (A) (A) (A) (A) (A) (A) (A)
                 (A) (A) (A) (A) (A) (A) (A) (A) (A) (A) (A) (A)
                 (A) (A) (A) (A) (A) (A) (A) (A) (A) (A) (A) (A)
                 (A) (A) (A) (A) (A) (A) (A) (A) (A) (A) (A) (A)
                 (A) (A) (A) (A) (A) (A) (A) (A) (A) (A) (A) (A)
                 (A) (A) (A) (A) (A) (A) (A) (A) (A) (A) (A) (A)
                 (A) (A) (A) (A) (A) (A) (A) (A) (A) (A) (A) (A)
                 (A) (A) (A) (A) (A) (A) (A) (A) (A) (A) (A) (A)
                 (A) (A) (A) (A) (A) (A) (A) (A) (A) (A) (A) (A)
                 (A) (A) (A) (A) (A) (A) (A) (A) (A) (A) (A) (A)
                 (A) (A) (A) (A) (A) (A) (A) (A) (A) (A) (A) (A)
                 (A) (A) (A) (A) (A) (A) (A) (A) (A) (A) (A) (A)
                 (A) (A) (A) (A) (A) (A) (A) (A) (A) (A) (A) (A)
                 (A) (A) (A) (A) (A) (A) (A) (A) (A) (A) (A) (A)
                 (A) (A) (A) (A) (A) (A) (A) (A) (A) (A) (A) (A)
                 (A) (A) (A) (A) (A) (A) (A) (A) (A) (A) (A) (A)
                 (A) (A) (A) (A) (A) (A) (A) (A) (A) (A) (A) (A)
                 (A) (A) (A) (A) (A) (A) (A) (A) (A) (A) (A) (A)
                 (A) (A) (A) (A) (A) (A) (A) (A) (A) (A) (A) (A)
                 (A) (A) (A) (A) (A) (A) (A) (A) (A) (A) (A) (A)
                 (A) (A) (A) (A) (A) (A) (A) (A) (A) (A) (A) (A)
                 (A) (A) (A) (A) (A) (A) (A) (A) (A) (A) (A) (A)
                 (A) (A) (A) (A) (A) (A) (A) (A) (A) (A) (A) (A)
                 (A) (A) (A) (A) (A) (A) (A) (A) (A) (A) (A) (A)
                 (A) (A) (A) (A) (A) (A) (A) (A) (A) (A) (A) (A)
                 (A) (A) (A) (A) (A) (A) (A) (A) (A) (A) (A) (A)
                 (A) (A) (A) (A) (A) (A) (A) (A) (A) (A) (A) (A)
                 (A) (A) (A) (A) (A) (A) (A) (A) (A) (A) (A) (A)
                 (A) (A) (A) (A) (A) (A) (A) (A) (A) (A) (A) (A)
                 (A) (A) (A) (A) (A) (A) (A) (A) (A) (A) (A) (A)
                 (A) (A) (A) (A) (A) (A) (A) (A) (A) (A) (A) (A)
                 (A) (A) (A) (A) (A) (A) (A) (A) (A) (A) (A) (A)
                 (A) (A) (A) (A) (A) (A) (A) (A) (A) (A) (A) (A)
                 (A) (A) (A) (A) (A) (A) (A) (A) (A) (A) (A) (A)
                 (A) (A) (A) (A) (A) (A) (A) (A) (A) (A) (A) (A)
                 (A) (A) (A) (A) (A) (A) (A) (A) (A) (A) (A) (A)
                 (A) (A) (A) (A) (A) (A) (A) (A) (A) (A) (A) (A)
                 (A) (A) (A) (A) (A) (A) (A) (A) (A) (A) (A) (A)
                 (A) (A) (A) (A) (A) (A) (A) (A) (A) (A) (A) (A)
                 (A) (A) (A) (A) (A) (A) (A) (A) (A) (A) (A) (A)
                 (A) (A) (A) (A) (A) (A) (A) (A) (A) (A) (A) (A)
                 (A) (A) (A) (A) (A) (A) (A) (A) (A) (A) (A) (A)
                 (A) (A) (A) (A) (A) (A) (A) (A) (A) (A) (A) (A)
                 (A) (A) (A) (A) (A) (A) (A) (A) (A) (A) (A) (A)
                 (A) (A) (A) (A) (A) (A) (A) (A) (A) (A) (A) (A)
                 (A) (A) (A) (A) (A) (A) (A) (A) (A) (A) (A) (A)
                 (A) (A) (A) (A) (A) (A) (A) (A) (A) (A) (A) (A)
                 (A) (A) (A) (A) (A) (A) (A) (A) (A) (A) (A) (A)
                 (A) (A) (A) (A) (A) (A) (A) (A) (A) (A) (A) (A)
                 (A) (A) (A) (A) (A) (A) (A) (A) (A) (A) (A) (A)
                 (A) (A) (A) (A) (A) (A) (A) (A) (A) (A) (A) (A)
                 (A) (A) (A) (A) (A) (A) (A) (A) (A) (A) (A) (A)
                 (A) (A) (A) (A) (A) (A) (A) (A) (A) (A) (A) (A)
                 (A) (A) (A) (A) (A) (A) (A) (A) (A) (A) (A) (A)
                 (A) (A) (A) (A) (A) (A) (A) (A) (A) (A) (A) (A)
                 (A) (A) (A) (A) (A) (A) (A) (A) (A) (A) (A) (A)
                 (A) (A) (A) (A) (A) (A) (A) (A) (A) (A) (A) (A)
                 (A) (A) (A) (A) (A) (A) (A) (A) (A) (A) (A) (A)
                 (A) (A) (A) (A) (A) (A) (A) (A) (A) (A)
 The electronic state is 1-A.
 Alpha  occ. eigenvalues --  -46.80808 -19.23555 -19.22448 -19.17926 -19.17361
 Alpha  occ. eigenvalues --  -19.17314 -19.16780 -19.16019 -14.39306 -14.36812
 Alpha  occ. eigenvalues --  -14.36446 -14.36340 -10.35873 -10.34985 -10.32054
 Alpha  occ. eigenvalues --  -10.29602 -10.29408 -10.29077 -10.27741 -10.27350
 Alpha  occ. eigenvalues --  -10.27245 -10.26539 -10.26463 -10.26319 -10.26290
 Alpha  occ. eigenvalues --  -10.26173 -10.25972 -10.25382 -10.25271 -10.25179
 Alpha  occ. eigenvalues --  -10.25044 -10.25005 -10.24810 -10.24642 -10.24151
 Alpha  occ. eigenvalues --  -10.24120 -10.24098 -10.23746 -10.23393 -10.23152
 Alpha  occ. eigenvalues --  -10.23101 -10.22884 -10.22723 -10.22698 -10.22646
 Alpha  occ. eigenvalues --  -10.22604 -10.22565 -10.22072 -10.21949 -10.21891
 Alpha  occ. eigenvalues --  -10.21872 -10.21779 -10.21611 -10.21608 -10.21389
 Alpha  occ. eigenvalues --  -10.21058 -10.20803 -10.20718 -10.20403 -10.20382
 Alpha  occ. eigenvalues --  -10.20343 -10.20213 -10.19768 -10.19561 -10.19255
 Alpha  occ. eigenvalues --  -10.18200  -3.09403  -1.84350  -1.83856  -1.83823
 Alpha  occ. eigenvalues --   -1.12943  -1.12897  -1.08069  -1.07449  -1.05718
 Alpha  occ. eigenvalues --   -1.03092  -1.02442  -0.99943  -0.99273  -0.98663
 Alpha  occ. eigenvalues --   -0.97369  -0.89807  -0.87255  -0.86683  -0.86234
 Alpha  occ. eigenvalues --   -0.86194  -0.85452  -0.84979  -0.84141  -0.83897
 Alpha  occ. eigenvalues --   -0.83387  -0.82905  -0.82457  -0.81467  -0.80293
 Alpha  occ. eigenvalues --   -0.79849  -0.79384  -0.78650  -0.77689  -0.77565
 Alpha  occ. eigenvalues --   -0.76400  -0.75206  -0.74554  -0.73080  -0.72123
 Alpha  occ. eigenvalues --   -0.71969  -0.71745  -0.70420  -0.70229  -0.69876
 Alpha  occ. eigenvalues --   -0.69493  -0.68890  -0.67842  -0.67145  -0.66107
 Alpha  occ. eigenvalues --   -0.65802  -0.65375  -0.64507  -0.63173  -0.63010
 Alpha  occ. eigenvalues --   -0.61544  -0.61249  -0.60760  -0.59896  -0.59353
 Alpha  occ. eigenvalues --   -0.59018  -0.58608  -0.58539  -0.58149  -0.57079
 Alpha  occ. eigenvalues --   -0.56809  -0.56431  -0.55799  -0.55076  -0.54616
 Alpha  occ. eigenvalues --   -0.54322  -0.53874  -0.53428  -0.52782  -0.52336
 Alpha  occ. eigenvalues --   -0.52008  -0.51788  -0.51208  -0.51061  -0.50809
 Alpha  occ. eigenvalues --   -0.50555  -0.50347  -0.50008  -0.49626  -0.49357
 Alpha  occ. eigenvalues --   -0.48830  -0.48777  -0.48699  -0.48056  -0.47954
 Alpha  occ. eigenvalues --   -0.47680  -0.47476  -0.47380  -0.47243  -0.46978
 Alpha  occ. eigenvalues --   -0.46890  -0.46706  -0.46565  -0.46486  -0.46346
 Alpha  occ. eigenvalues --   -0.46022  -0.45802  -0.45638  -0.45282  -0.44974
 Alpha  occ. eigenvalues --   -0.44792  -0.44752  -0.44350  -0.44286  -0.44163
 Alpha  occ. eigenvalues --   -0.43834  -0.43682  -0.43572  -0.43259  -0.43078
 Alpha  occ. eigenvalues --   -0.42702  -0.42516  -0.42020  -0.41928  -0.41737
 Alpha  occ. eigenvalues --   -0.41651  -0.41503  -0.41254  -0.41172  -0.40789
 Alpha  occ. eigenvalues --   -0.40711  -0.40609  -0.40432  -0.40341  -0.40174
 Alpha  occ. eigenvalues --   -0.39753  -0.39719  -0.39413  -0.39274  -0.39126
 Alpha  occ. eigenvalues --   -0.39080  -0.38688  -0.38556  -0.38140  -0.37978
 Alpha  occ. eigenvalues --   -0.37966  -0.37638  -0.37610  -0.37393  -0.37196
 Alpha  occ. eigenvalues --   -0.36859  -0.36523  -0.35944  -0.35813  -0.35810
 Alpha  occ. eigenvalues --   -0.35339  -0.35162  -0.35143  -0.34587  -0.34485
 Alpha  occ. eigenvalues --   -0.34421  -0.34073  -0.33907  -0.33631  -0.33250
 Alpha  occ. eigenvalues --   -0.33149  -0.32667  -0.32379  -0.32169  -0.32073
 Alpha  occ. eigenvalues --   -0.31410  -0.30733  -0.30465  -0.29888  -0.29720
 Alpha  occ. eigenvalues --   -0.28801  -0.28368  -0.28257  -0.28118  -0.27816
 Alpha  occ. eigenvalues --   -0.27761  -0.26970  -0.23587  -0.21353
 Alpha virt. eigenvalues --   -0.08771  -0.06813  -0.02492  -0.00476   0.00135
 Alpha virt. eigenvalues --    0.01878   0.03031   0.03613   0.04477   0.04613
 Alpha virt. eigenvalues --    0.04743   0.06275   0.07767   0.07811   0.09177
 Alpha virt. eigenvalues --    0.09188   0.09790   0.10049   0.10579   0.10910
 Alpha virt. eigenvalues --    0.11186   0.11353   0.11506   0.11887   0.12005
 Alpha virt. eigenvalues --    0.12601   0.12659   0.12755   0.12948   0.12986
 Alpha virt. eigenvalues --    0.13260   0.13470   0.13580   0.13807   0.13882
 Alpha virt. eigenvalues --    0.14314   0.14496   0.14810   0.14817   0.15117
 Alpha virt. eigenvalues --    0.15246   0.15351   0.15453   0.15831   0.15892
 Alpha virt. eigenvalues --    0.16432   0.16492   0.16602   0.16775   0.16879
 Alpha virt. eigenvalues --    0.17141   0.17230   0.17563   0.17710   0.17870
 Alpha virt. eigenvalues --    0.18012   0.18176   0.18269   0.18433   0.18509
 Alpha virt. eigenvalues --    0.18584   0.18752   0.18955   0.19061   0.19374
 Alpha virt. eigenvalues --    0.19491   0.19675   0.19729   0.19769   0.19944
 Alpha virt. eigenvalues --    0.20002   0.20270   0.20507   0.20781   0.21205
 Alpha virt. eigenvalues --    0.21476   0.21806   0.21843   0.22047   0.22059
 Alpha virt. eigenvalues --    0.22138   0.22643   0.22834   0.22920   0.22974
 Alpha virt. eigenvalues --    0.24008   0.24084   0.24353   0.24640   0.24773
 Alpha virt. eigenvalues --    0.25006   0.25123   0.25330   0.25501   0.25882
 Alpha virt. eigenvalues --    0.26038   0.26088   0.26233   0.26318   0.26530
 Alpha virt. eigenvalues --    0.26713   0.26892   0.27022   0.27371   0.27480
 Alpha virt. eigenvalues --    0.27578   0.27929   0.28074   0.28253   0.28613
 Alpha virt. eigenvalues --    0.28891   0.29262   0.29405   0.29480   0.29921
 Alpha virt. eigenvalues --    0.30113   0.30152   0.30233   0.30376   0.30678
 Alpha virt. eigenvalues --    0.31169   0.31241   0.31923   0.32499   0.32663
 Alpha virt. eigenvalues --    0.32842   0.33214   0.33457   0.33574   0.34008
 Alpha virt. eigenvalues --    0.34187   0.35004   0.35707   0.36260   0.36409
 Alpha virt. eigenvalues --    0.36637   0.37515   0.37964   0.38417   0.38545
 Alpha virt. eigenvalues --    0.38608   0.39249   0.39454   0.39926   0.40548
 Alpha virt. eigenvalues --    0.41480   0.42597   0.42954   0.43052   0.43902
 Alpha virt. eigenvalues --    0.44858   0.46623   0.46727   0.47076   0.47470
 Alpha virt. eigenvalues --    0.48118   0.48501   0.49144   0.49255   0.49545
 Alpha virt. eigenvalues --    0.49903   0.50286   0.50527   0.50861   0.51120
 Alpha virt. eigenvalues --    0.51511   0.51803   0.52177   0.52363   0.52830
 Alpha virt. eigenvalues --    0.52909   0.53045   0.53379   0.53823   0.53851
 Alpha virt. eigenvalues --    0.53885   0.54204   0.54585   0.54797   0.55141
 Alpha virt. eigenvalues --    0.55441   0.55610   0.55650   0.55720   0.55914
 Alpha virt. eigenvalues --    0.56040   0.56637   0.56785   0.56950   0.57117
 Alpha virt. eigenvalues --    0.57575   0.57719   0.57892   0.58168   0.58274
 Alpha virt. eigenvalues --    0.58711   0.59207   0.59362   0.59465   0.60129
 Alpha virt. eigenvalues --    0.60352   0.60502   0.60796   0.61012   0.61508
 Alpha virt. eigenvalues --    0.61770   0.61989   0.62136   0.62492   0.62519
 Alpha virt. eigenvalues --    0.62717   0.63006   0.63164   0.63453   0.63572
 Alpha virt. eigenvalues --    0.63978   0.64123   0.64363   0.64374   0.64755
 Alpha virt. eigenvalues --    0.65148   0.65366   0.65817   0.65931   0.66092
 Alpha virt. eigenvalues --    0.66197   0.66726   0.67099   0.67441   0.67598
 Alpha virt. eigenvalues --    0.67926   0.68111   0.68400   0.68764   0.68784
 Alpha virt. eigenvalues --    0.68996   0.69111   0.69381   0.69634   0.69866
 Alpha virt. eigenvalues --    0.70241   0.70584   0.70943   0.71120   0.71342
 Alpha virt. eigenvalues --    0.71601   0.71607   0.71912   0.72178   0.72492
 Alpha virt. eigenvalues --    0.72812   0.72983   0.73377   0.73586   0.74222
 Alpha virt. eigenvalues --    0.74430   0.74604   0.74962   0.75321   0.75710
 Alpha virt. eigenvalues --    0.75766   0.76236   0.76347   0.76432   0.76581
 Alpha virt. eigenvalues --    0.77052   0.77300   0.77538   0.77762   0.77934
 Alpha virt. eigenvalues --    0.78131   0.78319   0.78409   0.78768   0.78785
 Alpha virt. eigenvalues --    0.79143   0.79396   0.79543   0.80011   0.80049
 Alpha virt. eigenvalues --    0.80411   0.80576   0.80681   0.80902   0.81423
 Alpha virt. eigenvalues --    0.81676   0.81907   0.82115   0.82443   0.82876
 Alpha virt. eigenvalues --    0.82995   0.83291   0.83362   0.83497   0.83638
 Alpha virt. eigenvalues --    0.83848   0.84103   0.84159   0.84407   0.84794
 Alpha virt. eigenvalues --    0.85026   0.85164   0.85310   0.85649   0.85939
 Alpha virt. eigenvalues --    0.86218   0.86468   0.86772   0.86862   0.87242
 Alpha virt. eigenvalues --    0.87631   0.87807   0.87915   0.88209   0.88327
 Alpha virt. eigenvalues --    0.88577   0.88799   0.89263   0.89287   0.89476
 Alpha virt. eigenvalues --    0.89707   0.89901   0.89948   0.90106   0.90260
 Alpha virt. eigenvalues --    0.90681   0.90868   0.90966   0.91054   0.91183
 Alpha virt. eigenvalues --    0.91360   0.91502   0.91925   0.92119   0.92458
 Alpha virt. eigenvalues --    0.92599   0.92965   0.93126   0.93339   0.93378
 Alpha virt. eigenvalues --    0.93638   0.93688   0.94011   0.94671   0.94950
 Alpha virt. eigenvalues --    0.95139   0.95183   0.95432   0.95953   0.96104
 Alpha virt. eigenvalues --    0.96264   0.96375   0.96745   0.96813   0.97056
 Alpha virt. eigenvalues --    0.97128   0.97616   0.97710   0.97835   0.98080
 Alpha virt. eigenvalues --    0.98578   0.98910   0.99042   0.99214   0.99310
 Alpha virt. eigenvalues --    0.99522   0.99729   1.00078   1.00472   1.00609
 Alpha virt. eigenvalues --    1.00717   1.00839   1.00938   1.01186   1.01514
 Alpha virt. eigenvalues --    1.01896   1.02156   1.02647   1.02890   1.03244
 Alpha virt. eigenvalues --    1.03410   1.03612   1.03803   1.03875   1.04382
 Alpha virt. eigenvalues --    1.04618   1.04875   1.05004   1.05508   1.05628
 Alpha virt. eigenvalues --    1.05993   1.06248   1.06294   1.06959   1.07240
 Alpha virt. eigenvalues --    1.07624   1.07777   1.08342   1.08610   1.09032
 Alpha virt. eigenvalues --    1.09312   1.09406   1.10027   1.10739   1.10941
 Alpha virt. eigenvalues --    1.11092   1.11520   1.12061   1.12342   1.12872
 Alpha virt. eigenvalues --    1.13051   1.13463   1.13884   1.14435   1.15285
 Alpha virt. eigenvalues --    1.16440   1.16726   1.17323   1.17917   1.19137
 Alpha virt. eigenvalues --    1.19357   1.19520   1.20321   1.20851   1.21098
 Alpha virt. eigenvalues --    1.21534   1.21643   1.21860   1.22991   1.23278
 Alpha virt. eigenvalues --    1.24275   1.24412   1.25016   1.25694   1.25916
 Alpha virt. eigenvalues --    1.26140   1.26830   1.26994   1.28180   1.28365
 Alpha virt. eigenvalues --    1.29118   1.29982   1.30345   1.30630   1.31250
 Alpha virt. eigenvalues --    1.31809   1.31890   1.32480   1.32599   1.34078
 Alpha virt. eigenvalues --    1.34517   1.34772   1.35213   1.35626   1.35892
 Alpha virt. eigenvalues --    1.36366   1.37075   1.37528   1.38019   1.38028
 Alpha virt. eigenvalues --    1.38354   1.38955   1.39372   1.39781   1.40008
 Alpha virt. eigenvalues --    1.40250   1.40876   1.41626   1.42206   1.42590
 Alpha virt. eigenvalues --    1.42798   1.44251   1.45160   1.45320   1.45853
 Alpha virt. eigenvalues --    1.46338   1.46442   1.46529   1.47460   1.48151
 Alpha virt. eigenvalues --    1.48242   1.48803   1.49049   1.49370   1.49982
 Alpha virt. eigenvalues --    1.50254   1.50653   1.51233   1.51331   1.51803
 Alpha virt. eigenvalues --    1.52227   1.52827   1.53046   1.54100   1.54400
 Alpha virt. eigenvalues --    1.54712   1.55540   1.55664   1.55984   1.56566
 Alpha virt. eigenvalues --    1.57094   1.57185   1.58416   1.58506   1.58786
 Alpha virt. eigenvalues --    1.59301   1.60100   1.60689   1.60931   1.61325
 Alpha virt. eigenvalues --    1.61440   1.61617   1.62001   1.62065   1.62776
 Alpha virt. eigenvalues --    1.63453   1.63792   1.64136   1.64613   1.65334
 Alpha virt. eigenvalues --    1.65588   1.66170   1.66415   1.66663   1.66809
 Alpha virt. eigenvalues --    1.67182   1.67680   1.68045   1.68066   1.68568
 Alpha virt. eigenvalues --    1.69032   1.70082   1.70383   1.70443   1.71075
 Alpha virt. eigenvalues --    1.72013   1.72408   1.72672   1.73036   1.73154
 Alpha virt. eigenvalues --    1.73805   1.74248   1.74800   1.75154   1.75662
 Alpha virt. eigenvalues --    1.75960   1.76057   1.76526   1.76948   1.77175
 Alpha virt. eigenvalues --    1.77535   1.78052   1.78301   1.78538   1.78642
 Alpha virt. eigenvalues --    1.79395   1.79782   1.79974   1.80333   1.80345
 Alpha virt. eigenvalues --    1.80516   1.81225   1.81315   1.81528   1.81808
 Alpha virt. eigenvalues --    1.82326   1.82388   1.82499   1.82712   1.83579
 Alpha virt. eigenvalues --    1.83707   1.83848   1.84240   1.84332   1.84532
 Alpha virt. eigenvalues --    1.84665   1.84815   1.85183   1.85225   1.85373
 Alpha virt. eigenvalues --    1.85681   1.86101   1.86358   1.86554   1.86869
 Alpha virt. eigenvalues --    1.87090   1.87443   1.87578   1.87940   1.88304
 Alpha virt. eigenvalues --    1.88539   1.88779   1.89066   1.89321   1.89376
 Alpha virt. eigenvalues --    1.89709   1.89809   1.90144   1.90260   1.90413
 Alpha virt. eigenvalues --    1.90808   1.91424   1.91458   1.91675   1.91991
 Alpha virt. eigenvalues --    1.92278   1.92667   1.92831   1.92977   1.93407
 Alpha virt. eigenvalues --    1.93746   1.94110   1.94223   1.94405   1.94800
 Alpha virt. eigenvalues --    1.94911   1.95241   1.95333   1.95990   1.96564
 Alpha virt. eigenvalues --    1.96764   1.96967   1.97277   1.97645   1.97976
 Alpha virt. eigenvalues --    1.98533   1.98755   1.99214   1.99432   1.99990
 Alpha virt. eigenvalues --    2.00140   2.00349   2.00521   2.00655   2.00792
 Alpha virt. eigenvalues --    2.00980   2.01600   2.01777   2.01932   2.02440
 Alpha virt. eigenvalues --    2.02697   2.02743   2.03283   2.03474   2.03972
 Alpha virt. eigenvalues --    2.04197   2.04329   2.04715   2.05126   2.05182
 Alpha virt. eigenvalues --    2.05526   2.05705   2.05791   2.06024   2.06082
 Alpha virt. eigenvalues --    2.06627   2.06783   2.07090   2.07232   2.07569
 Alpha virt. eigenvalues --    2.07823   2.08221   2.08339   2.08504   2.08536
 Alpha virt. eigenvalues --    2.08696   2.09295   2.09574   2.09687   2.10111
 Alpha virt. eigenvalues --    2.10483   2.10506   2.10988   2.11450   2.11737
 Alpha virt. eigenvalues --    2.11776   2.12039   2.12261   2.12642   2.13236
 Alpha virt. eigenvalues --    2.13385   2.13677   2.13815   2.14395   2.15177
 Alpha virt. eigenvalues --    2.15913   2.16139   2.17598   2.17653   2.17848
 Alpha virt. eigenvalues --    2.18456   2.18703   2.19059   2.19183   2.19808
 Alpha virt. eigenvalues --    2.20151   2.20405   2.21273   2.21648   2.22119
 Alpha virt. eigenvalues --    2.22586   2.22732   2.23042   2.23568   2.24139
 Alpha virt. eigenvalues --    2.24171   2.24435   2.24875   2.25275   2.25319
 Alpha virt. eigenvalues --    2.25581   2.25829   2.26423   2.26435   2.26538
 Alpha virt. eigenvalues --    2.27410   2.27455   2.27498   2.27858   2.27918
 Alpha virt. eigenvalues --    2.28266   2.28585   2.28896   2.29862   2.30062
 Alpha virt. eigenvalues --    2.30077   2.30293   2.30876   2.31397   2.31782
 Alpha virt. eigenvalues --    2.32280   2.32397   2.32543   2.33053   2.33541
 Alpha virt. eigenvalues --    2.33796   2.34271   2.34663   2.34954   2.35102
 Alpha virt. eigenvalues --    2.35420   2.35439   2.35778   2.36223   2.36416
 Alpha virt. eigenvalues --    2.36488   2.37029   2.37459   2.37678   2.37839
 Alpha virt. eigenvalues --    2.38588   2.38838   2.39167   2.39522   2.39656
 Alpha virt. eigenvalues --    2.39805   2.40174   2.40350   2.40683   2.41128
 Alpha virt. eigenvalues --    2.41809   2.41958   2.42074   2.42375   2.42848
 Alpha virt. eigenvalues --    2.42929   2.43237   2.43573   2.43625   2.43851
 Alpha virt. eigenvalues --    2.44467   2.44620   2.44941   2.45194   2.45881
 Alpha virt. eigenvalues --    2.46243   2.46615   2.46815   2.47124   2.47278
 Alpha virt. eigenvalues --    2.47927   2.48045   2.48297   2.48955   2.49063
 Alpha virt. eigenvalues --    2.49499   2.49748   2.50400   2.50554   2.50968
 Alpha virt. eigenvalues --    2.51148   2.51418   2.52183   2.52667   2.53467
 Alpha virt. eigenvalues --    2.53553   2.54111   2.54502   2.55219   2.55605
 Alpha virt. eigenvalues --    2.55963   2.56304   2.56828   2.56892   2.57605
 Alpha virt. eigenvalues --    2.58055   2.58214   2.58374   2.59029   2.59084
 Alpha virt. eigenvalues --    2.59531   2.60094   2.60264   2.60579   2.60957
 Alpha virt. eigenvalues --    2.61163   2.61436   2.61836   2.62482   2.62682
 Alpha virt. eigenvalues --    2.62890   2.63519   2.63821   2.64302   2.64641
 Alpha virt. eigenvalues --    2.64758   2.65252   2.65420   2.65659   2.65822
 Alpha virt. eigenvalues --    2.66267   2.66938   2.67122   2.67625   2.68119
 Alpha virt. eigenvalues --    2.68368   2.68961   2.69168   2.69415   2.69606
 Alpha virt. eigenvalues --    2.69972   2.70918   2.70970   2.71259   2.71759
 Alpha virt. eigenvalues --    2.72003   2.72036   2.72358   2.72737   2.73351
 Alpha virt. eigenvalues --    2.73549   2.73990   2.74406   2.74803   2.75102
 Alpha virt. eigenvalues --    2.75169   2.75328   2.75462   2.76053   2.76329
 Alpha virt. eigenvalues --    2.76730   2.77158   2.77508   2.77796   2.78577
 Alpha virt. eigenvalues --    2.78785   2.79020   2.79459   2.79652   2.80101
 Alpha virt. eigenvalues --    2.80796   2.80858   2.81488   2.81621   2.82015
 Alpha virt. eigenvalues --    2.82204   2.82617   2.82793   2.83168   2.83352
 Alpha virt. eigenvalues --    2.83703   2.84154   2.84609   2.84993   2.85175
 Alpha virt. eigenvalues --    2.85779   2.85919   2.86703   2.86774   2.87370
 Alpha virt. eigenvalues --    2.87652   2.88299   2.88718   2.88871   2.89064
 Alpha virt. eigenvalues --    2.89318   2.89737   2.89754   2.90407   2.90596
 Alpha virt. eigenvalues --    2.91037   2.91493   2.91592   2.92196   2.92468
 Alpha virt. eigenvalues --    2.92572   2.93082   2.93444   2.93577   2.94429
 Alpha virt. eigenvalues --    2.94487   2.95216   2.95815   2.96391   2.97335
 Alpha virt. eigenvalues --    2.97385   2.97739   2.97839   2.98191   2.98768
 Alpha virt. eigenvalues --    2.98989   2.99051   3.00003   3.00280   3.01006
 Alpha virt. eigenvalues --    3.01297   3.02248   3.02326   3.02573   3.03205
 Alpha virt. eigenvalues --    3.04006   3.04422   3.04713   3.05401   3.05889
 Alpha virt. eigenvalues --    3.06408   3.06781   3.07445   3.07595   3.08706
 Alpha virt. eigenvalues --    3.09073   3.09740   3.10145   3.10352   3.10833
 Alpha virt. eigenvalues --    3.12093   3.14315   3.14533   3.15147   3.15188
 Alpha virt. eigenvalues --    3.16021   3.16535   3.16934   3.17916   3.18064
 Alpha virt. eigenvalues --    3.18469   3.20247   3.21555   3.23242   3.23365
 Alpha virt. eigenvalues --    3.23928   3.24168   3.25083   3.25214   3.26252
 Alpha virt. eigenvalues --    3.26458   3.27638   3.27763   3.28274   3.28494
 Alpha virt. eigenvalues --    3.30400   3.30689   3.31827   3.32801   3.32940
 Alpha virt. eigenvalues --    3.33537   3.34890   3.36392   3.37242   3.38569
 Alpha virt. eigenvalues --    3.39494   3.39783   3.40014   3.40062   3.40187
 Alpha virt. eigenvalues --    3.41503   3.42049   3.42861   3.43139   3.43980
 Alpha virt. eigenvalues --    3.45844   3.46148   3.46664   3.46778   3.47785
 Alpha virt. eigenvalues --    3.48392   3.50210   3.50615   3.51752   3.52436
 Alpha virt. eigenvalues --    3.54300   3.54615   3.55938   3.56604   3.57063
 Alpha virt. eigenvalues --    3.57372   3.58910   3.59417   3.60644   3.60823
 Alpha virt. eigenvalues --    3.61146   3.61185   3.61963   3.62070   3.64004
 Alpha virt. eigenvalues --    3.64611   3.64801   3.65244   3.68491   3.68938
 Alpha virt. eigenvalues --    3.69582   3.73044   3.79027   3.87313   3.89655
 Alpha virt. eigenvalues --    4.01441   4.03517   4.05160   4.06636   4.08213
 Alpha virt. eigenvalues --    4.14451   4.16432   4.18199   4.19697   4.21226
 Alpha virt. eigenvalues --    4.21556   4.22579   4.23030   4.25027   4.25906
 Alpha virt. eigenvalues --    4.28136   4.28763   4.30730   4.32116   4.33654
 Alpha virt. eigenvalues --    4.33939   4.36304   4.36734   4.38416   4.38981
 Alpha virt. eigenvalues --    4.39204   4.40679   4.41723   4.42527   4.42697
 Alpha virt. eigenvalues --    4.42935   4.45769   4.46155   4.48156   4.49210
 Alpha virt. eigenvalues --    4.49476   4.51117   4.51406   4.53030   4.54278
 Alpha virt. eigenvalues --    4.55412   4.55853   4.56839   4.57891   4.58427
 Alpha virt. eigenvalues --    4.60183   4.60973   4.64267   4.65904   4.67349
 Alpha virt. eigenvalues --    4.68240   4.68361   4.69944   4.71055   4.73734
 Alpha virt. eigenvalues --    4.76046   4.78342   4.79368   4.81478   4.82672
 Alpha virt. eigenvalues --    4.84190   4.85111   4.86919   4.89107   4.94896
          Condensed to atoms (all electrons):
 Mulliken charges:
               1
     1  Mg   0.807279
     2  C    0.097182
     3  C   -0.169362
     4  C   -0.201723
     5  C   -0.160687
     6  N   -0.652549
     7  C    0.301599
     8  C   -0.164646
     9  C   -0.140019
    10  C    0.383234
    11  C   -0.258263
    12  C   -0.147915
    13  C   -0.267504
    14  C    0.601990
    15  O   -0.496008
    16  O   -0.469986
    17  N   -0.691586
    18  C    0.268683
    19  C    0.041773
    20  C   -0.014579
    21  C    0.353626
    22  C   -0.401144
    23  C    0.268563
    24  O   -0.415150
    25  N   -0.687963
    26  C    0.287785
    27  C   -0.006547
    28  C    0.060669
    29  C    0.298715
    30  C    0.258389
    31  C   -0.259187
    32  C   -0.288739
    33  N   -0.737979
    34  C    0.293471
    35  C   -0.050501
    36  C    0.050748
    37  C    0.306333
    38  C   -0.360767
    39  C    0.377726
    40  O   -0.452251
    41  C   -0.359642
    42  C    0.607210
    43  O   -0.495280
    44  O   -0.428016
    45  C   -0.089129
    46  C    0.011492
    47  C   -0.123078
    48  C    0.167899
    49  C   -0.390209
    50  C   -0.247480
    51  C   -0.164547
    52  C   -0.166669
    53  C   -0.051777
    54  C   -0.315988
    55  C   -0.172750
    56  C   -0.174579
    57  C   -0.192381
    58  C   -0.058635
    59  C   -0.306884
    60  C   -0.181425
    61  C   -0.172479
    62  C   -0.150650
    63  C   -0.074719
    64  C   -0.312813
    65  C   -0.284199
    66  H    0.088851
    67  H    0.135454
    68  H    0.087841
    69  H    0.106429
    70  H    0.115486
    71  H    0.121612
    72  H    0.062505
    73  H    0.101825
    74  H    0.115232
    75  H    0.109177
    76  H    0.121543
    77  H    0.135084
    78  H    0.096172
    79  H    0.157982
    80  H    0.140439
    81  H    0.050728
    82  H    0.122363
    83  H    0.072478
    84  H    0.126284
    85  H    0.111783
    86  H    0.068406
    87  H    0.129528
    88  H    0.150939
    89  H    0.127084
    90  H    0.178877
    91  H    0.124525
    92  H    0.115133
    93  H    0.085681
    94  H    0.141983
    95  H    0.124672
    96  H    0.119174
    97  H    0.069275
    98  H    0.103573
    99  H    0.104187
   100  H    0.109750
   101  H    0.051824
   102  H    0.099442
   103  H    0.091728
   104  H    0.107375
   105  H    0.095387
   106  H    0.075364
   107  H    0.070460
   108  H    0.093728
   109  H    0.100353
   110  H    0.095505
   111  H    0.098186
   112  H    0.082043
   113  H    0.073545
   114  H    0.118216
   115  H    0.095045
   116  H    0.095331
   117  H    0.089459
   118  H    0.063746
   119  H    0.100277
   120  H    0.091777
   121  H    0.101040
   122  H    0.084983
   123  H    0.096584
   124  H    0.067107
   125  H    0.080838
   126  H    0.100630
   127  H    0.097430
   128  H    0.094085
   129  H    0.104293
   130  H    0.126260
   131  H    0.145580
   132  H    0.116705
   133  O   -0.438734
   134  H    0.066376
 Sum of Mulliken charges =  -0.00000
 Mulliken charges with hydrogens summed into heavy atoms:
               1
     1  Mg   0.807279
     2  C    0.097182
     3  C   -0.080511
     4  C   -0.066269
     5  C   -0.072846
     6  N   -0.652549
     7  C    0.301599
     8  C   -0.058218
     9  C   -0.024533
    10  C    0.383234
    11  C    0.027679
    12  C    0.076494
    13  C   -0.010877
    14  C    0.601990
    15  O   -0.496008
    16  O   -0.469986
    17  N   -0.691586
    18  C    0.268683
    19  C    0.041773
    20  C   -0.014579
    21  C    0.353626
    22  C   -0.006550
    23  C    0.319292
    24  O   -0.415150
    25  N   -0.687963
    26  C    0.287785
    27  C   -0.006547
    28  C    0.060669
    29  C    0.298715
    30  C    0.324765
    31  C   -0.064346
    32  C    0.017733
    33  N   -0.737979
    34  C    0.293471
    35  C   -0.050501
    36  C    0.050748
    37  C    0.306333
    38  C    0.046783
    39  C    0.377726
    40  O   -0.452251
    41  C   -0.180765
    42  C    0.607210
    43  O   -0.495280
    44  O   -0.428016
    45  C    0.299417
    46  C    0.251150
    47  C   -0.037397
    48  C    0.167899
    49  C   -0.004380
    50  C   -0.074632
    51  C    0.049390
    52  C   -0.015402
    53  C    0.039950
    54  C   -0.037862
    55  C   -0.008562
    56  C    0.021278
    57  C   -0.012151
    58  C    0.014910
    59  C    0.001708
    60  C   -0.028220
    61  C    0.019574
    62  C    0.035374
    63  C    0.021865
    64  C   -0.064238
    65  C    0.011608
   133  O   -0.438734
 Electronic spatial extent (au):  <R**2>=         146210.6064
 Charge=             -0.0000 electrons
 Dipole moment (field-independent basis, Debye):
    X=              3.5979    Y=             -6.2169    Z=             -0.7576  Tot=              7.2228
 Quadrupole moment (field-independent basis, Debye-Ang):
   XX=           -382.0147   YY=           -438.9083   ZZ=           -394.4798
   XY=              6.6583   XZ=             26.8515   YZ=            -38.3821
 Traceless Quadrupole moment (field-independent basis, Debye-Ang):
   XX=             23.1195   YY=            -33.7740   ZZ=             10.6545
   XY=              6.6583   XZ=             26.8515   YZ=            -38.3821
 Octapole moment (field-independent basis, Debye-Ang**2):
  XXX=           -149.8990  YYY=           -632.9923  ZZZ=            -13.8111  XYY=            250.3992
  XXY=           -127.6307  XXZ=           -196.6290  XZZ=            -79.4933  YZZ=            -24.8259
  YYZ=            -92.6751  XYZ=            217.4773
 Hexadecapole moment (field-independent basis, Debye-Ang**3):
 XXXX=        -159769.7704 YYYY=         -31286.4065 ZZZZ=          -9159.8201 XXXY=          -1835.3498
 XXXZ=           3385.9349 YYYX=           2134.7236 YYYZ=          -1664.2901 ZZZX=            549.6491
 ZZZY=           -424.5283 XXYY=         -34408.9228 XXZZ=         -28454.4292 YYZZ=          -6984.9159
 XXYZ=          -1428.9075 YYXZ=            357.9733 ZZXY=           -345.4653
 N-N= 9.155794527761D+03 E-N=-2.539683179448D+04  KE= 3.017631696124D+03

 Test job not archived.
 1\1\GINC-RYZEN-SSD3\SP\RCAM-B3LYP TD-FC\6-31G(d,p)\C54H68Mg1N4O7\PADAW
 AN\04-Oct-2019\0\\# td=(NStates=1) iop(3/107=0140000000,3/108=01400000
 00) iop(3/107=0140000000,3/108=0140000000) CAM-B3LYP/6-31G(d,p)\\TD\\0
 ,1\Mg,0,-5.6100825149,1.1918340577,0.2019988051\C,0,-5.0148318704,-2.0
 363821015,-0.3779646633\C,0,-3.3438831774,1.2055108359,2.7736327366\C,
 0,-6.1933381295,4.4902322874,0.6871989287\C,0,-7.9457003371,1.20734158
 49,-2.4286705406\N,0,-4.3430585592,-0.240322224,1.1139927381\C,0,-4.27
 93714646,-1.6254062422,0.6964019898\C,0,-3.220835208,-2.3152748303,1.4
 717515389\C,0,-2.9287560466,-1.3018130722,2.6472812842\C,0,-3.57822524
 99,-0.002202848,2.2028448697\C,0,-3.3703000694,-1.6900524466,3.9366563
 65\C,0,-2.0437395672,-2.7739047998,0.6204873542\C,0,-1.0725989034,-3.6
 561431949,1.3708106691\C,0,0.2572208226,-3.9167355143,0.6215303477\O,0
 ,0.4799480591,-3.3908163952,-0.4795041846\O,0,1.0502618719,-4.73269288
 66,1.2712717345\N,0,-5.0497857949,2.6279621731,1.531973429\C,0,-3.9381
 859084,2.3816455863,2.465427146\C,0,-3.6672462283,3.6840869109,3.11577
 21334\C,0,-4.5440549582,4.5963611644,2.5618054518\C,0,-5.2445405583,3.
 9191300082,1.5000861009\C,0,-2.8101763807,3.7730846843,4.3790620956\C,
 0,-4.5885253831,5.9860960301,2.9610256074\O,0,-4.0310931573,6.61186907
 49,3.8090148014\N,0,-6.7856523651,2.6289327891,-0.6688885452\C,0,-6.85
 03077456,3.985378155,-0.3714188306\C,0,-7.8287180582,4.6381005349,-1.3
 219563051\C,0,-8.4004194952,3.6309300229,-1.9759665411\C,0,-7.75317420
 79,2.3666226711,-1.7049464411\C,0,-8.2989928902,5.958785788,-1.1656360
 724\C,0,-9.321456509,3.6701174099,-3.1415187847\C,0,-8.7974111948,4.09
 5487695,-4.4269691009\N,0,-6.4317515942,-0.1344284605,-1.1300480968\C,
 0,-7.4049700266,-0.0264387125,-2.1172959403\C,0,-7.5484823554,-1.41877
 3581,-2.6986823908\C,0,-6.5316427131,-2.2040499768,-2.1167878445\C,0,-
 5.9356919846,-1.4124348086,-1.1503511655\C,0,-8.4574512029,-1.66207633
 36,-3.8431212083\C,0,-6.0826919363,-3.5835539393,-2.0459281479\O,0,-6.
 4544498405,-4.5012378222,-2.7567319383\C,0,-4.9278913512,-3.458043857,
 -0.9533276526\C,0,-5.3758750649,-4.5479302341,0.0529889707\O,0,-5.7152
 072923,-4.403179326,1.2659429577\O,0,-5.0182515234,-5.7686480612,-0.40
 4533598\C,0,-5.2987474389,-6.848616715,0.5620780376\C,0,2.3793689101,-
 5.1489260128,0.6988038348\C,0,3.4083853735,-4.1228624471,1.0592438242\
 C,0,4.0018795782,-3.3251953896,0.1975833933\C,0,3.7370780467,-3.422657
 207,-1.2766571702\C,0,5.1040968355,-2.4123262802,0.6870825071\C,0,6.44
 27391452,-2.6701399392,0.0633077982\C,0,7.5208074043,-1.7225016057,0.6
 092566162\C,0,8.8681576371,-1.8550003336,-0.1419719797\C,0,9.455011882
 9,-3.3317938198,-0.0473881965\C,0,9.9192225014,-0.8162218596,0.3969422
 097\C,0,11.2955568581,-0.8592755345,-0.2534241086\C,0,12.1441020988,0.
 3144160691,0.2395408017\C,0,13.5076032161,0.4207069406,-0.6131060738\C
 ,0,14.41741004,-0.7963590385,-0.3482989808\C,0,14.18020396,1.681874359
 ,-0.228602115\C,0,15.4771819086,2.196267655,-1.0217071657\C,0,15.98089
 06735,3.4960943622,-0.577408354\C,0,17.3277780269,3.8706649081,-1.2955
 834935\C,0,17.0198445742,4.0455594476,-2.7764198662\C,0,17.9475341595,
 5.1312083861,-0.819101369\H,0,-2.8439801208,1.3584201174,3.7220926777\
 H,0,-6.2517631551,5.7001553959,0.7625952512\H,0,-8.778408248,1.2292832
 312,-3.1007755564\H,0,-3.6332143862,-3.30954627,2.0704751083\H,0,-1.89
 55766816,-1.1253001916,2.6980810842\H,0,-3.0379235715,-2.546367798,4.1
 443479788\H,0,-2.823133106,-0.8220321076,4.7479368235\H,0,-4.597502261
 9,-1.7891079917,4.008204771\H,0,-2.481593473,-3.175237041,-0.244855109
 3\H,0,-1.5934071731,-1.7724863649,0.0831264342\H,0,-0.5675721907,-3.07
 80290985,2.2674209608\H,0,-1.4464193635,-4.511518283,1.98272007\H,0,-1
 .6061807319,3.7528648109,4.0875446642\H,0,-3.0186428544,4.8976569717,4
 .6542616839\H,0,-2.8234653415,3.0863496325,5.1744824542\H,0,-5.2665397
 179,6.4657307675,2.209626284\H,0,-9.9001991534,2.7975404111,-3.4178050
 322\H,0,-10.203091107,4.5796318073,-3.0363739281\H,0,-9.4060304028,4.3
 473531493,-5.2244476471\H,0,-8.1846579752,5.0014698924,-4.3869686519\H
 ,0,-8.0518250315,3.2136707259,-4.8633162564\H,0,-8.0521027999,-1.12345
 28882,-4.8214831466\H,0,-8.3672677098,-2.7426776729,-3.8323858756\H,0,
 -9.4227223517,-1.3359204154,-3.4068975965\H,0,-3.8985572131,-3.7936741
 94,-1.2913524221\H,0,2.4496861016,-6.0816061036,1.0329492518\H,0,2.258
 4465881,-5.0745444305,-0.3738508347\H,0,3.5682689492,-4.0829675786,2.1
 179668043\H,0,2.7512701137,-3.9709027114,-1.4824207831\H,0,3.807485361
 8,-2.4414577051,-1.7065131218\H,0,4.5237645505,-3.9567294021,-1.830001
 9261\H,0,4.9234723881,-1.2507114951,0.5119130748\H,0,5.280786606,-2.21
 55331857,1.7127661569\H,0,6.5955170784,-3.7110943015,0.1750553895\H,0,
 6.2638265431,-2.4290805171,-0.940584654\H,0,6.8985387852,-0.7020935345
 ,0.2125284983\H,0,7.6186339663,-1.5716937525,1.6598803733\H,0,8.811235
 2328,-1.7557638516,-1.1780011382\H,0,8.9901335321,-4.1251212835,-0.542
 7280652\H,0,10.4013894797,-3.3939535975,-0.6093110446\H,0,9.6829973611
 ,-3.5299440859,1.1184022829\H,0,9.2906982204,0.1778435106,0.1562309869
 \H,0,9.9116812656,-0.8769942333,1.4675662966\H,0,11.7812032616,-1.8412
 841603,-0.1893133045\H,0,11.2613722239,-0.6141343183,-1.2733386675\H,0
 ,11.5936603995,1.1507195012,0.018012246\H,0,12.2912339467,0.2899401854
 ,1.3294412243\H,0,12.95979278,0.5844828806,-1.5803802767\H,0,14.655464
 8848,-0.6531535281,0.5813238124\H,0,14.1012056916,-1.8860276191,-0.610
 9674182\H,0,15.4273837268,-0.5938025785,-0.6750543979\H,0,13.399938188
 ,2.3539300121,-0.1995617439\H,0,14.5877254728,1.6116414533,0.859273141
 2\H,0,16.2142930851,1.5869173044,-0.862772768\H,0,15.1456001434,2.2924
 131541,-2.0705184315\H,0,15.327494154,4.1873541134,-0.8325252506\H,0,1
 6.1497877489,3.5074073821,0.4272526257\H,0,18.0502187033,3.0807695682,
 -1.3947785575\H,0,16.3598367041,4.9828648154,-3.1243547953\H,0,17.9047
 664001,4.4851780311,-3.4133359387\H,0,16.4540456048,3.1538064506,-3.14
 96229969\H,0,17.9784238896,4.933804598,0.2477264368\H,0,18.9555130736,
 5.0263267849,-1.3663735518\H,0,17.3256641173,5.997259229,-1.1460386652
 \H,0,-5.209476249,-7.8010495381,-0.0738109188\H,0,-6.3145758879,-6.797
 5068373,1.0221057181\H,0,-4.6024684154,-6.8034519208,1.5230767643\O,0,
 -7.8548530769,6.7731138122,-0.3512429083\H,0,-9.0271210092,6.197675412
 4,-1.8952052033\\Version=ES64L-G16RevA.03\State=1-A\HF=-3043.4292455\R
 MSD=4.531e-09\PG=C01 [X(C54H68Mg1N4O7)]\\@


 SOME THINGS ARE EASY, THEY ARE ONLY HARD TO DO.
            -- A. EINSTEIN TO J. O. HIRSCHFELDER
 THE ONLY TROUBLE WITH A SURE THING IS THE UNCERTAINTY.
     -- FROM A TEABAG (BELONGING TO W.H.?)
 Job cpu time:       1 days  4 hours  3 minutes 34.6 seconds.
 Elapsed time:       0 days  7 hours  1 minutes 52.0 seconds.
 File lengths (MBytes):  RWF=   6825 Int=      0 D2E=      0 Chk=    180 Scr=      1
 Normal termination of Gaussian 16 at Fri Oct  4 12:47:11 2019.
