 Entering Gaussian System, Link 0=g16
 Input=Geometria-122-.com
 Output=Geometria-122-.log
 Initial command:
 /usr/local/g16/l1.exe "/home/padawan/israel-mol/chlorophyll-b/spectra/abs/Gau-27693.inp" -scrdir="/home/padawan/israel-mol/chlorophyll-b/spectra/abs/"
 Entering Link 1 = /usr/local/g16/l1.exe PID=     27695.
  
 Copyright (c) 1988,1990,1992,1993,1995,1998,2003,2009,2016,
            Gaussian, Inc.  All Rights Reserved.
  
 This is part of the Gaussian(R) 16 program.  It is based on
 the Gaussian(R) 09 system (copyright 2009, Gaussian, Inc.),
 the Gaussian(R) 03 system (copyright 2003, Gaussian, Inc.),
 the Gaussian(R) 98 system (copyright 1998, Gaussian, Inc.),
 the Gaussian(R) 94 system (copyright 1995, Gaussian, Inc.),
 the Gaussian 92(TM) system (copyright 1992, Gaussian, Inc.),
 the Gaussian 90(TM) system (copyright 1990, Gaussian, Inc.),
 the Gaussian 88(TM) system (copyright 1988, Gaussian, Inc.),
 the Gaussian 86(TM) system (copyright 1986, Carnegie Mellon
 University), and the Gaussian 82(TM) system (copyright 1983,
 Carnegie Mellon University). Gaussian is a federally registered
 trademark of Gaussian, Inc.
  
 This software contains proprietary and confidential information,
 including trade secrets, belonging to Gaussian, Inc.
  
 This software is provided under written license and may be
 used, copied, transmitted, or stored only in accord with that
 written license.
  
 The following legend is applicable only to US Government
 contracts under FAR:
  
                    RESTRICTED RIGHTS LEGEND
  
 Use, reproduction and disclosure by the US Government is
 subject to restrictions as set forth in subparagraphs (a)
 and (c) of the Commercial Computer Software - Restricted
 Rights clause in FAR 52.227-19.
  
 Gaussian, Inc.
 340 Quinnipiac St., Bldg. 40, Wallingford CT 06492
  
  
 ---------------------------------------------------------------
 Warning -- This program may not be used in any manner that
 competes with the business of Gaussian, Inc. or will provide
 assistance to any competitor of Gaussian, Inc.  The licensee
 of this program is prohibited from giving any competitor of
 Gaussian, Inc. access to this program.  By using this program,
 the user acknowledges that Gaussian, Inc. is engaged in the
 business of creating and licensing software in the field of
 computational chemistry and represents and warrants to the
 licensee that it is not a competitor of Gaussian, Inc. and that
 it will not use this program in any manner prohibited above.
 ---------------------------------------------------------------
  

 Cite this work as:
 Gaussian 16, Revision A.03,
 M. J. Frisch, G. W. Trucks, H. B. Schlegel, G. E. Scuseria, 
 M. A. Robb, J. R. Cheeseman, G. Scalmani, V. Barone, 
 G. A. Petersson, H. Nakatsuji, X. Li, M. Caricato, A. V. Marenich, 
 J. Bloino, B. G. Janesko, R. Gomperts, B. Mennucci, H. P. Hratchian, 
 J. V. Ortiz, A. F. Izmaylov, J. L. Sonnenberg, D. Williams-Young, 
 F. Ding, F. Lipparini, F. Egidi, J. Goings, B. Peng, A. Petrone, 
 T. Henderson, D. Ranasinghe, V. G. Zakrzewski, J. Gao, N. Rega, 
 G. Zheng, W. Liang, M. Hada, M. Ehara, K. Toyota, R. Fukuda, 
 J. Hasegawa, M. Ishida, T. Nakajima, Y. Honda, O. Kitao, H. Nakai, 
 T. Vreven, K. Throssell, J. A. Montgomery, Jr., J. E. Peralta, 
 F. Ogliaro, M. J. Bearpark, J. J. Heyd, E. N. Brothers, K. N. Kudin, 
 V. N. Staroverov, T. A. Keith, R. Kobayashi, J. Normand, 
 K. Raghavachari, A. P. Rendell, J. C. Burant, S. S. Iyengar, 
 J. Tomasi, M. Cossi, J. M. Millam, M. Klene, C. Adamo, R. Cammi, 
 J. W. Ochterski, R. L. Martin, K. Morokuma, O. Farkas, 
 J. B. Foresman, and D. J. Fox, Gaussian, Inc., Wallingford CT, 2016.
 
 ******************************************
 Gaussian 16:  ES64L-G16RevA.03 25-Dec-2016
                 9-Oct-2019 
 ******************************************
 %nproc=4
 Will use up to    4 processors via shared memory.
 %Mem=4GB
 ----------------------------------------------------------------------
 # td=(NStates=1) iop(3/107=0140000000,3/108=0140000000) iop(3/107=0140
 000000,3/108=0140000000) CAM-B3LYP/6-31G(d,p)
 ----------------------------------------------------------------------
 1/38=1,172=1/1;
 2/12=2,17=6,18=5,40=1/2;
 3/5=1,6=6,7=101,11=9,25=1,30=1,74=-40,107=140000000,108=140000000/1,2,3,8;
 4//1;
 5/5=2,38=5/2;
 8/6=1,10=2,108=1/1;
 9/41=1,42=1,70=2/14;
 6/7=2,8=2,9=2,10=2/1;
 99/5=1,9=1/99;
 --
 TD
 --
 Symbolic Z-matrix:
 Charge =  0 Multiplicity = 1
 12                   -5.72251   1.18091   0.25914 
 6                    -5.03102  -2.12023  -0.34061 
 6                    -3.43831   1.20457   2.75237 
 6                    -6.22072   4.50814   0.69815 
 6                    -8.00466   1.22398  -2.37664 
 7                    -4.35008  -0.30178   1.02304 
 6                    -4.22455  -1.63763   0.66928 
 6                    -3.1935   -2.29538   1.46455 
 6                    -2.85602  -1.35279   2.65585 
 6                    -3.59317  -0.06123   2.20458 
 6                    -3.35461  -1.8833    3.95505 
 6                    -1.94723  -2.71974   0.69692 
 6                    -0.93131  -3.60123   1.44314 
 6                     0.24496  -3.95708   0.66881 
 8                     0.49314  -3.63232  -0.4737 
 8                     1.1137   -4.76238   1.38651 
 7                    -4.96543   2.54641   1.50995 
 6                    -4.10982   2.40227   2.59223 
 6                    -3.72827   3.54662   3.2224 
 6                    -4.51447   4.55343   2.55032 
 6                    -5.2883    3.89603   1.53791 
 6                    -2.86698   3.69665   4.44357 
 6                    -4.53959   5.94671   2.96768 
 8                    -3.92696   6.54254   3.78562 
 7                    -6.88889   2.58247  -0.82934 
 6                    -6.85924   3.92085  -0.46086 
 6                    -7.80425   4.63157  -1.18274 
 6                    -8.35903   3.68864  -1.99464 
 6                    -7.84096   2.41285  -1.70203 
 6                    -8.10997   6.01459  -1.26209 
 6                    -9.26292   3.81967  -3.19834 
 6                    -8.59828   4.03821  -4.58034 
 7                    -6.48709  -0.12754  -1.03991 
 6                    -7.3622    0.05286  -2.10969 
 6                    -7.59872  -1.31971  -2.76177 
 6                    -6.75546  -2.15284  -2.00692 
 6                    -6.03948  -1.37509  -1.05622 
 6                    -8.60572  -1.62489  -3.92641 
 6                    -6.23871  -3.4845   -2.07423 
 8                    -6.56076  -4.42289  -2.79821 
 6                    -5.13039  -3.60753  -0.92509 
 6                    -5.4062   -4.61113   0.0276 
 8                    -5.81749  -4.46615   1.19056 
 8                    -5.04395  -5.82737  -0.46521 
 6                    -5.46149  -6.89528   0.38847 
 6                     2.37693  -5.04941   0.69079 
 6                     3.31716  -3.92118   0.99759 
 6                     4.04259  -3.169     0.20101 
 6                     3.80684  -3.14132  -1.31298 
 6                     5.04474  -2.26742   0.76426 
 6                     6.52088  -2.61186   0.24284 
 6                     7.63692  -1.70105   0.70662 
 6                     8.99942  -1.98645   0.00726 
 6                     9.54265  -3.37839   0.38533 
 6                     10.02372  -0.86264   0.40031 
 6                     11.33296  -0.86603  -0.32745 
 6                     12.21733   0.32739   0.14957 
 6                     13.58411   0.47768  -0.61568 
 6                     14.47485  -0.74928  -0.50734 
 6                     14.19398   1.82979  -0.20585 
 6                     15.38474   2.18926  -1.07296 
 6                     16.13926   3.4994   -0.7036 
 6                     17.39977   3.86409  -1.45211 
 6                     17.03084   4.09619  -2.9433 
 6                     17.92947   5.14022  -0.8632 
 1                    -3.03159   1.28832   3.68466 
 1                    -6.31144   5.37282   0.74511 
 1                    -8.63033   1.09523  -3.17812 
 1                    -3.51043  -3.10752   1.72612 
 1                    -1.74854  -1.18463   2.98179 
 1                    -2.81174  -2.84083   4.24945 
 1                    -3.09665  -1.17683   4.82907 
 1                    -4.47399  -1.99805   4.10754 
 1                    -2.10612  -3.26699  -0.23243 
 1                    -1.54298  -1.77706   0.28242 
 1                    -0.49406  -3.18006   2.40937 
 1                    -1.48851  -4.53781   1.79991 
 1                    -1.88899   3.30412   4.25708 
 1                    -3.07935   4.82601   4.69093 
 1                    -3.35992   3.16862   5.48671 
 1                    -5.37796   6.43577   2.45948 
 1                    -10.05019   2.86179  -3.36242 
 1                    -9.97622   4.58432  -3.00943 
 1                    -9.28025   4.10905  -5.38213 
 1                    -8.01948   4.86984  -4.71905 
 1                    -7.99484   3.28844  -4.83565 
 1                    -8.26905  -0.82472  -4.6958 
 1                    -8.39697  -2.63713  -4.17248 
 1                    -9.51166  -1.33813  -3.68479 
 1                    -4.15234  -3.80228  -1.29382 
 1                     2.5892   -6.07845   1.26086 
 1                     2.23858  -5.29482  -0.35746 
 1                     3.47748  -4.00235   2.02629 
 1                     2.83927  -3.80681  -1.55002 
 1                     3.66449  -2.06037  -1.44752 
 1                     4.75908  -3.59401  -1.7512 
 1                     4.99887  -1.14329   0.55098 
 1                     4.91912  -2.1798    1.81689 
 1                     6.55302  -3.64106   0.46153 
 1                     6.52596  -2.55252  -0.83243 
 1                     7.52204  -0.52666   0.53668 
 1                     7.75914  -1.64161   1.87428 
 1                     8.89861  -1.9176   -1.04192 
 1                     8.83051  -4.15091   0.24724 
 1                     10.35915  -3.38504  -0.29433 
 1                     9.90164  -3.43002   1.47479 
 1                     9.51676   0.20757   0.34975 
 1                     10.10578  -0.86947   1.44382 
 1                     11.58372  -1.9378   -0.27963 
 1                     11.20048  -0.90734  -1.46953 
 1                     11.60441   1.1476    0.04768 
 1                     12.27966   0.2287    1.2714 
 1                     13.35555   0.61426  -1.85227 
 1                     14.64617  -0.81066   0.50177 
 1                     14.22092  -1.81882  -0.63695 
 1                     15.58472  -0.83347  -0.93272 
 1                     13.42111   2.61432  -0.21491 
 1                     14.58865   1.96609   0.82927 
 1                     16.12312   1.2732   -1.07151 
 1                     15.0376   2.20662  -2.18842 
 1                     15.38367   4.25759  -0.84279 
 1                     16.42407   3.63011   0.50399 
 1                     18.22989   3.09463  -1.56427 
 1                     16.02356   4.72712  -3.09328 
 1                     17.92051   4.32993  -3.43915 
 1                     16.85846   2.96749  -3.23666 
 1                     18.22069   5.03794   0.23228 
 1                     19.08464   5.26219  -1.15629 
 1                     17.40299   6.03603  -0.83676 
 1                    -5.29697  -7.6111   -0.0968 
 1                    -6.54643  -6.75906   0.56539 
 1                    -4.868    -6.99945   1.42584 
 8                    -7.81128   6.84562  -0.43929 
 1                    -8.85174   6.07666  -2.24558 
 
 Stoichiometry    C54H68MgN4O7
 Framework group  C1[X(C54H68MgN4O7)]
 Deg. of freedom   396
 Full point group                 C1      NOp   1
 Largest Abelian subgroup         C1      NOp   1
 Largest concise Abelian subgroup C1      NOp   1
                         Standard orientation:                         
 ---------------------------------------------------------------------
 Center     Atomic      Atomic             Coordinates (Angstroms)
 Number     Number       Type             X           Y           Z
 ---------------------------------------------------------------------
      1         12           0       -5.720666    1.191673    0.265696
      2          6           0       -5.036383   -2.106472   -0.358332
      3          6           0       -3.436956    1.191803    2.759485
      4          6           0       -6.211573    4.516664    0.729210
      5          6           0       -8.002137    1.259319   -2.370149
      6          7           0       -4.351694   -0.299678    1.018877
      7          6           0       -4.229053   -1.633149    0.655262
      8          6           0       -3.199646   -2.299062    1.445851
      9          6           0       -2.860326   -1.366060    2.644162
     10          6           0       -3.594504   -0.069561    2.202307
     11          6           0       -3.360374   -1.905062    3.939297
     12          6           0       -1.954153   -2.720497    0.675355
     13          6           0       -0.940361   -3.609740    1.415227
     14          6           0        0.235287   -3.962467    0.638517
     15          8           0        0.484435   -3.629816   -0.501507
     16          8           0        1.102079   -4.774981    1.350420
     17          7           0       -4.960817    2.546195    1.526723
     18          6           0       -4.105769    2.392142    2.608077
     19          6           0       -3.721813    3.530952    3.246776
     20          6           0       -4.505628    4.544447    2.582009
     21          6           0       -5.280701    3.896279    1.564603
     22          6           0       -2.860455    3.670021    4.469190
     23          6           0       -4.527740    5.934659    3.009654
     24          8           0       -3.913967    6.523056    3.832109
     25          7           0       -6.883692    2.603833   -0.812625
     26          6           0       -6.851144    3.939385   -0.434239
     27          6           0       -7.794413    4.657524   -1.151034
     28          6           0       -8.351111    3.721859   -1.969996
     29          6           0       -7.835948    2.442792   -1.686728
     30          6           0       -8.097050    6.041771   -1.220202
     31          6           0       -9.254453    3.863808   -3.172880
     32          6           0       -8.589031    4.091089   -4.553092
     33          7           0       -6.487864   -0.105427   -1.043157
     34          6           0       -7.362338    0.084826   -2.111743
     35          6           0       -7.601768   -1.282355   -2.774013
     36          6           0       -6.760523   -2.122922   -2.025178
     37          6           0       -6.043029   -1.353818   -1.068611
     38          6           0       -8.609191   -1.576669   -3.941081
     39          6           0       -6.246721   -3.455192   -2.102241
     40          8           0       -6.570702   -4.387477   -2.833204
     41          6           0       -5.138929   -3.589180   -0.953825
     42          6           0       -5.417171   -4.599184   -0.008641
     43          8           0       -5.828389   -4.461898    1.155276
     44          8           0       -5.057524   -5.812554   -0.510361
     45          6           0       -5.477620   -6.885818    0.335310
     46          6           0        2.364819   -5.059664    0.652848
     47          6           0        3.307485   -3.935835    0.968170
     48          6           0        4.034764   -3.179394    0.177328
     49          6           0        3.799395   -3.139988   -1.336467
     50          6           0        5.038791   -2.284239    0.747431
     51          6           0        6.514270   -2.628095    0.223766
     52          6           0        7.632233   -1.723221    0.694497
     53          6           0        8.994248   -2.006471   -0.006677
     54          6           0        9.534302   -3.402370    0.361183
     55          6           0       10.020960   -0.887874    0.394882
     56          6           0       11.330345   -0.888790   -0.332626
     57          6           0       12.217260    0.299092    0.153391
     58          6           0       13.584537    0.452006   -0.610451
     59          6           0       14.472520   -0.777707   -0.511024
     60          6           0       14.197316    1.799683   -0.190509
     61          6           0       15.389067    2.162908   -1.054700
     62          6           0       16.146410    3.468606   -0.675504
     63          6           0       17.407888    3.836020   -1.421041
     64          6           0       17.039797    4.079968   -2.910544
     65          6           0       17.940302    5.106572   -0.822595
     66          1           0       -3.030249    1.267750    3.692448
     67          1           0       -6.300380    5.381171    0.782552
     68          1           0       -8.627926    1.137891   -3.172692
     69          1           0       -3.518436   -3.112401    1.701341
     70          1           0       -1.752548   -1.202777    2.971555
     71          1           0       -2.819699   -2.865945    4.226712
     72          1           0       -3.101035   -1.205650    4.818579
     73          1           0       -4.480040   -2.018445    4.090717
     74          1           0       -2.114054   -3.260498   -0.258060
     75          1           0       -1.547722   -1.775675    0.267914
     76          1           0       -0.502385   -3.196705    2.384632
     77          1           0       -1.499716   -4.547696    1.764950
     78          1           0       -1.883296    3.276711    4.279999
     79          1           0       -3.070365    4.797992    4.724855
     80          1           0       -3.354789    3.135385    5.508301
     81          1           0       -5.364912    6.429324    2.504925
     82          1           0      -10.043818    2.908916   -3.344195
     83          1           0       -9.966091    4.628624   -2.978456
     84          1           0       -9.270665    4.169373   -5.354471
     85          1           0       -8.008355    4.922428   -4.685526
     86          1           0       -7.987202    3.341885   -4.813821
     87          1           0       -8.270586   -0.771579   -4.704463
     88          1           0       -8.402642   -2.587516   -4.194593
     89          1           0       -9.514549   -1.289689   -3.697522
     90          1           0       -4.161236   -3.783367   -1.323789
     91          1           0        2.574680   -6.093363    1.215329
     92          1           0        2.226157   -5.297004   -0.397219
     93          1           0        3.467406   -4.024968    1.996273
     94          1           0        2.830403   -3.801550   -1.578615
     95          1           0        3.659482   -2.057758   -1.463030
     96          1           0        4.750724   -3.591543   -1.777838
     97          1           0        4.995464   -1.158461    0.542462
     98          1           0        4.913138   -2.204128    1.800652
     99          1           0        6.544082   -3.658947    0.434850
    100          1           0        6.519720   -2.560811   -0.851034
    101          1           0        7.520002   -0.547350    0.533233
    102          1           0        7.754332   -1.672695    1.862594
    103          1           0        8.893822   -1.929633   -1.055340
    104          1           0        8.820474   -4.172267    0.217244
    105          1           0       10.350927   -3.405811   -0.318339
    106          1           0        9.892940   -3.462864    1.450306
    107          1           0        9.516389    0.183799    0.352139
    108          1           0       10.102777   -0.902614    1.438330
    109          1           0       11.578715   -1.961447   -0.292689
    110          1           0       11.198015   -0.921361   -1.475004
    111          1           0       11.606188    1.121396    0.057444
    112          1           0       12.279131    0.191972    1.274466
    113          1           0       13.356550    0.598233   -1.846043
    114          1           0       14.643493   -0.846927    0.497640
    115          1           0       14.216244   -1.845688   -0.648590
    116          1           0       15.582296   -0.861207   -0.936789
    117          1           0       13.426198    2.585972   -0.193921
    118          1           0       14.592065    1.927440    0.845670
    119          1           0       16.125410    1.245222   -1.059882
    120          1           0       15.042204    2.189301   -2.170068
    121          1           0       15.392540    4.229480   -0.809226
    122          1           0       16.431248    3.589739    0.533079
    123          1           0       18.236322    3.065564   -1.538722
    124          1           0       16.033961    4.714223   -3.056057
    125          1           0       17.930094    4.315389   -3.404475
    126          1           0       16.864973    2.953849   -3.212287
    127          1           0       18.231053    4.995538    0.272157
    128          1           0       19.095797    5.228140   -1.114551
    129          1           0       17.415808    6.003334   -0.789635
    130          1           0       -5.314588   -7.598391   -0.155214
    131          1           0       -6.562288   -6.748500    0.513016
    132          1           0       -4.884588   -6.998980    1.371996
    133          8           0       -7.796687    6.866024   -0.391222
    134          1           0       -8.838468    6.112768   -2.203359
 ---------------------------------------------------------------------
 Rotational constants (GHZ):           0.0347251           0.0080822           0.0071708
 Standard basis: 6-31G(d,p) (6D, 7F)
 There are  1334 symmetry adapted cartesian basis functions of A   symmetry.
 There are  1334 symmetry adapted basis functions of A   symmetry.
  1334 basis functions,  2348 primitive gaussians,  1334 cartesian basis functions
   244 alpha electrons      244 beta electrons
       nuclear repulsion energy      9126.6663655285 Hartrees.
 NAtoms=  134 NActive=  134 NUniq=  134 SFac= 1.00D+00 NAtFMM=   60 NAOKFM=T Big=T
 Integral buffers will be    131072 words long.
 Raffenetti 1 integral format.
 Two-electron integral symmetry is turned on.
 One-electron integrals computed using PRISM.
 NBasis=  1334 RedAO= T EigKep=  3.48D-04  NBF=  1334
 NBsUse=  1334 1.00D-06 EigRej= -1.00D+00 NBFU=  1334
 ExpMin= 4.21D-02 ExpMax= 1.17D+04 ExpMxC= 1.76D+03 IAcc=3 IRadAn=         5 AccDes= 0.00D+00
 Harris functional with IExCor=20419 and IRadAn=       5 diagonalized for initial guess.
 HarFok:  IExCor=20419 AccDes= 0.00D+00 IRadAn=         5 IDoV= 1 UseB2=F ITyADJ=14
 ICtDFT=  3500011 ScaDFX=  1.000000  1.000000  1.000000  1.000000
 FoFCou: FMM=F IPFlag=           0 FMFlag=      100000 FMFlg1=        2001
         NFxFlg=           0 DoJE=T BraDBF=F KetDBF=T FulRan=T
         wScrn=  0.000000 ICntrl=       500 IOpCl=  0 I1Cent=   200000004 NGrid=           0
         NMat0=    1 NMatS0=      1 NMatT0=    0 NMatD0=    1 NMtDS0=    0 NMtDT0=    0
 Petite list used in FoFCou.
 Requested convergence on RMS density matrix=1.00D-08 within 128 cycles.
 Requested convergence on MAX density matrix=1.00D-06.
 Requested convergence on             energy=1.00D-06.
 No special actions if energy rises.
 SCF Done:  E(RCAM-B3LYP) =  -3043.40853353     A.U. after   16 cycles
            NFock= 16  Conv=0.59D-08     -V/T= 2.0084
 DoSCS=F DFT=T ScalE2(SS,OS)=  1.000000  1.000000
 ExpMin= 4.21D-02 ExpMax= 1.17D+04 ExpMxC= 1.76D+03 IAcc=3 IRadAn=         5 AccDes= 0.00D+00
 HarFok:  IExCor=  205 AccDes= 0.00D+00 IRadAn=         5 IDoV=-2 UseB2=F ITyADJ=14
 ICtDFT= 12500011 ScaDFX=  1.000000  1.000000  1.000000  1.000000
 GSVD:  LWork=       -5460 too small for GESVD, short by       25550 words or       25550 for optimal perf.
 Range of M.O.s used for correlation:    71  1334
 NBasis=  1334 NAE=   244 NBE=   244 NFC=    70 NFV=     0
 NROrb=   1264 NOA=   174 NOB=   174 NVA=  1090 NVB=  1090
 Orbital symmetries:
       Occupied  (A) (A) (A) (A) (A) (A) (A) (A) (A) (A) (A) (A)
                 (A) (A) (A) (A) (A) (A) (A) (A) (A) (A) (A) (A)
                 (A) (A) (A) (A) (A) (A) (A) (A) (A) (A) (A) (A)
                 (A) (A) (A) (A) (A) (A) (A) (A) (A) (A) (A) (A)
                 (A) (A) (A) (A) (A) (A) (A) (A) (A) (A) (A) (A)
                 (A) (A) (A) (A) (A) (A) (A) (A) (A) (A) (A) (A)
                 (A) (A) (A) (A) (A) (A) (A) (A) (A) (A) (A) (A)
                 (A) (A) (A) (A) (A) (A) (A) (A) (A) (A) (A) (A)
                 (A) (A) (A) (A) (A) (A) (A) (A) (A) (A) (A) (A)
                 (A) (A) (A) (A) (A) (A) (A) (A) (A) (A) (A) (A)
                 (A) (A) (A) (A) (A) (A) (A) (A) (A) (A) (A) (A)
                 (A) (A) (A) (A) (A) (A) (A) (A) (A) (A) (A) (A)
                 (A) (A) (A) (A) (A) (A) (A) (A) (A) (A) (A) (A)
                 (A) (A) (A) (A) (A) (A) (A) (A) (A) (A) (A) (A)
                 (A) (A) (A) (A) (A) (A) (A) (A) (A) (A) (A) (A)
                 (A) (A) (A) (A) (A) (A) (A) (A) (A) (A) (A) (A)
                 (A) (A) (A) (A) (A) (A) (A) (A) (A) (A) (A) (A)
                 (A) (A) (A) (A) (A) (A) (A) (A) (A) (A) (A) (A)
                 (A) (A) (A) (A) (A) (A) (A) (A) (A) (A) (A) (A)
                 (A) (A) (A) (A) (A) (A) (A) (A) (A) (A) (A) (A)
                 (A) (A) (A) (A)
       Virtual   (A) (A) (A) (A) (A) (A) (A) (A) (A) (A) (A) (A)
                 (A) (A) (A) (A) (A) (A) (A) (A) (A) (A) (A) (A)
                 (A) (A) (A) (A) (A) (A) (A) (A) (A) (A) (A) (A)
                 (A) (A) (A) (A) (A) (A) (A) (A) (A) (A) (A) (A)
                 (A) (A) (A) (A) (A) (A) (A) (A) (A) (A) (A) (A)
                 (A) (A) (A) (A) (A) (A) (A) (A) (A) (A) (A) (A)
                 (A) (A) (A) (A) (A) (A) (A) (A) (A) (A) (A) (A)
                 (A) (A) (A) (A) (A) (A) (A) (A) (A) (A) (A) (A)
                 (A) (A) (A) (A) (A) (A) (A) (A) (A) (A) (A) (A)
                 (A) (A) (A) (A) (A) (A) (A) (A) (A) (A) (A) (A)
                 (A) (A) (A) (A) (A) (A) (A) (A) (A) (A) (A) (A)
                 (A) (A) (A) (A) (A) (A) (A) (A) (A) (A) (A) (A)
                 (A) (A) (A) (A) (A) (A) (A) (A) (A) (A) (A) (A)
                 (A) (A) (A) (A) (A) (A) (A) (A) (A) (A) (A) (A)
                 (A) (A) (A) (A) (A) (A) (A) (A) (A) (A) (A) (A)
                 (A) (A) (A) (A) (A) (A) (A) (A) (A) (A) (A) (A)
                 (A) (A) (A) (A) (A) (A) (A) (A) (A) (A) (A) (A)
                 (A) (A) (A) (A) (A) (A) (A) (A) (A) (A) (A) (A)
                 (A) (A) (A) (A) (A) (A) (A) (A) (A) (A) (A) (A)
                 (A) (A) (A) (A) (A) (A) (A) (A) (A) (A) (A) (A)
                 (A) (A) (A) (A) (A) (A) (A) (A) (A) (A) (A) (A)
                 (A) (A) (A) (A) (A) (A) (A) (A) (A) (A) (A) (A)
                 (A) (A) (A) (A) (A) (A) (A) (A) (A) (A) (A) (A)
                 (A) (A) (A) (A) (A) (A) (A) (A) (A) (A) (A) (A)
                 (A) (A) (A) (A) (A) (A) (A) (A) (A) (A) (A) (A)
                 (A) (A) (A) (A) (A) (A) (A) (A) (A) (A) (A) (A)
                 (A) (A) (A) (A) (A) (A) (A) (A) (A) (A) (A) (A)
                 (A) (A) (A) (A) (A) (A) (A) (A) (A) (A) (A) (A)
                 (A) (A) (A) (A) (A) (A) (A) (A) (A) (A) (A) (A)
                 (A) (A) (A) (A) (A) (A) (A) (A) (A) (A) (A) (A)
                 (A) (A) (A) (A) (A) (A) (A) (A) (A) (A) (A) (A)
                 (A) (A) (A) (A) (A) (A) (A) (A) (A) (A) (A) (A)
                 (A) (A) (A) (A) (A) (A) (A) (A) (A) (A) (A) (A)
                 (A) (A) (A) (A) (A) (A) (A) (A) (A) (A) (A) (A)
                 (A) (A) (A) (A) (A) (A) (A) (A) (A) (A) (A) (A)
                 (A) (A) (A) (A) (A) (A) (A) (A) (A) (A) (A) (A)
                 (A) (A) (A) (A) (A) (A) (A) (A) (A) (A) (A) (A)
                 (A) (A) (A) (A) (A) (A) (A) (A) (A) (A) (A) (A)
                 (A) (A) (A) (A) (A) (A) (A) (A) (A) (A) (A) (A)
                 (A) (A) (A) (A) (A) (A) (A) (A) (A) (A) (A) (A)
                 (A) (A) (A) (A) (A) (A) (A) (A) (A) (A) (A) (A)
                 (A) (A) (A) (A) (A) (A) (A) (A) (A) (A) (A) (A)
                 (A) (A) (A) (A) (A) (A) (A) (A) (A) (A) (A) (A)
                 (A) (A) (A) (A) (A) (A) (A) (A) (A) (A) (A) (A)
                 (A) (A) (A) (A) (A) (A) (A) (A) (A) (A) (A) (A)
                 (A) (A) (A) (A) (A) (A) (A) (A) (A) (A) (A) (A)
                 (A) (A) (A) (A) (A) (A) (A) (A) (A) (A) (A) (A)
                 (A) (A) (A) (A) (A) (A) (A) (A) (A) (A) (A) (A)
                 (A) (A) (A) (A) (A) (A) (A) (A) (A) (A) (A) (A)
                 (A) (A) (A) (A) (A) (A) (A) (A) (A) (A) (A) (A)
                 (A) (A) (A) (A) (A) (A) (A) (A) (A) (A) (A) (A)
                 (A) (A) (A) (A) (A) (A) (A) (A) (A) (A) (A) (A)
                 (A) (A) (A) (A) (A) (A) (A) (A) (A) (A) (A) (A)
                 (A) (A) (A) (A) (A) (A) (A) (A) (A) (A) (A) (A)
                 (A) (A) (A) (A) (A) (A) (A) (A) (A) (A) (A) (A)
                 (A) (A) (A) (A) (A) (A) (A) (A) (A) (A) (A) (A)
                 (A) (A) (A) (A) (A) (A) (A) (A) (A) (A) (A) (A)
                 (A) (A) (A) (A) (A) (A) (A) (A) (A) (A) (A) (A)
                 (A) (A) (A) (A) (A) (A) (A) (A) (A) (A) (A) (A)
                 (A) (A) (A) (A) (A) (A) (A) (A) (A) (A) (A) (A)
                 (A) (A) (A) (A) (A) (A) (A) (A) (A) (A) (A) (A)
                 (A) (A) (A) (A) (A) (A) (A) (A) (A) (A) (A) (A)
                 (A) (A) (A) (A) (A) (A) (A) (A) (A) (A) (A) (A)
                 (A) (A) (A) (A) (A) (A) (A) (A) (A) (A) (A) (A)
                 (A) (A) (A) (A) (A) (A) (A) (A) (A) (A) (A) (A)
                 (A) (A) (A) (A) (A) (A) (A) (A) (A) (A) (A) (A)
                 (A) (A) (A) (A) (A) (A) (A) (A) (A) (A) (A) (A)
                 (A) (A) (A) (A) (A) (A) (A) (A) (A) (A) (A) (A)
                 (A) (A) (A) (A) (A) (A) (A) (A) (A) (A) (A) (A)
                 (A) (A) (A) (A) (A) (A) (A) (A) (A) (A) (A) (A)
                 (A) (A) (A) (A) (A) (A) (A) (A) (A) (A) (A) (A)
                 (A) (A) (A) (A) (A) (A) (A) (A) (A) (A) (A) (A)
                 (A) (A) (A) (A) (A) (A) (A) (A) (A) (A) (A) (A)
                 (A) (A) (A) (A) (A) (A) (A) (A) (A) (A) (A) (A)
                 (A) (A) (A) (A) (A) (A) (A) (A) (A) (A) (A) (A)
                 (A) (A) (A) (A) (A) (A) (A) (A) (A) (A) (A) (A)
                 (A) (A) (A) (A) (A) (A) (A) (A) (A) (A) (A) (A)
                 (A) (A) (A) (A) (A) (A) (A) (A) (A) (A) (A) (A)
                 (A) (A) (A) (A) (A) (A) (A) (A) (A) (A) (A) (A)
                 (A) (A) (A) (A) (A) (A) (A) (A) (A) (A) (A) (A)
                 (A) (A) (A) (A) (A) (A) (A) (A) (A) (A) (A) (A)
                 (A) (A) (A) (A) (A) (A) (A) (A) (A) (A) (A) (A)
                 (A) (A) (A) (A) (A) (A) (A) (A) (A) (A) (A) (A)
                 (A) (A) (A) (A) (A) (A) (A) (A) (A) (A) (A) (A)
                 (A) (A) (A) (A) (A) (A) (A) (A) (A) (A) (A) (A)
                 (A) (A) (A) (A) (A) (A) (A) (A) (A) (A) (A) (A)
                 (A) (A) (A) (A) (A) (A) (A) (A) (A) (A) (A) (A)
                 (A) (A) (A) (A) (A) (A) (A) (A) (A) (A) (A) (A)
                 (A) (A) (A) (A) (A) (A) (A) (A) (A) (A) (A) (A)
                 (A) (A) (A) (A) (A) (A) (A) (A) (A) (A) (A) (A)
                 (A) (A) (A) (A) (A) (A) (A) (A) (A) (A)
     4 initial guesses have been made.
 Convergence on wavefunction:    0.001000000000000
 Iteration     1 Dimension     4 NMult     0 NNew      4
 CISAX will form     4 AO SS matrices at one time.
 Iteration     2 Dimension     6 NMult     4 NNew      2
 Iteration     3 Dimension     8 NMult     6 NNew      2
 Iteration     4 Dimension    10 NMult     8 NNew      2
 Iteration     5 Dimension    12 NMult    10 NNew      2
 Iteration     6 Dimension    14 NMult    12 NNew      2
 Iteration     7 Dimension    16 NMult    14 NNew      2
 Iteration     8 Dimension    18 NMult    16 NNew      2
 Iteration     9 Dimension    20 NMult    18 NNew      2
 ***********************************************************************
 Excited states from <AA,BB:AA,BB> singles matrix:
 ***********************************************************************
 
 Ground to excited state transition densities written to RWF  633
 Ground to excited state transition electric dipole moments (Au):
       state          X           Y           Z        Dip. S.      Osc.
         1         0.8612      0.6304      1.2260      2.6421      0.1319
 Ground to excited state transition velocity dipole moments (Au):
       state          X           Y           Z        Dip. S.      Osc.
         1        -0.0610     -0.0453     -0.0892      0.0137      0.1222
 Ground to excited state transition magnetic dipole moments (Au):
       state          X           Y           Z
         1        -1.1731     -1.2866      1.4733
 Ground to excited state transition velocity quadrupole moments (Au):
       state          XX          YY          ZZ          XY          XZ          YZ
         1         1.2387      0.0269     -0.2336      0.2901      0.8519     -0.2348
 <0|del|b> * <b|rxdel|0> + <0|del|b> * <b|delr+rdel|0>
 Rotatory Strengths (R) in cgs (10**-40 erg-esu-cm/Gauss)
       state          XX          YY          ZZ    R(velocity)    E-M Angle
         1      -285.6000    -92.8213    363.2289     -5.0641       90.34
 1/2[<0|r|b>*<b|rxdel|0> + (<0|rxdel|b>*<b|r|0>)*]
 Rotatory Strengths (R) in cgs (10**-40 erg-esu-cm/Gauss)
       state          XX          YY          ZZ     R(length)
         1       714.3681    573.5773  -1277.3202      3.5417
  1/2[<0|del|b>*<b|r|0> + (<0|r|b>*<b|del|0>)*] (Au)
       state          X           Y           Z        Dip. S.   Osc.(frdel)
         1        -0.0525     -0.0285     -0.1094      0.1905      0.1270

 Excitation energies and oscillator strengths:
 
 Excited State   1:      Singlet-A      2.0376 eV  608.49 nm  f=0.1319  <S**2>=0.000
     243 -> 245        0.16261
     243 -> 246       -0.28154
     244 -> 245        0.60644
     244 -> 246        0.12998
 This state for optimization and/or second-order correction.
 Total Energy, E(TD-HF/TD-DFT) =  -3043.33365427    
 Copying the excited state density for this state as the 1-particle RhoCI density.
 SavETr:  write IOETrn=   770 NScale= 10 NData=  16 NLR=1 NState=    1 LETran=      28.
 Hyperfine terms turned off by default for NAtoms > 100.

 **********************************************************************

            Population analysis using the SCF density.

 **********************************************************************

 Orbital symmetries:
       Occupied  (A) (A) (A) (A) (A) (A) (A) (A) (A) (A) (A) (A)
                 (A) (A) (A) (A) (A) (A) (A) (A) (A) (A) (A) (A)
                 (A) (A) (A) (A) (A) (A) (A) (A) (A) (A) (A) (A)
                 (A) (A) (A) (A) (A) (A) (A) (A) (A) (A) (A) (A)
                 (A) (A) (A) (A) (A) (A) (A) (A) (A) (A) (A) (A)
                 (A) (A) (A) (A) (A) (A) (A) (A) (A) (A) (A) (A)
                 (A) (A) (A) (A) (A) (A) (A) (A) (A) (A) (A) (A)
                 (A) (A) (A) (A) (A) (A) (A) (A) (A) (A) (A) (A)
                 (A) (A) (A) (A) (A) (A) (A) (A) (A) (A) (A) (A)
                 (A) (A) (A) (A) (A) (A) (A) (A) (A) (A) (A) (A)
                 (A) (A) (A) (A) (A) (A) (A) (A) (A) (A) (A) (A)
                 (A) (A) (A) (A) (A) (A) (A) (A) (A) (A) (A) (A)
                 (A) (A) (A) (A) (A) (A) (A) (A) (A) (A) (A) (A)
                 (A) (A) (A) (A) (A) (A) (A) (A) (A) (A) (A) (A)
                 (A) (A) (A) (A) (A) (A) (A) (A) (A) (A) (A) (A)
                 (A) (A) (A) (A) (A) (A) (A) (A) (A) (A) (A) (A)
                 (A) (A) (A) (A) (A) (A) (A) (A) (A) (A) (A) (A)
                 (A) (A) (A) (A) (A) (A) (A) (A) (A) (A) (A) (A)
                 (A) (A) (A) (A) (A) (A) (A) (A) (A) (A) (A) (A)
                 (A) (A) (A) (A) (A) (A) (A) (A) (A) (A) (A) (A)
                 (A) (A) (A) (A)
       Virtual   (A) (A) (A) (A) (A) (A) (A) (A) (A) (A) (A) (A)
                 (A) (A) (A) (A) (A) (A) (A) (A) (A) (A) (A) (A)
                 (A) (A) (A) (A) (A) (A) (A) (A) (A) (A) (A) (A)
                 (A) (A) (A) (A) (A) (A) (A) (A) (A) (A) (A) (A)
                 (A) (A) (A) (A) (A) (A) (A) (A) (A) (A) (A) (A)
                 (A) (A) (A) (A) (A) (A) (A) (A) (A) (A) (A) (A)
                 (A) (A) (A) (A) (A) (A) (A) (A) (A) (A) (A) (A)
                 (A) (A) (A) (A) (A) (A) (A) (A) (A) (A) (A) (A)
                 (A) (A) (A) (A) (A) (A) (A) (A) (A) (A) (A) (A)
                 (A) (A) (A) (A) (A) (A) (A) (A) (A) (A) (A) (A)
                 (A) (A) (A) (A) (A) (A) (A) (A) (A) (A) (A) (A)
                 (A) (A) (A) (A) (A) (A) (A) (A) (A) (A) (A) (A)
                 (A) (A) (A) (A) (A) (A) (A) (A) (A) (A) (A) (A)
                 (A) (A) (A) (A) (A) (A) (A) (A) (A) (A) (A) (A)
                 (A) (A) (A) (A) (A) (A) (A) (A) (A) (A) (A) (A)
                 (A) (A) (A) (A) (A) (A) (A) (A) (A) (A) (A) (A)
                 (A) (A) (A) (A) (A) (A) (A) (A) (A) (A) (A) (A)
                 (A) (A) (A) (A) (A) (A) (A) (A) (A) (A) (A) (A)
                 (A) (A) (A) (A) (A) (A) (A) (A) (A) (A) (A) (A)
                 (A) (A) (A) (A) (A) (A) (A) (A) (A) (A) (A) (A)
                 (A) (A) (A) (A) (A) (A) (A) (A) (A) (A) (A) (A)
                 (A) (A) (A) (A) (A) (A) (A) (A) (A) (A) (A) (A)
                 (A) (A) (A) (A) (A) (A) (A) (A) (A) (A) (A) (A)
                 (A) (A) (A) (A) (A) (A) (A) (A) (A) (A) (A) (A)
                 (A) (A) (A) (A) (A) (A) (A) (A) (A) (A) (A) (A)
                 (A) (A) (A) (A) (A) (A) (A) (A) (A) (A) (A) (A)
                 (A) (A) (A) (A) (A) (A) (A) (A) (A) (A) (A) (A)
                 (A) (A) (A) (A) (A) (A) (A) (A) (A) (A) (A) (A)
                 (A) (A) (A) (A) (A) (A) (A) (A) (A) (A) (A) (A)
                 (A) (A) (A) (A) (A) (A) (A) (A) (A) (A) (A) (A)
                 (A) (A) (A) (A) (A) (A) (A) (A) (A) (A) (A) (A)
                 (A) (A) (A) (A) (A) (A) (A) (A) (A) (A) (A) (A)
                 (A) (A) (A) (A) (A) (A) (A) (A) (A) (A) (A) (A)
                 (A) (A) (A) (A) (A) (A) (A) (A) (A) (A) (A) (A)
                 (A) (A) (A) (A) (A) (A) (A) (A) (A) (A) (A) (A)
                 (A) (A) (A) (A) (A) (A) (A) (A) (A) (A) (A) (A)
                 (A) (A) (A) (A) (A) (A) (A) (A) (A) (A) (A) (A)
                 (A) (A) (A) (A) (A) (A) (A) (A) (A) (A) (A) (A)
                 (A) (A) (A) (A) (A) (A) (A) (A) (A) (A) (A) (A)
                 (A) (A) (A) (A) (A) (A) (A) (A) (A) (A) (A) (A)
                 (A) (A) (A) (A) (A) (A) (A) (A) (A) (A) (A) (A)
                 (A) (A) (A) (A) (A) (A) (A) (A) (A) (A) (A) (A)
                 (A) (A) (A) (A) (A) (A) (A) (A) (A) (A) (A) (A)
                 (A) (A) (A) (A) (A) (A) (A) (A) (A) (A) (A) (A)
                 (A) (A) (A) (A) (A) (A) (A) (A) (A) (A) (A) (A)
                 (A) (A) (A) (A) (A) (A) (A) (A) (A) (A) (A) (A)
                 (A) (A) (A) (A) (A) (A) (A) (A) (A) (A) (A) (A)
                 (A) (A) (A) (A) (A) (A) (A) (A) (A) (A) (A) (A)
                 (A) (A) (A) (A) (A) (A) (A) (A) (A) (A) (A) (A)
                 (A) (A) (A) (A) (A) (A) (A) (A) (A) (A) (A) (A)
                 (A) (A) (A) (A) (A) (A) (A) (A) (A) (A) (A) (A)
                 (A) (A) (A) (A) (A) (A) (A) (A) (A) (A) (A) (A)
                 (A) (A) (A) (A) (A) (A) (A) (A) (A) (A) (A) (A)
                 (A) (A) (A) (A) (A) (A) (A) (A) (A) (A) (A) (A)
                 (A) (A) (A) (A) (A) (A) (A) (A) (A) (A) (A) (A)
                 (A) (A) (A) (A) (A) (A) (A) (A) (A) (A) (A) (A)
                 (A) (A) (A) (A) (A) (A) (A) (A) (A) (A) (A) (A)
                 (A) (A) (A) (A) (A) (A) (A) (A) (A) (A) (A) (A)
                 (A) (A) (A) (A) (A) (A) (A) (A) (A) (A) (A) (A)
                 (A) (A) (A) (A) (A) (A) (A) (A) (A) (A) (A) (A)
                 (A) (A) (A) (A) (A) (A) (A) (A) (A) (A) (A) (A)
                 (A) (A) (A) (A) (A) (A) (A) (A) (A) (A) (A) (A)
                 (A) (A) (A) (A) (A) (A) (A) (A) (A) (A) (A) (A)
                 (A) (A) (A) (A) (A) (A) (A) (A) (A) (A) (A) (A)
                 (A) (A) (A) (A) (A) (A) (A) (A) (A) (A) (A) (A)
                 (A) (A) (A) (A) (A) (A) (A) (A) (A) (A) (A) (A)
                 (A) (A) (A) (A) (A) (A) (A) (A) (A) (A) (A) (A)
                 (A) (A) (A) (A) (A) (A) (A) (A) (A) (A) (A) (A)
                 (A) (A) (A) (A) (A) (A) (A) (A) (A) (A) (A) (A)
                 (A) (A) (A) (A) (A) (A) (A) (A) (A) (A) (A) (A)
                 (A) (A) (A) (A) (A) (A) (A) (A) (A) (A) (A) (A)
                 (A) (A) (A) (A) (A) (A) (A) (A) (A) (A) (A) (A)
                 (A) (A) (A) (A) (A) (A) (A) (A) (A) (A) (A) (A)
                 (A) (A) (A) (A) (A) (A) (A) (A) (A) (A) (A) (A)
                 (A) (A) (A) (A) (A) (A) (A) (A) (A) (A) (A) (A)
                 (A) (A) (A) (A) (A) (A) (A) (A) (A) (A) (A) (A)
                 (A) (A) (A) (A) (A) (A) (A) (A) (A) (A) (A) (A)
                 (A) (A) (A) (A) (A) (A) (A) (A) (A) (A) (A) (A)
                 (A) (A) (A) (A) (A) (A) (A) (A) (A) (A) (A) (A)
                 (A) (A) (A) (A) (A) (A) (A) (A) (A) (A) (A) (A)
                 (A) (A) (A) (A) (A) (A) (A) (A) (A) (A) (A) (A)
                 (A) (A) (A) (A) (A) (A) (A) (A) (A) (A) (A) (A)
                 (A) (A) (A) (A) (A) (A) (A) (A) (A) (A) (A) (A)
                 (A) (A) (A) (A) (A) (A) (A) (A) (A) (A) (A) (A)
                 (A) (A) (A) (A) (A) (A) (A) (A) (A) (A) (A) (A)
                 (A) (A) (A) (A) (A) (A) (A) (A) (A) (A) (A) (A)
                 (A) (A) (A) (A) (A) (A) (A) (A) (A) (A) (A) (A)
                 (A) (A) (A) (A) (A) (A) (A) (A) (A) (A) (A) (A)
                 (A) (A) (A) (A) (A) (A) (A) (A) (A) (A) (A) (A)
                 (A) (A) (A) (A) (A) (A) (A) (A) (A) (A) (A) (A)
                 (A) (A) (A) (A) (A) (A) (A) (A) (A) (A)
 The electronic state is 1-A.
 Alpha  occ. eigenvalues --  -46.81489 -19.22840 -19.21345 -19.18047 -19.17908
 Alpha  occ. eigenvalues --  -19.17273 -19.17228 -19.17204 -14.39020 -14.37042
 Alpha  occ. eigenvalues --  -14.36527 -14.36504 -10.34878 -10.34731 -10.32231
 Alpha  occ. eigenvalues --  -10.31132 -10.29531 -10.28010 -10.27926 -10.27854
 Alpha  occ. eigenvalues --  -10.27353 -10.27100 -10.26872 -10.26323 -10.25946
 Alpha  occ. eigenvalues --  -10.25909 -10.25559 -10.25202 -10.25122 -10.25115
 Alpha  occ. eigenvalues --  -10.24898 -10.24832 -10.24418 -10.24290 -10.23903
 Alpha  occ. eigenvalues --  -10.23676 -10.23656 -10.23628 -10.23608 -10.23484
 Alpha  occ. eigenvalues --  -10.23210 -10.23098 -10.23080 -10.22530 -10.22464
 Alpha  occ. eigenvalues --  -10.22445 -10.22410 -10.22235 -10.22002 -10.21724
 Alpha  occ. eigenvalues --  -10.21704 -10.21692 -10.21547 -10.21522 -10.21492
 Alpha  occ. eigenvalues --  -10.21413 -10.21377 -10.21171 -10.21088 -10.20972
 Alpha  occ. eigenvalues --  -10.20676 -10.20422 -10.20327 -10.20326 -10.20102
 Alpha  occ. eigenvalues --  -10.19894  -3.10065  -1.85004  -1.84559  -1.84454
 Alpha  occ. eigenvalues --   -1.13576  -1.12238  -1.08756  -1.07978  -1.07073
 Alpha  occ. eigenvalues --   -1.03978  -1.03899  -1.01942  -1.00415  -0.99538
 Alpha  occ. eigenvalues --   -0.98342  -0.88660  -0.86982  -0.86269  -0.86054
 Alpha  occ. eigenvalues --   -0.85270  -0.85250  -0.84441  -0.84416  -0.83840
 Alpha  occ. eigenvalues --   -0.83180  -0.83063  -0.82534  -0.81661  -0.80392
 Alpha  occ. eigenvalues --   -0.79925  -0.78914  -0.78604  -0.77937  -0.76611
 Alpha  occ. eigenvalues --   -0.75775  -0.75361  -0.74531  -0.74193  -0.73065
 Alpha  occ. eigenvalues --   -0.71241  -0.71184  -0.70843  -0.70629  -0.69959
 Alpha  occ. eigenvalues --   -0.69794  -0.69177  -0.68143  -0.67542  -0.67173
 Alpha  occ. eigenvalues --   -0.66692  -0.65359  -0.64847  -0.63116  -0.62507
 Alpha  occ. eigenvalues --   -0.62182  -0.62065  -0.60992  -0.59429  -0.59144
 Alpha  occ. eigenvalues --   -0.58631  -0.58479  -0.57835  -0.57711  -0.57453
 Alpha  occ. eigenvalues --   -0.57148  -0.56491  -0.56319  -0.55584  -0.55262
 Alpha  occ. eigenvalues --   -0.54701  -0.54133  -0.53336  -0.52552  -0.52299
 Alpha  occ. eigenvalues --   -0.52173  -0.51477  -0.50916  -0.50639  -0.50180
 Alpha  occ. eigenvalues --   -0.50074  -0.49894  -0.49312  -0.49088  -0.48923
 Alpha  occ. eigenvalues --   -0.48879  -0.48852  -0.48551  -0.48376  -0.48133
 Alpha  occ. eigenvalues --   -0.47959  -0.47796  -0.47590  -0.47257  -0.47083
 Alpha  occ. eigenvalues --   -0.46950  -0.46686  -0.46629  -0.46585  -0.46309
 Alpha  occ. eigenvalues --   -0.46242  -0.45863  -0.45767  -0.45352  -0.44982
 Alpha  occ. eigenvalues --   -0.44906  -0.44727  -0.44516  -0.44216  -0.44207
 Alpha  occ. eigenvalues --   -0.43939  -0.43569  -0.43361  -0.43229  -0.43071
 Alpha  occ. eigenvalues --   -0.42931  -0.42791  -0.42762  -0.42404  -0.42312
 Alpha  occ. eigenvalues --   -0.42211  -0.41607  -0.41542  -0.41344  -0.41075
 Alpha  occ. eigenvalues --   -0.40937  -0.40820  -0.40664  -0.40428  -0.40163
 Alpha  occ. eigenvalues --   -0.39852  -0.39682  -0.39501  -0.39242  -0.39169
 Alpha  occ. eigenvalues --   -0.39016  -0.38797  -0.38727  -0.38593  -0.38354
 Alpha  occ. eigenvalues --   -0.38028  -0.37862  -0.37835  -0.37478  -0.37401
 Alpha  occ. eigenvalues --   -0.37241  -0.36613  -0.36399  -0.36221  -0.35658
 Alpha  occ. eigenvalues --   -0.35544  -0.35479  -0.35275  -0.35123  -0.34815
 Alpha  occ. eigenvalues --   -0.34370  -0.34059  -0.33537  -0.33392  -0.32908
 Alpha  occ. eigenvalues --   -0.32597  -0.32372  -0.32198  -0.32091  -0.31930
 Alpha  occ. eigenvalues --   -0.31656  -0.30944  -0.30883  -0.30781  -0.30277
 Alpha  occ. eigenvalues --   -0.29127  -0.28713  -0.28575  -0.28293  -0.27811
 Alpha  occ. eigenvalues --   -0.27354  -0.27186  -0.23213  -0.22222
 Alpha virt. eigenvalues --   -0.09002  -0.07115  -0.02007  -0.00790   0.00421
 Alpha virt. eigenvalues --    0.02404   0.03003   0.03146   0.03990   0.04047
 Alpha virt. eigenvalues --    0.04933   0.05647   0.07491   0.08471   0.09209
 Alpha virt. eigenvalues --    0.09721   0.10398   0.10601   0.10659   0.10965
 Alpha virt. eigenvalues --    0.11185   0.11577   0.11845   0.12056   0.12298
 Alpha virt. eigenvalues --    0.12794   0.12833   0.13227   0.13305   0.13539
 Alpha virt. eigenvalues --    0.13564   0.13766   0.13881   0.14077   0.14117
 Alpha virt. eigenvalues --    0.14410   0.14592   0.14638   0.14853   0.15139
 Alpha virt. eigenvalues --    0.15456   0.15550   0.15711   0.15891   0.15929
 Alpha virt. eigenvalues --    0.16574   0.16805   0.16872   0.16973   0.17078
 Alpha virt. eigenvalues --    0.17207   0.17320   0.17525   0.17634   0.17857
 Alpha virt. eigenvalues --    0.18094   0.18224   0.18402   0.18562   0.18634
 Alpha virt. eigenvalues --    0.18917   0.19037   0.19133   0.19285   0.19358
 Alpha virt. eigenvalues --    0.19390   0.19488   0.20078   0.20287   0.20357
 Alpha virt. eigenvalues --    0.20464   0.20740   0.20921   0.21152   0.21271
 Alpha virt. eigenvalues --    0.21561   0.21582   0.22049   0.22183   0.22401
 Alpha virt. eigenvalues --    0.22489   0.22546   0.22659   0.22796   0.22884
 Alpha virt. eigenvalues --    0.23218   0.23331   0.23437   0.23748   0.23787
 Alpha virt. eigenvalues --    0.23803   0.24528   0.24791   0.24823   0.24920
 Alpha virt. eigenvalues --    0.25339   0.25581   0.25639   0.25680   0.25994
 Alpha virt. eigenvalues --    0.26139   0.26266   0.26912   0.27009   0.27163
 Alpha virt. eigenvalues --    0.27417   0.27602   0.27700   0.27789   0.28121
 Alpha virt. eigenvalues --    0.28370   0.28697   0.28950   0.29161   0.29257
 Alpha virt. eigenvalues --    0.29487   0.29763   0.30056   0.30540   0.30669
 Alpha virt. eigenvalues --    0.30860   0.31125   0.31363   0.31554   0.32184
 Alpha virt. eigenvalues --    0.32524   0.32748   0.33024   0.33272   0.34078
 Alpha virt. eigenvalues --    0.34383   0.34638   0.35339   0.36397   0.36501
 Alpha virt. eigenvalues --    0.37658   0.37978   0.38036   0.38405   0.38850
 Alpha virt. eigenvalues --    0.39239   0.39510   0.39828   0.40250   0.41004
 Alpha virt. eigenvalues --    0.41862   0.42554   0.42768   0.43261   0.44334
 Alpha virt. eigenvalues --    0.45136   0.45503   0.46477   0.46614   0.47117
 Alpha virt. eigenvalues --    0.48018   0.48692   0.48948   0.49219   0.50059
 Alpha virt. eigenvalues --    0.50397   0.50464   0.50675   0.51228   0.51356
 Alpha virt. eigenvalues --    0.51928   0.52101   0.52543   0.52738   0.52863
 Alpha virt. eigenvalues --    0.52965   0.53096   0.53406   0.53767   0.53994
 Alpha virt. eigenvalues --    0.54002   0.54051   0.54538   0.54605   0.54971
 Alpha virt. eigenvalues --    0.55210   0.55395   0.55571   0.55669   0.55724
 Alpha virt. eigenvalues --    0.55893   0.56273   0.56493   0.56711   0.56875
 Alpha virt. eigenvalues --    0.57180   0.57543   0.58137   0.58328   0.58421
 Alpha virt. eigenvalues --    0.58891   0.59103   0.59220   0.59448   0.59811
 Alpha virt. eigenvalues --    0.60004   0.60318   0.60605   0.60703   0.60795
 Alpha virt. eigenvalues --    0.61060   0.61504   0.61746   0.61925   0.62022
 Alpha virt. eigenvalues --    0.62516   0.62653   0.62810   0.62845   0.63319
 Alpha virt. eigenvalues --    0.63443   0.63820   0.64069   0.64421   0.64776
 Alpha virt. eigenvalues --    0.65487   0.65593   0.65884   0.66081   0.66307
 Alpha virt. eigenvalues --    0.66451   0.66942   0.67072   0.67257   0.67350
 Alpha virt. eigenvalues --    0.67664   0.67829   0.68157   0.68396   0.68453
 Alpha virt. eigenvalues --    0.68953   0.69078   0.69373   0.69514   0.69801
 Alpha virt. eigenvalues --    0.69975   0.70302   0.70430   0.70787   0.70998
 Alpha virt. eigenvalues --    0.71286   0.71329   0.71893   0.72331   0.72614
 Alpha virt. eigenvalues --    0.72678   0.73263   0.73683   0.73864   0.73976
 Alpha virt. eigenvalues --    0.74104   0.74477   0.74945   0.75167   0.75229
 Alpha virt. eigenvalues --    0.75459   0.75547   0.75563   0.76057   0.76258
 Alpha virt. eigenvalues --    0.76383   0.77113   0.77186   0.77962   0.78020
 Alpha virt. eigenvalues --    0.78169   0.78389   0.78607   0.78822   0.78844
 Alpha virt. eigenvalues --    0.79085   0.79434   0.79543   0.80059   0.80278
 Alpha virt. eigenvalues --    0.80406   0.81104   0.81117   0.81291   0.81581
 Alpha virt. eigenvalues --    0.81648   0.81895   0.82007   0.82541   0.82672
 Alpha virt. eigenvalues --    0.82729   0.82903   0.83241   0.83517   0.83758
 Alpha virt. eigenvalues --    0.83926   0.84643   0.84737   0.85015   0.85176
 Alpha virt. eigenvalues --    0.85236   0.85373   0.85513   0.85589   0.85884
 Alpha virt. eigenvalues --    0.85988   0.86184   0.86265   0.86946   0.87061
 Alpha virt. eigenvalues --    0.87320   0.87557   0.87762   0.88010   0.88450
 Alpha virt. eigenvalues --    0.88601   0.88871   0.89042   0.89263   0.89511
 Alpha virt. eigenvalues --    0.89776   0.89873   0.90201   0.90558   0.90621
 Alpha virt. eigenvalues --    0.90729   0.91082   0.91265   0.91330   0.91543
 Alpha virt. eigenvalues --    0.91743   0.91876   0.91983   0.92078   0.92165
 Alpha virt. eigenvalues --    0.92441   0.92713   0.92875   0.93026   0.93224
 Alpha virt. eigenvalues --    0.93302   0.93690   0.93956   0.94046   0.94056
 Alpha virt. eigenvalues --    0.94384   0.94627   0.94756   0.95109   0.95225
 Alpha virt. eigenvalues --    0.95327   0.95371   0.95860   0.96535   0.96587
 Alpha virt. eigenvalues --    0.96774   0.97145   0.97293   0.97565   0.97698
 Alpha virt. eigenvalues --    0.97782   0.97902   0.98224   0.98470   0.98685
 Alpha virt. eigenvalues --    0.99055   0.99194   0.99377   0.99897   1.00056
 Alpha virt. eigenvalues --    1.00324   1.00343   1.00859   1.01155   1.01753
 Alpha virt. eigenvalues --    1.01893   1.02069   1.02464   1.02667   1.02887
 Alpha virt. eigenvalues --    1.03137   1.03446   1.03533   1.04210   1.04497
 Alpha virt. eigenvalues --    1.04719   1.04919   1.05047   1.05277   1.05677
 Alpha virt. eigenvalues --    1.05907   1.06302   1.06468   1.06757   1.07023
 Alpha virt. eigenvalues --    1.07197   1.07529   1.07884   1.08176   1.08501
 Alpha virt. eigenvalues --    1.09287   1.09612   1.09893   1.10409   1.10778
 Alpha virt. eigenvalues --    1.10936   1.11160   1.11561   1.11903   1.12677
 Alpha virt. eigenvalues --    1.12966   1.14308   1.14385   1.15140   1.16099
 Alpha virt. eigenvalues --    1.16316   1.16819   1.17530   1.18448   1.18992
 Alpha virt. eigenvalues --    1.19469   1.20125   1.20357   1.20510   1.21047
 Alpha virt. eigenvalues --    1.22116   1.22610   1.23269   1.23407   1.23549
 Alpha virt. eigenvalues --    1.24127   1.24480   1.25305   1.25594   1.25962
 Alpha virt. eigenvalues --    1.26618   1.27086   1.27814   1.28230   1.28730
 Alpha virt. eigenvalues --    1.29108   1.30099   1.30525   1.30682   1.31213
 Alpha virt. eigenvalues --    1.31405   1.31938   1.32324   1.33090   1.33312
 Alpha virt. eigenvalues --    1.33766   1.33954   1.34510   1.34870   1.35518
 Alpha virt. eigenvalues --    1.35959   1.36280   1.36604   1.37005   1.37296
 Alpha virt. eigenvalues --    1.37799   1.38281   1.38365   1.38885   1.39323
 Alpha virt. eigenvalues --    1.40128   1.40324   1.40575   1.41428   1.41811
 Alpha virt. eigenvalues --    1.42290   1.42872   1.43531   1.44147   1.44721
 Alpha virt. eigenvalues --    1.44981   1.45569   1.46063   1.46396   1.46602
 Alpha virt. eigenvalues --    1.47508   1.48084   1.48441   1.49305   1.49928
 Alpha virt. eigenvalues --    1.50236   1.50524   1.51275   1.51690   1.52192
 Alpha virt. eigenvalues --    1.52691   1.52742   1.53470   1.53859   1.54555
 Alpha virt. eigenvalues --    1.54704   1.54905   1.55871   1.56326   1.56508
 Alpha virt. eigenvalues --    1.56885   1.57487   1.57783   1.57885   1.58415
 Alpha virt. eigenvalues --    1.58801   1.59167   1.59570   1.60107   1.60173
 Alpha virt. eigenvalues --    1.61096   1.61206   1.61562   1.62203   1.62295
 Alpha virt. eigenvalues --    1.62767   1.62866   1.63183   1.63466   1.64299
 Alpha virt. eigenvalues --    1.64325   1.65340   1.65384   1.65889   1.65951
 Alpha virt. eigenvalues --    1.67420   1.67500   1.67930   1.68562   1.68753
 Alpha virt. eigenvalues --    1.68974   1.69672   1.70054   1.70350   1.70485
 Alpha virt. eigenvalues --    1.71455   1.71737   1.71950   1.72038   1.72483
 Alpha virt. eigenvalues --    1.72649   1.72947   1.73110   1.73620   1.74470
 Alpha virt. eigenvalues --    1.74739   1.74972   1.75328   1.75585   1.75905
 Alpha virt. eigenvalues --    1.76283   1.77042   1.77169   1.77337   1.77637
 Alpha virt. eigenvalues --    1.78361   1.78596   1.78949   1.79358   1.79919
 Alpha virt. eigenvalues --    1.80385   1.80917   1.80984   1.81529   1.81915
 Alpha virt. eigenvalues --    1.82006   1.82521   1.82717   1.82916   1.83439
 Alpha virt. eigenvalues --    1.83568   1.83979   1.84233   1.84299   1.84347
 Alpha virt. eigenvalues --    1.84702   1.84886   1.84955   1.85231   1.85433
 Alpha virt. eigenvalues --    1.85659   1.85955   1.86075   1.86726   1.86895
 Alpha virt. eigenvalues --    1.87172   1.87496   1.87704   1.87808   1.88186
 Alpha virt. eigenvalues --    1.88377   1.88548   1.88704   1.89180   1.89276
 Alpha virt. eigenvalues --    1.89502   1.89599   1.90200   1.90310   1.90587
 Alpha virt. eigenvalues --    1.90932   1.90967   1.91160   1.91370   1.91609
 Alpha virt. eigenvalues --    1.91770   1.92068   1.92497   1.92563   1.92981
 Alpha virt. eigenvalues --    1.93674   1.94094   1.94177   1.94399   1.94786
 Alpha virt. eigenvalues --    1.95185   1.95483   1.95870   1.96177   1.96474
 Alpha virt. eigenvalues --    1.96533   1.96675   1.96834   1.97270   1.97847
 Alpha virt. eigenvalues --    1.98534   1.99108   1.99258   1.99749   1.99878
 Alpha virt. eigenvalues --    2.00181   2.00441   2.00592   2.00652   2.00864
 Alpha virt. eigenvalues --    2.01178   2.01268   2.01603   2.01693   2.01975
 Alpha virt. eigenvalues --    2.02141   2.02431   2.02679   2.03026   2.03692
 Alpha virt. eigenvalues --    2.03863   2.04015   2.04427   2.04575   2.04742
 Alpha virt. eigenvalues --    2.05026   2.05403   2.05678   2.05960   2.06478
 Alpha virt. eigenvalues --    2.06742   2.07001   2.07366   2.07426   2.07795
 Alpha virt. eigenvalues --    2.08006   2.08327   2.08806   2.08885   2.09121
 Alpha virt. eigenvalues --    2.09579   2.10243   2.10641   2.10776   2.11300
 Alpha virt. eigenvalues --    2.11482   2.11910   2.11974   2.12286   2.12444
 Alpha virt. eigenvalues --    2.12755   2.13429   2.13876   2.13987   2.14508
 Alpha virt. eigenvalues --    2.14567   2.15336   2.15855   2.16111   2.16248
 Alpha virt. eigenvalues --    2.16593   2.16954   2.17178   2.17491   2.17729
 Alpha virt. eigenvalues --    2.18070   2.18125   2.18961   2.18972   2.19327
 Alpha virt. eigenvalues --    2.19607   2.19930   2.19948   2.20039   2.21145
 Alpha virt. eigenvalues --    2.21888   2.22017   2.22416   2.22498   2.22662
 Alpha virt. eigenvalues --    2.23334   2.23443   2.23635   2.24120   2.24375
 Alpha virt. eigenvalues --    2.24554   2.25405   2.25697   2.25732   2.26027
 Alpha virt. eigenvalues --    2.26400   2.26478   2.26925   2.27139   2.27901
 Alpha virt. eigenvalues --    2.28190   2.28314   2.28906   2.29032   2.29400
 Alpha virt. eigenvalues --    2.29509   2.29741   2.30398   2.30496   2.30793
 Alpha virt. eigenvalues --    2.30933   2.31249   2.31637   2.32026   2.32568
 Alpha virt. eigenvalues --    2.33337   2.33550   2.33688   2.33835   2.34022
 Alpha virt. eigenvalues --    2.34366   2.35029   2.35504   2.35637   2.35926
 Alpha virt. eigenvalues --    2.36234   2.36813   2.36934   2.37492   2.37569
 Alpha virt. eigenvalues --    2.38118   2.38305   2.38688   2.38777   2.38876
 Alpha virt. eigenvalues --    2.39689   2.39896   2.40501   2.40741   2.41449
 Alpha virt. eigenvalues --    2.41653   2.41907   2.42065   2.42522   2.43060
 Alpha virt. eigenvalues --    2.43440   2.43752   2.43947   2.44078   2.44754
 Alpha virt. eigenvalues --    2.44938   2.45078   2.45961   2.46390   2.46522
 Alpha virt. eigenvalues --    2.46629   2.46749   2.47161   2.48425   2.48666
 Alpha virt. eigenvalues --    2.49024   2.49166   2.49755   2.50381   2.50695
 Alpha virt. eigenvalues --    2.50877   2.51465   2.52005   2.52184   2.52597
 Alpha virt. eigenvalues --    2.52662   2.53002   2.53532   2.53597   2.53936
 Alpha virt. eigenvalues --    2.54018   2.54315   2.54949   2.55343   2.55976
 Alpha virt. eigenvalues --    2.56147   2.56245   2.56314   2.56508   2.56894
 Alpha virt. eigenvalues --    2.56939   2.57619   2.57711   2.58100   2.58949
 Alpha virt. eigenvalues --    2.59088   2.60008   2.60265   2.60598   2.61021
 Alpha virt. eigenvalues --    2.61439   2.61883   2.62178   2.62284   2.62924
 Alpha virt. eigenvalues --    2.63371   2.63539   2.63642   2.64574   2.64691
 Alpha virt. eigenvalues --    2.64892   2.65430   2.66025   2.66340   2.66832
 Alpha virt. eigenvalues --    2.66964   2.67243   2.67403   2.68175   2.68458
 Alpha virt. eigenvalues --    2.68495   2.68896   2.69243   2.69530   2.69847
 Alpha virt. eigenvalues --    2.70061   2.70158   2.70787   2.70888   2.71074
 Alpha virt. eigenvalues --    2.71219   2.71723   2.72202   2.72305   2.72849
 Alpha virt. eigenvalues --    2.73165   2.73376   2.73873   2.74370   2.74636
 Alpha virt. eigenvalues --    2.75075   2.75092   2.75304   2.75744   2.75859
 Alpha virt. eigenvalues --    2.76308   2.76632   2.76697   2.77497   2.77661
 Alpha virt. eigenvalues --    2.78082   2.78677   2.78763   2.79632   2.79679
 Alpha virt. eigenvalues --    2.80315   2.80424   2.80716   2.81324   2.81643
 Alpha virt. eigenvalues --    2.81819   2.82049   2.82642   2.82981   2.83264
 Alpha virt. eigenvalues --    2.83419   2.84144   2.84523   2.84675   2.84985
 Alpha virt. eigenvalues --    2.85213   2.85251   2.85773   2.86793   2.86834
 Alpha virt. eigenvalues --    2.87173   2.87354   2.87669   2.88398   2.89243
 Alpha virt. eigenvalues --    2.89503   2.89840   2.90379   2.90474   2.91101
 Alpha virt. eigenvalues --    2.91256   2.91618   2.92017   2.92264   2.92834
 Alpha virt. eigenvalues --    2.93744   2.93919   2.94380   2.94657   2.94959
 Alpha virt. eigenvalues --    2.95180   2.95327   2.95858   2.96258   2.96589
 Alpha virt. eigenvalues --    2.96623   2.97275   2.97562   2.98103   2.98833
 Alpha virt. eigenvalues --    2.99559   3.00176   3.00628   3.00759   3.01056
 Alpha virt. eigenvalues --    3.01322   3.01785   3.02107   3.02979   3.03265
 Alpha virt. eigenvalues --    3.04060   3.04097   3.05139   3.05894   3.06012
 Alpha virt. eigenvalues --    3.07263   3.07635   3.09120   3.09816   3.10519
 Alpha virt. eigenvalues --    3.11258   3.12291   3.12427   3.13119   3.13223
 Alpha virt. eigenvalues --    3.13800   3.15060   3.15321   3.15843   3.16504
 Alpha virt. eigenvalues --    3.17379   3.17443   3.17871   3.19456   3.20555
 Alpha virt. eigenvalues --    3.20750   3.22460   3.22714   3.23300   3.23768
 Alpha virt. eigenvalues --    3.24181   3.24791   3.26229   3.26792   3.27988
 Alpha virt. eigenvalues --    3.29230   3.29624   3.30365   3.30495   3.31455
 Alpha virt. eigenvalues --    3.31642   3.32507   3.32945   3.33504   3.35907
 Alpha virt. eigenvalues --    3.36405   3.36638   3.36734   3.36985   3.37548
 Alpha virt. eigenvalues --    3.37847   3.38139   3.38353   3.39263   3.39591
 Alpha virt. eigenvalues --    3.40145   3.40664   3.42009   3.42633   3.43069
 Alpha virt. eigenvalues --    3.43508   3.45818   3.46695   3.47991   3.48288
 Alpha virt. eigenvalues --    3.48443   3.50032   3.50376   3.50737   3.51892
 Alpha virt. eigenvalues --    3.52171   3.53338   3.53642   3.53944   3.53959
 Alpha virt. eigenvalues --    3.54671   3.55938   3.56770   3.56815   3.58476
 Alpha virt. eigenvalues --    3.58576   3.63198   3.63611   3.64415   3.65963
 Alpha virt. eigenvalues --    3.66065   3.67185   3.67484   3.67945   3.70278
 Alpha virt. eigenvalues --    3.72759   3.74595   4.01422   4.01986   4.04713
 Alpha virt. eigenvalues --    4.06003   4.07879   4.10758   4.15266   4.17543
 Alpha virt. eigenvalues --    4.17910   4.18191   4.18787   4.20458   4.20857
 Alpha virt. eigenvalues --    4.22196   4.23710   4.23818   4.25772   4.27455
 Alpha virt. eigenvalues --    4.27683   4.28516   4.30136   4.31033   4.32566
 Alpha virt. eigenvalues --    4.33237   4.35108   4.35424   4.36507   4.37840
 Alpha virt. eigenvalues --    4.38820   4.39185   4.39884   4.41539   4.43106
 Alpha virt. eigenvalues --    4.44134   4.45690   4.45777   4.46416   4.48508
 Alpha virt. eigenvalues --    4.49323   4.50709   4.51399   4.53625   4.54066
 Alpha virt. eigenvalues --    4.54952   4.55123   4.56410   4.57519   4.57679
 Alpha virt. eigenvalues --    4.58174   4.62664   4.63772   4.65213   4.66425
 Alpha virt. eigenvalues --    4.66827   4.68868   4.70087   4.73142   4.74011
 Alpha virt. eigenvalues --    4.75407   4.76433   4.79373   4.80343   4.82312
 Alpha virt. eigenvalues --    4.83356   4.84459   4.85242   4.88752   4.94563
          Condensed to atoms (all electrons):
 Mulliken charges:
               1
     1  Mg   0.827971
     2  C    0.026445
     3  C   -0.169555
     4  C   -0.020395
     5  C   -0.136186
     6  N   -0.639264
     7  C    0.322617
     8  C   -0.077423
     9  C   -0.140006
    10  C    0.309264
    11  C   -0.316525
    12  C   -0.192122
    13  C   -0.269208
    14  C    0.621825
    15  O   -0.470899
    16  O   -0.491168
    17  N   -0.704923
    18  C    0.270151
    19  C    0.077789
    20  C   -0.068813
    21  C    0.311590
    22  C   -0.384839
    23  C    0.254541
    24  O   -0.405419
    25  N   -0.671773
    26  C    0.226940
    27  C    0.054219
    28  C    0.000991
    29  C    0.320962
    30  C    0.241136
    31  C   -0.259855
    32  C   -0.315958
    33  N   -0.747489
    34  C    0.258480
    35  C    0.000125
    36  C    0.018415
    37  C    0.357438
    38  C   -0.347022
    39  C    0.350845
    40  O   -0.458433
    41  C   -0.321664
    42  C    0.639867
    43  O   -0.493009
    44  O   -0.452014
    45  C   -0.038964
    46  C   -0.017227
    47  C   -0.109293
    48  C    0.139770
    49  C   -0.350326
    50  C   -0.243005
    51  C   -0.182805
    52  C   -0.168836
    53  C   -0.073628
    54  C   -0.299005
    55  C   -0.176644
    56  C   -0.178989
    57  C   -0.179933
    58  C   -0.034591
    59  C   -0.324483
    60  C   -0.170172
    61  C   -0.180449
    62  C   -0.145300
    63  C   -0.046773
    64  C   -0.290264
    65  C   -0.307561
    66  H    0.072530
    67  H    0.030075
    68  H    0.073865
    69  H    0.100766
    70  H    0.112534
    71  H    0.106031
    72  H    0.099261
    73  H    0.123284
    74  H    0.119425
    75  H    0.120064
    76  H    0.134420
    77  H    0.139306
    78  H    0.136107
    79  H    0.162172
    80  H    0.094393
    81  H    0.060295
    82  H    0.075096
    83  H    0.116458
    84  H    0.113202
    85  H    0.121066
    86  H    0.118374
    87  H    0.120284
    88  H    0.160762
    89  H    0.150835
    90  H    0.169369
    91  H    0.102107
    92  H    0.123499
    93  H    0.080197
    94  H    0.123289
    95  H    0.126392
    96  H    0.110098
    97  H    0.088690
    98  H    0.103248
    99  H    0.109068
   100  H    0.103938
   101  H    0.072533
   102  H    0.073188
   103  H    0.093499
   104  H    0.107105
   105  H    0.105247
   106  H    0.093509
   107  H    0.054989
   108  H    0.098884
   109  H    0.092914
   110  H    0.077789
   111  H    0.111710
   112  H    0.091093
   113  H    0.051596
   114  H    0.117267
   115  H    0.108346
   116  H    0.087668
   117  H    0.092395
   118  H    0.091467
   119  H    0.079652
   120  H    0.082117
   121  H    0.096450
   122  H    0.051591
   123  H    0.085593
   124  H    0.089779
   125  H    0.109581
   126  H    0.084481
   127  H    0.085827
   128  H    0.072963
   129  H    0.117301
   130  H    0.114758
   131  H    0.127953
   132  H    0.099028
   133  O   -0.414871
   134  H    0.036931
 Sum of Mulliken charges =  -0.00000
 Mulliken charges with hydrogens summed into heavy atoms:
               1
     1  Mg   0.827971
     2  C    0.026445
     3  C   -0.097025
     4  C    0.009680
     5  C   -0.062321
     6  N   -0.639264
     7  C    0.322617
     8  C    0.023343
     9  C   -0.027472
    10  C    0.309264
    11  C    0.012051
    12  C    0.047367
    13  C    0.004518
    14  C    0.621825
    15  O   -0.470899
    16  O   -0.491168
    17  N   -0.704923
    18  C    0.270151
    19  C    0.077789
    20  C   -0.068813
    21  C    0.311590
    22  C    0.007833
    23  C    0.314835
    24  O   -0.405419
    25  N   -0.671773
    26  C    0.226940
    27  C    0.054219
    28  C    0.000991
    29  C    0.320962
    30  C    0.278067
    31  C   -0.068302
    32  C    0.036684
    33  N   -0.747489
    34  C    0.258480
    35  C    0.000125
    36  C    0.018415
    37  C    0.357438
    38  C    0.084860
    39  C    0.350845
    40  O   -0.458433
    41  C   -0.152295
    42  C    0.639867
    43  O   -0.493009
    44  O   -0.452014
    45  C    0.302775
    46  C    0.208378
    47  C   -0.029096
    48  C    0.139770
    49  C    0.009453
    50  C   -0.051067
    51  C    0.030200
    52  C   -0.023114
    53  C    0.019871
    54  C    0.006856
    55  C   -0.022770
    56  C   -0.008286
    57  C    0.022870
    58  C    0.017006
    59  C   -0.011201
    60  C    0.013690
    61  C   -0.018681
    62  C    0.002741
    63  C    0.038820
    64  C   -0.006423
    65  C   -0.031471
   133  O   -0.414871
 Electronic spatial extent (au):  <R**2>=         147323.5384
 Charge=             -0.0000 electrons
 Dipole moment (field-independent basis, Debye):
    X=              1.3881    Y=             -5.1813    Z=             -0.8772  Tot=              5.4353
 Quadrupole moment (field-independent basis, Debye-Ang):
   XX=           -373.8885   YY=           -442.6270   ZZ=           -393.4402
   XY=             10.8735   XZ=             28.1117   YZ=            -31.6325
 Traceless Quadrupole moment (field-independent basis, Debye-Ang):
   XX=             29.4301   YY=            -39.3084   ZZ=              9.8783
   XY=             10.8735   XZ=             28.1117   YZ=            -31.6325
 Octapole moment (field-independent basis, Debye-Ang**2):
  XXX=           -225.5364  YYY=           -581.4693  ZZZ=            -19.5573  XYY=            260.2038
  XXY=           -130.7950  XXZ=           -194.5836  XZZ=           -143.7331  YZZ=            -21.2330
  YYZ=            -82.8966  XYZ=            183.6547
 Hexadecapole moment (field-independent basis, Debye-Ang**3):
 XXXX=        -160061.8428 YYYY=         -31241.8607 ZZZZ=          -9323.3094 XXXY=           -821.5022
 XXXZ=           2869.9610 YYYX=           2522.3412 YYYZ=          -1274.8884 ZZZX=            643.6572
 ZZZY=           -400.1539 XXYY=         -34316.3949 XXZZ=         -28723.6954 YYZZ=          -7084.4509
 XXYZ=           -560.7837 YYXZ=            465.1463 ZZXY=           -431.5427
 N-N= 9.126666365529D+03 E-N=-2.533820627040D+04  KE= 3.017925562978D+03

 Test job not archived.
 1\1\GINC-RYZEN-SSD3\SP\RCAM-B3LYP TD-FC\6-31G(d,p)\C54H68Mg1N4O7\PADAW
 AN\09-Oct-2019\0\\# td=(NStates=1) iop(3/107=0140000000,3/108=01400000
 00) iop(3/107=0140000000,3/108=0140000000) CAM-B3LYP/6-31G(d,p)\\TD\\0
 ,1\Mg,0,-5.722513758,1.1809129656,0.2591445197\C,0,-5.0310234895,-2.12
 02304863,-0.3406109279\C,0,-3.4383126204,1.2045707419,2.7523706104\C,0
 ,-6.2207208678,4.5081440786,0.6981500238\C,0,-8.0046562327,1.223983249
 ,-2.376635337\N,0,-4.3500792612,-0.3017783696,1.0230436432\C,0,-4.2245
 459821,-1.6376274643,0.6692792775\C,0,-3.1935024747,-2.2953828411,1.46
 45508188\C,0,-2.8560187729,-1.3527881697,2.6558521413\C,0,-3.593166744
 1,-0.0612287506,2.2045750427\C,0,-3.3546085003,-1.8833017716,3.9550482
 042\C,0,-1.9472299162,-2.7197393832,0.696924998\C,0,-0.931314775,-3.60
 12277034,1.4431379018\C,0,0.2449595965,-3.9570795487,0.6688050752\O,0,
 0.4931393782,-3.6323205457,-0.4737036046\O,0,1.1136982155,-4.762375854
 9,1.3865132586\N,0,-4.965427359,2.5464140183,1.5099512268\C,0,-4.10982
 30721,2.4022676485,2.5922298263\C,0,-3.7282723309,3.5466231645,3.22240
 27965\C,0,-4.5144719999,4.553426871,2.5503243037\C,0,-5.2883049347,3.8
 96027698,1.5379098833\C,0,-2.8669820613,3.6966470405,4.4435685463\C,0,
 -4.5395904896,5.9467120917,2.9676762724\O,0,-3.9269627443,6.5425421422
 ,3.7856224621\N,0,-6.8888926892,2.5824681426,-0.8293445908\C,0,-6.8592
 386387,3.9208517024,-0.4608577745\C,0,-7.804245611,4.6315698818,-1.182
 7423837\C,0,-8.3590253558,3.6886357935,-1.9946384082\C,0,-7.8409629868
 ,2.4128472935,-1.7020261491\C,0,-8.1099739883,6.0145913685,-1.26208571
 74\C,0,-9.2629206554,3.8196723654,-3.1983444672\C,0,-8.5982812818,4.03
 82119674,-4.5803444384\N,0,-6.4870871277,-0.1275377715,-1.0399090829\C
 ,0,-7.3621957492,0.0528592173,-2.1096851792\C,0,-7.5987173789,-1.31971
 3675,-2.7617686995\C,0,-6.7554550943,-2.1528448563,-2.0069168574\C,0,-
 6.0394823636,-1.3750910742,-1.0562217526\C,0,-8.6057160294,-1.62489261
 53,-3.9264095372\C,0,-6.2387075379,-3.4845040343,-2.0742309782\O,0,-6.
 5607604715,-4.4228899874,-2.7982060857\C,0,-5.1303916013,-3.6075288055
 ,-0.9250948293\C,0,-5.4061980972,-4.6111265538,0.0275964314\O,0,-5.817
 4875204,-4.4661456227,1.1905554189\O,0,-5.0439540936,-5.8273739338,-0.
 4652096656\C,0,-5.4614937136,-6.8952813814,0.3884706769\C,0,2.37692866
 61,-5.0494060608,0.6907930337\C,0,3.3171562506,-3.9211822791,0.9975876
 586\C,0,4.0425936496,-3.1689997701,0.2010137364\C,0,3.8068350224,-3.14
 13190732,-1.3129808026\C,0,5.0447408999,-2.2674217898,0.7642602248\C,0
 ,6.520876959,-2.6118641116,0.242835751\C,0,7.6369190155,-1.7010494604,
 0.7066163521\C,0,8.9994207634,-1.9864534789,0.0072629438\C,0,9.5426506
 468,-3.3783884792,0.3853250748\C,0,10.0237229514,-0.8626365011,0.40031
 25468\C,0,11.3329605985,-0.8660262095,-0.3274515114\C,0,12.2173294215,
 0.3273873662,0.1495718048\C,0,13.5841108669,0.4776826382,-0.6156763308
 \C,0,14.4748457836,-0.749284331,-0.5073448854\C,0,14.1939753371,1.8297
 891505,-0.2058498398\C,0,15.3847426647,2.1892569539,-1.0729622912\C,0,
 16.1392565101,3.4994046933,-0.7036009733\C,0,17.3997652256,3.864094251
 ,-1.4521091461\C,0,17.0308356733,4.0961945112,-2.9432965539\C,0,17.929
 4723533,5.1402192872,-0.8631957785\H,0,-3.0315888817,1.2883231077,3.68
 46589343\H,0,-6.3114391227,5.3728226627,0.7451135031\H,0,-8.6303334405
 ,1.0952298259,-3.1781232911\H,0,-3.510432108,-3.107516067,1.7261206729
 \H,0,-1.7485419781,-1.1846261242,2.981789455\H,0,-2.8117409532,-2.8408
 272439,4.2494484888\H,0,-3.0966504577,-1.1768275872,4.8290749373\H,0,-
 4.4739899107,-1.9980488858,4.107544705\H,0,-2.1061159253,-3.2669862159
 ,-0.2324338672\H,0,-1.5429821306,-1.777056822,0.2824163632\H,0,-0.4940
 6484,-3.1800593015,2.4093651552\H,0,-1.488513573,-4.5378109123,1.79991
 17892\H,0,-1.8889890127,3.3041199364,4.2570816179\H,0,-3.079348925,4.8
 26009807,4.6909253502\H,0,-3.3599189869,3.1686178593,5.4867136774\H,0,
 -5.37796086,6.4357677712,2.4594812695\H,0,-10.0501941529,2.8617868358,
 -3.3624194936\H,0,-9.9762184197,4.5843222763,-3.0094312338\H,0,-9.2802
 478246,4.1090493189,-5.3821334156\H,0,-8.0194814575,4.8698367291,-4.71
 90518602\H,0,-7.9948393329,3.2884382026,-4.8356534901\H,0,-8.269054495
 ,-0.8247230152,-4.6958005784\H,0,-8.3969706801,-2.6371271178,-4.172479
 885\H,0,-9.5116612456,-1.3381306365,-3.6847853852\H,0,-4.1523425917,-3
 .8022750541,-1.2938226692\H,0,2.589200053,-6.0784457876,1.2608620431\H
 ,0,2.2385846019,-5.2948164577,-0.3574591955\H,0,3.4774798703,-4.002349
 5168,2.0262876364\H,0,2.8392689136,-3.8068063017,-1.5500175428\H,0,3.6
 644910624,-2.0603695963,-1.4475172222\H,0,4.7590780818,-3.5940131305,-
 1.7512040463\H,0,4.9988699279,-1.1432907531,0.5509769812\H,0,4.9191204
 393,-2.1797996124,1.816886569\H,0,6.553022829,-3.6410572978,0.46153403
 74\H,0,6.5259627567,-2.5525228613,-0.8324338389\H,0,7.5220411354,-0.52
 66559907,0.5366809136\H,0,7.7591380167,-1.6416107442,1.8742818135\H,0,
 8.8986139707,-1.9176000352,-1.0419175299\H,0,8.8305075695,-4.150913862
 8,0.2472409317\H,0,10.3591452553,-3.3850427064,-0.2943295465\H,0,9.901
 6392253,-3.4300240939,1.4747879215\H,0,9.5167608267,0.2075664828,0.349
 7503388\H,0,10.1057806756,-0.8694734812,1.4438239224\H,0,11.5837235137
 ,-1.9378038123,-0.2796323364\H,0,11.2004761343,-0.9073436393,-1.469528
 2864\H,0,11.6044114746,1.1475991891,0.0476752123\H,0,12.2796627896,0.2
 287040618,1.2713954197\H,0,13.3555523559,0.6142558579,-1.8522674654\H,
 0,14.6461739557,-0.8106592786,0.5017658566\H,0,14.2209176628,-1.818820
 8984,-0.6369500165\H,0,15.5847194603,-0.8334665449,-0.9327201645\H,0,1
 3.4211103052,2.6143160507,-0.214913279\H,0,14.5886455649,1.9660868979,
 0.8292701409\H,0,16.1231239682,1.2731959323,-1.0715136421\H,0,15.03759
 93433,2.2066245753,-2.1884202217\H,0,15.3836697716,4.2575911371,-0.842
 7862767\H,0,16.4240651766,3.6301096524,0.5039902994\H,0,18.2298866701,
 3.0946309543,-1.5642655062\H,0,16.0235630767,4.7271192408,-3.093281688
 \H,0,17.9205079743,4.3299325066,-3.43914852\H,0,16.8584560458,2.967487
 8188,-3.2366617008\H,0,18.220688116,5.037935011,0.2322848927\H,0,19.08
 46359859,5.2621903712,-1.1562925437\H,0,17.4029918501,6.0360331064,-0.
 8367577371\H,0,-5.2969749989,-7.6111005432,-0.096803218\H,0,-6.5464290
 732,-6.7590629929,0.5653900465\H,0,-4.8680049691,-6.9994515208,1.42583
 70403\O,0,-7.8112787195,6.8456210629,-0.4392917132\H,0,-8.8517434714,6
 .0766633112,-2.2455802408\\Version=ES64L-G16RevA.03\State=1-A\HF=-3043
 .4085335\RMSD=5.901e-09\PG=C01 [X(C54H68Mg1N4O7)]\\@


 WE DON'T KNOW ONE MILLIONTH OF ONE PERCENT ABOUT
 ANYTHING.
                                     T. A. EDISON.
 Job cpu time:       1 days  4 hours 39 minutes 44.3 seconds.
 Elapsed time:       0 days  7 hours 11 minutes  1.4 seconds.
 File lengths (MBytes):  RWF=   6825 Int=      0 D2E=      0 Chk=    180 Scr=      1
 Normal termination of Gaussian 16 at Wed Oct  9 14:20:17 2019.
