 Entering Gaussian System, Link 0=g16
 Input=Geometria-43-.com
 Output=Geometria-43-.log
 Initial command:
 /usr/local/g16/l1.exe "/home/padawan/israel-mol/chlorophyll-a/spectra/abs_nstates_10/Gau-12007.inp" -scrdir="/home/padawan/israel-mol/chlorophyll-a/spectra/abs_nstates_10/"
 Entering Link 1 = /usr/local/g16/l1.exe PID=     12009.
  
 Copyright (c) 1988,1990,1992,1993,1995,1998,2003,2009,2016,
            Gaussian, Inc.  All Rights Reserved.
  
 This is part of the Gaussian(R) 16 program.  It is based on
 the Gaussian(R) 09 system (copyright 2009, Gaussian, Inc.),
 the Gaussian(R) 03 system (copyright 2003, Gaussian, Inc.),
 the Gaussian(R) 98 system (copyright 1998, Gaussian, Inc.),
 the Gaussian(R) 94 system (copyright 1995, Gaussian, Inc.),
 the Gaussian 92(TM) system (copyright 1992, Gaussian, Inc.),
 the Gaussian 90(TM) system (copyright 1990, Gaussian, Inc.),
 the Gaussian 88(TM) system (copyright 1988, Gaussian, Inc.),
 the Gaussian 86(TM) system (copyright 1986, Carnegie Mellon
 University), and the Gaussian 82(TM) system (copyright 1983,
 Carnegie Mellon University). Gaussian is a federally registered
 trademark of Gaussian, Inc.
  
 This software contains proprietary and confidential information,
 including trade secrets, belonging to Gaussian, Inc.
  
 This software is provided under written license and may be
 used, copied, transmitted, or stored only in accord with that
 written license.
  
 The following legend is applicable only to US Government
 contracts under FAR:
  
                    RESTRICTED RIGHTS LEGEND
  
 Use, reproduction and disclosure by the US Government is
 subject to restrictions as set forth in subparagraphs (a)
 and (c) of the Commercial Computer Software - Restricted
 Rights clause in FAR 52.227-19.
  
 Gaussian, Inc.
 340 Quinnipiac St., Bldg. 40, Wallingford CT 06492
  
  
 ---------------------------------------------------------------
 Warning -- This program may not be used in any manner that
 competes with the business of Gaussian, Inc. or will provide
 assistance to any competitor of Gaussian, Inc.  The licensee
 of this program is prohibited from giving any competitor of
 Gaussian, Inc. access to this program.  By using this program,
 the user acknowledges that Gaussian, Inc. is engaged in the
 business of creating and licensing software in the field of
 computational chemistry and represents and warrants to the
 licensee that it is not a competitor of Gaussian, Inc. and that
 it will not use this program in any manner prohibited above.
 ---------------------------------------------------------------
  

 Cite this work as:
 Gaussian 16, Revision A.03,
 M. J. Frisch, G. W. Trucks, H. B. Schlegel, G. E. Scuseria, 
 M. A. Robb, J. R. Cheeseman, G. Scalmani, V. Barone, 
 G. A. Petersson, H. Nakatsuji, X. Li, M. Caricato, A. V. Marenich, 
 J. Bloino, B. G. Janesko, R. Gomperts, B. Mennucci, H. P. Hratchian, 
 J. V. Ortiz, A. F. Izmaylov, J. L. Sonnenberg, D. Williams-Young, 
 F. Ding, F. Lipparini, F. Egidi, J. Goings, B. Peng, A. Petrone, 
 T. Henderson, D. Ranasinghe, V. G. Zakrzewski, J. Gao, N. Rega, 
 G. Zheng, W. Liang, M. Hada, M. Ehara, K. Toyota, R. Fukuda, 
 J. Hasegawa, M. Ishida, T. Nakajima, Y. Honda, O. Kitao, H. Nakai, 
 T. Vreven, K. Throssell, J. A. Montgomery, Jr., J. E. Peralta, 
 F. Ogliaro, M. J. Bearpark, J. J. Heyd, E. N. Brothers, K. N. Kudin, 
 V. N. Staroverov, T. A. Keith, R. Kobayashi, J. Normand, 
 K. Raghavachari, A. P. Rendell, J. C. Burant, S. S. Iyengar, 
 J. Tomasi, M. Cossi, J. M. Millam, M. Klene, C. Adamo, R. Cammi, 
 J. W. Ochterski, R. L. Martin, K. Morokuma, O. Farkas, 
 J. B. Foresman, and D. J. Fox, Gaussian, Inc., Wallingford CT, 2016.
 
 ******************************************
 Gaussian 16:  ES64L-G16RevA.03 25-Dec-2016
                23-Oct-2019 
 ******************************************
 %nproc=3
 Will use up to    3 processors via shared memory.
 %Mem=2GB
 ----------------------------------------------------------------------
 # td=(NStates=10) iop(3/107=0140000000,3/108=0140000000) CAM-B3LYP/6-3
 1G(d,p)
 ----------------------------------------------------------------------
 1/38=1,172=1/1;
 2/12=2,17=6,18=5,40=1/2;
 3/5=1,6=6,7=101,11=9,25=1,30=1,74=-40,107=140000000,108=140000000/1,2,3,8;
 4//1;
 5/5=2,38=5/2;
 8/6=1,10=2,108=10/1;
 9/41=10,42=1,70=2/14;
 6/7=2,8=2,9=2,10=2/1;
 99/5=1,9=1/99;
 --
 TD
 --
 Symbolic Z-matrix:
 Charge =  0 Multiplicity = 1
 12                   -7.1742    0.61439   0.11931 
 6                    -4.87933  -1.97139   0.49743 
 6                    -4.81258   2.71936   1.10836 
 6                    -9.333     3.06445  -0.37288 
 6                    -9.5324   -1.77277  -0.89636 
 7                    -5.06164   0.46308   0.68314 
 6                    -4.36238  -0.71606   0.75399 
 6                    -2.85687  -0.42733   1.22011 
 6                    -3.02598   0.97177   1.71819 
 6                    -4.31136   1.36487   1.0469 
 6                    -2.87318   1.25218   3.13874 
 6                    -1.90847  -0.65873  -0.0003 
 6                    -0.4887   -0.51241   0.48504 
 6                     0.48291  -0.66588  -0.64168 
 8                     0.21697  -1.18     -1.75758 
 8                     1.8126   -0.34596  -0.29264 
 7                    -7.06959   2.58834   0.41271 
 6                    -5.99724   3.27495   0.7824 
 6                    -6.35562   4.73279   0.90632 
 6                    -7.66016   4.83608   0.43981 
 6                    -8.08355   3.5131    0.1431 
 6                    -5.37497   5.78259   1.33664 
 6                    -8.46718   6.05812   0.23278 
 6                    -8.17639   7.29185   0.03826 
 7                    -9.08893   0.62059  -0.52133 
 6                    -9.85459   1.83491  -0.60415 
 6                    -11.13691   1.51064  -1.06723 
 6                    -11.14788   0.05487  -1.23307 
 6                    -9.93432  -0.35361  -0.80514 
 6                    -12.25744   2.49254  -1.31097 
 6                    -12.37249  -0.74716  -1.56895 
 6                    -12.46371  -1.17463  -3.04184 
 7                    -7.23876  -1.38787  -0.09026 
 6                    -8.24408  -2.29342  -0.62696 
 6                    -7.83884  -3.69339  -0.54701 
 6                    -6.51101  -3.53992  -0.19266 
 6                    -6.18138  -2.13429   0.04558 
 6                    -8.65774  -4.88058  -0.78976 
 6                    -5.30582  -4.45373   0.26032 
 8                    -5.21659  -5.55139   0.23045 
 6                    -4.14856  -3.29294   0.58185 
 6                    -3.45231  -3.64456   1.79447 
 8                    -3.63892  -3.07912   2.92966 
 8                    -2.61566  -4.70671   1.73909 
 6                    -1.9727   -5.36083   2.9155 
 6                     2.81135  -0.56727  -1.34254 
 6                     4.12355  -0.3388   -0.52509 
 6                     5.12563   0.41991  -1.04428 
 6                     5.02953   1.30164  -2.30345 
 6                     6.37145   0.62189  -0.33334 
 6                     7.65138  -0.01138  -0.97893 
 6                     8.85435   0.1012   -0.1827 
 6                     10.13245  -0.38793  -0.94092 
 6                     9.99969  -1.8375   -1.37753 
 6                     11.35495  -0.16469  -0.00358 
 6                     12.70795  -0.34121  -0.63321 
 6                     13.82133  -0.107     0.30292 
 6                     15.29866  -0.19926  -0.41478 
 6                     15.58685  -1.66401  -0.77063 
 6                     16.28667   0.39556   0.47889 
 6                     17.63255   0.51241  -0.05342 
 6                     18.71188   1.14092   0.74701 
 6                     20.12238   1.22306   0.17178 
 6                     20.3002   2.01895  -0.95256 
 6                     21.10544   1.76395   1.32247 
 1                    -3.87077   3.39204   1.32415 
 1                    -9.96112   3.86329  -0.76863 
 1                    -10.1286  -2.58249  -1.25729 
 1                    -2.76278  -1.07417   2.11979 
 1                    -2.18537   1.74385   1.35864 
 1                    -1.75457   1.20096   3.54976 
 1                    -3.40541   2.35218   3.49541 
 1                    -3.31424   0.36446   3.88524 
 1                    -2.24755  -1.65094  -0.43405 
 1                    -2.26843  -0.33575  -0.90629 
 1                    -0.27227   0.54541   1.06684 
 1                    -0.23546  -1.07232   1.25841 
 1                    -4.67613   6.15585   0.38647 
 1                    -5.97481   6.69223   1.64677 
 1                    -4.66391   5.42759   2.09992 
 1                    -9.60907   5.83825   0.12406 
 1                    -8.86646   8.07691   0.10579 
 1                    -7.08197   7.74702   0.24667 
 1                    -11.97763   3.15261  -2.15647 
 1                    -13.2398   1.89314  -1.34962 
 1                    -12.45764   3.10853  -0.24279 
 1                    -12.48859  -1.53175  -0.86862 
 1                    -13.28783  -0.31104  -1.29374 
 1                    -13.18731  -2.05608  -3.00239 
 1                    -12.81379  -0.38564  -3.73481 
 1                    -11.74308  -1.74022  -3.37612 
 1                    -9.33055  -4.82492  -1.69519 
 1                    -7.98248  -5.69227  -0.84945 
 1                    -9.28674  -4.96521   0.13044 
 1                    -3.4815   -3.42989  -0.34655 
 1                    -1.44613  -4.68178   3.5786 
 1                    -2.80455  -5.80071   3.3838 
 1                    -1.28986  -6.01821   2.52509 
 1                     2.72374  -1.58836  -1.59581 
 1                     2.77403   0.04947  -2.11942 
 1                     4.13392  -0.74317   0.44761 
 1                     4.09298   1.42936  -2.90381 
 1                     5.25303   2.18745  -1.89402 
 1                     5.82417   0.9776   -2.96278 
 1                     6.48594   1.581    -0.28919 
 1                     6.19379   0.18264   0.77869 
 1                     7.28776  -1.06559  -1.19412 
 1                     7.6343    0.38882  -1.98669 
 1                     8.9598    1.1953    0.12693 
 1                     8.63336  -0.65505   0.62622 
 1                     10.33811   0.31414  -1.72426 
 1                     9.00929  -2.03611  -1.84334 
 1                     10.85138  -2.24955  -1.97999 
 1                     9.97532  -2.4777   -0.55605 
 1                     11.41172   0.98143   0.15123 
 1                     11.41551  -0.86632   0.80407 
 1                     12.70957  -1.31166  -0.92139 
 1                     12.63713   0.15787  -1.55226 
 1                     13.7164   1.03869   0.77899 
 1                     13.72299  -0.96647   1.17238 
 1                     15.24595   0.55079  -1.24967 
 1                     15.55086  -2.27959   0.0265 
 1                     15.01485  -2.26785  -1.47286 
 1                     16.55831  -1.77207  -1.54645 
 1                     15.6887   1.3779    0.75297 
 1                     16.53975  -0.1432    1.42584 
 1                     17.91623  -0.61828  -0.18887 
 1                     17.68108   1.07776  -1.14484 
 1                     18.32155   2.29085   0.92642 
 1                     18.7885   0.66833   1.66607 
 1                     20.41237   0.2499   -0.04647 
 1                     20.46456   3.09399  -0.53682 
 1                     21.33356   1.65428  -1.34661 
 1                     19.54719   1.93052  -1.76474 
 1                     21.00723   1.35073   2.43923 
 1                     22.18709   1.41338   0.91631 
 1                     20.83616   2.90625   1.56301 
 
 Stoichiometry    C55H72MgN4O5
 Framework group  C1[X(C55H72MgN4O5)]
 Deg. of freedom   405
 Full point group                 C1      NOp   1
 Largest Abelian subgroup         C1      NOp   1
 Largest concise Abelian subgroup C1      NOp   1
                         Standard orientation:                         
 ---------------------------------------------------------------------
 Center     Atomic      Atomic             Coordinates (Angstroms)
 Number     Number       Type             X           Y           Z
 ---------------------------------------------------------------------
      1         12           0       -7.171507    0.622870    0.128458
      2          6           0       -4.879668   -1.968754    0.484300
      3          6           0       -4.806325    2.716961    1.131979
      4          6           0       -9.327544    3.079499   -0.342635
      5          6           0       -9.533663   -1.753198   -0.903893
      6          7           0       -5.058667    0.464413    0.689269
      7          6           0       -4.360881   -0.716147    0.750264
      8          6           0       -2.854597   -0.433022    1.217345
      9          6           0       -3.021478    0.962338    1.726543
     10          6           0       -4.306912    1.362351    1.059457
     11          6           0       -2.867104    1.231394    3.149111
     12          6           0       -1.907530   -0.656060   -0.005654
     13          6           0       -0.487163   -0.515384    0.479600
     14          6           0        0.483287   -0.661258   -0.649115
     15          8           0        0.215741   -1.166259   -1.768787
     16          8           0        1.813687   -0.345802   -0.298722
     17          7           0       -7.064095    2.594320    0.437249
     18          6           0       -5.990536    3.276622    0.811398
     19          6           0       -6.346928    4.733910    0.947065
     20          6           0       -7.651721    4.842541    0.482501
     21          6           0       -8.077078    3.522476    0.175783
     22          6           0       -5.364554    5.779030    1.384773
     23          6           0       -8.457330    6.067205    0.285763
     24          6           0       -8.165107    7.302043    0.100680
     25          7           0       -9.086774    0.636566   -0.510476
     26          6           0       -9.850922    1.852491   -0.583098
     27          6           0      -11.134054    1.533518   -1.047615
     28          6           0      -11.147056    0.079107   -1.224868
     29          6           0       -9.933665   -0.334287   -0.801195
     30          6           0      -12.253523    2.518744   -1.282681
     31          6           0      -12.372983   -0.718677   -1.565982
     32          6           0      -12.466010   -1.134460   -3.042104
     33          7           0       -7.238840   -1.377596   -0.096767
     34          6           0       -8.245786   -2.277605   -0.639695
     35          6           0       -7.842296   -3.678689   -0.571085
     36          6           0       -6.513963   -3.529713   -0.216678
     37          6           0       -6.182316   -2.126424    0.032302
     38          6           0       -8.662933   -4.862878   -0.822439
     39          6           0       -5.309576   -4.448607    0.228089
     40          8           0       -5.221800   -5.546109    0.189522
     41          6           0       -4.150542   -3.291870    0.557722
     42          6           0       -3.453723   -3.653894    1.766949
     43          8           0       -3.638636   -3.097143    2.906698
     44          8           0       -2.618500   -4.716653    1.702519
     45          6           0       -1.975390   -5.380814    2.873208
     46          6           0        2.811266   -0.560148   -1.351178
     47          6           0        4.124444   -0.339796   -0.533081
     48          6           0        5.127066    0.421667   -1.047168
     49          6           0        5.031047    1.313387   -2.299289
     50          6           0        6.373756    0.616459   -0.335728
     51          6           0        7.652317   -0.013377   -0.987363
     52          6           0        8.856107    0.091401   -0.191308
     53          6           0       10.132929   -0.393406   -0.954439
     54          6           0        9.997914   -1.839338   -1.402298
     55          6           0       11.356503   -0.179108   -0.016423
     56          6           0       12.708741   -0.352428   -0.648583
     57          6           0       13.823216   -0.127006    0.288404
     58          6           0       15.299814   -0.215539   -0.431266
     59          6           0       15.585811   -1.677818   -0.798849
     60          6           0       16.289357    0.370979    0.466199
     61          6           0       17.634933    0.490264   -0.066331
     62          6           0       18.715752    1.111076    0.738083
     63          6           0       20.125873    1.195912    0.162306
     64          6           0       20.303772    2.000373   -0.955902
     65          6           0       21.110606    1.726488    1.316365
     66          1           0       -3.863458    3.386713    1.352228
     67          1           0       -9.954965    3.882235   -0.731566
     68          1           0      -10.131215   -2.559291   -1.270657
     69          1           0       -2.760592   -1.087025    2.111841
     70          1           0       -2.180168    1.736136    1.372339
     71          1           0       -1.748218    1.175501    3.558756
     72          1           0       -3.397606    2.329249    3.514867
     73          1           0       -3.308689    0.338410    3.889004
     74          1           0       -2.248265   -1.644397   -0.446885
     75          1           0       -2.267844   -0.325516   -0.908767
     76          1           0       -0.268877    0.537558    1.069501
     77          1           0       -0.233997   -1.081675    1.248336
     78          1           0       -4.666032    6.158838    0.436963
     79          1           0       -5.962950    6.686980    1.702546
     80          1           0       -4.653305    5.417132    2.144637
     81          1           0       -9.599599    5.849664    0.176296
     82          1           0       -8.854102    8.087438    0.174962
     83          1           0       -7.069929    7.754151    0.311718
     84          1           0      -11.973573    3.185070   -2.123214
     85          1           0      -13.236686    1.920936   -1.325189
     86          1           0      -12.452018    3.126590   -0.209522
     87          1           0      -12.489511   -1.508590   -0.871728
     88          1           0      -13.287531   -0.283560   -1.286568
     89          1           0      -13.190714   -2.015254   -3.008954
     90          1           0      -12.815652   -0.339599   -3.728558
     91          1           0      -11.746392   -1.698333   -3.381424
     92          1           0       -9.336445   -4.799239   -1.726826
     93          1           0       -7.988783   -5.674943   -0.889078
     94          1           0       -9.291268   -4.953920    0.097610
     95          1           0       -3.484446   -3.422391   -0.372296
     96          1           0       -1.447374   -4.707669    3.541167
     97          1           0       -2.807408   -5.823287    3.338746
     98          1           0       -1.293733   -6.035988    2.477061
     99          1           0        2.722110   -1.579107   -1.612384
    100          1           0        2.774082    0.062713   -2.123166
    101          1           0        4.135120   -0.751806    0.436398
    102          1           0        4.094155    1.447022   -2.897831
    103          1           0        5.256040    2.195665   -1.883117
    104          1           0        5.824705    0.993502   -2.961823
    105          1           0        6.489525    1.575048   -0.284151
    106          1           0        6.196468    0.168717    0.772971
    107          1           0        7.287148   -1.065390   -1.210515
    108          1           0        7.634904    0.394742   -1.991937
    109          1           0        8.963235    1.182902    0.126806
    110          1           0        8.634819   -0.670894    0.611838
    111          1           0       10.338827    0.314518   -1.732416
    112          1           0        9.006863   -2.033006   -1.868803
    113          1           0       10.848559   -2.247742   -2.008708
    114          1           0        9.973408   -2.485931   -0.585846
    115          1           0       11.414889    0.965687    0.147326
    116          1           0       11.416843   -0.887136    0.785641
    117          1           0       12.708858   -1.320585   -0.944368
    118          1           0       12.637794    0.153938   -1.563626
    119          1           0       13.720179    1.015040    0.773548
    120          1           0       13.724499   -0.993149    1.151180
    121          1           0       15.247371    0.541116   -1.260198
    122          1           0       15.549693   -2.299595   -0.006545
    123          1           0       15.012431   -2.275395   -1.505297
    124          1           0       16.556474   -1.781039   -1.576318
    125          1           0       15.692895    1.351901    0.748495
    126          1           0       16.542534   -0.175528    1.408673
    127          1           0       17.917035   -0.639691   -0.210896
    128          1           0       17.683271    1.064101   -1.153316
    129          1           0       18.327069    2.260070    0.926848
    130          1           0       18.792536    0.631192    1.653345
    131          1           0       20.414418    0.224126   -0.063818
    132          1           0       20.469881    3.071905   -0.531881
    133          1           0       21.336324    1.637480   -1.353683
    134          1           0       19.549956    1.919299   -1.768102
    135          1           0       21.012809    1.304644    2.429936
    136          1           0       22.191461    1.377722    0.906536
    137          1           0       20.843008    2.867214    1.566097
 ---------------------------------------------------------------------
 Rotational constants (GHZ):           0.0651031           0.0061455           0.0057841
 Standard basis: 6-31G(d,p) (6D, 7F)
 There are  1339 symmetry adapted cartesian basis functions of A   symmetry.
 There are  1339 symmetry adapted basis functions of A   symmetry.
  1339 basis functions,  2348 primitive gaussians,  1339 cartesian basis functions
   241 alpha electrons      241 beta electrons
       nuclear repulsion energy      8763.2406390188 Hartrees.
 NAtoms=  137 NActive=  137 NUniq=  137 SFac= 1.00D+00 NAtFMM=   60 NAOKFM=T Big=T
 Integral buffers will be    131072 words long.
 Raffenetti 1 integral format.
 Two-electron integral symmetry is turned on.
 One-electron integrals computed using PRISM.
 NBasis=  1339 RedAO= T EigKep=  3.03D-04  NBF=  1339
 NBsUse=  1339 1.00D-06 EigRej= -1.00D+00 NBFU=  1339
 ExpMin= 4.21D-02 ExpMax= 1.17D+04 ExpMxC= 1.76D+03 IAcc=3 IRadAn=         5 AccDes= 0.00D+00
 Harris functional with IExCor=20419 and IRadAn=       5 diagonalized for initial guess.
 HarFok:  IExCor=20419 AccDes= 0.00D+00 IRadAn=         5 IDoV= 1 UseB2=F ITyADJ=14
 ICtDFT=  3500011 ScaDFX=  1.000000  1.000000  1.000000  1.000000
 FoFCou: FMM=F IPFlag=           0 FMFlag=      100000 FMFlg1=        2001
         NFxFlg=           0 DoJE=T BraDBF=F KetDBF=T FulRan=T
         wScrn=  0.000000 ICntrl=       500 IOpCl=  0 I1Cent=   200000004 NGrid=           0
         NMat0=    1 NMatS0=      1 NMatT0=    0 NMatD0=    1 NMtDS0=    0 NMtDT0=    0
 Petite list used in FoFCou.
 Requested convergence on RMS density matrix=1.00D-08 within 128 cycles.
 Requested convergence on MAX density matrix=1.00D-06.
 Requested convergence on             energy=1.00D-06.
 No special actions if energy rises.
 SCF Done:  E(RCAM-B3LYP) =  -2933.41793151     A.U. after   16 cycles
            NFock= 16  Conv=0.38D-08     -V/T= 2.0087
 DoSCS=F DFT=T ScalE2(SS,OS)=  1.000000  1.000000
 ExpMin= 4.21D-02 ExpMax= 1.17D+04 ExpMxC= 1.76D+03 IAcc=3 IRadAn=         5 AccDes= 0.00D+00
 HarFok:  IExCor=  205 AccDes= 0.00D+00 IRadAn=         5 IDoV=-2 UseB2=F ITyADJ=14
 ICtDFT= 12500011 ScaDFX=  1.000000  1.000000  1.000000  1.000000
 GSVD:  LWork=       -5313 too small for GESVD, short by       24840 words or       24840 for optimal perf.
 Range of M.O.s used for correlation:    70  1339
 NBasis=  1339 NAE=   241 NBE=   241 NFC=    69 NFV=     0
 NROrb=   1270 NOA=   172 NOB=   172 NVA=  1098 NVB=  1098
 Orbital symmetries:
       Occupied  (A) (A) (A) (A) (A) (A) (A) (A) (A) (A) (A) (A)
                 (A) (A) (A) (A) (A) (A) (A) (A) (A) (A) (A) (A)
                 (A) (A) (A) (A) (A) (A) (A) (A) (A) (A) (A) (A)
                 (A) (A) (A) (A) (A) (A) (A) (A) (A) (A) (A) (A)
                 (A) (A) (A) (A) (A) (A) (A) (A) (A) (A) (A) (A)
                 (A) (A) (A) (A) (A) (A) (A) (A) (A) (A) (A) (A)
                 (A) (A) (A) (A) (A) (A) (A) (A) (A) (A) (A) (A)
                 (A) (A) (A) (A) (A) (A) (A) (A) (A) (A) (A) (A)
                 (A) (A) (A) (A) (A) (A) (A) (A) (A) (A) (A) (A)
                 (A) (A) (A) (A) (A) (A) (A) (A) (A) (A) (A) (A)
                 (A) (A) (A) (A) (A) (A) (A) (A) (A) (A) (A) (A)
                 (A) (A) (A) (A) (A) (A) (A) (A) (A) (A) (A) (A)
                 (A) (A) (A) (A) (A) (A) (A) (A) (A) (A) (A) (A)
                 (A) (A) (A) (A) (A) (A) (A) (A) (A) (A) (A) (A)
                 (A) (A) (A) (A) (A) (A) (A) (A) (A) (A) (A) (A)
                 (A) (A) (A) (A) (A) (A) (A) (A) (A) (A) (A) (A)
                 (A) (A) (A) (A) (A) (A) (A) (A) (A) (A) (A) (A)
                 (A) (A) (A) (A) (A) (A) (A) (A) (A) (A) (A) (A)
                 (A) (A) (A) (A) (A) (A) (A) (A) (A) (A) (A) (A)
                 (A) (A) (A) (A) (A) (A) (A) (A) (A) (A) (A) (A)
                 (A)
       Virtual   (A) (A) (A) (A) (A) (A) (A) (A) (A) (A) (A) (A)
                 (A) (A) (A) (A) (A) (A) (A) (A) (A) (A) (A) (A)
                 (A) (A) (A) (A) (A) (A) (A) (A) (A) (A) (A) (A)
                 (A) (A) (A) (A) (A) (A) (A) (A) (A) (A) (A) (A)
                 (A) (A) (A) (A) (A) (A) (A) (A) (A) (A) (A) (A)
                 (A) (A) (A) (A) (A) (A) (A) (A) (A) (A) (A) (A)
                 (A) (A) (A) (A) (A) (A) (A) (A) (A) (A) (A) (A)
                 (A) (A) (A) (A) (A) (A) (A) (A) (A) (A) (A) (A)
                 (A) (A) (A) (A) (A) (A) (A) (A) (A) (A) (A) (A)
                 (A) (A) (A) (A) (A) (A) (A) (A) (A) (A) (A) (A)
                 (A) (A) (A) (A) (A) (A) (A) (A) (A) (A) (A) (A)
                 (A) (A) (A) (A) (A) (A) (A) (A) (A) (A) (A) (A)
                 (A) (A) (A) (A) (A) (A) (A) (A) (A) (A) (A) (A)
                 (A) (A) (A) (A) (A) (A) (A) (A) (A) (A) (A) (A)
                 (A) (A) (A) (A) (A) (A) (A) (A) (A) (A) (A) (A)
                 (A) (A) (A) (A) (A) (A) (A) (A) (A) (A) (A) (A)
                 (A) (A) (A) (A) (A) (A) (A) (A) (A) (A) (A) (A)
                 (A) (A) (A) (A) (A) (A) (A) (A) (A) (A) (A) (A)
                 (A) (A) (A) (A) (A) (A) (A) (A) (A) (A) (A) (A)
                 (A) (A) (A) (A) (A) (A) (A) (A) (A) (A) (A) (A)
                 (A) (A) (A) (A) (A) (A) (A) (A) (A) (A) (A) (A)
                 (A) (A) (A) (A) (A) (A) (A) (A) (A) (A) (A) (A)
                 (A) (A) (A) (A) (A) (A) (A) (A) (A) (A) (A) (A)
                 (A) (A) (A) (A) (A) (A) (A) (A) (A) (A) (A) (A)
                 (A) (A) (A) (A) (A) (A) (A) (A) (A) (A) (A) (A)
                 (A) (A) (A) (A) (A) (A) (A) (A) (A) (A) (A) (A)
                 (A) (A) (A) (A) (A) (A) (A) (A) (A) (A) (A) (A)
                 (A) (A) (A) (A) (A) (A) (A) (A) (A) (A) (A) (A)
                 (A) (A) (A) (A) (A) (A) (A) (A) (A) (A) (A) (A)
                 (A) (A) (A) (A) (A) (A) (A) (A) (A) (A) (A) (A)
                 (A) (A) (A) (A) (A) (A) (A) (A) (A) (A) (A) (A)
                 (A) (A) (A) (A) (A) (A) (A) (A) (A) (A) (A) (A)
                 (A) (A) (A) (A) (A) (A) (A) (A) (A) (A) (A) (A)
                 (A) (A) (A) (A) (A) (A) (A) (A) (A) (A) (A) (A)
                 (A) (A) (A) (A) (A) (A) (A) (A) (A) (A) (A) (A)
                 (A) (A) (A) (A) (A) (A) (A) (A) (A) (A) (A) (A)
                 (A) (A) (A) (A) (A) (A) (A) (A) (A) (A) (A) (A)
                 (A) (A) (A) (A) (A) (A) (A) (A) (A) (A) (A) (A)
                 (A) (A) (A) (A) (A) (A) (A) (A) (A) (A) (A) (A)
                 (A) (A) (A) (A) (A) (A) (A) (A) (A) (A) (A) (A)
                 (A) (A) (A) (A) (A) (A) (A) (A) (A) (A) (A) (A)
                 (A) (A) (A) (A) (A) (A) (A) (A) (A) (A) (A) (A)
                 (A) (A) (A) (A) (A) (A) (A) (A) (A) (A) (A) (A)
                 (A) (A) (A) (A) (A) (A) (A) (A) (A) (A) (A) (A)
                 (A) (A) (A) (A) (A) (A) (A) (A) (A) (A) (A) (A)
                 (A) (A) (A) (A) (A) (A) (A) (A) (A) (A) (A) (A)
                 (A) (A) (A) (A) (A) (A) (A) (A) (A) (A) (A) (A)
                 (A) (A) (A) (A) (A) (A) (A) (A) (A) (A) (A) (A)
                 (A) (A) (A) (A) (A) (A) (A) (A) (A) (A) (A) (A)
                 (A) (A) (A) (A) (A) (A) (A) (A) (A) (A) (A) (A)
                 (A) (A) (A) (A) (A) (A) (A) (A) (A) (A) (A) (A)
                 (A) (A) (A) (A) (A) (A) (A) (A) (A) (A) (A) (A)
                 (A) (A) (A) (A) (A) (A) (A) (A) (A) (A) (A) (A)
                 (A) (A) (A) (A) (A) (A) (A) (A) (A) (A) (A) (A)
                 (A) (A) (A) (A) (A) (A) (A) (A) (A) (A) (A) (A)
                 (A) (A) (A) (A) (A) (A) (A) (A) (A) (A) (A) (A)
                 (A) (A) (A) (A) (A) (A) (A) (A) (A) (A) (A) (A)
                 (A) (A) (A) (A) (A) (A) (A) (A) (A) (A) (A) (A)
                 (A) (A) (A) (A) (A) (A) (A) (A) (A) (A) (A) (A)
                 (A) (A) (A) (A) (A) (A) (A) (A) (A) (A) (A) (A)
                 (A) (A) (A) (A) (A) (A) (A) (A) (A) (A) (A) (A)
                 (A) (A) (A) (A) (A) (A) (A) (A) (A) (A) (A) (A)
                 (A) (A) (A) (A) (A) (A) (A) (A) (A) (A) (A) (A)
                 (A) (A) (A) (A) (A) (A) (A) (A) (A) (A) (A) (A)
                 (A) (A) (A) (A) (A) (A) (A) (A) (A) (A) (A) (A)
                 (A) (A) (A) (A) (A) (A) (A) (A) (A) (A) (A) (A)
                 (A) (A) (A) (A) (A) (A) (A) (A) (A) (A) (A) (A)
                 (A) (A) (A) (A) (A) (A) (A) (A) (A) (A) (A) (A)
                 (A) (A) (A) (A) (A) (A) (A) (A) (A) (A) (A) (A)
                 (A) (A) (A) (A) (A) (A) (A) (A) (A) (A) (A) (A)
                 (A) (A) (A) (A) (A) (A) (A) (A) (A) (A) (A) (A)
                 (A) (A) (A) (A) (A) (A) (A) (A) (A) (A) (A) (A)
                 (A) (A) (A) (A) (A) (A) (A) (A) (A) (A) (A) (A)
                 (A) (A) (A) (A) (A) (A) (A) (A) (A) (A) (A) (A)
                 (A) (A) (A) (A) (A) (A) (A) (A) (A) (A) (A) (A)
                 (A) (A) (A) (A) (A) (A) (A) (A) (A) (A) (A) (A)
                 (A) (A) (A) (A) (A) (A) (A) (A) (A) (A) (A) (A)
                 (A) (A) (A) (A) (A) (A) (A) (A) (A) (A) (A) (A)
                 (A) (A) (A) (A) (A) (A) (A) (A) (A) (A) (A) (A)
                 (A) (A) (A) (A) (A) (A) (A) (A) (A) (A) (A) (A)
                 (A) (A) (A) (A) (A) (A) (A) (A) (A) (A) (A) (A)
                 (A) (A) (A) (A) (A) (A) (A) (A) (A) (A) (A) (A)
                 (A) (A) (A) (A) (A) (A) (A) (A) (A) (A) (A) (A)
                 (A) (A) (A) (A) (A) (A) (A) (A) (A) (A) (A) (A)
                 (A) (A) (A) (A) (A) (A) (A) (A) (A) (A) (A) (A)
                 (A) (A) (A) (A) (A) (A) (A) (A) (A) (A) (A) (A)
                 (A) (A) (A) (A) (A) (A) (A) (A) (A) (A) (A) (A)
                 (A) (A) (A) (A) (A) (A) (A) (A) (A) (A) (A) (A)
                 (A) (A) (A) (A) (A) (A) (A) (A) (A) (A) (A) (A)
                 (A) (A) (A) (A) (A) (A) (A) (A) (A) (A) (A) (A)
                 (A) (A) (A) (A) (A) (A) (A) (A) (A) (A) (A) (A)
                 (A) (A) (A) (A) (A) (A)
    40 initial guesses have been made.
 Convergence on wavefunction:    0.001000000000000
 Iteration     1 Dimension    40 NMult     0 NNew     40
 CISAX will form    21 AO SS matrices at one time.
 New state      3 was old state      5
 New state      4 was old state      6
 New state      5 was old state      8
 New state      6 was old state      4
 New state      7 was old state     10
 New state      8 was old state     14
 New state      9 was old state      7
 New state     10 was old state     11
 Iteration     2 Dimension    60 NMult    40 NNew     20
 New state      7 was old state      8
 New state      8 was old state      7
 Iteration     3 Dimension    80 NMult    60 NNew     20
 Iteration     4 Dimension   100 NMult    80 NNew     20
 Iteration     5 Dimension   118 NMult   100 NNew     18
 Iteration     6 Dimension   124 NMult   118 NNew      6
 Iteration     7 Dimension   126 NMult   124 NNew      2
 ***********************************************************************
 Excited states from <AA,BB:AA,BB> singles matrix:
 ***********************************************************************
 
 Ground to excited state transition densities written to RWF  633
 Ground to excited state transition electric dipole moments (Au):
       state          X           Y           Z        Dip. S.      Osc.
         1         0.3999      1.8809      0.3311      3.8072      0.1984
         2         0.5912     -0.2308      0.1404      0.4225      0.0245
         3         1.1702     -0.5853      0.3108      1.8085      0.1360
         4         2.5803     -1.2832      0.6399      8.7139      0.6935
         5        -0.9252     -1.6598     -0.4644      3.8266      0.3241
         6         0.3957      1.7439      0.2278      3.2497      0.2788
         7         1.0798     -0.9681      0.2307      2.1564      0.1895
         8        -0.3383     -0.0839     -0.0880      0.1292      0.0118
         9        -0.1736     -1.4015     -0.2424      2.0532      0.1895
        10         1.2846     -0.2292      0.3839      1.8500      0.1787
 Ground to excited state transition velocity dipole moments (Au):
       state          X           Y           Z        Dip. S.      Osc.
         1        -0.0293     -0.1408     -0.0249      0.0213      0.1818
         2        -0.0517      0.0182     -0.0125      0.0032      0.0242
         3        -0.1281      0.0670     -0.0344      0.0221      0.1304
         4        -0.2947      0.1490     -0.0723      0.1143      0.6383
         5         0.1117      0.1991      0.0562      0.0553      0.2900
         6        -0.0530     -0.2158     -0.0305      0.0503      0.2606
         7        -0.1353      0.1241     -0.0297      0.0346      0.1749
         8         0.0441      0.0095      0.0132      0.0022      0.0108
         9         0.0222      0.1874      0.0295      0.0365      0.1756
        10        -0.1789      0.0321     -0.0539      0.0360      0.1654
 Ground to excited state transition magnetic dipole moments (Au):
       state          X           Y           Z
         1        -0.4512     -0.5174      3.3683
         2        -0.2377     -0.2957      0.5542
         3        -0.1573     -0.5490     -0.4036
         4         0.0601     -0.9600     -2.3385
         5         0.3892      0.9740     -3.9250
         6         0.1765     -0.3473      2.4793
         7        -0.2507     -0.4730     -1.0735
         8        -0.0775      0.6633     -0.2309
         9        -0.1157      0.2737     -2.2638
        10         0.1606     -0.6783     -1.0364
 Ground to excited state transition velocity quadrupole moments (Au):
       state          XX          YY          ZZ          XY          XZ          YZ
         1         0.7980     -0.2503     -0.0365      1.7022      0.2989     -0.1261
         2         1.4579     -0.1938     -0.0142     -0.4761      0.2076     -0.0812
         3         3.6438     -0.0516      0.0467     -0.8926      0.6418      0.0333
         4         7.5574     -0.2995     -0.0727     -2.1350      1.0605     -0.0093
         5        -2.9655      0.5223     -0.0231     -2.6607     -0.8872      0.1107
         6         1.7276     -0.7243      0.0191      2.7855      0.5088     -0.1124
         7         3.4649      0.5607     -0.0646     -2.2622      0.4034     -0.1496
         8        -1.2729      0.1623     -0.0286      0.1500     -0.2579      0.1070
         9        -1.8009      1.7412     -0.0819     -2.1112     -0.5828      0.3022
        10         4.5573      0.5210     -0.0395     -0.2073      0.7646      0.0747
 <0|del|b> * <b|rxdel|0> + <0|del|b> * <b|delr+rdel|0>
 Rotatory Strengths (R) in cgs (10**-40 erg-esu-cm/Gauss)
       state          XX          YY          ZZ    R(velocity)    E-M Angle
         1       -51.5909   -111.3729    182.2379      6.4247       89.76
         2       -41.2742     14.4973     26.3509     -0.1420       90.00
         3      -110.2735     -2.8844     95.9903     -5.7225       91.51
         4        66.5999     -0.7548    -16.1716     16.5578       89.44
         5         1.5911    -42.2629    134.6469     31.3250       88.99
         6        65.9662     16.3436   -137.8685    -18.5196       91.03
         7       -26.3480     50.7239     13.5304     12.6354       88.19
         8        19.7949     -9.6387    -11.1450     -0.3296       90.33
         9        80.5861     -0.9242   -171.5995    -30.6459       92.37
        10        50.4184      6.2694    -30.7422      8.6485       88.71
 1/2[<0|r|b>*<b|rxdel|0> + (<0|rxdel|b>*<b|r|0>)*]
 Rotatory Strengths (R) in cgs (10**-40 erg-esu-cm/Gauss)
       state          XX          YY          ZZ     R(length)
         1       127.5941    688.1547   -788.6469      9.0340
         2        99.3563    -48.2609    -55.0260     -1.3102
         3       130.1591   -227.2223     88.7107     -2.7841
         4      -109.6478   -871.0854   1058.2412     25.8360
         5       254.6617   1143.1781  -1288.9061     36.3112
         6       -49.3805    428.3173   -399.4687     -6.8440
         7       191.4359   -323.7875    175.1364     14.2616
         8       -18.5503     39.3710    -14.3649      2.1519
         9       -14.2094    271.2876   -387.9908    -43.6375
        10      -145.9159   -109.9196    281.3471      8.5039
  1/2[<0|del|b>*<b|r|0> + (<0|r|b>*<b|del|0>)*] (Au)
       state          X           Y           Z        Dip. S.   Osc.(frdel)
         1        -0.0117     -0.2649     -0.0083      0.2849      0.1899
         2        -0.0306     -0.0042     -0.0018      0.0365      0.0244
         3        -0.1499     -0.0392     -0.0107      0.1998      0.1332
         4        -0.7604     -0.1913     -0.0463      0.9980      0.6653
         5        -0.1034     -0.3305     -0.0261      0.4599      0.3066
         6        -0.0210     -0.3763     -0.0070      0.4042      0.2695
         7        -0.1461     -0.1201     -0.0068      0.2730      0.1820
         8        -0.0149     -0.0008     -0.0012      0.0169      0.0113
         9        -0.0038     -0.2626     -0.0071      0.2736      0.1824
        10        -0.2299     -0.0074     -0.0207      0.2579      0.1719

 Excitation energies and oscillator strengths:
 
 Excited State   1:      Singlet-A      2.1272 eV  582.85 nm  f=0.1984  <S**2>=0.000
     240 -> 243        0.23952
     241 -> 242        0.65401
 This state for optimization and/or second-order correction.
 Total Energy, E(TD-HF/TD-DFT) =  -2933.33975802    
 Copying the excited state density for this state as the 1-particle RhoCI density.
 
 Excited State   2:      Singlet-A      2.3678 eV  523.62 nm  f=0.0245  <S**2>=0.000
     240 -> 242       -0.43119
     241 -> 243        0.54315
 
 Excited State   3:      Singlet-A      3.0704 eV  403.80 nm  f=0.1360  <S**2>=0.000
     239 -> 242        0.60103
     239 -> 243       -0.17254
     240 -> 242        0.25703
     241 -> 243        0.17603
 
 Excited State   4:      Singlet-A      3.2484 eV  381.68 nm  f=0.6935  <S**2>=0.000
     238 -> 242       -0.19675
     239 -> 242       -0.29475
     240 -> 242        0.44980
     241 -> 243        0.38239
 
 Excited State   5:      Singlet-A      3.4572 eV  358.63 nm  f=0.3241  <S**2>=0.000
     238 -> 242       -0.17659
     239 -> 242        0.10921
     239 -> 243        0.37247
     240 -> 243        0.48072
     241 -> 242       -0.18029
     241 -> 244       -0.13262
 
 Excited State   6:      Singlet-A      3.5014 eV  354.10 nm  f=0.2788  <S**2>=0.000
     238 -> 242       -0.19832
     239 -> 242        0.17298
     239 -> 243        0.47634
     240 -> 243       -0.39642
     241 -> 242        0.14404
     241 -> 244        0.12734
 
 Excited State   7:      Singlet-A      3.5863 eV  345.71 nm  f=0.1895  <S**2>=0.000
     235 -> 242       -0.14157
     238 -> 242        0.54175
     238 -> 243        0.19506
     239 -> 243        0.29205
     240 -> 242        0.12160
     241 -> 243        0.11305
 
 Excited State   8:      Singlet-A      3.7177 eV  333.50 nm  f=0.0118  <S**2>=0.000
     233 -> 242       -0.11091
     236 -> 242        0.63663
     236 -> 244        0.17958
 
 Excited State   9:      Singlet-A      3.7666 eV  329.17 nm  f=0.1895  <S**2>=0.000
     240 -> 243        0.16129
     241 -> 244        0.64354
 
 Excited State  10:      Singlet-A      3.9430 eV  314.44 nm  f=0.1787  <S**2>=0.000
     235 -> 242        0.64855
     238 -> 243        0.11487
     240 -> 242        0.10732
     241 -> 244        0.12034
 SavETr:  write IOETrn=   770 NScale= 10 NData=  16 NLR=1 NState=   10 LETran=     190.
 Hyperfine terms turned off by default for NAtoms > 100.

 **********************************************************************

            Population analysis using the SCF density.

 **********************************************************************

 Orbital symmetries:
       Occupied  (A) (A) (A) (A) (A) (A) (A) (A) (A) (A) (A) (A)
                 (A) (A) (A) (A) (A) (A) (A) (A) (A) (A) (A) (A)
                 (A) (A) (A) (A) (A) (A) (A) (A) (A) (A) (A) (A)
                 (A) (A) (A) (A) (A) (A) (A) (A) (A) (A) (A) (A)
                 (A) (A) (A) (A) (A) (A) (A) (A) (A) (A) (A) (A)
                 (A) (A) (A) (A) (A) (A) (A) (A) (A) (A) (A) (A)
                 (A) (A) (A) (A) (A) (A) (A) (A) (A) (A) (A) (A)
                 (A) (A) (A) (A) (A) (A) (A) (A) (A) (A) (A) (A)
                 (A) (A) (A) (A) (A) (A) (A) (A) (A) (A) (A) (A)
                 (A) (A) (A) (A) (A) (A) (A) (A) (A) (A) (A) (A)
                 (A) (A) (A) (A) (A) (A) (A) (A) (A) (A) (A) (A)
                 (A) (A) (A) (A) (A) (A) (A) (A) (A) (A) (A) (A)
                 (A) (A) (A) (A) (A) (A) (A) (A) (A) (A) (A) (A)
                 (A) (A) (A) (A) (A) (A) (A) (A) (A) (A) (A) (A)
                 (A) (A) (A) (A) (A) (A) (A) (A) (A) (A) (A) (A)
                 (A) (A) (A) (A) (A) (A) (A) (A) (A) (A) (A) (A)
                 (A) (A) (A) (A) (A) (A) (A) (A) (A) (A) (A) (A)
                 (A) (A) (A) (A) (A) (A) (A) (A) (A) (A) (A) (A)
                 (A) (A) (A) (A) (A) (A) (A) (A) (A) (A) (A) (A)
                 (A) (A) (A) (A) (A) (A) (A) (A) (A) (A) (A) (A)
                 (A)
       Virtual   (A) (A) (A) (A) (A) (A) (A) (A) (A) (A) (A) (A)
                 (A) (A) (A) (A) (A) (A) (A) (A) (A) (A) (A) (A)
                 (A) (A) (A) (A) (A) (A) (A) (A) (A) (A) (A) (A)
                 (A) (A) (A) (A) (A) (A) (A) (A) (A) (A) (A) (A)
                 (A) (A) (A) (A) (A) (A) (A) (A) (A) (A) (A) (A)
                 (A) (A) (A) (A) (A) (A) (A) (A) (A) (A) (A) (A)
                 (A) (A) (A) (A) (A) (A) (A) (A) (A) (A) (A) (A)
                 (A) (A) (A) (A) (A) (A) (A) (A) (A) (A) (A) (A)
                 (A) (A) (A) (A) (A) (A) (A) (A) (A) (A) (A) (A)
                 (A) (A) (A) (A) (A) (A) (A) (A) (A) (A) (A) (A)
                 (A) (A) (A) (A) (A) (A) (A) (A) (A) (A) (A) (A)
                 (A) (A) (A) (A) (A) (A) (A) (A) (A) (A) (A) (A)
                 (A) (A) (A) (A) (A) (A) (A) (A) (A) (A) (A) (A)
                 (A) (A) (A) (A) (A) (A) (A) (A) (A) (A) (A) (A)
                 (A) (A) (A) (A) (A) (A) (A) (A) (A) (A) (A) (A)
                 (A) (A) (A) (A) (A) (A) (A) (A) (A) (A) (A) (A)
                 (A) (A) (A) (A) (A) (A) (A) (A) (A) (A) (A) (A)
                 (A) (A) (A) (A) (A) (A) (A) (A) (A) (A) (A) (A)
                 (A) (A) (A) (A) (A) (A) (A) (A) (A) (A) (A) (A)
                 (A) (A) (A) (A) (A) (A) (A) (A) (A) (A) (A) (A)
                 (A) (A) (A) (A) (A) (A) (A) (A) (A) (A) (A) (A)
                 (A) (A) (A) (A) (A) (A) (A) (A) (A) (A) (A) (A)
                 (A) (A) (A) (A) (A) (A) (A) (A) (A) (A) (A) (A)
                 (A) (A) (A) (A) (A) (A) (A) (A) (A) (A) (A) (A)
                 (A) (A) (A) (A) (A) (A) (A) (A) (A) (A) (A) (A)
                 (A) (A) (A) (A) (A) (A) (A) (A) (A) (A) (A) (A)
                 (A) (A) (A) (A) (A) (A) (A) (A) (A) (A) (A) (A)
                 (A) (A) (A) (A) (A) (A) (A) (A) (A) (A) (A) (A)
                 (A) (A) (A) (A) (A) (A) (A) (A) (A) (A) (A) (A)
                 (A) (A) (A) (A) (A) (A) (A) (A) (A) (A) (A) (A)
                 (A) (A) (A) (A) (A) (A) (A) (A) (A) (A) (A) (A)
                 (A) (A) (A) (A) (A) (A) (A) (A) (A) (A) (A) (A)
                 (A) (A) (A) (A) (A) (A) (A) (A) (A) (A) (A) (A)
                 (A) (A) (A) (A) (A) (A) (A) (A) (A) (A) (A) (A)
                 (A) (A) (A) (A) (A) (A) (A) (A) (A) (A) (A) (A)
                 (A) (A) (A) (A) (A) (A) (A) (A) (A) (A) (A) (A)
                 (A) (A) (A) (A) (A) (A) (A) (A) (A) (A) (A) (A)
                 (A) (A) (A) (A) (A) (A) (A) (A) (A) (A) (A) (A)
                 (A) (A) (A) (A) (A) (A) (A) (A) (A) (A) (A) (A)
                 (A) (A) (A) (A) (A) (A) (A) (A) (A) (A) (A) (A)
                 (A) (A) (A) (A) (A) (A) (A) (A) (A) (A) (A) (A)
                 (A) (A) (A) (A) (A) (A) (A) (A) (A) (A) (A) (A)
                 (A) (A) (A) (A) (A) (A) (A) (A) (A) (A) (A) (A)
                 (A) (A) (A) (A) (A) (A) (A) (A) (A) (A) (A) (A)
                 (A) (A) (A) (A) (A) (A) (A) (A) (A) (A) (A) (A)
                 (A) (A) (A) (A) (A) (A) (A) (A) (A) (A) (A) (A)
                 (A) (A) (A) (A) (A) (A) (A) (A) (A) (A) (A) (A)
                 (A) (A) (A) (A) (A) (A) (A) (A) (A) (A) (A) (A)
                 (A) (A) (A) (A) (A) (A) (A) (A) (A) (A) (A) (A)
                 (A) (A) (A) (A) (A) (A) (A) (A) (A) (A) (A) (A)
                 (A) (A) (A) (A) (A) (A) (A) (A) (A) (A) (A) (A)
                 (A) (A) (A) (A) (A) (A) (A) (A) (A) (A) (A) (A)
                 (A) (A) (A) (A) (A) (A) (A) (A) (A) (A) (A) (A)
                 (A) (A) (A) (A) (A) (A) (A) (A) (A) (A) (A) (A)
                 (A) (A) (A) (A) (A) (A) (A) (A) (A) (A) (A) (A)
                 (A) (A) (A) (A) (A) (A) (A) (A) (A) (A) (A) (A)
                 (A) (A) (A) (A) (A) (A) (A) (A) (A) (A) (A) (A)
                 (A) (A) (A) (A) (A) (A) (A) (A) (A) (A) (A) (A)
                 (A) (A) (A) (A) (A) (A) (A) (A) (A) (A) (A) (A)
                 (A) (A) (A) (A) (A) (A) (A) (A) (A) (A) (A) (A)
                 (A) (A) (A) (A) (A) (A) (A) (A) (A) (A) (A) (A)
                 (A) (A) (A) (A) (A) (A) (A) (A) (A) (A) (A) (A)
                 (A) (A) (A) (A) (A) (A) (A) (A) (A) (A) (A) (A)
                 (A) (A) (A) (A) (A) (A) (A) (A) (A) (A) (A) (A)
                 (A) (A) (A) (A) (A) (A) (A) (A) (A) (A) (A) (A)
                 (A) (A) (A) (A) (A) (A) (A) (A) (A) (A) (A) (A)
                 (A) (A) (A) (A) (A) (A) (A) (A) (A) (A) (A) (A)
                 (A) (A) (A) (A) (A) (A) (A) (A) (A) (A) (A) (A)
                 (A) (A) (A) (A) (A) (A) (A) (A) (A) (A) (A) (A)
                 (A) (A) (A) (A) (A) (A) (A) (A) (A) (A) (A) (A)
                 (A) (A) (A) (A) (A) (A) (A) (A) (A) (A) (A) (A)
                 (A) (A) (A) (A) (A) (A) (A) (A) (A) (A) (A) (A)
                 (A) (A) (A) (A) (A) (A) (A) (A) (A) (A) (A) (A)
                 (A) (A) (A) (A) (A) (A) (A) (A) (A) (A) (A) (A)
                 (A) (A) (A) (A) (A) (A) (A) (A) (A) (A) (A) (A)
                 (A) (A) (A) (A) (A) (A) (A) (A) (A) (A) (A) (A)
                 (A) (A) (A) (A) (A) (A) (A) (A) (A) (A) (A) (A)
                 (A) (A) (A) (A) (A) (A) (A) (A) (A) (A) (A) (A)
                 (A) (A) (A) (A) (A) (A) (A) (A) (A) (A) (A) (A)
                 (A) (A) (A) (A) (A) (A) (A) (A) (A) (A) (A) (A)
                 (A) (A) (A) (A) (A) (A) (A) (A) (A) (A) (A) (A)
                 (A) (A) (A) (A) (A) (A) (A) (A) (A) (A) (A) (A)
                 (A) (A) (A) (A) (A) (A) (A) (A) (A) (A) (A) (A)
                 (A) (A) (A) (A) (A) (A) (A) (A) (A) (A) (A) (A)
                 (A) (A) (A) (A) (A) (A) (A) (A) (A) (A) (A) (A)
                 (A) (A) (A) (A) (A) (A) (A) (A) (A) (A) (A) (A)
                 (A) (A) (A) (A) (A) (A) (A) (A) (A) (A) (A) (A)
                 (A) (A) (A) (A) (A) (A) (A) (A) (A) (A) (A) (A)
                 (A) (A) (A) (A) (A) (A) (A) (A) (A) (A) (A) (A)
                 (A) (A) (A) (A) (A) (A) (A) (A) (A) (A) (A) (A)
                 (A) (A) (A) (A) (A) (A) (A) (A) (A) (A) (A) (A)
                 (A) (A) (A) (A) (A) (A)
 The electronic state is 1-A.
 Alpha  occ. eigenvalues --  -46.79354 -19.21414 -19.21109 -19.19417 -19.16840
 Alpha  occ. eigenvalues --  -19.14804 -14.37408 -14.35377 -14.34369 -14.33149
 Alpha  occ. eigenvalues --  -10.34873 -10.34399 -10.32220 -10.26826 -10.26075
 Alpha  occ. eigenvalues --  -10.25608 -10.25532 -10.25032 -10.24957 -10.24520
 Alpha  occ. eigenvalues --  -10.24477 -10.24410 -10.24291 -10.24260 -10.24179
 Alpha  occ. eigenvalues --  -10.23427 -10.23418 -10.23294 -10.23196 -10.23104
 Alpha  occ. eigenvalues --  -10.23053 -10.23005 -10.22995 -10.22795 -10.22686
 Alpha  occ. eigenvalues --  -10.22673 -10.22671 -10.22661 -10.22601 -10.22530
 Alpha  occ. eigenvalues --  -10.22401 -10.22336 -10.21694 -10.21615 -10.21599
 Alpha  occ. eigenvalues --  -10.21552 -10.21474 -10.21168 -10.21010 -10.21001
 Alpha  occ. eigenvalues --  -10.20941 -10.20912 -10.20876 -10.20793 -10.20655
 Alpha  occ. eigenvalues --  -10.20650 -10.20648 -10.20462 -10.20406 -10.20322
 Alpha  occ. eigenvalues --  -10.20269 -10.20220 -10.20183 -10.19738 -10.18245
 Alpha  occ. eigenvalues --   -3.08062  -1.82991  -1.82557  -1.82452  -1.15373
 Alpha  occ. eigenvalues --   -1.10382  -1.09900  -1.02777  -1.02036  -0.99974
 Alpha  occ. eigenvalues --   -0.98500  -0.98082  -0.96659  -0.87114  -0.86896
 Alpha  occ. eigenvalues --   -0.86403  -0.85838  -0.85304  -0.84122  -0.83975
 Alpha  occ. eigenvalues --   -0.83764  -0.82790  -0.82347  -0.82044  -0.81523
 Alpha  occ. eigenvalues --   -0.80808  -0.79437  -0.78639  -0.78459  -0.77582
 Alpha  occ. eigenvalues --   -0.77108  -0.76599  -0.76033  -0.75700  -0.74020
 Alpha  occ. eigenvalues --   -0.73104  -0.72957  -0.72193  -0.71644  -0.71445
 Alpha  occ. eigenvalues --   -0.70238  -0.69967  -0.68971  -0.68436  -0.67498
 Alpha  occ. eigenvalues --   -0.67102  -0.66649  -0.66000  -0.65144  -0.62863
 Alpha  occ. eigenvalues --   -0.62141  -0.61999  -0.61312  -0.60305  -0.59757
 Alpha  occ. eigenvalues --   -0.59701  -0.59600  -0.59325  -0.57910  -0.57250
 Alpha  occ. eigenvalues --   -0.57229  -0.56428  -0.56214  -0.55248  -0.54747
 Alpha  occ. eigenvalues --   -0.54228  -0.53880  -0.53513  -0.53037  -0.52740
 Alpha  occ. eigenvalues --   -0.52164  -0.51810  -0.51674  -0.51167  -0.51075
 Alpha  occ. eigenvalues --   -0.51024  -0.50496  -0.50361  -0.49819  -0.49425
 Alpha  occ. eigenvalues --   -0.49284  -0.49074  -0.48669  -0.48476  -0.48105
 Alpha  occ. eigenvalues --   -0.48038  -0.47863  -0.47838  -0.47488  -0.47129
 Alpha  occ. eigenvalues --   -0.46999  -0.46869  -0.46798  -0.46480  -0.46188
 Alpha  occ. eigenvalues --   -0.45875  -0.45566  -0.45322  -0.45170  -0.44986
 Alpha  occ. eigenvalues --   -0.44916  -0.44571  -0.44398  -0.44162  -0.44121
 Alpha  occ. eigenvalues --   -0.43894  -0.43612  -0.43168  -0.43011  -0.42826
 Alpha  occ. eigenvalues --   -0.42613  -0.42449  -0.42212  -0.42127  -0.41586
 Alpha  occ. eigenvalues --   -0.41293  -0.41123  -0.40985  -0.40799  -0.40639
 Alpha  occ. eigenvalues --   -0.40561  -0.40429  -0.40170  -0.40054  -0.39850
 Alpha  occ. eigenvalues --   -0.39677  -0.39599  -0.39464  -0.39317  -0.39162
 Alpha  occ. eigenvalues --   -0.38818  -0.38460  -0.38124  -0.38079  -0.37428
 Alpha  occ. eigenvalues --   -0.37244  -0.37189  -0.37073  -0.36884  -0.36641
 Alpha  occ. eigenvalues --   -0.36385  -0.36258  -0.36054  -0.35797  -0.35382
 Alpha  occ. eigenvalues --   -0.35014  -0.34918  -0.34528  -0.34447  -0.34372
 Alpha  occ. eigenvalues --   -0.34160  -0.33822  -0.33730  -0.33423  -0.33296
 Alpha  occ. eigenvalues --   -0.33152  -0.32882  -0.32651  -0.32336  -0.32250
 Alpha  occ. eigenvalues --   -0.31892  -0.31700  -0.31261  -0.30395  -0.30280
 Alpha  occ. eigenvalues --   -0.30017  -0.29633  -0.28511  -0.28220  -0.27348
 Alpha  occ. eigenvalues --   -0.26932  -0.26213  -0.25128  -0.23825  -0.21881
 Alpha  occ. eigenvalues --   -0.18946
 Alpha virt. eigenvalues --   -0.05730  -0.03858   0.00573   0.02422   0.02571
 Alpha virt. eigenvalues --    0.03511   0.04989   0.05235   0.05390   0.05597
 Alpha virt. eigenvalues --    0.06507   0.08602   0.09405   0.09414   0.09930
 Alpha virt. eigenvalues --    0.10277   0.10827   0.10912   0.11280   0.11657
 Alpha virt. eigenvalues --    0.11789   0.11925   0.11972   0.12075   0.12241
 Alpha virt. eigenvalues --    0.12260   0.12801   0.12966   0.13225   0.13322
 Alpha virt. eigenvalues --    0.13400   0.13419   0.13735   0.14041   0.14429
 Alpha virt. eigenvalues --    0.14442   0.14704   0.14882   0.15079   0.15200
 Alpha virt. eigenvalues --    0.15223   0.15438   0.15541   0.15601   0.15698
 Alpha virt. eigenvalues --    0.16679   0.16760   0.16919   0.17000   0.17284
 Alpha virt. eigenvalues --    0.17398   0.17550   0.17698   0.17870   0.18016
 Alpha virt. eigenvalues --    0.18121   0.18221   0.18283   0.18421   0.18459
 Alpha virt. eigenvalues --    0.18632   0.18766   0.18909   0.18990   0.19513
 Alpha virt. eigenvalues --    0.19671   0.19909   0.20065   0.20125   0.20242
 Alpha virt. eigenvalues --    0.20772   0.20881   0.21068   0.21354   0.21587
 Alpha virt. eigenvalues --    0.21671   0.21729   0.21876   0.21941   0.22090
 Alpha virt. eigenvalues --    0.22262   0.22454   0.22878   0.23091   0.23410
 Alpha virt. eigenvalues --    0.23554   0.23648   0.23718   0.23892   0.24125
 Alpha virt. eigenvalues --    0.24140   0.24399   0.24810   0.25061   0.25369
 Alpha virt. eigenvalues --    0.25619   0.25765   0.25835   0.26335   0.26677
 Alpha virt. eigenvalues --    0.26736   0.26812   0.27035   0.27142   0.27183
 Alpha virt. eigenvalues --    0.27372   0.27777   0.27822   0.28020   0.28096
 Alpha virt. eigenvalues --    0.28560   0.28877   0.29120   0.29625   0.29690
 Alpha virt. eigenvalues --    0.29946   0.30163   0.30280   0.30383   0.30597
 Alpha virt. eigenvalues --    0.31110   0.31654   0.31730   0.32361   0.32863
 Alpha virt. eigenvalues --    0.33135   0.33511   0.33800   0.33878   0.34159
 Alpha virt. eigenvalues --    0.34222   0.34942   0.35021   0.35228   0.36204
 Alpha virt. eigenvalues --    0.36865   0.37240   0.37545   0.38129   0.38797
 Alpha virt. eigenvalues --    0.39284   0.39807   0.40267   0.40400   0.40533
 Alpha virt. eigenvalues --    0.40864   0.40961   0.41684   0.42115   0.42793
 Alpha virt. eigenvalues --    0.43978   0.44597   0.45443   0.46512   0.46868
 Alpha virt. eigenvalues --    0.47233   0.48245   0.48909   0.49093   0.49453
 Alpha virt. eigenvalues --    0.49758   0.50094   0.50749   0.51187   0.51262
 Alpha virt. eigenvalues --    0.51449   0.51714   0.52029   0.52501   0.52673
 Alpha virt. eigenvalues --    0.53148   0.53508   0.53676   0.53732   0.54107
 Alpha virt. eigenvalues --    0.54384   0.54613   0.54828   0.55149   0.55405
 Alpha virt. eigenvalues --    0.55431   0.55525   0.56023   0.56306   0.56495
 Alpha virt. eigenvalues --    0.56751   0.56909   0.56971   0.57029   0.57399
 Alpha virt. eigenvalues --    0.57645   0.57705   0.58001   0.58303   0.58880
 Alpha virt. eigenvalues --    0.58986   0.59421   0.59597   0.60262   0.60426
 Alpha virt. eigenvalues --    0.60640   0.60722   0.60819   0.61153   0.61249
 Alpha virt. eigenvalues --    0.61533   0.61664   0.61765   0.61987   0.62359
 Alpha virt. eigenvalues --    0.62602   0.62856   0.63040   0.63512   0.63763
 Alpha virt. eigenvalues --    0.63787   0.64202   0.64434   0.64672   0.65135
 Alpha virt. eigenvalues --    0.65526   0.65693   0.66079   0.66374   0.66437
 Alpha virt. eigenvalues --    0.66718   0.67055   0.67129   0.67346   0.67629
 Alpha virt. eigenvalues --    0.68093   0.68164   0.68306   0.68675   0.69034
 Alpha virt. eigenvalues --    0.69095   0.69466   0.69673   0.69750   0.70120
 Alpha virt. eigenvalues --    0.70596   0.70732   0.71235   0.71541   0.71667
 Alpha virt. eigenvalues --    0.71992   0.72511   0.72851   0.73078   0.73188
 Alpha virt. eigenvalues --    0.73353   0.73447   0.74143   0.74192   0.74569
 Alpha virt. eigenvalues --    0.75029   0.75356   0.75458   0.75535   0.75830
 Alpha virt. eigenvalues --    0.75991   0.76203   0.76285   0.76416   0.76829
 Alpha virt. eigenvalues --    0.76997   0.77299   0.77519   0.77687   0.78021
 Alpha virt. eigenvalues --    0.78199   0.78280   0.78453   0.78750   0.79102
 Alpha virt. eigenvalues --    0.79222   0.79263   0.79893   0.80065   0.80391
 Alpha virt. eigenvalues --    0.80605   0.80881   0.81274   0.81461   0.81652
 Alpha virt. eigenvalues --    0.81789   0.81974   0.82310   0.82548   0.82575
 Alpha virt. eigenvalues --    0.82788   0.83090   0.83127   0.83282   0.83340
 Alpha virt. eigenvalues --    0.83935   0.84221   0.84393   0.84494   0.84785
 Alpha virt. eigenvalues --    0.84933   0.85296   0.85480   0.85701   0.85852
 Alpha virt. eigenvalues --    0.85901   0.86017   0.86278   0.86410   0.86718
 Alpha virt. eigenvalues --    0.86750   0.86899   0.87110   0.87375   0.87401
 Alpha virt. eigenvalues --    0.87596   0.87753   0.88060   0.88163   0.88294
 Alpha virt. eigenvalues --    0.88725   0.88842   0.89182   0.89284   0.89489
 Alpha virt. eigenvalues --    0.89633   0.89911   0.90179   0.90338   0.90613
 Alpha virt. eigenvalues --    0.90959   0.91167   0.91324   0.91561   0.91728
 Alpha virt. eigenvalues --    0.91859   0.91960   0.92274   0.92594   0.92689
 Alpha virt. eigenvalues --    0.93069   0.93235   0.93405   0.93829   0.93972
 Alpha virt. eigenvalues --    0.94303   0.94340   0.94413   0.94679   0.94818
 Alpha virt. eigenvalues --    0.95121   0.95506   0.95553   0.95803   0.96213
 Alpha virt. eigenvalues --    0.96301   0.96588   0.96923   0.97049   0.97332
 Alpha virt. eigenvalues --    0.97722   0.97866   0.97938   0.98038   0.98378
 Alpha virt. eigenvalues --    0.98433   0.98673   0.98754   0.99078   0.99168
 Alpha virt. eigenvalues --    0.99807   1.00165   1.00191   1.00304   1.00506
 Alpha virt. eigenvalues --    1.00713   1.01134   1.01148   1.01473   1.01602
 Alpha virt. eigenvalues --    1.01722   1.01955   1.02570   1.02672   1.02718
 Alpha virt. eigenvalues --    1.02847   1.03429   1.03667   1.04144   1.04314
 Alpha virt. eigenvalues --    1.04416   1.05676   1.05827   1.05857   1.05974
 Alpha virt. eigenvalues --    1.06334   1.06786   1.07424   1.07915   1.08200
 Alpha virt. eigenvalues --    1.08388   1.08571   1.08759   1.09446   1.09931
 Alpha virt. eigenvalues --    1.10456   1.10559   1.10947   1.11066   1.11909
 Alpha virt. eigenvalues --    1.12121   1.12475   1.12643   1.13356   1.14478
 Alpha virt. eigenvalues --    1.15000   1.15695   1.15971   1.16164   1.16616
 Alpha virt. eigenvalues --    1.17601   1.18020   1.18477   1.19345   1.19430
 Alpha virt. eigenvalues --    1.19759   1.20466   1.20987   1.21378   1.22264
 Alpha virt. eigenvalues --    1.22794   1.23097   1.23612   1.24015   1.24395
 Alpha virt. eigenvalues --    1.24767   1.25043   1.25464   1.25690   1.26497
 Alpha virt. eigenvalues --    1.27280   1.28122   1.28572   1.28791   1.29228
 Alpha virt. eigenvalues --    1.30456   1.30883   1.31292   1.31693   1.32433
 Alpha virt. eigenvalues --    1.32580   1.32793   1.33664   1.33767   1.34063
 Alpha virt. eigenvalues --    1.34822   1.35050   1.35382   1.36768   1.37113
 Alpha virt. eigenvalues --    1.37483   1.38213   1.38401   1.39008   1.39484
 Alpha virt. eigenvalues --    1.39685   1.40986   1.41399   1.42059   1.42350
 Alpha virt. eigenvalues --    1.42809   1.42997   1.43317   1.43785   1.43878
 Alpha virt. eigenvalues --    1.44663   1.45304   1.45594   1.46796   1.46956
 Alpha virt. eigenvalues --    1.47807   1.48553   1.48587   1.48931   1.49634
 Alpha virt. eigenvalues --    1.49931   1.50905   1.51126   1.51273   1.51792
 Alpha virt. eigenvalues --    1.52558   1.53015   1.53171   1.53833   1.54173
 Alpha virt. eigenvalues --    1.54440   1.55015   1.55410   1.56123   1.56361
 Alpha virt. eigenvalues --    1.56673   1.57406   1.57941   1.58144   1.58370
 Alpha virt. eigenvalues --    1.58485   1.59159   1.59537   1.59745   1.60362
 Alpha virt. eigenvalues --    1.60989   1.61640   1.61919   1.62036   1.62325
 Alpha virt. eigenvalues --    1.62831   1.63175   1.63394   1.63561   1.63995
 Alpha virt. eigenvalues --    1.64304   1.64881   1.65011   1.65374   1.65609
 Alpha virt. eigenvalues --    1.65681   1.66391   1.66943   1.67494   1.68647
 Alpha virt. eigenvalues --    1.69132   1.69572   1.69811   1.70881   1.71338
 Alpha virt. eigenvalues --    1.71524   1.72412   1.72551   1.72923   1.73345
 Alpha virt. eigenvalues --    1.73429   1.73516   1.74131   1.74721   1.74836
 Alpha virt. eigenvalues --    1.75613   1.75861   1.76028   1.76586   1.77078
 Alpha virt. eigenvalues --    1.77323   1.77414   1.77808   1.78407   1.78680
 Alpha virt. eigenvalues --    1.78786   1.79517   1.79605   1.79860   1.80150
 Alpha virt. eigenvalues --    1.80291   1.80686   1.81267   1.81460   1.81967
 Alpha virt. eigenvalues --    1.82581   1.83179   1.83295   1.83314   1.83575
 Alpha virt. eigenvalues --    1.84313   1.84500   1.84559   1.84818   1.84960
 Alpha virt. eigenvalues --    1.85333   1.85433   1.85614   1.85939   1.86353
 Alpha virt. eigenvalues --    1.86371   1.86714   1.86878   1.87155   1.87588
 Alpha virt. eigenvalues --    1.87756   1.87937   1.88057   1.88440   1.88925
 Alpha virt. eigenvalues --    1.89348   1.89407   1.89556   1.89696   1.90165
 Alpha virt. eigenvalues --    1.90776   1.91162   1.91227   1.91378   1.91418
 Alpha virt. eigenvalues --    1.91666   1.92102   1.92271   1.92350   1.92483
 Alpha virt. eigenvalues --    1.92668   1.93073   1.93491   1.93771   1.94039
 Alpha virt. eigenvalues --    1.94253   1.95042   1.95060   1.95541   1.95640
 Alpha virt. eigenvalues --    1.96107   1.96290   1.96403   1.96918   1.97207
 Alpha virt. eigenvalues --    1.97230   1.97347   1.97617   1.97759   1.98077
 Alpha virt. eigenvalues --    1.98491   1.98548   1.99240   1.99284   1.99373
 Alpha virt. eigenvalues --    1.99617   2.00017   2.00103   2.00501   2.00684
 Alpha virt. eigenvalues --    2.01064   2.01403   2.01480   2.01930   2.02096
 Alpha virt. eigenvalues --    2.02252   2.02347   2.02869   2.03041   2.03246
 Alpha virt. eigenvalues --    2.03584   2.03700   2.04165   2.04935   2.05258
 Alpha virt. eigenvalues --    2.05578   2.05627   2.05764   2.05942   2.06126
 Alpha virt. eigenvalues --    2.06233   2.06728   2.06947   2.07208   2.07634
 Alpha virt. eigenvalues --    2.07743   2.07900   2.08120   2.08543   2.08603
 Alpha virt. eigenvalues --    2.08813   2.09262   2.09493   2.09559   2.09937
 Alpha virt. eigenvalues --    2.10310   2.10718   2.11260   2.11881   2.12129
 Alpha virt. eigenvalues --    2.12376   2.12542   2.12954   2.13271   2.13480
 Alpha virt. eigenvalues --    2.13890   2.14169   2.14614   2.14984   2.15625
 Alpha virt. eigenvalues --    2.16383   2.16444   2.16812   2.17146   2.17236
 Alpha virt. eigenvalues --    2.17499   2.17601   2.17800   2.18289   2.18451
 Alpha virt. eigenvalues --    2.18893   2.19211   2.19408   2.20274   2.20785
 Alpha virt. eigenvalues --    2.21114   2.21239   2.21260   2.21606   2.22090
 Alpha virt. eigenvalues --    2.22422   2.22529   2.22936   2.23103   2.24191
 Alpha virt. eigenvalues --    2.24639   2.24869   2.25334   2.25675   2.25713
 Alpha virt. eigenvalues --    2.26137   2.26284   2.26566   2.27633   2.27664
 Alpha virt. eigenvalues --    2.28258   2.28963   2.29252   2.29597   2.29842
 Alpha virt. eigenvalues --    2.29974   2.30135   2.30315   2.31021   2.31220
 Alpha virt. eigenvalues --    2.31440   2.31640   2.32292   2.32752   2.32914
 Alpha virt. eigenvalues --    2.33330   2.33569   2.33604   2.34029   2.34243
 Alpha virt. eigenvalues --    2.34883   2.35215   2.35683   2.35805   2.36021
 Alpha virt. eigenvalues --    2.36692   2.36836   2.36943   2.37759   2.37817
 Alpha virt. eigenvalues --    2.38006   2.38398   2.38521   2.38989   2.39159
 Alpha virt. eigenvalues --    2.39674   2.39876   2.40255   2.40580   2.40857
 Alpha virt. eigenvalues --    2.40934   2.41405   2.41666   2.42151   2.42293
 Alpha virt. eigenvalues --    2.42415   2.42684   2.43301   2.43552   2.43906
 Alpha virt. eigenvalues --    2.44180   2.44342   2.44849   2.45599   2.45717
 Alpha virt. eigenvalues --    2.45993   2.46381   2.46687   2.46874   2.47131
 Alpha virt. eigenvalues --    2.47795   2.47839   2.48263   2.48511   2.48643
 Alpha virt. eigenvalues --    2.49329   2.49527   2.49876   2.50242   2.50431
 Alpha virt. eigenvalues --    2.50596   2.51050   2.51239   2.52233   2.52386
 Alpha virt. eigenvalues --    2.52706   2.53367   2.53410   2.53922   2.54147
 Alpha virt. eigenvalues --    2.54650   2.55168   2.55336   2.55772   2.55891
 Alpha virt. eigenvalues --    2.56895   2.56990   2.57283   2.57435   2.57576
 Alpha virt. eigenvalues --    2.58006   2.58478   2.58932   2.59456   2.59984
 Alpha virt. eigenvalues --    2.60188   2.60393   2.60888   2.61536   2.62109
 Alpha virt. eigenvalues --    2.62431   2.62845   2.63039   2.63426   2.63524
 Alpha virt. eigenvalues --    2.63863   2.64202   2.64230   2.64653   2.64750
 Alpha virt. eigenvalues --    2.65092   2.65202   2.65511   2.66255   2.66279
 Alpha virt. eigenvalues --    2.66498   2.66695   2.66962   2.67238   2.67565
 Alpha virt. eigenvalues --    2.68090   2.68823   2.69015   2.69260   2.69483
 Alpha virt. eigenvalues --    2.69690   2.69890   2.70118   2.70335   2.70475
 Alpha virt. eigenvalues --    2.71270   2.71514   2.71620   2.72398   2.72429
 Alpha virt. eigenvalues --    2.72772   2.73213   2.73640   2.73926   2.74497
 Alpha virt. eigenvalues --    2.74651   2.75145   2.75258   2.75834   2.76560
 Alpha virt. eigenvalues --    2.76790   2.76856   2.76914   2.77467   2.77985
 Alpha virt. eigenvalues --    2.78175   2.78317   2.78661   2.78754   2.79386
 Alpha virt. eigenvalues --    2.79800   2.79923   2.80155   2.80812   2.80932
 Alpha virt. eigenvalues --    2.81686   2.81785   2.82512   2.83113   2.83221
 Alpha virt. eigenvalues --    2.83616   2.83968   2.84714   2.84955   2.85360
 Alpha virt. eigenvalues --    2.86265   2.86613   2.86978   2.87534   2.87576
 Alpha virt. eigenvalues --    2.88016   2.88100   2.88530   2.88659   2.88730
 Alpha virt. eigenvalues --    2.89508   2.89995   2.90182   2.90433   2.90988
 Alpha virt. eigenvalues --    2.91368   2.92262   2.92672   2.93018   2.93248
 Alpha virt. eigenvalues --    2.93829   2.94156   2.94600   2.94842   2.95201
 Alpha virt. eigenvalues --    2.95543   2.95833   2.95910   2.96389   2.96921
 Alpha virt. eigenvalues --    2.97232   2.97369   2.97965   2.98422   2.98744
 Alpha virt. eigenvalues --    2.98904   2.99018   2.99237   2.99410   2.99892
 Alpha virt. eigenvalues --    3.00167   3.00609   3.00648   3.01329   3.02065
 Alpha virt. eigenvalues --    3.02134   3.02979   3.03112   3.03175   3.03662
 Alpha virt. eigenvalues --    3.04888   3.05955   3.06366   3.07262   3.07518
 Alpha virt. eigenvalues --    3.08884   3.09226   3.10001   3.10047   3.10744
 Alpha virt. eigenvalues --    3.12054   3.14210   3.14561   3.14741   3.14854
 Alpha virt. eigenvalues --    3.15118   3.16002   3.16471   3.17013   3.18170
 Alpha virt. eigenvalues --    3.19283   3.19716   3.21206   3.22910   3.23154
 Alpha virt. eigenvalues --    3.23579   3.23997   3.24273   3.24748   3.25062
 Alpha virt. eigenvalues --    3.25105   3.27268   3.27811   3.27915   3.28422
 Alpha virt. eigenvalues --    3.28621   3.29422   3.31013   3.31309   3.31501
 Alpha virt. eigenvalues --    3.32081   3.33205   3.34223   3.35145   3.35383
 Alpha virt. eigenvalues --    3.36152   3.36446   3.36497   3.36778   3.37597
 Alpha virt. eigenvalues --    3.38255   3.38385   3.38695   3.38875   3.40076
 Alpha virt. eigenvalues --    3.41186   3.41443   3.43875   3.44418   3.44877
 Alpha virt. eigenvalues --    3.45124   3.45538   3.46144   3.46499   3.47094
 Alpha virt. eigenvalues --    3.48113   3.49231   3.49468   3.49859   3.50201
 Alpha virt. eigenvalues --    3.51834   3.52348   3.53203   3.56930   3.56953
 Alpha virt. eigenvalues --    3.58003   3.59103   3.60081   3.60327   3.61009
 Alpha virt. eigenvalues --    3.61098   3.62922   3.63104   3.63248   3.63332
 Alpha virt. eigenvalues --    3.66486   3.66916   3.68013   3.69940   3.70765
 Alpha virt. eigenvalues --    3.70835   3.75089   3.79049   3.82223   4.02080
 Alpha virt. eigenvalues --    4.04534   4.06059   4.15148   4.17031   4.17977
 Alpha virt. eigenvalues --    4.19136   4.19882   4.21941   4.22723   4.23575
 Alpha virt. eigenvalues --    4.25243   4.25747   4.27152   4.28880   4.29243
 Alpha virt. eigenvalues --    4.32174   4.33130   4.34665   4.35877   4.36520
 Alpha virt. eigenvalues --    4.38339   4.40918   4.41241   4.43259   4.43607
 Alpha virt. eigenvalues --    4.44212   4.44828   4.45599   4.47084   4.47333
 Alpha virt. eigenvalues --    4.48302   4.49364   4.50437   4.50863   4.51564
 Alpha virt. eigenvalues --    4.52331   4.53578   4.53959   4.55228   4.56633
 Alpha virt. eigenvalues --    4.58357   4.58873   4.59272   4.59692   4.61515
 Alpha virt. eigenvalues --    4.65024   4.65969   4.67817   4.68186   4.69151
 Alpha virt. eigenvalues --    4.70865   4.71600   4.74843   4.77001   4.78400
 Alpha virt. eigenvalues --    4.79715   4.82745   4.83784   4.84582   4.86262
 Alpha virt. eigenvalues --    4.87647   4.89609   4.96989
          Condensed to atoms (all electrons):
 Mulliken charges:
               1
     1  Mg   0.809662
     2  C    0.092481
     3  C   -0.252608
     4  C   -0.215930
     5  C   -0.174219
     6  N   -0.568816
     7  C    0.222695
     8  C   -0.175162
     9  C   -0.092569
    10  C    0.367173
    11  C   -0.297585
    12  C   -0.157138
    13  C   -0.239508
    14  C    0.609061
    15  O   -0.487965
    16  O   -0.504837
    17  N   -0.725642
    18  C    0.374119
    19  C    0.009731
    20  C    0.049373
    21  C    0.290583
    22  C   -0.370785
    23  C   -0.051423
    24  C   -0.251043
    25  N   -0.701842
    26  C    0.323775
    27  C    0.001169
    28  C    0.033732
    29  C    0.316885
    30  C   -0.369659
    31  C   -0.254819
    32  C   -0.304837
    33  N   -0.716723
    34  C    0.201579
    35  C    0.074644
    36  C   -0.108691
    37  C    0.373654
    38  C   -0.383261
    39  C    0.378027
    40  O   -0.329063
    41  C   -0.346008
    42  C    0.623406
    43  O   -0.525844
    44  O   -0.482676
    45  C   -0.074882
    46  C    0.045369
    47  C   -0.144150
    48  C    0.103215
    49  C   -0.367852
    50  C   -0.215203
    51  C   -0.185162
    52  C   -0.147482
    53  C   -0.049934
    54  C   -0.332024
    55  C   -0.165579
    56  C   -0.170194
    57  C   -0.162477
    58  C   -0.033385
    59  C   -0.319182
    60  C   -0.130478
    61  C   -0.160922
    62  C   -0.137870
    63  C   -0.045534
    64  C   -0.273403
    65  C   -0.302931
    66  H    0.056155
    67  H    0.078415
    68  H    0.076346
    69  H    0.142337
    70  H    0.090392
    71  H    0.096130
    72  H    0.093367
    73  H    0.095766
    74  H    0.103216
    75  H    0.130750
    76  H    0.113663
    77  H    0.160386
    78  H    0.099791
    79  H    0.116156
    80  H    0.121195
    81  H    0.078236
    82  H    0.108407
    83  H    0.073297
    84  H    0.129685
    85  H    0.109329
    86  H    0.091469
    87  H    0.106097
    88  H    0.105198
    89  H    0.077758
    90  H    0.114853
    91  H    0.121553
    92  H    0.125179
    93  H    0.147198
    94  H    0.139934
    95  H    0.160784
    96  H    0.135202
    97  H    0.147063
    98  H    0.138817
    99  H    0.128898
   100  H    0.112921
   101  H    0.087994
   102  H    0.110973
   103  H    0.132644
   104  H    0.123046
   105  H    0.103203
   106  H    0.071230
   107  H    0.091753
   108  H    0.088023
   109  H    0.087476
   110  H    0.093066
   111  H    0.082461
   112  H    0.102965
   113  H    0.101941
   114  H    0.111881
   115  H    0.071732
   116  H    0.084474
   117  H    0.098299
   118  H    0.086603
   119  H    0.056934
   120  H    0.065574
   121  H    0.088986
   122  H    0.117971
   123  H    0.104265
   124  H    0.074796
   125  H    0.065969
   126  H    0.079679
   127  H    0.078535
   128  H    0.045487
   129  H    0.046362
   130  H    0.089810
   131  H    0.094288
   132  H    0.089990
   133  H    0.082489
   134  H    0.103786
   135  H    0.084271
   136  H    0.087716
   137  H    0.094346
 Sum of Mulliken charges =  -0.00000
 Mulliken charges with hydrogens summed into heavy atoms:
               1
     1  Mg   0.809662
     2  C    0.092481
     3  C   -0.196454
     4  C   -0.137515
     5  C   -0.097873
     6  N   -0.568816
     7  C    0.222695
     8  C   -0.032826
     9  C   -0.002177
    10  C    0.367173
    11  C   -0.012322
    12  C    0.076829
    13  C    0.034540
    14  C    0.609061
    15  O   -0.487965
    16  O   -0.504837
    17  N   -0.725642
    18  C    0.374119
    19  C    0.009731
    20  C    0.049373
    21  C    0.290583
    22  C   -0.033643
    23  C    0.026813
    24  C   -0.069338
    25  N   -0.701842
    26  C    0.323775
    27  C    0.001169
    28  C    0.033732
    29  C    0.316885
    30  C   -0.039175
    31  C   -0.043524
    32  C    0.009328
    33  N   -0.716723
    34  C    0.201579
    35  C    0.074644
    36  C   -0.108691
    37  C    0.373654
    38  C    0.029050
    39  C    0.378027
    40  O   -0.329063
    41  C   -0.185223
    42  C    0.623406
    43  O   -0.525844
    44  O   -0.482676
    45  C    0.346199
    46  C    0.287187
    47  C   -0.056157
    48  C    0.103215
    49  C   -0.001189
    50  C   -0.040770
    51  C   -0.005386
    52  C    0.033060
    53  C    0.032527
    54  C   -0.015237
    55  C   -0.009373
    56  C    0.014709
    57  C   -0.039968
    58  C    0.055601
    59  C   -0.022150
    60  C    0.015170
    61  C   -0.036899
    62  C   -0.001698
    63  C    0.048755
    64  C    0.002863
    65  C   -0.036598
 Electronic spatial extent (au):  <R**2>=         178197.0697
 Charge=             -0.0000 electrons
 Dipole moment (field-independent basis, Debye):
    X=              2.3638    Y=             -0.2996    Z=             -0.0100  Tot=              2.3827
 Quadrupole moment (field-independent basis, Debye-Ang):
   XX=           -369.7463   YY=           -381.6688   ZZ=           -400.5768
   XY=             -9.4512   XZ=              5.6250   YZ=             -3.5271
 Traceless Quadrupole moment (field-independent basis, Debye-Ang):
   XX=             14.2510   YY=              2.3285   ZZ=            -16.5795
   XY=             -9.4512   XZ=              5.6250   YZ=             -3.5271
 Octapole moment (field-independent basis, Debye-Ang**2):
  XXX=           -600.5105  YYY=            -38.7884  ZZZ=              1.4824  XYY=            -93.0244
  XXY=           -354.8535  XXZ=           -162.1853  XZZ=              7.3850  YZZ=            -44.3462
  YYZ=             55.2627  XYZ=            -49.6318
 Hexadecapole moment (field-independent basis, Debye-Ang**3):
 XXXX=        -225789.0182 YYYY=         -16899.2668 ZZZZ=          -4136.3501 XXXY=          -3814.1973
 XXXZ=            458.3763 YYYX=           -464.3081 YYYZ=           -249.7304 ZZZX=             17.0549
 ZZZY=           -161.0896 XXYY=         -40107.5855 XXZZ=         -39109.0362 YYZZ=          -3479.7904
 XXYZ=            242.3291 YYXZ=             16.2514 ZZXY=            104.5149
 N-N= 8.763240639019D+03 E-N=-2.435206841463D+04  KE= 2.908166332526D+03

 Test job not archived.
 1\1\GINC-RYZEN-SSD3\SP\RCAM-B3LYP TD-FC\6-31G(d,p)\C55H72Mg1N4O5\PADAW
 AN\23-Oct-2019\0\\# td=(NStates=10) iop(3/107=0140000000,3/108=0140000
 000) CAM-B3LYP/6-31G(d,p)\\TD\\0,1\Mg,0,-7.1741990892,0.6143896797,0.1
 193099796\C,0,-4.8793268138,-1.9713892502,0.4974253774\C,0,-4.81258056
 44,2.7193562629,1.1083642936\C,0,-9.3329978886,3.0644488443,-0.3728786
 209\C,0,-9.532404268,-1.7727674517,-0.8963577508\N,0,-5.0616389455,0.4
 630775683,0.683135834\C,0,-4.3623838437,-0.7160622266,0.7539873015\C,0
 ,-2.8568666479,-0.4273280049,1.2201074519\C,0,-3.0259828875,0.97176830
 93,1.7181946259\C,0,-4.3113592226,1.3648668671,1.0469009513\C,0,-2.873
 1751085,1.2521817055,3.1387373998\C,0,-1.9084651274,-0.6587298831,-0.0
 003007043\C,0,-0.4886971237,-0.5124094723,0.4850370866\C,0,0.482907669
 2,-0.6658800201,-0.6416758194\O,0,0.2169722469,-1.1799994037,-1.757575
 0378\O,0,1.8125982848,-0.3459595028,-0.2926434844\N,0,-7.069594568,2.5
 883402413,0.4127064274\C,0,-5.9972368547,3.2749484487,0.7823962236\C,0
 ,-6.3556235521,4.7327939098,0.9063183963\C,0,-7.6601566111,4.836083495
 ,0.4398108881\C,0,-8.0835489081,3.5131016015,0.1431046497\C,0,-5.37497
 32785,5.7825893502,1.3366401892\C,0,-8.46717593,6.0581208801,0.2327833
 002\C,0,-8.1763868365,7.2918452688,0.0382595637\N,0,-9.0889339291,0.62
 05885372,-0.5213338387\C,0,-9.8545871177,1.834914174,-0.6041455388\C,0
 ,-11.1369084337,1.5106420546,-1.0672314727\C,0,-11.147883309,0.0548693
 642,-1.2330725735\C,0,-9.934323316,-0.3536138495,-0.8051398169\C,0,-12
 .2574439865,2.4925415351,-1.3109716281\C,0,-12.3724872944,-0.747155777
 8,-1.5689520724\C,0,-12.4637127033,-1.1746313483,-3.0418422896\N,0,-7.
 2387601281,-1.3878681484,-0.0902621449\C,0,-8.2440796303,-2.293415281,
 -0.626960502\C,0,-7.8388415517,-3.6933935223,-0.5470131303\C,0,-6.5110
 066227,-3.5399183073,-0.1926617583\C,0,-6.1813829165,-2.1342895835,0.0
 45576179\C,0,-8.6577361183,-4.880580877,-0.7897585229\C,0,-5.305817119
 4,-4.4537313584,0.2603245324\O,0,-5.2165930211,-5.5513877924,0.2304490
 797\C,0,-4.1485582658,-3.2929422283,0.5818490769\C,0,-3.4523095952,-3.
 6445605407,1.7944706268\O,0,-3.6389175464,-3.0791211449,2.929656681\O,
 0,-2.6156629142,-4.7067088234,1.7390919972\C,0,-1.9726999085,-5.360826
 552,2.9155028873\C,0,2.8113549121,-0.5672659843,-1.3425396289\C,0,4.12
 3545677,-0.3387977292,-0.5250850372\C,0,5.12562617,0.419905315,-1.0442
 843286\C,0,5.0295303696,1.3016447008,-2.3034474358\C,0,6.371453603,0.6
 21890996,-0.3333400202\C,0,7.6513828772,-0.0113830202,-0.9789275615\C,
 0,8.8543545179,0.1012003865,-0.1827008643\C,0,10.1324541384,-0.3879258
 909,-0.9409204864\C,0,9.9996871549,-1.8375030852,-1.3775294144\C,0,11.
 3549466118,-0.1646873593,-0.0035801593\C,0,12.7079479638,-0.341210637,
 -0.6332138612\C,0,13.8213278206,-0.1069974629,0.3029175048\C,0,15.2986
 552095,-0.199262538,-0.4147845288\C,0,15.5868527875,-1.6640091867,-0.7
 706343432\C,0,16.2866719212,0.3955639425,0.4788870734\C,0,17.632548959
 2,0.5124093667,-0.0534236223\C,0,18.7118765872,1.1409159384,0.74700706
 24\C,0,20.1223799178,1.2230580504,0.1717767813\C,0,20.3002002489,2.018
 9475428,-0.9525610775\C,0,21.1054384179,1.7639507645,1.3224689485\H,0,
 -3.8707673352,3.3920375855,1.3241469357\H,0,-9.9611198637,3.8632939133
 ,-0.7686311657\H,0,-10.128602122,-2.5824883035,-1.2572892764\H,0,-2.76
 27849692,-1.0741670804,2.1197892175\H,0,-2.1853681748,1.7438528739,1.3
 586402305\H,0,-1.7545691802,1.2009555846,3.5497551889\H,0,-3.405405326
 7,2.3521846751,3.4954141089\H,0,-3.3142424054,0.3644608138,3.885242408
 7\H,0,-2.2475472816,-1.6509410145,-0.4340483908\H,0,-2.2684310453,-0.3
 357514838,-0.9062857302\H,0,-0.2722743214,0.5454124647,1.0668389358\H,
 0,-0.2354594996,-1.0723202074,1.2584087168\H,0,-4.6761297807,6.1558507
 602,0.3864704292\H,0,-5.9748121515,6.6922290217,1.6467693661\H,0,-4.66
 39096198,5.4275879302,2.0999236711\H,0,-9.6090684057,5.8382467608,0.12
 40602505\H,0,-8.8664572861,8.0769062801,0.1057911724\H,0,-7.0819732339
 ,7.7470152707,0.2466701964\H,0,-11.9776331761,3.1526125666,-2.15647194
 56\H,0,-13.2397991934,1.8931449526,-1.3496184855\H,0,-12.4576427257,3.
 1085339388,-0.2427857766\H,0,-12.4885913872,-1.5317455728,-0.868617069
 6\H,0,-13.2878347871,-0.3110449175,-1.2937367307\H,0,-13.1873091971,-2
 .0560768469,-3.002393237\H,0,-12.8137915532,-0.3856372896,-3.734811056
 1\H,0,-11.7430776554,-1.7402169657,-3.3761167272\H,0,-9.3305539513,-4.
 8249153398,-1.6951871001\H,0,-7.9824819492,-5.6922693351,-0.849449173\
 H,0,-9.2867408399,-4.9652133083,0.1304447883\H,0,-3.4814982818,-3.4298
 94574,-0.3465513081\H,0,-1.4461257026,-4.681776555,3.5786045475\H,0,-2
 .804545642,-5.8007107135,3.3837956017\H,0,-1.2898604125,-6.0182059977,
 2.5250892118\H,0,2.7237370448,-1.5883585258,-1.5958136577\H,0,2.774029
 1031,0.0494678652,-2.1194239622\H,0,4.1339226166,-0.7431723234,0.44760
 71369\H,0,4.0929802343,1.4293640327,-2.9038137237\H,0,5.2530286013,2.1
 874531355,-1.894023757\H,0,5.8241677396,0.97759809,-2.9627775771\H,0,6
 .4859416175,1.5810043281,-0.2891914214\H,0,6.1937927273,0.1826350146,0
 .778688876\H,0,7.2877625184,-1.0655876305,-1.1941235411\H,0,7.63430496
 15,0.3888157581,-1.9866888158\H,0,8.9598020774,1.1953021467,0.12692665
 52\H,0,8.6333611589,-0.6550538608,0.6262172403\H,0,10.3381055221,0.314
 1361799,-1.7242562562\H,0,9.0092874251,-2.0361106554,-1.8433392951\H,0
 ,10.8513782225,-2.2495514677,-1.9799941854\H,0,9.9753150051,-2.4776993
 925,-0.5560476955\H,0,11.4117159338,0.9814325508,0.1512270861\H,0,11.4
 155119609,-0.86631897,0.8040678798\H,0,12.7095666924,-1.3116580272,-0.
 9213904739\H,0,12.6371326193,0.1578652655,-1.5522635902\H,0,13.7164031
 435,1.0386871242,0.77899456\H,0,13.7229883891,-0.9664690842,1.17238240
 79\H,0,15.2459469868,0.5507949399,-1.249674627\H,0,15.5508570867,-2.27
 95946854,0.0264950519\H,0,15.0148490167,-2.2678549791,-1.4728550059\H,
 0,16.55831389,-1.7720711357,-1.5464467535\H,0,15.6887040801,1.37789686
 24,0.7529687179\H,0,16.5397456766,-0.1432007158,1.4258355153\H,0,17.91
 6230815,-0.6182787917,-0.1888748951\H,0,17.681078189,1.0777590344,-1.1
 448379677\H,0,18.3215508379,2.2908509847,0.9264177427\H,0,18.788495126
 9,0.6683304443,1.6660729589\H,0,20.4123713038,0.2499014259,-0.04646689
 63\H,0,20.4645632896,3.0939883837,-0.5368239519\H,0,21.3335594698,1.65
 4281306,-1.3466059146\H,0,19.5471855518,1.9305244547,-1.764736897\H,0,
 21.0072307384,1.3507343772,2.4392333649\H,0,22.1870933498,1.4133798692
 ,0.9163058968\H,0,20.8361561482,2.9062543016,1.5630122324\\Version=ES6
 4L-G16RevA.03\State=1-A\HF=-2933.4179315\RMSD=3.830e-09\PG=C01 [X(C55H
 72Mg1N4O5)]\\@


 TO SEE A WORLD IN A GRAIN OF SAND
 AND A HEAVEN IN A WILD FLOWER
 HOLD INFINITY IN THE PALM OF YOUR HAND
 AND ETERNITY IN AN HOUR

                       -- WILLIAM BLAKE
 Job cpu time:       1 days 13 hours 11 minutes 30.5 seconds.
 Elapsed time:       0 days 12 hours 24 minutes 41.6 seconds.
 File lengths (MBytes):  RWF=  11883 Int=      0 D2E=      0 Chk=    697 Scr=      1
 Normal termination of Gaussian 16 at Wed Oct 23 21:45:34 2019.
