 Entering Gaussian System, Link 0=g16
 Input=Geometria-36-.com
 Output=Geometria-36-.log
 Initial command:
 /usr/local/g16/l1.exe "/home/padawan/israel-mol/chlorophyll-a/spectra/abs_nstates_10/Gau-3022.inp" -scrdir="/home/padawan/israel-mol/chlorophyll-a/spectra/abs_nstates_10/"
 Entering Link 1 = /usr/local/g16/l1.exe PID=      3024.
  
 Copyright (c) 1988,1990,1992,1993,1995,1998,2003,2009,2016,
            Gaussian, Inc.  All Rights Reserved.
  
 This is part of the Gaussian(R) 16 program.  It is based on
 the Gaussian(R) 09 system (copyright 2009, Gaussian, Inc.),
 the Gaussian(R) 03 system (copyright 2003, Gaussian, Inc.),
 the Gaussian(R) 98 system (copyright 1998, Gaussian, Inc.),
 the Gaussian(R) 94 system (copyright 1995, Gaussian, Inc.),
 the Gaussian 92(TM) system (copyright 1992, Gaussian, Inc.),
 the Gaussian 90(TM) system (copyright 1990, Gaussian, Inc.),
 the Gaussian 88(TM) system (copyright 1988, Gaussian, Inc.),
 the Gaussian 86(TM) system (copyright 1986, Carnegie Mellon
 University), and the Gaussian 82(TM) system (copyright 1983,
 Carnegie Mellon University). Gaussian is a federally registered
 trademark of Gaussian, Inc.
  
 This software contains proprietary and confidential information,
 including trade secrets, belonging to Gaussian, Inc.
  
 This software is provided under written license and may be
 used, copied, transmitted, or stored only in accord with that
 written license.
  
 The following legend is applicable only to US Government
 contracts under FAR:
  
                    RESTRICTED RIGHTS LEGEND
  
 Use, reproduction and disclosure by the US Government is
 subject to restrictions as set forth in subparagraphs (a)
 and (c) of the Commercial Computer Software - Restricted
 Rights clause in FAR 52.227-19.
  
 Gaussian, Inc.
 340 Quinnipiac St., Bldg. 40, Wallingford CT 06492
  
  
 ---------------------------------------------------------------
 Warning -- This program may not be used in any manner that
 competes with the business of Gaussian, Inc. or will provide
 assistance to any competitor of Gaussian, Inc.  The licensee
 of this program is prohibited from giving any competitor of
 Gaussian, Inc. access to this program.  By using this program,
 the user acknowledges that Gaussian, Inc. is engaged in the
 business of creating and licensing software in the field of
 computational chemistry and represents and warrants to the
 licensee that it is not a competitor of Gaussian, Inc. and that
 it will not use this program in any manner prohibited above.
 ---------------------------------------------------------------
  

 Cite this work as:
 Gaussian 16, Revision A.03,
 M. J. Frisch, G. W. Trucks, H. B. Schlegel, G. E. Scuseria, 
 M. A. Robb, J. R. Cheeseman, G. Scalmani, V. Barone, 
 G. A. Petersson, H. Nakatsuji, X. Li, M. Caricato, A. V. Marenich, 
 J. Bloino, B. G. Janesko, R. Gomperts, B. Mennucci, H. P. Hratchian, 
 J. V. Ortiz, A. F. Izmaylov, J. L. Sonnenberg, D. Williams-Young, 
 F. Ding, F. Lipparini, F. Egidi, J. Goings, B. Peng, A. Petrone, 
 T. Henderson, D. Ranasinghe, V. G. Zakrzewski, J. Gao, N. Rega, 
 G. Zheng, W. Liang, M. Hada, M. Ehara, K. Toyota, R. Fukuda, 
 J. Hasegawa, M. Ishida, T. Nakajima, Y. Honda, O. Kitao, H. Nakai, 
 T. Vreven, K. Throssell, J. A. Montgomery, Jr., J. E. Peralta, 
 F. Ogliaro, M. J. Bearpark, J. J. Heyd, E. N. Brothers, K. N. Kudin, 
 V. N. Staroverov, T. A. Keith, R. Kobayashi, J. Normand, 
 K. Raghavachari, A. P. Rendell, J. C. Burant, S. S. Iyengar, 
 J. Tomasi, M. Cossi, J. M. Millam, M. Klene, C. Adamo, R. Cammi, 
 J. W. Ochterski, R. L. Martin, K. Morokuma, O. Farkas, 
 J. B. Foresman, and D. J. Fox, Gaussian, Inc., Wallingford CT, 2016.
 
 ******************************************
 Gaussian 16:  ES64L-G16RevA.03 25-Dec-2016
                23-Oct-2019 
 ******************************************
 %nproc=3
 Will use up to    3 processors via shared memory.
 %Mem=2GB
 ----------------------------------------------------------------------
 # td=(NStates=10) iop(3/107=0140000000,3/108=0140000000) CAM-B3LYP/6-3
 1G(d,p)
 ----------------------------------------------------------------------
 1/38=1,172=1/1;
 2/12=2,17=6,18=5,40=1/2;
 3/5=1,6=6,7=101,11=9,25=1,30=1,74=-40,107=140000000,108=140000000/1,2,3,8;
 4//1;
 5/5=2,38=5/2;
 8/6=1,10=2,108=10/1;
 9/41=10,42=1,70=2/14;
 6/7=2,8=2,9=2,10=2/1;
 99/5=1,9=1/99;
 --
 TD
 --
 Symbolic Z-matrix:
 Charge =  0 Multiplicity = 1
 12                   -7.18343   0.5894    0.05878 
 6                    -4.91272  -1.93884   0.48564 
 6                    -4.77454   2.85219   1.11209 
 6                    -9.37714   3.072    -0.42508 
 6                    -9.54884  -1.71194  -0.82879 
 7                    -5.1088    0.44926   0.7158 
 6                    -4.43967  -0.76456   0.69606 
 6                    -2.94532  -0.48561   1.18841 
 6                    -3.03833   0.97952   1.78746 
 6                    -4.39611   1.47474   1.19613 
 6                    -2.77924   1.16365   3.3018 
 6                    -1.93724  -0.50432   0.03478 
 6                    -0.49372  -0.5115    0.49942 
 6                     0.4811   -0.69013  -0.60852 
 8                     0.31115  -1.12425  -1.74687 
 8                     1.73461  -0.4448   -0.13974 
 7                    -7.07061   2.6171    0.37312 
 6                    -6.08527   3.41775   0.81573 
 6                    -6.45165   4.75205   0.95201 
 6                    -7.75703   4.76096   0.39608 
 6                    -8.1679    3.41835   0.13485 
 6                    -5.74598   5.89365   1.42376 
 6                    -8.67122   6.02762   0.3867 
 6                    -8.2875    7.25603   0.15458 
 7                    -9.14677   0.65009  -0.46297 
 6                    -9.88341   1.78958  -0.70928 
 6                    -11.17432   1.52526  -1.22817 
 6                    -11.20541   0.10867  -1.31732 
 6                    -9.94626  -0.30701  -0.8714 
 6                    -12.29517   2.31734  -1.49217 
 6                    -12.39574  -0.73039  -1.72008 
 6                    -12.43107  -1.06466  -3.25795 
 7                    -7.25028  -1.39202  -0.22633 
 6                    -8.31009  -2.17353  -0.44527 
 6                    -7.78697  -3.6064   -0.51189 
 6                    -6.54692  -3.5846   -0.08368 
 6                    -6.2118   -2.1476    0.07557 
 6                    -8.70469  -4.8762   -0.69956 
 6                    -5.36828  -4.24104   0.0714 
 8                    -5.10947  -5.48071   0.0938 
 6                    -4.20172  -3.2288    0.49445 
 6                    -3.7037   -3.71233   1.82871 
 8                    -3.98939  -3.31618   2.92985 
 8                    -2.6699   -4.61792   1.71518 
 6                    -2.22702  -5.05801   2.96869 
 6                     2.89919  -0.64973  -1.04184 
 6                     4.19581  -0.46024  -0.4167 
 6                     5.17553   0.18813  -0.93055 
 6                     5.11676   1.02996  -2.15136 
 6                     6.4152    0.37224  -0.12544 
 6                     7.67105  -0.07525  -0.96202 
 6                     8.85423  -0.10025   0.00861 
 6                     10.1749  -0.51641  -0.79808 
 6                     10.14029  -1.95531  -1.33666 
 6                     11.49381  -0.18595   0.0417 
 6                     12.7679  -0.44651  -0.74083 
 6                     14.02762  -0.07758   0.16025 
 6                     15.40065  -0.15256  -0.54209 
 6                     15.86857  -1.5977   -0.95758 
 6                     16.52568   0.45619   0.42464 
 6                     17.83258   0.58894  -0.23938 
 6                     18.87905   1.31831   0.68973 
 6                     20.26884   1.29836   0.21907 
 6                     20.50874   2.04555  -1.16213 
 6                     21.19883   1.97423   1.21288 
 1                    -3.98141   3.49404   1.58166 
 1                    -10.20284   3.7623   -0.62504 
 1                    -10.35682  -2.55703  -0.97708 
 1                    -2.78105  -1.11442   2.00393 
 1                    -2.32319   1.59021   1.26025 
 1                    -1.89395   0.89108   3.70296 
 1                    -3.13851   2.11331   3.51371 
 1                    -3.40145   0.67912   3.78562 
 1                    -2.1559   -1.34029  -0.48213 
 1                    -2.06602   0.24222  -0.57742 
 1                    -0.24054   0.41586   0.86033 
 1                    -0.45327  -1.21351   1.29562 
 1                    -5.11009   6.14072   0.46431 
 1                    -6.4419    6.57919   1.64829 
 1                    -4.97318   5.45216   2.2945 
 1                    -9.68874   5.77127   0.43931 
 1                    -8.7245    8.33661   0.35617 
 1                    -7.11876   7.49522  -0.14506 
 1                    -11.92098   2.98499  -2.21951 
 1                    -13.23131   1.88944  -1.86197 
 1                    -12.63983   2.82854  -0.56165 
 1                    -12.49676  -1.65244  -1.1373 
 1                    -13.29871  -0.11564  -1.48744 
 1                    -13.23266  -1.44049  -3.60919 
 1                    -12.23785  -0.23172  -3.88855 
 1                    -11.74637  -1.77606  -3.65782 
 1                    -9.21951  -4.8452   -1.59117 
 1                    -8.25006  -5.84091  -0.70906 
 1                    -9.48481  -5.03485   0.2345 
 1                    -3.43601  -3.48068  -0.09619 
 1                    -1.67618  -4.379     3.50889 
 1                    -3.10307  -5.35571   3.45957 
 1                    -1.69032  -6.15633   2.80441 
 1                     2.97454  -1.82112  -1.43036 
 1                     2.89939   0.07904  -1.92882 
 1                     4.2782   -1.03523   0.46783 
 1                     4.10794   1.1714   -2.57522 
 1                     5.48508   2.10986  -2.2312 
 1                     5.58994   0.62006  -3.14093 
 1                     6.46737   1.24779   0.32609 
 1                     6.2703   -0.37343   0.87204 
 1                     7.61111  -1.24206  -1.37085 
 1                     7.59428   0.49223  -1.87927 
 1                     9.09671   0.88786   0.5564 
 1                     8.84959  -0.84321   0.88518 
 1                     10.06158   0.13998  -1.55667 
 1                     9.32906  -2.20833  -2.24507 
 1                     11.25688  -2.16704  -1.7725 
 1                     10.32872  -2.72975  -0.47117 
 1                     11.54198   0.96109   0.35436 
 1                     11.6383  -0.70821   1.02006 
 1                     12.94957  -1.34653  -1.09587 
 1                     12.92772   0.0097   -1.57564 
 1                     13.99479   0.83169   0.64546 
 1                     14.05671  -0.76044   1.15617 
 1                     15.41301   0.49187  -1.46414 
 1                     16.08632  -2.10221   0.10689 
 1                     15.1978  -1.94504  -1.72308 
 1                     16.83733  -1.65289  -1.29564 
 1                     16.33498   1.30486   0.81495 
 1                     16.78492  -0.26314   1.15381 
 1                     18.19607  -0.35931  -0.48091 
 1                     17.60289   1.0628   -1.23596 
 1                     18.46037   2.33847   0.79775 
 1                     18.64668   0.69885   1.60512 
 1                     20.65673   0.12263   0.02131 
 1                     20.12808   3.07133  -0.99342 
 1                     21.65709   2.08904  -1.30178 
 1                     19.90779   1.76343  -1.88029 
 1                     21.30463   1.31422   2.29772 
 1                     22.29071   2.10913   0.70452 
 1                     20.91548   2.92827   1.4544 
 
 Stoichiometry    C55H72MgN4O5
 Framework group  C1[X(C55H72MgN4O5)]
 Deg. of freedom   405
 Full point group                 C1      NOp   1
 Largest Abelian subgroup         C1      NOp   1
 Largest concise Abelian subgroup C1      NOp   1
                         Standard orientation:                         
 ---------------------------------------------------------------------
 Center     Atomic      Atomic             Coordinates (Angstroms)
 Number     Number       Type             X           Y           Z
 ---------------------------------------------------------------------
      1         12           0       -7.185358    0.597418    0.055015
      2          6           0       -4.916997   -1.933127    0.480661
      3          6           0       -4.775042    2.857212    1.111502
      4          6           0       -9.376734    3.082319   -0.427644
      5          6           0       -9.552298   -1.701108   -0.835751
      6          7           0       -5.111162    0.454922    0.712880
      7          6           0       -4.443051   -0.759440    0.692361
      8          6           0       -2.948691   -0.482211    1.185669
      9          6           0       -3.040748    0.982459    1.785995
     10          6           0       -4.397822    1.479365    1.194468
     11          6           0       -2.782208    1.165006    3.300625
     12          6           0       -1.940086   -0.500737    0.032496
     13          6           0       -0.496792   -0.509557    0.497804
     14          6           0        0.478394   -0.688018   -0.609839
     15          8           0        0.308616   -1.120967   -1.748661
     16          8           0        1.731894   -0.444173   -0.140243
     17          7           0       -7.070970    2.624743    0.371237
     18          6           0       -6.085150    3.424156    0.815031
     19          6           0       -6.450469    4.758636    0.952346
     20          6           0       -7.755572    4.769157    0.395804
     21          6           0       -8.167459    3.427139    0.133175
     22          6           0       -5.744050    5.899215    1.425455
     23          6           0       -8.668682    6.036603    0.387139
     24          6           0       -8.283811    7.264899    0.156312
     25          7           0       -9.148400    0.660251   -0.467606
     26          6           0       -9.883956    1.800586   -0.713232
     27          6           0      -11.174847    1.537835   -1.232970
     28          6           0      -11.207095    0.121354   -1.323417
     29          6           0       -9.948514   -0.295801   -0.877275
     30          6           0      -12.294895    2.331105   -1.496784
     31          6           0      -12.397947   -0.716339   -1.727491
     32          6           0      -12.432836   -1.049187   -3.265685
     33          7           0       -7.253757   -1.383682   -0.231915
     34          6           0       -8.314122   -2.164098   -0.452066
     35          6           0       -7.792187   -3.597353   -0.519731
     36          6           0       -6.552325   -3.576990   -0.090919
     37          6           0       -6.216056   -2.140418    0.069786
     38          6           0       -8.710901   -4.866198   -0.708979
     39          6           0       -5.374319   -4.234568    0.064119
     40          8           0       -5.116571   -5.474478    0.085522
     41          6           0       -4.207100   -3.223697    0.488637
     42          6           0       -3.710121   -3.708856    1.822698
     43          8           0       -3.995992   -3.313465    2.924053
     44          8           0       -2.677031   -4.615223    1.708833
     45          6           0       -2.235112   -5.056817    2.962152
     46          6           0        2.896728   -0.649283   -1.041981
     47          6           0        4.193212   -0.461454   -0.416064
     48          6           0        5.173723    0.186549   -0.928866
     49          6           0        5.116241    1.029526   -2.148942
     50          6           0        6.413166    0.368873   -0.123003
     51          6           0        7.669037   -0.078923   -0.959392
     52          6           0        8.851737   -0.105805    0.011766
     53          6           0       10.172427   -0.522357   -0.794672
     54          6           0       10.136852   -1.960746   -1.334566
     55          6           0       11.491223   -0.193776    0.046028
     56          6           0       12.765464   -0.454714   -0.736147
     57          6           0       14.025066   -0.087670    0.165867
     58          6           0       15.398360   -0.163176   -0.535894
     59          6           0       15.865254   -1.608342   -0.952475
     60          6           0       16.523451    0.443743    0.431913
     61          6           0       17.830779    0.575980   -0.231375
     62          6           0       18.877434    1.303628    0.698889
     63          6           0       20.267430    1.282915    0.228866
     64          6           0       20.508612    2.031151   -1.151550
     65          6           0       21.197517    1.957103    1.223720
     66          1           0       -3.981590    3.497963    1.582023
     67          1           0      -10.201755    3.773504   -0.627362
     68          1           0      -10.360935   -2.545372   -0.985185
     69          1           0       -2.785341   -1.111893    2.000691
     70          1           0       -2.324840    1.593016    1.259672
     71          1           0       -1.897346    0.891324    3.701952
     72          1           0       -3.140774    2.114777    3.513215
     73          1           0       -3.405062    0.680568    3.783713
     74          1           0       -2.159212   -1.336049   -0.485278
     75          1           0       -2.067946    0.246465   -0.579096
     76          1           0       -0.242998    0.417260    0.859670
     77          1           0       -0.457317   -1.212324    1.293393
     78          1           0       -5.107501    6.146609    0.466527
     79          1           0       -6.439492    6.585140    1.650277
     80          1           0       -4.972036    5.456283    2.296164
     81          1           0       -9.686444    5.781072    0.439042
     82          1           0       -8.719994    8.345668    0.358666
     83          1           0       -7.114727    7.503365   -0.142562
     84          1           0      -11.919796    2.999085   -2.223344
     85          1           0      -13.231225    1.904335   -1.867411
     86          1           0      -12.639563    2.841750   -0.565963
     87          1           0      -12.500027   -1.638822   -1.145598
     88          1           0      -13.300501   -0.101024   -1.494720
     89          1           0      -13.234583   -1.424014   -3.617642
     90          1           0      -12.238616   -0.215844   -3.895434
     91          1           0      -11.748550   -1.760808   -3.665876
     92          1           0       -9.225276   -4.833953   -1.600800
     93          1           0       -8.257083   -5.831289   -0.719132
     94          1           0       -9.491595   -5.025029    0.224564
     95          1           0       -3.441326   -3.475698   -0.101866
     96          1           0       -1.683954   -4.378763    3.503223
     97          1           0       -3.111646   -5.354215    3.452355
     98          1           0       -1.699273   -6.155447    2.797132
     99          1           0        2.971265   -1.820383   -1.431520
    100          1           0        2.897962    0.080292   -1.928307
    101          1           0        4.274691   -1.037313    0.467988
    102          1           0        4.107744    1.172206   -2.573148
    103          1           0        5.485518    2.109182   -2.227629
    104          1           0        5.589545    0.620122   -3.138652
    105          1           0        6.465868    1.243976    0.329341
    106          1           0        6.267165   -0.377570    0.873733
    107          1           0        7.608299   -1.245308   -1.369309
    108          1           0        7.593177    0.489445   -1.876167
    109          1           0        9.094788    0.881605    0.560564
    110          1           0        8.846051   -0.849554    0.887668
    111          1           0       10.060022    0.134811   -1.552725
    112          1           0        9.325834   -2.212250   -2.243590
    113          1           0       11.253465   -2.173030   -1.770080
    114          1           0       10.324216   -2.736127   -0.469691
    115          1           0       11.540218    0.952940    0.359739
    116          1           0       11.634812   -0.717045    1.023979
    117          1           0       12.946534   -1.354567   -1.091907
    118          1           0       12.926062    0.002115   -1.570460
    119          1           0       13.992782    0.821190    0.651880
    120          1           0       14.053110   -0.771447    1.161181
    121          1           0       15.411710    0.482072   -1.457355
    122          1           0       16.082074   -2.113992    0.111648
    123          1           0       15.194547   -1.954421   -1.718601
    124          1           0       16.834127   -1.664046   -1.290127
    125          1           0       16.333290    1.292222    0.822903
    126          1           0       16.781740   -0.276467    1.160552
    127          1           0       18.193578   -0.372360   -0.473592
    128          1           0       17.601963    1.050934   -1.227630
    129          1           0       18.459571    2.324038    0.807637
    130          1           0       18.644104    0.683540    1.613605
    131          1           0       20.654406    0.107038    0.030225
    132          1           0       20.128742    3.057098   -0.982090
    133          1           0       21.657065    2.073797   -1.290619
    134          1           0       19.907761    1.750188   -1.870243
    135          1           0       21.302248    1.296024    2.308014
    136          1           0       22.289757    2.091532    0.716002
    137          1           0       20.914870    2.911160    1.465971
 ---------------------------------------------------------------------
 Rotational constants (GHZ):           0.0653143           0.0060381           0.0056966
 Standard basis: 6-31G(d,p) (6D, 7F)
 There are  1339 symmetry adapted cartesian basis functions of A   symmetry.
 There are  1339 symmetry adapted basis functions of A   symmetry.
  1339 basis functions,  2348 primitive gaussians,  1339 cartesian basis functions
   241 alpha electrons      241 beta electrons
       nuclear repulsion energy      8756.2331405095 Hartrees.
 NAtoms=  137 NActive=  137 NUniq=  137 SFac= 1.00D+00 NAtFMM=   60 NAOKFM=T Big=T
 Integral buffers will be    131072 words long.
 Raffenetti 1 integral format.
 Two-electron integral symmetry is turned on.
 One-electron integrals computed using PRISM.
 NBasis=  1339 RedAO= T EigKep=  3.16D-04  NBF=  1339
 NBsUse=  1339 1.00D-06 EigRej= -1.00D+00 NBFU=  1339
 ExpMin= 4.21D-02 ExpMax= 1.17D+04 ExpMxC= 1.76D+03 IAcc=3 IRadAn=         5 AccDes= 0.00D+00
 Harris functional with IExCor=20419 and IRadAn=       5 diagonalized for initial guess.
 HarFok:  IExCor=20419 AccDes= 0.00D+00 IRadAn=         5 IDoV= 1 UseB2=F ITyADJ=14
 ICtDFT=  3500011 ScaDFX=  1.000000  1.000000  1.000000  1.000000
 FoFCou: FMM=F IPFlag=           0 FMFlag=      100000 FMFlg1=        2001
         NFxFlg=           0 DoJE=T BraDBF=F KetDBF=T FulRan=T
         wScrn=  0.000000 ICntrl=       500 IOpCl=  0 I1Cent=   200000004 NGrid=           0
         NMat0=    1 NMatS0=      1 NMatT0=    0 NMatD0=    1 NMtDS0=    0 NMtDT0=    0
 Petite list used in FoFCou.
 Requested convergence on RMS density matrix=1.00D-08 within 128 cycles.
 Requested convergence on MAX density matrix=1.00D-06.
 Requested convergence on             energy=1.00D-06.
 No special actions if energy rises.
 SCF Done:  E(RCAM-B3LYP) =  -2933.38056609     A.U. after   16 cycles
            NFock= 16  Conv=0.29D-08     -V/T= 2.0082
 DoSCS=F DFT=T ScalE2(SS,OS)=  1.000000  1.000000
 ExpMin= 4.21D-02 ExpMax= 1.17D+04 ExpMxC= 1.76D+03 IAcc=3 IRadAn=         5 AccDes= 0.00D+00
 HarFok:  IExCor=  205 AccDes= 0.00D+00 IRadAn=         5 IDoV=-2 UseB2=F ITyADJ=14
 ICtDFT= 12500011 ScaDFX=  1.000000  1.000000  1.000000  1.000000
 GSVD:  LWork=       -5313 too small for GESVD, short by       24840 words or       24840 for optimal perf.
 Range of M.O.s used for correlation:    70  1339
 NBasis=  1339 NAE=   241 NBE=   241 NFC=    69 NFV=     0
 NROrb=   1270 NOA=   172 NOB=   172 NVA=  1098 NVB=  1098
 Orbital symmetries:
       Occupied  (A) (A) (A) (A) (A) (A) (A) (A) (A) (A) (A) (A)
                 (A) (A) (A) (A) (A) (A) (A) (A) (A) (A) (A) (A)
                 (A) (A) (A) (A) (A) (A) (A) (A) (A) (A) (A) (A)
                 (A) (A) (A) (A) (A) (A) (A) (A) (A) (A) (A) (A)
                 (A) (A) (A) (A) (A) (A) (A) (A) (A) (A) (A) (A)
                 (A) (A) (A) (A) (A) (A) (A) (A) (A) (A) (A) (A)
                 (A) (A) (A) (A) (A) (A) (A) (A) (A) (A) (A) (A)
                 (A) (A) (A) (A) (A) (A) (A) (A) (A) (A) (A) (A)
                 (A) (A) (A) (A) (A) (A) (A) (A) (A) (A) (A) (A)
                 (A) (A) (A) (A) (A) (A) (A) (A) (A) (A) (A) (A)
                 (A) (A) (A) (A) (A) (A) (A) (A) (A) (A) (A) (A)
                 (A) (A) (A) (A) (A) (A) (A) (A) (A) (A) (A) (A)
                 (A) (A) (A) (A) (A) (A) (A) (A) (A) (A) (A) (A)
                 (A) (A) (A) (A) (A) (A) (A) (A) (A) (A) (A) (A)
                 (A) (A) (A) (A) (A) (A) (A) (A) (A) (A) (A) (A)
                 (A) (A) (A) (A) (A) (A) (A) (A) (A) (A) (A) (A)
                 (A) (A) (A) (A) (A) (A) (A) (A) (A) (A) (A) (A)
                 (A) (A) (A) (A) (A) (A) (A) (A) (A) (A) (A) (A)
                 (A) (A) (A) (A) (A) (A) (A) (A) (A) (A) (A) (A)
                 (A) (A) (A) (A) (A) (A) (A) (A) (A) (A) (A) (A)
                 (A)
       Virtual   (A) (A) (A) (A) (A) (A) (A) (A) (A) (A) (A) (A)
                 (A) (A) (A) (A) (A) (A) (A) (A) (A) (A) (A) (A)
                 (A) (A) (A) (A) (A) (A) (A) (A) (A) (A) (A) (A)
                 (A) (A) (A) (A) (A) (A) (A) (A) (A) (A) (A) (A)
                 (A) (A) (A) (A) (A) (A) (A) (A) (A) (A) (A) (A)
                 (A) (A) (A) (A) (A) (A) (A) (A) (A) (A) (A) (A)
                 (A) (A) (A) (A) (A) (A) (A) (A) (A) (A) (A) (A)
                 (A) (A) (A) (A) (A) (A) (A) (A) (A) (A) (A) (A)
                 (A) (A) (A) (A) (A) (A) (A) (A) (A) (A) (A) (A)
                 (A) (A) (A) (A) (A) (A) (A) (A) (A) (A) (A) (A)
                 (A) (A) (A) (A) (A) (A) (A) (A) (A) (A) (A) (A)
                 (A) (A) (A) (A) (A) (A) (A) (A) (A) (A) (A) (A)
                 (A) (A) (A) (A) (A) (A) (A) (A) (A) (A) (A) (A)
                 (A) (A) (A) (A) (A) (A) (A) (A) (A) (A) (A) (A)
                 (A) (A) (A) (A) (A) (A) (A) (A) (A) (A) (A) (A)
                 (A) (A) (A) (A) (A) (A) (A) (A) (A) (A) (A) (A)
                 (A) (A) (A) (A) (A) (A) (A) (A) (A) (A) (A) (A)
                 (A) (A) (A) (A) (A) (A) (A) (A) (A) (A) (A) (A)
                 (A) (A) (A) (A) (A) (A) (A) (A) (A) (A) (A) (A)
                 (A) (A) (A) (A) (A) (A) (A) (A) (A) (A) (A) (A)
                 (A) (A) (A) (A) (A) (A) (A) (A) (A) (A) (A) (A)
                 (A) (A) (A) (A) (A) (A) (A) (A) (A) (A) (A) (A)
                 (A) (A) (A) (A) (A) (A) (A) (A) (A) (A) (A) (A)
                 (A) (A) (A) (A) (A) (A) (A) (A) (A) (A) (A) (A)
                 (A) (A) (A) (A) (A) (A) (A) (A) (A) (A) (A) (A)
                 (A) (A) (A) (A) (A) (A) (A) (A) (A) (A) (A) (A)
                 (A) (A) (A) (A) (A) (A) (A) (A) (A) (A) (A) (A)
                 (A) (A) (A) (A) (A) (A) (A) (A) (A) (A) (A) (A)
                 (A) (A) (A) (A) (A) (A) (A) (A) (A) (A) (A) (A)
                 (A) (A) (A) (A) (A) (A) (A) (A) (A) (A) (A) (A)
                 (A) (A) (A) (A) (A) (A) (A) (A) (A) (A) (A) (A)
                 (A) (A) (A) (A) (A) (A) (A) (A) (A) (A) (A) (A)
                 (A) (A) (A) (A) (A) (A) (A) (A) (A) (A) (A) (A)
                 (A) (A) (A) (A) (A) (A) (A) (A) (A) (A) (A) (A)
                 (A) (A) (A) (A) (A) (A) (A) (A) (A) (A) (A) (A)
                 (A) (A) (A) (A) (A) (A) (A) (A) (A) (A) (A) (A)
                 (A) (A) (A) (A) (A) (A) (A) (A) (A) (A) (A) (A)
                 (A) (A) (A) (A) (A) (A) (A) (A) (A) (A) (A) (A)
                 (A) (A) (A) (A) (A) (A) (A) (A) (A) (A) (A) (A)
                 (A) (A) (A) (A) (A) (A) (A) (A) (A) (A) (A) (A)
                 (A) (A) (A) (A) (A) (A) (A) (A) (A) (A) (A) (A)
                 (A) (A) (A) (A) (A) (A) (A) (A) (A) (A) (A) (A)
                 (A) (A) (A) (A) (A) (A) (A) (A) (A) (A) (A) (A)
                 (A) (A) (A) (A) (A) (A) (A) (A) (A) (A) (A) (A)
                 (A) (A) (A) (A) (A) (A) (A) (A) (A) (A) (A) (A)
                 (A) (A) (A) (A) (A) (A) (A) (A) (A) (A) (A) (A)
                 (A) (A) (A) (A) (A) (A) (A) (A) (A) (A) (A) (A)
                 (A) (A) (A) (A) (A) (A) (A) (A) (A) (A) (A) (A)
                 (A) (A) (A) (A) (A) (A) (A) (A) (A) (A) (A) (A)
                 (A) (A) (A) (A) (A) (A) (A) (A) (A) (A) (A) (A)
                 (A) (A) (A) (A) (A) (A) (A) (A) (A) (A) (A) (A)
                 (A) (A) (A) (A) (A) (A) (A) (A) (A) (A) (A) (A)
                 (A) (A) (A) (A) (A) (A) (A) (A) (A) (A) (A) (A)
                 (A) (A) (A) (A) (A) (A) (A) (A) (A) (A) (A) (A)
                 (A) (A) (A) (A) (A) (A) (A) (A) (A) (A) (A) (A)
                 (A) (A) (A) (A) (A) (A) (A) (A) (A) (A) (A) (A)
                 (A) (A) (A) (A) (A) (A) (A) (A) (A) (A) (A) (A)
                 (A) (A) (A) (A) (A) (A) (A) (A) (A) (A) (A) (A)
                 (A) (A) (A) (A) (A) (A) (A) (A) (A) (A) (A) (A)
                 (A) (A) (A) (A) (A) (A) (A) (A) (A) (A) (A) (A)
                 (A) (A) (A) (A) (A) (A) (A) (A) (A) (A) (A) (A)
                 (A) (A) (A) (A) (A) (A) (A) (A) (A) (A) (A) (A)
                 (A) (A) (A) (A) (A) (A) (A) (A) (A) (A) (A) (A)
                 (A) (A) (A) (A) (A) (A) (A) (A) (A) (A) (A) (A)
                 (A) (A) (A) (A) (A) (A) (A) (A) (A) (A) (A) (A)
                 (A) (A) (A) (A) (A) (A) (A) (A) (A) (A) (A) (A)
                 (A) (A) (A) (A) (A) (A) (A) (A) (A) (A) (A) (A)
                 (A) (A) (A) (A) (A) (A) (A) (A) (A) (A) (A) (A)
                 (A) (A) (A) (A) (A) (A) (A) (A) (A) (A) (A) (A)
                 (A) (A) (A) (A) (A) (A) (A) (A) (A) (A) (A) (A)
                 (A) (A) (A) (A) (A) (A) (A) (A) (A) (A) (A) (A)
                 (A) (A) (A) (A) (A) (A) (A) (A) (A) (A) (A) (A)
                 (A) (A) (A) (A) (A) (A) (A) (A) (A) (A) (A) (A)
                 (A) (A) (A) (A) (A) (A) (A) (A) (A) (A) (A) (A)
                 (A) (A) (A) (A) (A) (A) (A) (A) (A) (A) (A) (A)
                 (A) (A) (A) (A) (A) (A) (A) (A) (A) (A) (A) (A)
                 (A) (A) (A) (A) (A) (A) (A) (A) (A) (A) (A) (A)
                 (A) (A) (A) (A) (A) (A) (A) (A) (A) (A) (A) (A)
                 (A) (A) (A) (A) (A) (A) (A) (A) (A) (A) (A) (A)
                 (A) (A) (A) (A) (A) (A) (A) (A) (A) (A) (A) (A)
                 (A) (A) (A) (A) (A) (A) (A) (A) (A) (A) (A) (A)
                 (A) (A) (A) (A) (A) (A) (A) (A) (A) (A) (A) (A)
                 (A) (A) (A) (A) (A) (A) (A) (A) (A) (A) (A) (A)
                 (A) (A) (A) (A) (A) (A) (A) (A) (A) (A) (A) (A)
                 (A) (A) (A) (A) (A) (A) (A) (A) (A) (A) (A) (A)
                 (A) (A) (A) (A) (A) (A) (A) (A) (A) (A) (A) (A)
                 (A) (A) (A) (A) (A) (A) (A) (A) (A) (A) (A) (A)
                 (A) (A) (A) (A) (A) (A) (A) (A) (A) (A) (A) (A)
                 (A) (A) (A) (A) (A) (A) (A) (A) (A) (A) (A) (A)
                 (A) (A) (A) (A) (A) (A) (A) (A) (A) (A) (A) (A)
                 (A) (A) (A) (A) (A) (A) (A) (A) (A) (A) (A) (A)
                 (A) (A) (A) (A) (A) (A)
    40 initial guesses have been made.
 Convergence on wavefunction:    0.001000000000000
 Iteration     1 Dimension    40 NMult     0 NNew     40
 CISAX will form    21 AO SS matrices at one time.
 New state      3 was old state      4
 New state      4 was old state      8
 New state      5 was old state      6
 New state      6 was old state     11
 New state      8 was old state     10
 New state      9 was old state     13
 New state     10 was old state     12
 Iteration     2 Dimension    60 NMult    40 NNew     20
 New state      3 was old state      4
 New state      4 was old state      3
 New state      5 was old state      6
 New state      6 was old state      5
 Iteration     3 Dimension    80 NMult    60 NNew     20
 Iteration     4 Dimension   100 NMult    80 NNew     20
 Iteration     5 Dimension   120 NMult   100 NNew     20
 Iteration     6 Dimension   128 NMult   120 NNew      8
 Iteration     7 Dimension   134 NMult   128 NNew      6
 Iteration     8 Dimension   136 NMult   134 NNew      2
 ***********************************************************************
 Excited states from <AA,BB:AA,BB> singles matrix:
 ***********************************************************************
 
 Ground to excited state transition densities written to RWF  633
 Ground to excited state transition electric dipole moments (Au):
       state          X           Y           Z        Dip. S.      Osc.
         1        -0.1471     -2.0220     -0.2590      4.1771      0.2166
         2        -0.2885      0.0451     -0.0608      0.0890      0.0052
         3        -0.1416      0.0776     -0.0808      0.0326      0.0024
         4         0.4977      0.0090      0.1403      0.2675      0.0198
         5         2.8360     -1.3016      0.8184     10.4067      0.8079
         6         0.2173      1.2468      0.1342      1.6197      0.1315
         7        -0.3896     -2.0307     -0.3195      4.3778      0.3626
         8        -0.1655      0.1944      0.0097      0.0653      0.0060
         9         0.0191     -1.4761     -0.2083      2.2225      0.2043
        10         0.2282     -1.1027     -0.0405      1.2696      0.1210
 Ground to excited state transition velocity dipole moments (Au):
       state          X           Y           Z        Dip. S.      Osc.
         1         0.0107      0.1514      0.0190      0.0234      0.2004
         2         0.0219     -0.0052      0.0052      0.0005      0.0041
         3         0.0138     -0.0077      0.0060      0.0003      0.0017
         4        -0.0575     -0.0014     -0.0165      0.0036      0.0215
         5        -0.3188      0.1487     -0.0929      0.1324      0.7579
         6        -0.0259     -0.1464     -0.0163      0.0224      0.1224
         7         0.0502      0.2381      0.0394      0.0608      0.3261
         8         0.0255     -0.0234     -0.0004      0.0012      0.0058
         9        -0.0067      0.2001      0.0285      0.0409      0.1977
        10        -0.0321      0.1517      0.0062      0.0241      0.1123
 Ground to excited state transition magnetic dipole moments (Au):
       state          X           Y           Z
         1         0.5038      0.4322     -3.5540
         2        -0.1694      0.0251      0.6096
         3         0.2480     -0.6649      0.0604
         4         0.2063     -0.0976     -0.4683
         5        -0.3694     -1.5280     -1.0428
         6         0.1061     -0.1759      1.7515
         7         0.2706      0.6465     -3.9701
         8        -0.2429     -0.1072      0.9439
         9        -0.1220      0.3427     -2.5346
        10         0.0849      0.0871     -2.4149
 Ground to excited state transition velocity quadrupole moments (Au):
       state          XX          YY          ZZ          XY          XZ          YZ
         1        -0.2584      0.0970      0.0490     -1.8667     -0.1920      0.1469
         2        -0.3470     -0.3226      0.0126      0.0150     -0.0224     -0.0484
         3        -0.3430      0.0073      0.0341      0.1134     -0.0411     -0.0107
         4         1.7714     -0.7719      0.0592      0.2565      0.3710      0.0733
         5         8.5472     -0.3677      0.0037     -2.3223      1.5055     -0.0993
         6         0.5937     -0.7550     -0.0297      2.1163      0.2080     -0.0621
         7        -1.7970      0.5639     -0.0777     -3.2345     -0.7344      0.1367
         8        -0.6235      0.2550      0.0444      0.4999      0.0233      0.0706
         9        -0.9921      1.9339     -0.0606     -2.5323     -0.5564      0.2693
        10         0.7324      1.2213     -0.0563     -2.4506     -0.1337     -0.0266
 <0|del|b> * <b|rxdel|0> + <0|del|b> * <b|delr+rdel|0>
 Rotatory Strengths (R) in cgs (10**-40 erg-esu-cm/Gauss)
       state          XX          YY          ZZ    R(velocity)    E-M Angle
         1       -38.3129   -114.0983    182.5590     10.0493       89.66
         2        12.2234     -6.8036    -10.8360     -1.8054       92.61
         3        18.8071      9.4702     28.9211     19.0661       42.22
         4        13.2748    -12.9813    -25.5491     -8.4185       97.32
         5      -420.2140     92.5964    251.2535    -25.4547       91.05
         6       -19.6726     13.9343    -26.2610    -10.6664       91.20
         7       128.1378    -24.2399    -40.4479     21.1500       89.36
         8         6.3147    -11.8298    -15.5986     -7.0379       96.92
         9        91.5775     -2.6835   -102.9589     -4.6883       90.30
        10         8.3277     -4.0838    -26.3249     -7.3603       90.68
 1/2[<0|r|b>*<b|rxdel|0> + (<0|rxdel|b>*<b|r|0>)*]
 Rotatory Strengths (R) in cgs (10**-40 erg-esu-cm/Gauss)
       state          XX          YY          ZZ     R(length)
         1        52.4050    618.0014   -651.0262      6.4601
         2       -34.5532     -0.8002     26.2006     -3.0510
         3        24.8307     36.4655      3.4519     21.5827
         4       -72.6179      0.6222     46.4466     -8.5164
         5       740.7430  -1406.4588    603.5040    -20.7373
         6       -16.3045    155.1091   -166.2572     -9.1509
         7        74.5622    928.3640   -896.8604     35.3553
         8       -28.4205     14.7426     -6.4466     -6.7082
         9         1.6441    357.7501   -373.4286     -4.6781
        10       -13.6982     67.9094    -69.0943     -4.9611
  1/2[<0|del|b>*<b|r|0> + (<0|r|b>*<b|del|0>)*] (Au)
       state          X           Y           Z        Dip. S.   Osc.(frdel)
         1        -0.0016     -0.3060     -0.0049      0.3125      0.2084
         2        -0.0063     -0.0002     -0.0003      0.0069      0.0046
         3        -0.0019     -0.0006     -0.0005      0.0030      0.0020
         4        -0.0286     -0.0000     -0.0023      0.0309      0.0206
         5        -0.9041     -0.1936     -0.0761      1.1737      0.7825
         6        -0.0056     -0.1825     -0.0022      0.1903      0.1269
         7        -0.0196     -0.4836     -0.0126      0.5157      0.3438
         8        -0.0042     -0.0045     -0.0000      0.0088      0.0059
         9        -0.0001     -0.2954     -0.0059      0.3014      0.2010
        10        -0.0073     -0.1673     -0.0003      0.1749      0.1166

 Excitation energies and oscillator strengths:
 
 Excited State   1:      Singlet-A      2.1165 eV  585.79 nm  f=0.2166  <S**2>=0.000
     240 -> 242       -0.10597
     240 -> 243       -0.22748
     241 -> 242        0.64755
     241 -> 243       -0.10174
 This state for optimization and/or second-order correction.
 Total Energy, E(TD-HF/TD-DFT) =  -2933.30278450    
 Copying the excited state density for this state as the 1-particle RhoCI density.
 
 Excited State   2:      Singlet-A      2.3704 eV  523.05 nm  f=0.0052  <S**2>=0.000
     240 -> 242        0.54878
     241 -> 242        0.13793
     241 -> 243        0.40773
 
 Excited State   3:      Singlet-A      2.9968 eV  413.72 nm  f=0.0024  <S**2>=0.000
     237 -> 242        0.61414
     237 -> 243        0.13020
     237 -> 244       -0.30251
 
 Excited State   4:      Singlet-A      3.0238 eV  410.03 nm  f=0.0198  <S**2>=0.000
     239 -> 242        0.64169
     239 -> 243       -0.20545
     241 -> 243        0.15466
 
 Excited State   5:      Singlet-A      3.1687 eV  391.28 nm  f=0.8079  <S**2>=0.000
     239 -> 242       -0.13719
     240 -> 242       -0.40914
     240 -> 244        0.16051
     241 -> 243        0.52096
 
 Excited State   6:      Singlet-A      3.3145 eV  374.06 nm  f=0.1315  <S**2>=0.000
     238 -> 242        0.57155
     240 -> 243       -0.34715
     241 -> 242       -0.11932
     241 -> 244        0.12709
 
 Excited State   7:      Singlet-A      3.3811 eV  366.70 nm  f=0.3626  <S**2>=0.000
     238 -> 242        0.38136
     240 -> 243        0.49513
     241 -> 242        0.18198
     241 -> 244       -0.24367
 
 Excited State   8:      Singlet-A      3.7292 eV  332.47 nm  f=0.0060  <S**2>=0.000
     238 -> 242        0.11393
     238 -> 243       -0.34433
     239 -> 242        0.15048
     239 -> 243        0.55743
     241 -> 244       -0.13411
 
 Excited State   9:      Singlet-A      3.7524 eV  330.42 nm  f=0.2043  <S**2>=0.000
     238 -> 243       -0.17873
     240 -> 243        0.24759
     241 -> 244        0.61686
 
 Excited State  10:      Singlet-A      3.8906 eV  318.68 nm  f=0.1210  <S**2>=0.000
     238 -> 243        0.57070
     239 -> 242        0.15224
     239 -> 243        0.34404
 SavETr:  write IOETrn=   770 NScale= 10 NData=  16 NLR=1 NState=   10 LETran=     190.
 Hyperfine terms turned off by default for NAtoms > 100.

 **********************************************************************

            Population analysis using the SCF density.

 **********************************************************************

 Orbital symmetries:
       Occupied  (A) (A) (A) (A) (A) (A) (A) (A) (A) (A) (A) (A)
                 (A) (A) (A) (A) (A) (A) (A) (A) (A) (A) (A) (A)
                 (A) (A) (A) (A) (A) (A) (A) (A) (A) (A) (A) (A)
                 (A) (A) (A) (A) (A) (A) (A) (A) (A) (A) (A) (A)
                 (A) (A) (A) (A) (A) (A) (A) (A) (A) (A) (A) (A)
                 (A) (A) (A) (A) (A) (A) (A) (A) (A) (A) (A) (A)
                 (A) (A) (A) (A) (A) (A) (A) (A) (A) (A) (A) (A)
                 (A) (A) (A) (A) (A) (A) (A) (A) (A) (A) (A) (A)
                 (A) (A) (A) (A) (A) (A) (A) (A) (A) (A) (A) (A)
                 (A) (A) (A) (A) (A) (A) (A) (A) (A) (A) (A) (A)
                 (A) (A) (A) (A) (A) (A) (A) (A) (A) (A) (A) (A)
                 (A) (A) (A) (A) (A) (A) (A) (A) (A) (A) (A) (A)
                 (A) (A) (A) (A) (A) (A) (A) (A) (A) (A) (A) (A)
                 (A) (A) (A) (A) (A) (A) (A) (A) (A) (A) (A) (A)
                 (A) (A) (A) (A) (A) (A) (A) (A) (A) (A) (A) (A)
                 (A) (A) (A) (A) (A) (A) (A) (A) (A) (A) (A) (A)
                 (A) (A) (A) (A) (A) (A) (A) (A) (A) (A) (A) (A)
                 (A) (A) (A) (A) (A) (A) (A) (A) (A) (A) (A) (A)
                 (A) (A) (A) (A) (A) (A) (A) (A) (A) (A) (A) (A)
                 (A) (A) (A) (A) (A) (A) (A) (A) (A) (A) (A) (A)
                 (A)
       Virtual   (A) (A) (A) (A) (A) (A) (A) (A) (A) (A) (A) (A)
                 (A) (A) (A) (A) (A) (A) (A) (A) (A) (A) (A) (A)
                 (A) (A) (A) (A) (A) (A) (A) (A) (A) (A) (A) (A)
                 (A) (A) (A) (A) (A) (A) (A) (A) (A) (A) (A) (A)
                 (A) (A) (A) (A) (A) (A) (A) (A) (A) (A) (A) (A)
                 (A) (A) (A) (A) (A) (A) (A) (A) (A) (A) (A) (A)
                 (A) (A) (A) (A) (A) (A) (A) (A) (A) (A) (A) (A)
                 (A) (A) (A) (A) (A) (A) (A) (A) (A) (A) (A) (A)
                 (A) (A) (A) (A) (A) (A) (A) (A) (A) (A) (A) (A)
                 (A) (A) (A) (A) (A) (A) (A) (A) (A) (A) (A) (A)
                 (A) (A) (A) (A) (A) (A) (A) (A) (A) (A) (A) (A)
                 (A) (A) (A) (A) (A) (A) (A) (A) (A) (A) (A) (A)
                 (A) (A) (A) (A) (A) (A) (A) (A) (A) (A) (A) (A)
                 (A) (A) (A) (A) (A) (A) (A) (A) (A) (A) (A) (A)
                 (A) (A) (A) (A) (A) (A) (A) (A) (A) (A) (A) (A)
                 (A) (A) (A) (A) (A) (A) (A) (A) (A) (A) (A) (A)
                 (A) (A) (A) (A) (A) (A) (A) (A) (A) (A) (A) (A)
                 (A) (A) (A) (A) (A) (A) (A) (A) (A) (A) (A) (A)
                 (A) (A) (A) (A) (A) (A) (A) (A) (A) (A) (A) (A)
                 (A) (A) (A) (A) (A) (A) (A) (A) (A) (A) (A) (A)
                 (A) (A) (A) (A) (A) (A) (A) (A) (A) (A) (A) (A)
                 (A) (A) (A) (A) (A) (A) (A) (A) (A) (A) (A) (A)
                 (A) (A) (A) (A) (A) (A) (A) (A) (A) (A) (A) (A)
                 (A) (A) (A) (A) (A) (A) (A) (A) (A) (A) (A) (A)
                 (A) (A) (A) (A) (A) (A) (A) (A) (A) (A) (A) (A)
                 (A) (A) (A) (A) (A) (A) (A) (A) (A) (A) (A) (A)
                 (A) (A) (A) (A) (A) (A) (A) (A) (A) (A) (A) (A)
                 (A) (A) (A) (A) (A) (A) (A) (A) (A) (A) (A) (A)
                 (A) (A) (A) (A) (A) (A) (A) (A) (A) (A) (A) (A)
                 (A) (A) (A) (A) (A) (A) (A) (A) (A) (A) (A) (A)
                 (A) (A) (A) (A) (A) (A) (A) (A) (A) (A) (A) (A)
                 (A) (A) (A) (A) (A) (A) (A) (A) (A) (A) (A) (A)
                 (A) (A) (A) (A) (A) (A) (A) (A) (A) (A) (A) (A)
                 (A) (A) (A) (A) (A) (A) (A) (A) (A) (A) (A) (A)
                 (A) (A) (A) (A) (A) (A) (A) (A) (A) (A) (A) (A)
                 (A) (A) (A) (A) (A) (A) (A) (A) (A) (A) (A) (A)
                 (A) (A) (A) (A) (A) (A) (A) (A) (A) (A) (A) (A)
                 (A) (A) (A) (A) (A) (A) (A) (A) (A) (A) (A) (A)
                 (A) (A) (A) (A) (A) (A) (A) (A) (A) (A) (A) (A)
                 (A) (A) (A) (A) (A) (A) (A) (A) (A) (A) (A) (A)
                 (A) (A) (A) (A) (A) (A) (A) (A) (A) (A) (A) (A)
                 (A) (A) (A) (A) (A) (A) (A) (A) (A) (A) (A) (A)
                 (A) (A) (A) (A) (A) (A) (A) (A) (A) (A) (A) (A)
                 (A) (A) (A) (A) (A) (A) (A) (A) (A) (A) (A) (A)
                 (A) (A) (A) (A) (A) (A) (A) (A) (A) (A) (A) (A)
                 (A) (A) (A) (A) (A) (A) (A) (A) (A) (A) (A) (A)
                 (A) (A) (A) (A) (A) (A) (A) (A) (A) (A) (A) (A)
                 (A) (A) (A) (A) (A) (A) (A) (A) (A) (A) (A) (A)
                 (A) (A) (A) (A) (A) (A) (A) (A) (A) (A) (A) (A)
                 (A) (A) (A) (A) (A) (A) (A) (A) (A) (A) (A) (A)
                 (A) (A) (A) (A) (A) (A) (A) (A) (A) (A) (A) (A)
                 (A) (A) (A) (A) (A) (A) (A) (A) (A) (A) (A) (A)
                 (A) (A) (A) (A) (A) (A) (A) (A) (A) (A) (A) (A)
                 (A) (A) (A) (A) (A) (A) (A) (A) (A) (A) (A) (A)
                 (A) (A) (A) (A) (A) (A) (A) (A) (A) (A) (A) (A)
                 (A) (A) (A) (A) (A) (A) (A) (A) (A) (A) (A) (A)
                 (A) (A) (A) (A) (A) (A) (A) (A) (A) (A) (A) (A)
                 (A) (A) (A) (A) (A) (A) (A) (A) (A) (A) (A) (A)
                 (A) (A) (A) (A) (A) (A) (A) (A) (A) (A) (A) (A)
                 (A) (A) (A) (A) (A) (A) (A) (A) (A) (A) (A) (A)
                 (A) (A) (A) (A) (A) (A) (A) (A) (A) (A) (A) (A)
                 (A) (A) (A) (A) (A) (A) (A) (A) (A) (A) (A) (A)
                 (A) (A) (A) (A) (A) (A) (A) (A) (A) (A) (A) (A)
                 (A) (A) (A) (A) (A) (A) (A) (A) (A) (A) (A) (A)
                 (A) (A) (A) (A) (A) (A) (A) (A) (A) (A) (A) (A)
                 (A) (A) (A) (A) (A) (A) (A) (A) (A) (A) (A) (A)
                 (A) (A) (A) (A) (A) (A) (A) (A) (A) (A) (A) (A)
                 (A) (A) (A) (A) (A) (A) (A) (A) (A) (A) (A) (A)
                 (A) (A) (A) (A) (A) (A) (A) (A) (A) (A) (A) (A)
                 (A) (A) (A) (A) (A) (A) (A) (A) (A) (A) (A) (A)
                 (A) (A) (A) (A) (A) (A) (A) (A) (A) (A) (A) (A)
                 (A) (A) (A) (A) (A) (A) (A) (A) (A) (A) (A) (A)
                 (A) (A) (A) (A) (A) (A) (A) (A) (A) (A) (A) (A)
                 (A) (A) (A) (A) (A) (A) (A) (A) (A) (A) (A) (A)
                 (A) (A) (A) (A) (A) (A) (A) (A) (A) (A) (A) (A)
                 (A) (A) (A) (A) (A) (A) (A) (A) (A) (A) (A) (A)
                 (A) (A) (A) (A) (A) (A) (A) (A) (A) (A) (A) (A)
                 (A) (A) (A) (A) (A) (A) (A) (A) (A) (A) (A) (A)
                 (A) (A) (A) (A) (A) (A) (A) (A) (A) (A) (A) (A)
                 (A) (A) (A) (A) (A) (A) (A) (A) (A) (A) (A) (A)
                 (A) (A) (A) (A) (A) (A) (A) (A) (A) (A) (A) (A)
                 (A) (A) (A) (A) (A) (A) (A) (A) (A) (A) (A) (A)
                 (A) (A) (A) (A) (A) (A) (A) (A) (A) (A) (A) (A)
                 (A) (A) (A) (A) (A) (A) (A) (A) (A) (A) (A) (A)
                 (A) (A) (A) (A) (A) (A) (A) (A) (A) (A) (A) (A)
                 (A) (A) (A) (A) (A) (A) (A) (A) (A) (A) (A) (A)
                 (A) (A) (A) (A) (A) (A) (A) (A) (A) (A) (A) (A)
                 (A) (A) (A) (A) (A) (A) (A) (A) (A) (A) (A) (A)
                 (A) (A) (A) (A) (A) (A) (A) (A) (A) (A) (A) (A)
                 (A) (A) (A) (A) (A) (A) (A) (A) (A) (A) (A) (A)
                 (A) (A) (A) (A) (A) (A) (A) (A) (A) (A) (A) (A)
                 (A) (A) (A) (A) (A) (A)
 The electronic state is 1-A.
 Alpha  occ. eigenvalues --  -46.80387 -19.21499 -19.20900 -19.16334 -19.16000
 Alpha  occ. eigenvalues --  -19.15606 -14.36992 -14.36409 -14.34945 -14.34820
 Alpha  occ. eigenvalues --  -10.34112 -10.33983 -10.30159 -10.28192 -10.26535
 Alpha  occ. eigenvalues --  -10.25716 -10.25603 -10.25514 -10.25505 -10.25388
 Alpha  occ. eigenvalues --  -10.25044 -10.24417 -10.24274 -10.24166 -10.24083
 Alpha  occ. eigenvalues --  -10.23593 -10.23454 -10.23274 -10.23019 -10.22969
 Alpha  occ. eigenvalues --  -10.22953 -10.22948 -10.22822 -10.22806 -10.22747
 Alpha  occ. eigenvalues --  -10.22680 -10.22518 -10.22318 -10.22285 -10.22251
 Alpha  occ. eigenvalues --  -10.22158 -10.22102 -10.22047 -10.21969 -10.21889
 Alpha  occ. eigenvalues --  -10.21812 -10.21756 -10.21538 -10.21459 -10.21424
 Alpha  occ. eigenvalues --  -10.21321 -10.21269 -10.21144 -10.21107 -10.21087
 Alpha  occ. eigenvalues --  -10.20827 -10.20379 -10.20279 -10.19882 -10.19755
 Alpha  occ. eigenvalues --  -10.19384 -10.18835 -10.18427 -10.18222 -10.18139
 Alpha  occ. eigenvalues --   -3.08988  -1.83934  -1.83483  -1.83372  -1.13103
 Alpha  occ. eigenvalues --   -1.11295  -1.03916  -1.03583  -1.02386  -1.01452
 Alpha  occ. eigenvalues --   -0.99730  -0.98776  -0.97632  -0.89696  -0.87247
 Alpha  occ. eigenvalues --   -0.85617  -0.85551  -0.84846  -0.84283  -0.84118
 Alpha  occ. eigenvalues --   -0.84038  -0.83471  -0.82669  -0.81824  -0.81419
 Alpha  occ. eigenvalues --   -0.80597  -0.79909  -0.79672  -0.78671  -0.78508
 Alpha  occ. eigenvalues --   -0.76801  -0.76321  -0.76220  -0.75328  -0.74271
 Alpha  occ. eigenvalues --   -0.74154  -0.72940  -0.72008  -0.71522  -0.71358
 Alpha  occ. eigenvalues --   -0.70909  -0.70303  -0.69694  -0.69190  -0.69003
 Alpha  occ. eigenvalues --   -0.68124  -0.67168  -0.66588  -0.65515  -0.65274
 Alpha  occ. eigenvalues --   -0.62365  -0.62088  -0.61648  -0.61560  -0.60894
 Alpha  occ. eigenvalues --   -0.60548  -0.59456  -0.58877  -0.58432  -0.58122
 Alpha  occ. eigenvalues --   -0.57429  -0.57370  -0.56727  -0.56289  -0.55891
 Alpha  occ. eigenvalues --   -0.54750  -0.54470  -0.54020  -0.53698  -0.52822
 Alpha  occ. eigenvalues --   -0.52469  -0.52026  -0.51541  -0.51457  -0.51024
 Alpha  occ. eigenvalues --   -0.50785  -0.50397  -0.50016  -0.49617  -0.49448
 Alpha  occ. eigenvalues --   -0.48932  -0.48900  -0.48472  -0.48116  -0.47928
 Alpha  occ. eigenvalues --   -0.47843  -0.47650  -0.47585  -0.47471  -0.47354
 Alpha  occ. eigenvalues --   -0.47233  -0.47006  -0.46562  -0.46330  -0.46006
 Alpha  occ. eigenvalues --   -0.45749  -0.45534  -0.45421  -0.45147  -0.44988
 Alpha  occ. eigenvalues --   -0.44769  -0.44403  -0.44178  -0.43975  -0.43914
 Alpha  occ. eigenvalues --   -0.43747  -0.43368  -0.43115  -0.42904  -0.42805
 Alpha  occ. eigenvalues --   -0.42337  -0.42183  -0.42152  -0.41873  -0.41683
 Alpha  occ. eigenvalues --   -0.41325  -0.41300  -0.40975  -0.40947  -0.40928
 Alpha  occ. eigenvalues --   -0.40687  -0.40677  -0.40445  -0.40172  -0.40161
 Alpha  occ. eigenvalues --   -0.39862  -0.39660  -0.39464  -0.39237  -0.39197
 Alpha  occ. eigenvalues --   -0.38997  -0.38768  -0.38494  -0.38285  -0.38181
 Alpha  occ. eigenvalues --   -0.38025  -0.37803  -0.37372  -0.36846  -0.36680
 Alpha  occ. eigenvalues --   -0.36579  -0.36405  -0.36148  -0.35840  -0.35808
 Alpha  occ. eigenvalues --   -0.35618  -0.35120  -0.35034  -0.34933  -0.34589
 Alpha  occ. eigenvalues --   -0.34461  -0.34072  -0.33958  -0.33791  -0.33666
 Alpha  occ. eigenvalues --   -0.33233  -0.33158  -0.33101  -0.32645  -0.32429
 Alpha  occ. eigenvalues --   -0.32276  -0.31960  -0.31417  -0.30771  -0.30292
 Alpha  occ. eigenvalues --   -0.30167  -0.29822  -0.29430  -0.29343  -0.28409
 Alpha  occ. eigenvalues --   -0.27002  -0.26764  -0.25720  -0.24593  -0.22147
 Alpha  occ. eigenvalues --   -0.20318
 Alpha virt. eigenvalues --   -0.07086  -0.04388  -0.00981   0.02802   0.03836
 Alpha virt. eigenvalues --    0.04013   0.04585   0.04805   0.05017   0.05186
 Alpha virt. eigenvalues --    0.06909   0.09178   0.09195   0.09735   0.09902
 Alpha virt. eigenvalues --    0.10171   0.10567   0.10721   0.10817   0.11210
 Alpha virt. eigenvalues --    0.11512   0.12087   0.12502   0.12635   0.12796
 Alpha virt. eigenvalues --    0.12938   0.13044   0.13381   0.13456   0.13759
 Alpha virt. eigenvalues --    0.13892   0.14094   0.14244   0.14309   0.14535
 Alpha virt. eigenvalues --    0.14705   0.14774   0.14934   0.15243   0.15301
 Alpha virt. eigenvalues --    0.15588   0.15634   0.15894   0.16190   0.16358
 Alpha virt. eigenvalues --    0.16464   0.16750   0.17205   0.17324   0.17494
 Alpha virt. eigenvalues --    0.17498   0.17675   0.17904   0.18091   0.18276
 Alpha virt. eigenvalues --    0.18374   0.18509   0.18669   0.18764   0.19120
 Alpha virt. eigenvalues --    0.19256   0.19411   0.19563   0.19587   0.19712
 Alpha virt. eigenvalues --    0.20126   0.20165   0.20395   0.20754   0.21001
 Alpha virt. eigenvalues --    0.21047   0.21290   0.21327   0.21484   0.21619
 Alpha virt. eigenvalues --    0.21779   0.21838   0.22254   0.22417   0.22431
 Alpha virt. eigenvalues --    0.22701   0.22910   0.23121   0.23315   0.23420
 Alpha virt. eigenvalues --    0.23576   0.23923   0.24065   0.24338   0.24637
 Alpha virt. eigenvalues --    0.24698   0.24940   0.25072   0.25202   0.25482
 Alpha virt. eigenvalues --    0.25572   0.25880   0.25968   0.26102   0.26217
 Alpha virt. eigenvalues --    0.26499   0.27019   0.27213   0.27481   0.27536
 Alpha virt. eigenvalues --    0.27747   0.27769   0.27992   0.28327   0.28396
 Alpha virt. eigenvalues --    0.28466   0.28742   0.29047   0.29163   0.29353
 Alpha virt. eigenvalues --    0.29591   0.29892   0.30078   0.30363   0.30529
 Alpha virt. eigenvalues --    0.30819   0.30922   0.31774   0.32140   0.32199
 Alpha virt. eigenvalues --    0.32684   0.32890   0.33245   0.33589   0.33993
 Alpha virt. eigenvalues --    0.34126   0.34198   0.34978   0.35406   0.36071
 Alpha virt. eigenvalues --    0.36655   0.37390   0.37810   0.38233   0.38445
 Alpha virt. eigenvalues --    0.38495   0.38833   0.39085   0.39450   0.40083
 Alpha virt. eigenvalues --    0.40695   0.41654   0.42153   0.42274   0.43213
 Alpha virt. eigenvalues --    0.43794   0.44481   0.45110   0.45841   0.46674
 Alpha virt. eigenvalues --    0.47572   0.48584   0.48988   0.49634   0.49845
 Alpha virt. eigenvalues --    0.50236   0.50545   0.50606   0.50900   0.51452
 Alpha virt. eigenvalues --    0.51699   0.51721   0.52162   0.52986   0.53058
 Alpha virt. eigenvalues --    0.53235   0.53484   0.53835   0.53920   0.54120
 Alpha virt. eigenvalues --    0.54355   0.54398   0.54571   0.54679   0.54720
 Alpha virt. eigenvalues --    0.55295   0.55482   0.55660   0.55824   0.56086
 Alpha virt. eigenvalues --    0.56138   0.56253   0.56846   0.56879   0.57062
 Alpha virt. eigenvalues --    0.57129   0.57314   0.57378   0.57585   0.58208
 Alpha virt. eigenvalues --    0.58671   0.59090   0.59401   0.59511   0.59754
 Alpha virt. eigenvalues --    0.60045   0.60141   0.60403   0.60756   0.61099
 Alpha virt. eigenvalues --    0.61536   0.61570   0.61744   0.61888   0.62354
 Alpha virt. eigenvalues --    0.62799   0.63213   0.63319   0.63522   0.63735
 Alpha virt. eigenvalues --    0.64018   0.64236   0.64436   0.64711   0.64892
 Alpha virt. eigenvalues --    0.65314   0.65565   0.65912   0.66092   0.66281
 Alpha virt. eigenvalues --    0.66480   0.66912   0.67316   0.67570   0.67891
 Alpha virt. eigenvalues --    0.67975   0.68033   0.68174   0.68390   0.68947
 Alpha virt. eigenvalues --    0.69144   0.69296   0.69449   0.69502   0.69661
 Alpha virt. eigenvalues --    0.69994   0.70052   0.70432   0.70713   0.71053
 Alpha virt. eigenvalues --    0.71226   0.71501   0.71769   0.72108   0.72649
 Alpha virt. eigenvalues --    0.72889   0.73153   0.73365   0.73854   0.73918
 Alpha virt. eigenvalues --    0.73966   0.74243   0.74520   0.74896   0.74955
 Alpha virt. eigenvalues --    0.75446   0.75573   0.76158   0.76245   0.76348
 Alpha virt. eigenvalues --    0.76636   0.76906   0.77374   0.77685   0.77729
 Alpha virt. eigenvalues --    0.77821   0.78136   0.78474   0.78905   0.79275
 Alpha virt. eigenvalues --    0.79504   0.79836   0.80231   0.80349   0.80466
 Alpha virt. eigenvalues --    0.80888   0.80937   0.81141   0.81322   0.81602
 Alpha virt. eigenvalues --    0.81985   0.82129   0.82291   0.82464   0.82555
 Alpha virt. eigenvalues --    0.82807   0.83018   0.83095   0.83316   0.83437
 Alpha virt. eigenvalues --    0.83641   0.83777   0.84145   0.84269   0.84545
 Alpha virt. eigenvalues --    0.84905   0.85140   0.85266   0.85439   0.85684
 Alpha virt. eigenvalues --    0.85984   0.86094   0.86252   0.86502   0.86570
 Alpha virt. eigenvalues --    0.86722   0.87129   0.87243   0.87452   0.88083
 Alpha virt. eigenvalues --    0.88346   0.88650   0.88823   0.88870   0.89166
 Alpha virt. eigenvalues --    0.89327   0.89729   0.89823   0.89908   0.90073
 Alpha virt. eigenvalues --    0.90163   0.90486   0.90774   0.90933   0.91103
 Alpha virt. eigenvalues --    0.91367   0.91622   0.92027   0.92139   0.92198
 Alpha virt. eigenvalues --    0.92522   0.92618   0.92924   0.93166   0.93332
 Alpha virt. eigenvalues --    0.93418   0.93832   0.93909   0.94163   0.94238
 Alpha virt. eigenvalues --    0.94574   0.94815   0.94983   0.95089   0.95278
 Alpha virt. eigenvalues --    0.95419   0.95578   0.95899   0.95946   0.96064
 Alpha virt. eigenvalues --    0.96268   0.96733   0.96852   0.97090   0.97177
 Alpha virt. eigenvalues --    0.97377   0.97582   0.97863   0.98062   0.98310
 Alpha virt. eigenvalues --    0.98496   0.98817   0.99169   0.99474   0.99780
 Alpha virt. eigenvalues --    1.00151   1.00448   1.00548   1.00688   1.00896
 Alpha virt. eigenvalues --    1.01209   1.01357   1.01553   1.01889   1.02170
 Alpha virt. eigenvalues --    1.02496   1.02801   1.02974   1.03420   1.03751
 Alpha virt. eigenvalues --    1.03831   1.04403   1.05123   1.05335   1.05624
 Alpha virt. eigenvalues --    1.05969   1.06417   1.06837   1.06990   1.07091
 Alpha virt. eigenvalues --    1.07349   1.07773   1.08120   1.08648   1.09181
 Alpha virt. eigenvalues --    1.09415   1.09674   1.09830   1.10491   1.10799
 Alpha virt. eigenvalues --    1.11161   1.11539   1.12123   1.12673   1.12981
 Alpha virt. eigenvalues --    1.13453   1.13650   1.13919   1.14078   1.14336
 Alpha virt. eigenvalues --    1.14788   1.15226   1.15578   1.16109   1.16508
 Alpha virt. eigenvalues --    1.17153   1.17652   1.17894   1.17952   1.18853
 Alpha virt. eigenvalues --    1.19562   1.20284   1.20811   1.21136   1.21215
 Alpha virt. eigenvalues --    1.21653   1.22325   1.22885   1.23204   1.23751
 Alpha virt. eigenvalues --    1.24185   1.24748   1.24894   1.26150   1.26694
 Alpha virt. eigenvalues --    1.26989   1.27393   1.27698   1.28710   1.28942
 Alpha virt. eigenvalues --    1.29129   1.29250   1.30217   1.30996   1.31401
 Alpha virt. eigenvalues --    1.32219   1.32817   1.33808   1.34407   1.34471
 Alpha virt. eigenvalues --    1.35096   1.35233   1.35530   1.35736   1.36832
 Alpha virt. eigenvalues --    1.36925   1.37559   1.37864   1.38234   1.38943
 Alpha virt. eigenvalues --    1.39300   1.39916   1.40341   1.41015   1.41401
 Alpha virt. eigenvalues --    1.41709   1.42528   1.43145   1.43282   1.43699
 Alpha virt. eigenvalues --    1.44328   1.45246   1.46562   1.46961   1.47300
 Alpha virt. eigenvalues --    1.47612   1.47885   1.48542   1.48700   1.49166
 Alpha virt. eigenvalues --    1.49254   1.50225   1.50518   1.50762   1.51004
 Alpha virt. eigenvalues --    1.51465   1.52054   1.52389   1.52788   1.52985
 Alpha virt. eigenvalues --    1.53392   1.54016   1.54316   1.54735   1.55068
 Alpha virt. eigenvalues --    1.55418   1.56442   1.56708   1.57826   1.58350
 Alpha virt. eigenvalues --    1.58584   1.58938   1.59635   1.60206   1.60409
 Alpha virt. eigenvalues --    1.60517   1.60743   1.61333   1.62096   1.62333
 Alpha virt. eigenvalues --    1.62682   1.62982   1.63345   1.63592   1.64044
 Alpha virt. eigenvalues --    1.64513   1.64900   1.65124   1.65451   1.66143
 Alpha virt. eigenvalues --    1.66635   1.66966   1.67457   1.67951   1.68597
 Alpha virt. eigenvalues --    1.68718   1.68960   1.69194   1.69640   1.69941
 Alpha virt. eigenvalues --    1.70669   1.71237   1.71327   1.72295   1.72484
 Alpha virt. eigenvalues --    1.72567   1.73169   1.73772   1.74080   1.74668
 Alpha virt. eigenvalues --    1.75065   1.75326   1.75539   1.75992   1.76484
 Alpha virt. eigenvalues --    1.76885   1.77355   1.77683   1.77799   1.78406
 Alpha virt. eigenvalues --    1.78678   1.79368   1.79849   1.80029   1.80187
 Alpha virt. eigenvalues --    1.80359   1.81216   1.81370   1.81526   1.81919
 Alpha virt. eigenvalues --    1.82269   1.82512   1.82854   1.83221   1.83538
 Alpha virt. eigenvalues --    1.83652   1.83682   1.84023   1.84249   1.84308
 Alpha virt. eigenvalues --    1.84708   1.85043   1.85237   1.85344   1.85548
 Alpha virt. eigenvalues --    1.85882   1.86009   1.86268   1.86548   1.87003
 Alpha virt. eigenvalues --    1.87098   1.87182   1.87481   1.87939   1.88194
 Alpha virt. eigenvalues --    1.88246   1.88497   1.88653   1.88725   1.89040
 Alpha virt. eigenvalues --    1.89213   1.89527   1.90003   1.90203   1.90425
 Alpha virt. eigenvalues --    1.90446   1.90649   1.90931   1.91294   1.91526
 Alpha virt. eigenvalues --    1.91706   1.91793   1.91912   1.92148   1.93017
 Alpha virt. eigenvalues --    1.93329   1.93436   1.93630   1.93704   1.93963
 Alpha virt. eigenvalues --    1.94353   1.94860   1.94887   1.95788   1.95927
 Alpha virt. eigenvalues --    1.96135   1.96519   1.97152   1.97559   1.97836
 Alpha virt. eigenvalues --    1.98232   1.98311   1.98687   1.98907   1.99614
 Alpha virt. eigenvalues --    1.99824   2.00162   2.00487   2.00768   2.01114
 Alpha virt. eigenvalues --    2.01976   2.02185   2.02508   2.02658   2.02795
 Alpha virt. eigenvalues --    2.03539   2.03677   2.03872   2.04209   2.04272
 Alpha virt. eigenvalues --    2.04367   2.05135   2.05333   2.06155   2.06428
 Alpha virt. eigenvalues --    2.06506   2.06725   2.07166   2.07784   2.07855
 Alpha virt. eigenvalues --    2.08236   2.08363   2.08982   2.09100   2.09297
 Alpha virt. eigenvalues --    2.09478   2.09833   2.10453   2.10797   2.10995
 Alpha virt. eigenvalues --    2.11179   2.11472   2.11630   2.12004   2.12099
 Alpha virt. eigenvalues --    2.13089   2.13508   2.13633   2.13768   2.14329
 Alpha virt. eigenvalues --    2.14526   2.14684   2.15261   2.15561   2.16444
 Alpha virt. eigenvalues --    2.16549   2.16644   2.17050   2.17101   2.17242
 Alpha virt. eigenvalues --    2.17447   2.18139   2.18375   2.18507   2.19063
 Alpha virt. eigenvalues --    2.19307   2.19370   2.20092   2.20385   2.20770
 Alpha virt. eigenvalues --    2.21161   2.21532   2.21686   2.21986   2.22005
 Alpha virt. eigenvalues --    2.22607   2.23162   2.23560   2.23886   2.24066
 Alpha virt. eigenvalues --    2.24475   2.25060   2.25277   2.25633   2.25930
 Alpha virt. eigenvalues --    2.26175   2.26418   2.26684   2.26941   2.27258
 Alpha virt. eigenvalues --    2.27581   2.27933   2.28225   2.28443   2.28807
 Alpha virt. eigenvalues --    2.29571   2.30336   2.30835   2.30896   2.31206
 Alpha virt. eigenvalues --    2.31388   2.31925   2.32006   2.32199   2.32259
 Alpha virt. eigenvalues --    2.32526   2.32682   2.33005   2.33785   2.33841
 Alpha virt. eigenvalues --    2.33926   2.34271   2.34416   2.34473   2.35146
 Alpha virt. eigenvalues --    2.35360   2.35446   2.35796   2.36122   2.36421
 Alpha virt. eigenvalues --    2.36512   2.36737   2.37231   2.37694   2.37879
 Alpha virt. eigenvalues --    2.37899   2.38046   2.38572   2.38866   2.39171
 Alpha virt. eigenvalues --    2.39530   2.40113   2.40467   2.40569   2.40760
 Alpha virt. eigenvalues --    2.40816   2.41587   2.41894   2.42143   2.42303
 Alpha virt. eigenvalues --    2.42676   2.42704   2.42798   2.43491   2.43836
 Alpha virt. eigenvalues --    2.44136   2.44684   2.44869   2.45542   2.45637
 Alpha virt. eigenvalues --    2.45752   2.46286   2.46459   2.46695   2.47062
 Alpha virt. eigenvalues --    2.47190   2.47800   2.48198   2.48664   2.49059
 Alpha virt. eigenvalues --    2.49139   2.49368   2.50204   2.50344   2.50672
 Alpha virt. eigenvalues --    2.51055   2.51657   2.51807   2.51946   2.52924
 Alpha virt. eigenvalues --    2.53165   2.53669   2.54053   2.54270   2.54870
 Alpha virt. eigenvalues --    2.55022   2.55138   2.55740   2.55803   2.56605
 Alpha virt. eigenvalues --    2.56929   2.56995   2.57271   2.57602   2.58467
 Alpha virt. eigenvalues --    2.58701   2.58926   2.59175   2.59438   2.59747
 Alpha virt. eigenvalues --    2.60689   2.61152   2.61630   2.61737   2.62114
 Alpha virt. eigenvalues --    2.63091   2.63431   2.63587   2.63605   2.63769
 Alpha virt. eigenvalues --    2.64836   2.64998   2.65345   2.65474   2.65919
 Alpha virt. eigenvalues --    2.66150   2.66271   2.66748   2.67134   2.67637
 Alpha virt. eigenvalues --    2.67795   2.67994   2.68279   2.68587   2.68820
 Alpha virt. eigenvalues --    2.69599   2.69765   2.69834   2.70029   2.70694
 Alpha virt. eigenvalues --    2.70945   2.71236   2.71658   2.71745   2.72163
 Alpha virt. eigenvalues --    2.72681   2.72789   2.72880   2.73429   2.73647
 Alpha virt. eigenvalues --    2.74304   2.74728   2.74889   2.75108   2.75419
 Alpha virt. eigenvalues --    2.76442   2.76569   2.76715   2.77096   2.77501
 Alpha virt. eigenvalues --    2.77774   2.77989   2.78361   2.78879   2.79103
 Alpha virt. eigenvalues --    2.79330   2.79774   2.80589   2.80859   2.81142
 Alpha virt. eigenvalues --    2.81554   2.81738   2.81832   2.82454   2.82819
 Alpha virt. eigenvalues --    2.83213   2.83419   2.83880   2.84242   2.84346
 Alpha virt. eigenvalues --    2.84864   2.84934   2.86025   2.86241   2.86475
 Alpha virt. eigenvalues --    2.87186   2.87562   2.88163   2.88328   2.88441
 Alpha virt. eigenvalues --    2.89588   2.89860   2.90229   2.90508   2.90837
 Alpha virt. eigenvalues --    2.90999   2.91174   2.91281   2.91669   2.92103
 Alpha virt. eigenvalues --    2.92383   2.93162   2.93771   2.94221   2.94468
 Alpha virt. eigenvalues --    2.95129   2.95474   2.96254   2.96339   2.97064
 Alpha virt. eigenvalues --    2.97335   2.97516   2.97794   2.97962   2.98479
 Alpha virt. eigenvalues --    2.98929   2.99194   2.99795   3.00408   3.00498
 Alpha virt. eigenvalues --    3.01248   3.01441   3.01925   3.02347   3.02990
 Alpha virt. eigenvalues --    3.03307   3.03448   3.04580   3.05106   3.05264
 Alpha virt. eigenvalues --    3.06090   3.07043   3.07097   3.07224   3.07269
 Alpha virt. eigenvalues --    3.07717   3.07841   3.08460   3.08820   3.09080
 Alpha virt. eigenvalues --    3.10062   3.11082   3.11733   3.12188   3.12490
 Alpha virt. eigenvalues --    3.12588   3.13054   3.13876   3.14266   3.16567
 Alpha virt. eigenvalues --    3.17598   3.18469   3.18720   3.19823   3.19997
 Alpha virt. eigenvalues --    3.20712   3.21134   3.21747   3.22658   3.23514
 Alpha virt. eigenvalues --    3.23695   3.24684   3.25258   3.25442   3.26028
 Alpha virt. eigenvalues --    3.26481   3.26537   3.26887   3.27858   3.28472
 Alpha virt. eigenvalues --    3.31221   3.31895   3.32229   3.32918   3.34312
 Alpha virt. eigenvalues --    3.34607   3.35018   3.35296   3.36505   3.37752
 Alpha virt. eigenvalues --    3.37926   3.41899   3.42268   3.42566   3.43349
 Alpha virt. eigenvalues --    3.43366   3.44066   3.45080   3.45193   3.46171
 Alpha virt. eigenvalues --    3.47615   3.47872   3.48472   3.49446   3.49909
 Alpha virt. eigenvalues --    3.50801   3.51847   3.52030   3.53803   3.54631
 Alpha virt. eigenvalues --    3.55399   3.56246   3.57002   3.57451   3.57838
 Alpha virt. eigenvalues --    3.57915   3.60965   3.60999   3.61314   3.62779
 Alpha virt. eigenvalues --    3.63243   3.64056   3.64153   3.64762   3.65792
 Alpha virt. eigenvalues --    3.66164   3.66344   3.68122   3.68278   3.69285
 Alpha virt. eigenvalues --    3.71109   3.73761   3.74352   3.76304   3.81767
 Alpha virt. eigenvalues --    3.86933   3.88038   3.89946   3.97872   4.05572
 Alpha virt. eigenvalues --    4.06833   4.15035   4.16507   4.17515   4.19759
 Alpha virt. eigenvalues --    4.21432   4.22242   4.22721   4.24184   4.25010
 Alpha virt. eigenvalues --    4.25964   4.27331   4.28260   4.30039   4.30367
 Alpha virt. eigenvalues --    4.31870   4.32420   4.34361   4.34971   4.35888
 Alpha virt. eigenvalues --    4.36288   4.37959   4.38241   4.40110   4.42054
 Alpha virt. eigenvalues --    4.42591   4.44190   4.44614   4.46074   4.47164
 Alpha virt. eigenvalues --    4.48400   4.48562   4.49909   4.51193   4.52534
 Alpha virt. eigenvalues --    4.53825   4.54691   4.55505   4.56164   4.56697
 Alpha virt. eigenvalues --    4.58804   4.59420   4.60153   4.62415   4.63403
 Alpha virt. eigenvalues --    4.65408   4.65913   4.66388   4.68833   4.69099
 Alpha virt. eigenvalues --    4.71526   4.72559   4.75763   4.79086   4.80791
 Alpha virt. eigenvalues --    4.81378   4.82140   4.84299   4.85256   4.85779
 Alpha virt. eigenvalues --    4.86161   4.90415   4.95951
          Condensed to atoms (all electrons):
 Mulliken charges:
               1
     1  Mg   0.816320
     2  C    0.204283
     3  C   -0.216576
     4  C   -0.157977
     5  C   -0.184050
     6  N   -0.628392
     7  C    0.241353
     8  C   -0.173286
     9  C   -0.158067
    10  C    0.316422
    11  C   -0.306977
    12  C   -0.152225
    13  C   -0.261439
    14  C    0.600773
    15  O   -0.478457
    16  O   -0.485972
    17  N   -0.708313
    18  C    0.328772
    19  C    0.040849
    20  C   -0.042370
    21  C    0.321706
    22  C   -0.348356
    23  C   -0.050057
    24  C   -0.258447
    25  N   -0.691496
    26  C    0.263309
    27  C    0.053488
    28  C    0.036495
    29  C    0.297776
    30  C   -0.399866
    31  C   -0.245844
    32  C   -0.323000
    33  N   -0.727942
    34  C    0.283618
    35  C   -0.036923
    36  C    0.185183
    37  C    0.253470
    38  C   -0.370779
    39  C    0.272555
    40  O   -0.490373
    41  C   -0.313677
    42  C    0.623703
    43  O   -0.475745
    44  O   -0.451359
    45  C   -0.069883
    46  C    0.031522
    47  C   -0.132719
    48  C    0.186376
    49  C   -0.404255
    50  C   -0.220356
    51  C   -0.179563
    52  C   -0.174568
    53  C   -0.036219
    54  C   -0.309048
    55  C   -0.187558
    56  C   -0.165472
    57  C   -0.173370
    58  C   -0.077542
    59  C   -0.309204
    60  C   -0.165256
    61  C   -0.198642
    62  C   -0.158438
    63  C   -0.037867
    64  C   -0.301431
    65  C   -0.277251
    66  H    0.068256
    67  H    0.080105
    68  H    0.094095
    69  H    0.112126
    70  H    0.102818
    71  H    0.116639
    72  H    0.106484
    73  H    0.132127
    74  H    0.122718
    75  H    0.116259
    76  H    0.138476
    77  H    0.145440
    78  H    0.119961
    79  H    0.131645
    80  H    0.087507
    81  H    0.091930
    82  H    0.110236
    83  H    0.080653
    84  H    0.130735
    85  H    0.122007
    86  H    0.121293
    87  H    0.105955
    88  H    0.098148
    89  H    0.113467
    90  H    0.108339
    91  H    0.107108
    92  H    0.130154
    93  H    0.148953
    94  H    0.106873
    95  H    0.157268
    96  H    0.124578
    97  H    0.135819
    98  H    0.090298
    99  H    0.105664
   100  H    0.102917
   101  H    0.092083
   102  H    0.114996
   103  H    0.118123
   104  H    0.111141
   105  H    0.125832
   106  H    0.059746
   107  H    0.080342
   108  H    0.110401
   109  H    0.077955
   110  H    0.092410
   111  H    0.100120
   112  H    0.094887
   113  H    0.078197
   114  H    0.099299
   115  H    0.076606
   116  H    0.093960
   117  H    0.104340
   118  H    0.099524
   119  H    0.097246
   120  H    0.054419
   121  H    0.073823
   122  H    0.083994
   123  H    0.103707
   124  H    0.116529
   125  H    0.089932
   126  H    0.089048
   127  H    0.096674
   128  H    0.071701
   129  H    0.088108
   130  H    0.087604
   131  H    0.053182
   132  H    0.090066
   133  H    0.097080
   134  H    0.115247
   135  H    0.063699
   136  H    0.071689
   137  H    0.117874
 Sum of Mulliken charges =  -0.00000
 Mulliken charges with hydrogens summed into heavy atoms:
               1
     1  Mg   0.816320
     2  C    0.204283
     3  C   -0.148320
     4  C   -0.077872
     5  C   -0.089956
     6  N   -0.628392
     7  C    0.241353
     8  C   -0.061160
     9  C   -0.055249
    10  C    0.316422
    11  C    0.048272
    12  C    0.086752
    13  C    0.022477
    14  C    0.600773
    15  O   -0.478457
    16  O   -0.485972
    17  N   -0.708313
    18  C    0.328772
    19  C    0.040849
    20  C   -0.042370
    21  C    0.321706
    22  C   -0.009243
    23  C    0.041872
    24  C   -0.067559
    25  N   -0.691496
    26  C    0.263309
    27  C    0.053488
    28  C    0.036495
    29  C    0.297776
    30  C   -0.025831
    31  C   -0.041740
    32  C    0.005914
    33  N   -0.727942
    34  C    0.283618
    35  C   -0.036923
    36  C    0.185183
    37  C    0.253470
    38  C    0.015201
    39  C    0.272555
    40  O   -0.490373
    41  C   -0.156409
    42  C    0.623703
    43  O   -0.475745
    44  O   -0.451359
    45  C    0.280812
    46  C    0.240103
    47  C   -0.040636
    48  C    0.186376
    49  C   -0.059995
    50  C   -0.034778
    51  C    0.011180
    52  C   -0.004203
    53  C    0.063901
    54  C   -0.036666
    55  C   -0.016991
    56  C    0.038393
    57  C   -0.021705
    58  C   -0.003719
    59  C   -0.004974
    60  C    0.013724
    61  C   -0.030267
    62  C    0.017274
    63  C    0.015315
    64  C    0.000962
    65  C   -0.023988
 Electronic spatial extent (au):  <R**2>=         181030.9936
 Charge=              0.0000 electrons
 Dipole moment (field-independent basis, Debye):
    X=             -0.8401    Y=              4.7564    Z=             -0.2604  Tot=              4.8370
 Quadrupole moment (field-independent basis, Debye-Ang):
   XX=           -331.5132   YY=           -399.5737   ZZ=           -394.9578
   XY=             -7.6425   XZ=              7.0715   YZ=             -1.2604
 Traceless Quadrupole moment (field-independent basis, Debye-Ang):
   XX=             43.8350   YY=            -24.2255   ZZ=            -19.6096
   XY=             -7.6425   XZ=              7.0715   YZ=             -1.2604
 Octapole moment (field-independent basis, Debye-Ang**2):
  XXX=          -1240.5374  YYY=            125.2774  ZZZ=              4.6846  XYY=            -53.0147
  XXY=            101.8710  XXZ=           -283.9640  XZZ=            -10.1477  YZZ=            -31.3272
  YYZ=             26.6925  XYZ=            -48.6019
 Hexadecapole moment (field-independent basis, Debye-Ang**3):
 XXXX=        -226933.9868 YYYY=         -17254.6922 ZZZZ=          -4155.2137 XXXY=            975.1916
 XXXZ=            347.9428 YYYX=           -684.5302 YYYZ=           -145.5571 ZZZX=             27.0968
 ZZZY=           -100.1989 XXYY=         -40228.1308 XXZZ=         -39282.9236 YYZZ=          -3560.3371
 XXYZ=            210.2136 YYXZ=             29.9662 ZZXY=            112.7329
 N-N= 8.756233140510D+03 E-N=-2.433840408799D+04  KE= 2.909604579795D+03

 Test job not archived.
 1\1\GINC-RYZEN-SSD3\SP\RCAM-B3LYP TD-FC\6-31G(d,p)\C55H72Mg1N4O5\PADAW
 AN\23-Oct-2019\0\\# td=(NStates=10) iop(3/107=0140000000,3/108=0140000
 000) CAM-B3LYP/6-31G(d,p)\\TD\\0,1\Mg,0,-7.1834300123,0.5893971804,0.0
 58783927\C,0,-4.9127201531,-1.9388359949,0.4856441993\C,0,-4.77453676,
 2.8521895463,1.1120946667\C,0,-9.377142303,3.0719995994,-0.4250838414\
 C,0,-9.5488359112,-1.7119413691,-0.8287909941\N,0,-5.108803662,0.44925
 61861,0.7157991003\C,0,-4.4396715725,-0.7645570761,0.696061509\C,0,-2.
 9453154927,-0.4856138335,1.1884142826\C,0,-3.0383341226,0.9795190844,1
 .7874615526\C,0,-4.3961076975,1.4747378542,1.1961258738\C,0,-2.7792357
 146,1.1636528526,3.3018037065\C,0,-1.9372380047,-0.5043244425,0.034782
 8041\C,0,-0.4937176258,-0.5114993813,0.4994185248\C,0,0.4810974881,-0.
 6901324453,-0.6085225041\O,0,0.3111516649,-1.1242538292,-1.7468739677\
 O,0,1.734610486,-0.4447993867,-0.1397381939\N,0,-7.07061467,2.61710311
 76,0.373122469\C,0,-6.0852656576,3.4177527292,0.815729557\C,0,-6.45165
 3155,4.752045835,0.9520129658\C,0,-7.757026298,4.7609559823,0.39607651
 47\C,0,-8.1678973429,3.4183521265,0.1348538246\C,0,-5.7459803792,5.893
 6504563,1.4237589011\C,0,-8.671216334,6.0276178298,0.3866986918\C,0,-8
 .2874979476,7.2560316875,0.1545811958\N,0,-9.1467697127,0.6500914874,-
 0.4629680021\C,0,-9.88341,1.7895796406,-0.7092760518\C,0,-11.174322175
 1,1.5252635168,-1.2281675664\C,0,-11.2054090616,0.1086747448,-1.317320
 9983\C,0,-9.9462645102,-0.307009189,-0.8713964425\C,0,-12.2951677589,2
 .3173440153,-1.4921697479\C,0,-12.3957396197,-0.7303941016,-1.72007718
 49\C,0,-12.4310694389,-1.0646603512,-3.2579539008\N,0,-7.2502812802,-1
 .3920185635,-0.2263257513\C,0,-8.3100862309,-2.1735332928,-0.445272333
 1\C,0,-7.7869663641,-3.6064048234,-0.511889618\C,0,-6.546920214,-3.584
 6027758,-0.0836808602\C,0,-6.2117959578,-2.1476009146,0.0755691783\C,0
 ,-8.7046908138,-4.8762004389,-0.699559503\C,0,-5.368283366,-4.24104008
 93,0.0713956395\O,0,-5.109472309,-5.4807107247,0.0937954143\C,0,-4.201
 7235824,-3.2287958137,0.494450337\C,0,-3.7037047347,-3.7123273173,1.82
 87140511\O,0,-3.9893925939,-3.3161848513,2.9298467\O,0,-2.6698983377,-
 4.6179199445,1.715179606\C,0,-2.22701534,-5.0580062699,2.9686882058\C,
 0,2.899193696,-0.6497342311,-1.0418395589\C,0,4.1958129037,-0.46023987
 34,-0.4167041991\C,0,5.1755311605,0.1881321377,-0.9305529555\C,0,5.116
 7590925,1.0299575321,-2.1513622273\C,0,6.4151979774,0.3722360305,-0.12
 54392301\C,0,7.6710548444,-0.0752494068,-0.9620158703\C,0,8.8542345059
 ,-0.1002497585,0.0086082666\C,0,10.1748983828,-0.5164087392,-0.7980762
 02\C,0,10.1402912153,-1.9553148664,-1.336655327\C,0,11.4938104981,-0.1
 859494855,0.0417043691\C,0,12.7679039594,-0.446511167,-0.7408346233\C,
 0,14.0276184496,-0.0775845217,0.1602532383\C,0,15.4006454085,-0.152557
 8675,-0.542087259\C,0,15.8685709593,-1.5977025561,-0.9575830381\C,0,16
 .5256758216,0.4561900051,0.4246416489\C,0,17.8325789622,0.5889370195,-
 0.2393822181\C,0,18.8790533048,1.3183136782,0.6897313348\C,0,20.268844
 5643,1.2983555802,0.2190715108\C,0,20.508741103,2.045550203,-1.1621320
 346\C,0,21.1988277569,1.9742317926,1.2128779894\H,0,-3.9814083993,3.49
 40377855,1.5816626873\H,0,-10.2028440361,3.7623038143,-0.6250368063\H,
 0,-10.3568249443,-2.5570257573,-0.9770812556\H,0,-2.7810467954,-1.1144
 211058,2.0039276314\H,0,-2.3231919572,1.5902075094,1.2602503915\H,0,-1
 .8939531186,0.8910845975,3.7029605095\H,0,-3.1385086371,2.1133107877,3
 .5137059381\H,0,-3.4014511263,0.6791222799,3.7856224467\H,0,-2.1558981
 167,-1.3402899494,-0.4821331993\H,0,-2.0660208043,0.2422163129,-0.5774
 228439\H,0,-0.2405411481,0.4158595095,0.8603282847\H,0,-0.4532712808,-
 1.2135143268,1.2956224381\H,0,-5.110093177,6.140719247,0.464308213\H,0
 ,-6.4418988602,6.5791877176,1.6482895182\H,0,-4.9731805469,5.452160387
 4,2.294503129\H,0,-9.6887363725,5.7712700631,0.4393117757\H,0,-8.72450
 30907,8.3366122507,0.3561662099\H,0,-7.1187569123,7.4952200912,-0.1450
 589765\H,0,-11.9209775106,2.9849858039,-2.2195082492\H,0,-13.231308344
 3,1.8894445826,-1.8619697207\H,0,-12.6398309445,2.828535939,-0.5616476
 628\H,0,-12.4967622043,-1.652437642,-1.1373039383\H,0,-13.2987058742,-
 0.1156353765,-1.4874361006\H,0,-13.2326637326,-1.4404852877,-3.6091939
 171\H,0,-12.2378539594,-0.2317218981,-3.8885464296\H,0,-11.7463679844,
 -1.7760605501,-3.657824898\H,0,-9.2195128472,-4.845197368,-1.591166698
 1\H,0,-8.2500587069,-5.8409141996,-0.7090551336\H,0,-9.4848106469,-5.0
 34850272,0.2344951933\H,0,-3.4360137334,-3.4806796525,-0.0961862716\H,
 0,-1.6761787079,-4.3789962769,3.5088875758\H,0,-3.1030654939,-5.355706
 213,3.4595731794\H,0,-1.6903204585,-6.1563298101,2.8044071436\H,0,2.97
 45421253,-1.8211218021,-1.430357112\H,0,2.8993916394,0.0790408225,-1.9
 288249023\H,0,4.278197044,-1.0352315294,0.4678291591\H,0,4.1079417305,
 1.1713982361,-2.5752208644\H,0,5.4850818066,2.1098553757,-2.2311974743
 \H,0,5.5899443172,0.6200623364,-3.1409253918\H,0,6.4673697603,1.247791
 0068,0.3260901067\H,0,6.270300378,-0.373430592,0.8720382109\H,0,7.6111
 148536,-1.2420552772,-1.3708512138\H,0,7.5942809591,0.4922260991,-1.87
 92680737\H,0,9.0967057678,0.8878614026,0.5563996025\H,0,8.8495927821,-
 0.8432126767,0.8851831369\H,0,10.0615778693,0.1399787642,-1.5566694975
 \H,0,9.3290594023,-2.2083278771,-2.2450694681\H,0,11.2568787726,-2.167
 0432169,-1.7725034363\H,0,10.3287203456,-2.7297545981,-0.4711692076\H,
 0,11.5419789601,0.9610905166,0.3543573991\H,0,11.6383042401,-0.7082131
 594,1.0200594789\H,0,12.9495706928,-1.3465315146,-1.0958679217\H,0,12.
 9277216782,0.009700449,-1.5756359274\H,0,13.9947909823,0.8316864241,0.
 6454612066\H,0,14.0567117615,-0.7604384811,1.1561707868\H,0,15.4130136
 935,0.4918690473,-1.4641360731\H,0,16.0863206331,-2.1022069466,0.10689
 30917\H,0,15.1977973115,-1.9450426979,-1.7230800284\H,0,16.8373317918,
 -1.6528892175,-1.295641673\H,0,16.3349787076,1.3048595587,0.8149549165
 \H,0,16.784920194,-0.26314271,1.1538083125\H,0,18.1960687988,-0.359312
 8951,-0.480914099\H,0,17.6028903702,1.0627975383,-1.2359570796\H,0,18.
 4603747203,2.3384657462,0.7977548764\H,0,18.6466809455,0.6988534966,1.
 6051168633\H,0,20.6567257393,0.1226286987,0.0213098814\H,0,20.12807964
 13,3.0713261175,-0.9934196115\H,0,21.6570918231,2.0890447824,-1.301781
 4321\H,0,19.9077916124,1.7634277451,-1.8802884521\H,0,21.3046304783,1.
 3142207259,2.2977192135\H,0,22.2907137119,2.1091294441,0.7045247187\H,
 0,20.915484081,2.9282665029,1.4544013713\\Version=ES64L-G16RevA.03\Sta
 te=1-A\HF=-2933.3805661\RMSD=2.933e-09\PG=C01 [X(C55H72Mg1N4O5)]\\@


 JUST WHEN YOU THINK YOU'VE GOT THE WORLD ON A STRING,
 YOU FIND OUT IT'S YOUR LEASH.
 Job cpu time:       1 days 16 hours 50 minutes 43.9 seconds.
 Elapsed time:       0 days 13 hours 37 minutes 49.5 seconds.
 File lengths (MBytes):  RWF=  11883 Int=      0 D2E=      0 Chk=    697 Scr=      1
 Normal termination of Gaussian 16 at Wed Oct 23 19:00:47 2019.
