 Entering Gaussian System, Link 0=g16
 Input=pheo-a-s0.gjf
 Output=pheo-a-s0.log
 Initial command:
 /usr/local/g16/l1.exe "/home/padawan/israel-mol/w-tuning/pheo-a/Gau-97829.inp" -scrdir="/home/padawan/israel-mol/w-tuning/pheo-a/"
 Entering Link 1 = /usr/local/g16/l1.exe PID=     97831.
  
 Copyright (c) 1988,1990,1992,1993,1995,1998,2003,2009,2016,
            Gaussian, Inc.  All Rights Reserved.
  
 This is part of the Gaussian(R) 16 program.  It is based on
 the Gaussian(R) 09 system (copyright 2009, Gaussian, Inc.),
 the Gaussian(R) 03 system (copyright 2003, Gaussian, Inc.),
 the Gaussian(R) 98 system (copyright 1998, Gaussian, Inc.),
 the Gaussian(R) 94 system (copyright 1995, Gaussian, Inc.),
 the Gaussian 92(TM) system (copyright 1992, Gaussian, Inc.),
 the Gaussian 90(TM) system (copyright 1990, Gaussian, Inc.),
 the Gaussian 88(TM) system (copyright 1988, Gaussian, Inc.),
 the Gaussian 86(TM) system (copyright 1986, Carnegie Mellon
 University), and the Gaussian 82(TM) system (copyright 1983,
 Carnegie Mellon University). Gaussian is a federally registered
 trademark of Gaussian, Inc.
  
 This software contains proprietary and confidential information,
 including trade secrets, belonging to Gaussian, Inc.
  
 This software is provided under written license and may be
 used, copied, transmitted, or stored only in accord with that
 written license.
  
 The following legend is applicable only to US Government
 contracts under FAR:
  
                    RESTRICTED RIGHTS LEGEND
  
 Use, reproduction and disclosure by the US Government is
 subject to restrictions as set forth in subparagraphs (a)
 and (c) of the Commercial Computer Software - Restricted
 Rights clause in FAR 52.227-19.
  
 Gaussian, Inc.
 340 Quinnipiac St., Bldg. 40, Wallingford CT 06492
  
  
 ---------------------------------------------------------------
 Warning -- This program may not be used in any manner that
 competes with the business of Gaussian, Inc. or will provide
 assistance to any competitor of Gaussian, Inc.  The licensee
 of this program is prohibited from giving any competitor of
 Gaussian, Inc. access to this program.  By using this program,
 the user acknowledges that Gaussian, Inc. is engaged in the
 business of creating and licensing software in the field of
 computational chemistry and represents and warrants to the
 licensee that it is not a competitor of Gaussian, Inc. and that
 it will not use this program in any manner prohibited above.
 ---------------------------------------------------------------
  

 Cite this work as:
 Gaussian 16, Revision A.03,
 M. J. Frisch, G. W. Trucks, H. B. Schlegel, G. E. Scuseria, 
 M. A. Robb, J. R. Cheeseman, G. Scalmani, V. Barone, 
 G. A. Petersson, H. Nakatsuji, X. Li, M. Caricato, A. V. Marenich, 
 J. Bloino, B. G. Janesko, R. Gomperts, B. Mennucci, H. P. Hratchian, 
 J. V. Ortiz, A. F. Izmaylov, J. L. Sonnenberg, D. Williams-Young, 
 F. Ding, F. Lipparini, F. Egidi, J. Goings, B. Peng, A. Petrone, 
 T. Henderson, D. Ranasinghe, V. G. Zakrzewski, J. Gao, N. Rega, 
 G. Zheng, W. Liang, M. Hada, M. Ehara, K. Toyota, R. Fukuda, 
 J. Hasegawa, M. Ishida, T. Nakajima, Y. Honda, O. Kitao, H. Nakai, 
 T. Vreven, K. Throssell, J. A. Montgomery, Jr., J. E. Peralta, 
 F. Ogliaro, M. J. Bearpark, J. J. Heyd, E. N. Brothers, K. N. Kudin, 
 V. N. Staroverov, T. A. Keith, R. Kobayashi, J. Normand, 
 K. Raghavachari, A. P. Rendell, J. C. Burant, S. S. Iyengar, 
 J. Tomasi, M. Cossi, J. M. Millam, M. Klene, C. Adamo, R. Cammi, 
 J. W. Ochterski, R. L. Martin, K. Morokuma, O. Farkas, 
 J. B. Foresman, and D. J. Fox, Gaussian, Inc., Wallingford CT, 2016.
 
 ******************************************
 Gaussian 16:  ES64L-G16RevA.03 25-Dec-2016
                 6-Nov-2019 
 ******************************************
 %Mem=30GB
 %CPU=0-29
 SetSPE:  set environment variable "MP_BIND" = "yes"
 SetSPE:  set environment variable "MP_BLIST" = "0,1,2,3,4,5,6,7,8,9,10,11,12,13,14,15,16,17,18,19,20,21,22,23,24,25,26,27,28,29"
 Will use up to   30 processors via shared memory.
 %Chk=pheo-a-s0.chk
 ----------------------
 #n wB97XD/Def2TZVP Opt
 ----------------------
 1/18=20,19=15,26=3,38=1/1,3;
 2/9=110,12=2,17=6,18=5,40=1/2;
 3/5=44,7=101,11=2,25=1,30=1,71=1,74=-58/1,2,3;
 4//1;
 5/5=2,38=5/2;
 6/7=2,8=2,9=2,10=2,28=1/1;
 7//1,2,3,16;
 1/18=20,19=15,26=3/3(2);
 2/9=110/2;
 99//99;
 2/9=110/2;
 3/5=44,7=101,11=2,25=1,30=1,71=1,74=-58/1,2,3;
 4/5=5,16=3,69=1/1;
 5/5=2,38=5/2;
 7//1,2,3,16;
 1/18=20,19=15,26=3/3(-5);
 2/9=110/2;
 6/7=2,8=2,9=2,10=2,19=2,28=1/1;
 99/9=1/99;
 ---------
 pheo-a-s0
 ---------
 Symbolic Z-matrix:
 Charge =  0 Multiplicity = 1
 C                     25.7436  -19.28554  -0.39627 
 C                     27.22264  -16.15171   2.90379 
 C                     24.41789  -12.76262   0.78878 
 C                     22.70378  -15.97207  -2.39938 
 N                     26.33392  -17.52302   1.1093 
 C                     26.47404  -18.80561   0.67279 
 C                     27.48661  -19.59714   1.48986 
 C                     27.75684  -18.63933   2.67515 
 C                     27.07792  -17.35503   2.21055 
 C                     27.17847  -19.14142   4.00535 
 C                     28.75102  -19.93962   0.6812 
 C                     29.71082  -20.84404   1.45074 
 C                     30.95345  -21.18503   0.65684 
 O                     31.19069  -20.78266  -0.46352 
 O                     31.75722  -22.00792   1.35745 
 N                     25.75899  -14.65726   1.59724 
 C                     26.63677  -14.92132   2.61199 
 C                     26.84926  -13.68414   3.31921 
 C                     26.10161  -12.7054   2.69426 
 C                     25.37321  -13.33425   1.60699 
 C                     27.77086  -13.53316   4.48758 
 C                     26.05932  -11.29309   3.07052 
 C                     25.96728  -10.25062   2.23592 
 N                     23.80664  -14.64272  -0.66584 
 C                     23.68549  -13.35958  -0.25676 
 C                     22.68518  -12.63699  -1.0415 
 C                     22.1971  -13.53447  -1.9493 
 C                     22.91068  -14.78412  -1.69744 
 C                     22.30981  -11.2006  -0.85155 
 C                     21.17713  -13.31566  -3.02743 
 C                     21.80289  -13.05273  -4.40733 
 N                     24.33889  -17.28535  -1.1662 
 C                     23.37095  -17.17452  -2.16165 
 C                     23.23419  -18.44947  -2.7955 
 C                     24.139   -19.28344  -2.14311 
 C                     24.80651  -18.54222  -1.13876 
 C                     22.31015  -18.80433  -3.91512 
 C                     24.62792  -20.65468  -2.12438 
 O                     24.29597  -21.61188  -2.79362 
 C                     25.75187  -20.68537  -1.00292 
 C                     25.46876  -21.81604  -0.03503 
 O                     24.94284  -21.70676   1.05276 
 O                     25.86433  -22.98998  -0.55834 
 C                     25.5417  -24.14448   0.22994 
 C                     33.0169  -22.37342   0.72008 
 C                     34.10326  -21.40673   1.0691 
 C                     34.74395  -20.58734   0.22132 
 C                     34.43461  -20.49027  -1.25301 
 C                     35.86312  -19.7043   0.72134 
 C                     37.23293  -20.04227   0.10787 
 C                     38.34786  -19.13525   0.63539 
 C                     39.72815  -19.35056  -0.00973 
 C                     40.27439  -20.75546   0.2731 
 C                     40.70144  -18.25348   0.45606 
 C                     42.05671  -18.23421  -0.25766 
 C                     42.93282  -17.05536   0.17751 
 C                     44.26841  -16.91526  -0.5736 
 C                     45.18837  -18.11796  -0.32999 
 C                     44.94943  -15.5897  -0.19097 
 C                     46.19866  -15.23594  -1.00382 
 C                     46.75391  -13.85168  -0.65506 
 C                     48.07021  -13.47928  -1.35655 
 C                     47.91872  -13.40945  -2.88033 
 C                     48.61066  -12.15302  -0.81169 
 H                     27.87551  -16.165    3.77128 
 H                     24.19457  -11.72281   0.99867 
 H                     21.9619  -15.97181  -3.19235 
 H                     27.0225  -20.52685   1.84156 
 H                     28.83302  -18.46232   2.80267 
 H                     27.67139  -20.06888   4.31588 
 H                     27.30993  -18.40291   4.80271 
 H                     26.10735  -19.34495   3.9052 
 H                     28.48134  -20.43465  -0.25713 
 H                     29.26564  -19.01567   0.39252 
 H                     30.03664  -20.38596   2.39325 
 H                     29.22383  -21.78546   1.73624 
 H                     28.81051  -13.73727   4.20531 
 H                     27.73628  -12.5198   4.89358 
 H                     27.51194  -14.22848   5.29427 
 H                     26.14291  -11.09049   4.13775 
 H                     25.9368  -10.37516   1.15828 
 H                     25.94761  -9.2339    2.61489 
 H                     23.15434  -10.52996  -1.05329 
 H                     21.49629  -10.91051  -1.52212 
 H                     21.97909  -11.00016   0.1745 
 H                     20.51185  -14.18632  -3.09127 
 H                     20.53498  -12.46968  -2.75618 
 H                     22.4319  -12.15738  -4.38296 
 H                     22.43595  -13.89015  -4.71768 
 H                     21.02997  -12.90771  -5.16928 
 H                     22.51635  -18.20697  -4.81073 
 H                     22.42646  -19.85935  -4.17161 
 H                     21.26335  -18.62957  -3.64156 
 H                     26.68659  -20.92269  -1.5255 
 H                     25.91813  -24.99863  -0.3318 
 H                     26.01912  -24.08572   1.2116 
 H                     24.46073  -24.22167   0.36883 
 H                     33.23147  -23.36524   1.12771 
 H                     32.85543  -22.45346  -0.35522 
 H                     34.3893  -21.39476   2.12043 
 H                     33.39712  -20.75236  -1.46951 
 H                     34.60118  -19.46588  -1.60503 
 H                     35.0945  -21.13664  -1.8453 
 H                     35.6241  -18.65636   0.48466 
 H                     35.93164  -19.77392   1.81405 
 H                     37.4596  -21.09418   0.3209 
 H                     37.18067  -19.95137  -0.98567 
 H                     38.04872  -18.08867   0.48023 
 H                     38.43853  -19.26534   1.72466 
 H                     39.60552  -19.24512  -1.09987 
 H                     39.59482  -21.53481  -0.08437 
 H                     41.24013  -20.92022  -0.21366 
 H                     40.41447  -20.90349   1.3517 
 H                     40.2183  -17.27594   0.31534 
 H                     40.86283  -18.35683   1.54009 
 H                     42.58558  -19.17644  -0.07314 
 H                     41.89258  -18.18122  -1.3444 
 H                     42.35952  -16.12649   0.04574 
 H                     43.13697  -17.13305   1.25647 
 H                     44.04089  -16.87296  -1.65115 
 H                     44.71636  -19.05783  -0.6314 
 H                     46.12445  -18.03196  -0.88968 
 H                     45.44234  -18.19824   0.73493 
 H                     44.21796  -14.77666  -0.30432 
 H                     45.20691  -15.61637   0.87898 
 H                     46.984   -15.98521  -0.83601 
 H                     45.95225  -15.28393  -2.07325 
 H                     45.99804  -13.08586  -0.88784 
 H                     46.91049  -13.79973   0.43208 
 H                     48.8051  -14.26554  -1.12423 
 H                     47.16879  -12.65833  -3.15961 
 H                     48.86407  -13.12607  -3.35573 
 H                     47.60739  -14.36713  -3.30851 
 H                     48.75996  -12.1968   0.27276 
 H                     49.56907  -11.8927  -1.2739 
 H                     47.90986  -11.33439  -1.01818 
 H                     25.39428  -15.35763   0.96428 
 H                     24.58659  -16.48104  -0.5944 
 

 GradGradGradGradGradGradGradGradGradGradGradGradGradGradGradGradGradGrad
 Berny optimization.
 Initialization pass.
                           ----------------------------
                           !    Initial Parameters    !
                           ! (Angstroms and Degrees)  !
 --------------------------                            --------------------------
 ! Name  Definition              Value          Derivative Info.                !
 --------------------------------------------------------------------------------
 ! R1    R(1,6)                  1.3809         estimate D2E/DX2                !
 ! R2    R(1,36)                 1.4078         estimate D2E/DX2                !
 ! R3    R(1,40)                 1.5257         estimate D2E/DX2                !
 ! R4    R(2,9)                  1.3962         estimate D2E/DX2                !
 ! R5    R(2,17)                 1.3936         estimate D2E/DX2                !
 ! R6    R(2,65)                 1.0858         estimate D2E/DX2                !
 ! R7    R(3,20)                 1.3816         estimate D2E/DX2                !
 ! R8    R(3,25)                 1.4092         estimate D2E/DX2                !
 ! R9    R(3,66)                 1.084          estimate D2E/DX2                !
 ! R10   R(4,28)                 1.3953         estimate D2E/DX2                !
 ! R11   R(4,33)                 1.3955         estimate D2E/DX2                !
 ! R12   R(4,67)                 1.0859         estimate D2E/DX2                !
 ! R13   R(5,6)                  1.3621         estimate D2E/DX2                !
 ! R14   R(5,9)                  1.3396         estimate D2E/DX2                !
 ! R15   R(6,7)                  1.523          estimate D2E/DX2                !
 ! R16   R(7,8)                  1.5477         estimate D2E/DX2                !
 ! R17   R(7,11)                 1.5395         estimate D2E/DX2                !
 ! R18   R(7,68)                 1.097          estimate D2E/DX2                !
 ! R19   R(8,9)                  1.5252         estimate D2E/DX2                !
 ! R20   R(8,10)                 1.5349         estimate D2E/DX2                !
 ! R21   R(8,69)                 1.0981         estimate D2E/DX2                !
 ! R22   R(10,70)                1.0952         estimate D2E/DX2                !
 ! R23   R(10,71)                1.0947         estimate D2E/DX2                !
 ! R24   R(10,72)                1.0949         estimate D2E/DX2                !
 ! R25   R(11,12)                1.5269         estimate D2E/DX2                !
 ! R26   R(11,73)                1.0946         estimate D2E/DX2                !
 ! R27   R(11,74)                1.0963         estimate D2E/DX2                !
 ! R28   R(12,13)                1.5135         estimate D2E/DX2                !
 ! R29   R(12,75)                1.0974         estimate D2E/DX2                !
 ! R30   R(12,76)                1.0977         estimate D2E/DX2                !
 ! R31   R(13,14)                1.2138         estimate D2E/DX2                !
 ! R32   R(13,15)                1.3469         estimate D2E/DX2                !
 ! R33   R(15,45)                1.4583         estimate D2E/DX2                !
 ! R34   R(16,17)                1.3675         estimate D2E/DX2                !
 ! R35   R(16,20)                1.3781         estimate D2E/DX2                !
 ! R36   R(16,137)               1.012          estimate D2E/DX2                !
 ! R37   R(17,18)                1.4408         estimate D2E/DX2                !
 ! R38   R(18,19)                1.3811         estimate D2E/DX2                !
 ! R39   R(18,21)                1.4957         estimate D2E/DX2                !
 ! R40   R(19,20)                1.452          estimate D2E/DX2                !
 ! R41   R(19,22)                1.4622         estimate D2E/DX2                !
 ! R42   R(21,77)                1.0965         estimate D2E/DX2                !
 ! R43   R(21,78)                1.0922         estimate D2E/DX2                !
 ! R44   R(21,79)                1.096          estimate D2E/DX2                !
 ! R45   R(22,23)                1.3386         estimate D2E/DX2                !
 ! R46   R(22,80)                1.0895         estimate D2E/DX2                !
 ! R47   R(23,81)                1.0852         estimate D2E/DX2                !
 ! R48   R(23,82)                1.0852         estimate D2E/DX2                !
 ! R49   R(24,25)                1.3522         estimate D2E/DX2                !
 ! R50   R(24,28)                1.3737         estimate D2E/DX2                !
 ! R51   R(25,26)                1.4624         estimate D2E/DX2                !
 ! R52   R(26,27)                1.3667         estimate D2E/DX2                !
 ! R53   R(26,29)                1.4967         estimate D2E/DX2                !
 ! R54   R(27,28)                1.4609         estimate D2E/DX2                !
 ! R55   R(27,30)                1.5002         estimate D2E/DX2                !
 ! R56   R(29,83)                1.0971         estimate D2E/DX2                !
 ! R57   R(29,84)                1.0934         estimate D2E/DX2                !
 ! R58   R(29,85)                1.0965         estimate D2E/DX2                !
 ! R59   R(30,31)                1.5378         estimate D2E/DX2                !
 ! R60   R(30,86)                1.0976         estimate D2E/DX2                !
 ! R61   R(30,87)                1.0962         estimate D2E/DX2                !
 ! R62   R(31,88)                1.0945         estimate D2E/DX2                !
 ! R63   R(31,89)                1.0947         estimate D2E/DX2                !
 ! R64   R(31,90)                1.095          estimate D2E/DX2                !
 ! R65   R(32,33)                1.3929         estimate D2E/DX2                !
 ! R66   R(32,36)                1.3413         estimate D2E/DX2                !
 ! R67   R(32,138)               1.0175         estimate D2E/DX2                !
 ! R68   R(33,34)                1.4304         estimate D2E/DX2                !
 ! R69   R(34,35)                1.3928         estimate D2E/DX2                !
 ! R70   R(34,37)                1.4944         estimate D2E/DX2                !
 ! R71   R(35,36)                1.4155         estimate D2E/DX2                !
 ! R72   R(35,38)                1.4559         estimate D2E/DX2                !
 ! R73   R(37,91)                1.0961         estimate D2E/DX2                !
 ! R74   R(37,92)                1.092          estimate D2E/DX2                !
 ! R75   R(37,93)                1.096          estimate D2E/DX2                !
 ! R76   R(38,39)                1.2142         estimate D2E/DX2                !
 ! R77   R(38,40)                1.588          estimate D2E/DX2                !
 ! R78   R(40,41)                1.515          estimate D2E/DX2                !
 ! R79   R(40,94)                1.0969         estimate D2E/DX2                !
 ! R80   R(41,42)                1.2132         estimate D2E/DX2                !
 ! R81   R(41,43)                1.3448         estimate D2E/DX2                !
 ! R82   R(43,44)                1.4347         estimate D2E/DX2                !
 ! R83   R(44,95)                1.0894         estimate D2E/DX2                !
 ! R84   R(44,96)                1.0932         estimate D2E/DX2                !
 ! R85   R(44,97)                1.0926         estimate D2E/DX2                !
 ! R86   R(45,46)                1.4955         estimate D2E/DX2                !
 ! R87   R(45,98)                1.0936         estimate D2E/DX2                !
 ! R88   R(45,99)                1.0903         estimate D2E/DX2                !
 ! R89   R(46,47)                1.3419         estimate D2E/DX2                !
 ! R90   R(46,100)               1.0896         estimate D2E/DX2                !
 ! R91   R(47,48)                1.5096         estimate D2E/DX2                !
 ! R92   R(47,49)                1.5107         estimate D2E/DX2                !
 ! R93   R(48,101)               1.0918         estimate D2E/DX2                !
 ! R94   R(48,102)               1.0959         estimate D2E/DX2                !
 ! R95   R(48,103)               1.0973         estimate D2E/DX2                !
 ! R96   R(49,50)                1.5385         estimate D2E/DX2                !
 ! R97   R(49,104)               1.1006         estimate D2E/DX2                !
 ! R98   R(49,105)               1.0971         estimate D2E/DX2                !
 ! R99   R(50,51)                1.531          estimate D2E/DX2                !
 ! R100  R(50,106)               1.0969         estimate D2E/DX2                !
 ! R101  R(50,107)               1.0986         estimate D2E/DX2                !
 ! R102  R(51,52)                1.5387         estimate D2E/DX2                !
 ! R103  R(51,108)               1.0995         estimate D2E/DX2                !
 ! R104  R(51,109)               1.1007         estimate D2E/DX2                !
 ! R105  R(52,53)                1.5337         estimate D2E/DX2                !
 ! R106  R(52,54)                1.5388         estimate D2E/DX2                !
 ! R107  R(52,110)               1.1021         estimate D2E/DX2                !
 ! R108  R(53,111)               1.0941         estimate D2E/DX2                !
 ! R109  R(53,112)               1.094          estimate D2E/DX2                !
 ! R110  R(53,113)               1.0977         estimate D2E/DX2                !
 ! R111  R(54,55)                1.5318         estimate D2E/DX2                !
 ! R112  R(54,114)               1.0995         estimate D2E/DX2                !
 ! R113  R(54,115)               1.1008         estimate D2E/DX2                !
 ! R114  R(55,56)                1.5319         estimate D2E/DX2                !
 ! R115  R(55,116)               1.0962         estimate D2E/DX2                !
 ! R116  R(55,117)               1.1003         estimate D2E/DX2                !
 ! R117  R(56,57)                1.5387         estimate D2E/DX2                !
 ! R118  R(56,118)               1.0995         estimate D2E/DX2                !
 ! R119  R(56,119)               1.1009         estimate D2E/DX2                !
 ! R120  R(57,58)                1.5337         estimate D2E/DX2                !
 ! R121  R(57,59)                1.5386         estimate D2E/DX2                !
 ! R122  R(57,120)               1.1021         estimate D2E/DX2                !
 ! R123  R(58,121)               1.0941         estimate D2E/DX2                !
 ! R124  R(58,122)               1.094          estimate D2E/DX2                !
 ! R125  R(58,123)               1.0977         estimate D2E/DX2                !
 ! R126  R(59,60)                1.5318         estimate D2E/DX2                !
 ! R127  R(59,124)               1.0995         estimate D2E/DX2                !
 ! R128  R(59,125)               1.1008         estimate D2E/DX2                !
 ! R129  R(60,61)                1.5317         estimate D2E/DX2                !
 ! R130  R(60,126)               1.0983         estimate D2E/DX2                !
 ! R131  R(60,127)               1.0985         estimate D2E/DX2                !
 ! R132  R(61,62)                1.5373         estimate D2E/DX2                !
 ! R133  R(61,128)               1.1009         estimate D2E/DX2                !
 ! R134  R(61,129)               1.0996         estimate D2E/DX2                !
 ! R135  R(62,63)                1.5329         estimate D2E/DX2                !
 ! R136  R(62,64)                1.5323         estimate D2E/DX2                !
 ! R137  R(62,130)               1.101          estimate D2E/DX2                !
 ! R138  R(63,131)               1.0975         estimate D2E/DX2                !
 ! R139  R(63,132)               1.0954         estimate D2E/DX2                !
 ! R140  R(63,133)               1.0943         estimate D2E/DX2                !
 ! R141  R(64,134)               1.0956         estimate D2E/DX2                !
 ! R142  R(64,135)               1.0954         estimate D2E/DX2                !
 ! R143  R(64,136)               1.0972         estimate D2E/DX2                !
 ! A1    A(6,1,36)             125.2337         estimate D2E/DX2                !
 ! A2    A(6,1,40)             128.6001         estimate D2E/DX2                !
 ! A3    A(36,1,40)            106.1609         estimate D2E/DX2                !
 ! A4    A(9,2,17)             127.8309         estimate D2E/DX2                !
 ! A5    A(9,2,65)             116.6444         estimate D2E/DX2                !
 ! A6    A(17,2,65)            115.5224         estimate D2E/DX2                !
 ! A7    A(20,3,25)            128.5697         estimate D2E/DX2                !
 ! A8    A(20,3,66)            115.1283         estimate D2E/DX2                !
 ! A9    A(25,3,66)            116.2899         estimate D2E/DX2                !
 ! A10   A(28,4,33)            125.2419         estimate D2E/DX2                !
 ! A11   A(28,4,67)            117.9355         estimate D2E/DX2                !
 ! A12   A(33,4,67)            116.8217         estimate D2E/DX2                !
 ! A13   A(6,5,9)              108.9296         estimate D2E/DX2                !
 ! A14   A(1,6,5)              121.3976         estimate D2E/DX2                !
 ! A15   A(1,6,7)              125.9032         estimate D2E/DX2                !
 ! A16   A(5,6,7)              112.698          estimate D2E/DX2                !
 ! A17   A(6,7,8)              101.8483         estimate D2E/DX2                !
 ! A18   A(6,7,11)             112.3265         estimate D2E/DX2                !
 ! A19   A(6,7,68)             109.3409         estimate D2E/DX2                !
 ! A20   A(8,7,11)             113.3629         estimate D2E/DX2                !
 ! A21   A(8,7,68)             110.6603         estimate D2E/DX2                !
 ! A22   A(11,7,68)            109.1072         estimate D2E/DX2                !
 ! A23   A(7,8,9)              102.1285         estimate D2E/DX2                !
 ! A24   A(7,8,10)             113.2949         estimate D2E/DX2                !
 ! A25   A(7,8,69)             111.0897         estimate D2E/DX2                !
 ! A26   A(9,8,10)             111.8205         estimate D2E/DX2                !
 ! A27   A(9,8,69)             109.6273         estimate D2E/DX2                !
 ! A28   A(10,8,69)            108.7462         estimate D2E/DX2                !
 ! A29   A(2,9,5)              125.0164         estimate D2E/DX2                !
 ! A30   A(2,9,8)              121.892          estimate D2E/DX2                !
 ! A31   A(5,9,8)              113.0819         estimate D2E/DX2                !
 ! A32   A(8,10,70)            110.678          estimate D2E/DX2                !
 ! A33   A(8,10,71)            111.4253         estimate D2E/DX2                !
 ! A34   A(8,10,72)            110.4971         estimate D2E/DX2                !
 ! A35   A(70,10,71)           108.1017         estimate D2E/DX2                !
 ! A36   A(70,10,72)           107.9873         estimate D2E/DX2                !
 ! A37   A(71,10,72)           108.0295         estimate D2E/DX2                !
 ! A38   A(7,11,12)            112.5393         estimate D2E/DX2                !
 ! A39   A(7,11,73)            110.3973         estimate D2E/DX2                !
 ! A40   A(7,11,74)            109.6562         estimate D2E/DX2                !
 ! A41   A(12,11,73)           108.6035         estimate D2E/DX2                !
 ! A42   A(12,11,74)           109.6854         estimate D2E/DX2                !
 ! A43   A(73,11,74)           105.7281         estimate D2E/DX2                !
 ! A44   A(11,12,13)           112.6548         estimate D2E/DX2                !
 ! A45   A(11,12,75)           111.8531         estimate D2E/DX2                !
 ! A46   A(11,12,76)           111.1129         estimate D2E/DX2                !
 ! A47   A(13,12,75)           107.5047         estimate D2E/DX2                !
 ! A48   A(13,12,76)           107.9064         estimate D2E/DX2                !
 ! A49   A(75,12,76)           105.4463         estimate D2E/DX2                !
 ! A50   A(12,13,14)           124.7459         estimate D2E/DX2                !
 ! A51   A(12,13,15)           110.7785         estimate D2E/DX2                !
 ! A52   A(14,13,15)           124.4727         estimate D2E/DX2                !
 ! A53   A(13,15,45)           116.1849         estimate D2E/DX2                !
 ! A54   A(17,16,20)           111.0885         estimate D2E/DX2                !
 ! A55   A(17,16,137)          124.1818         estimate D2E/DX2                !
 ! A56   A(20,16,137)          124.6051         estimate D2E/DX2                !
 ! A57   A(2,17,16)            126.5628         estimate D2E/DX2                !
 ! A58   A(2,17,18)            126.3924         estimate D2E/DX2                !
 ! A59   A(16,17,18)           107.0437         estimate D2E/DX2                !
 ! A60   A(17,18,19)           107.8522         estimate D2E/DX2                !
 ! A61   A(17,18,21)           124.1221         estimate D2E/DX2                !
 ! A62   A(19,18,21)           127.9867         estimate D2E/DX2                !
 ! A63   A(18,19,20)           107.6674         estimate D2E/DX2                !
 ! A64   A(18,19,22)           125.7114         estimate D2E/DX2                !
 ! A65   A(20,19,22)           126.6212         estimate D2E/DX2                !
 ! A66   A(3,20,16)            125.9129         estimate D2E/DX2                !
 ! A67   A(3,20,19)            127.6725         estimate D2E/DX2                !
 ! A68   A(16,20,19)           106.2991         estimate D2E/DX2                !
 ! A69   A(18,21,77)           111.3674         estimate D2E/DX2                !
 ! A70   A(18,21,78)           111.3769         estimate D2E/DX2                !
 ! A71   A(18,21,79)           111.428          estimate D2E/DX2                !
 ! A72   A(77,21,78)           107.3636         estimate D2E/DX2                !
 ! A73   A(77,21,79)           107.1805         estimate D2E/DX2                !
 ! A74   A(78,21,79)           107.9106         estimate D2E/DX2                !
 ! A75   A(19,22,23)           126.4252         estimate D2E/DX2                !
 ! A76   A(19,22,80)           115.4338         estimate D2E/DX2                !
 ! A77   A(23,22,80)           118.1126         estimate D2E/DX2                !
 ! A78   A(22,23,81)           122.1203         estimate D2E/DX2                !
 ! A79   A(22,23,82)           120.8736         estimate D2E/DX2                !
 ! A80   A(81,23,82)           116.985          estimate D2E/DX2                !
 ! A81   A(25,24,28)           105.4518         estimate D2E/DX2                !
 ! A82   A(3,25,24)            125.4405         estimate D2E/DX2                !
 ! A83   A(3,25,26)            122.9779         estimate D2E/DX2                !
 ! A84   A(24,25,26)           111.5814         estimate D2E/DX2                !
 ! A85   A(25,26,27)           106.0367         estimate D2E/DX2                !
 ! A86   A(25,26,29)           125.285          estimate D2E/DX2                !
 ! A87   A(27,26,29)           128.6781         estimate D2E/DX2                !
 ! A88   A(26,27,28)           105.8291         estimate D2E/DX2                !
 ! A89   A(26,27,30)           128.6381         estimate D2E/DX2                !
 ! A90   A(28,27,30)           125.5032         estimate D2E/DX2                !
 ! A91   A(4,28,24)            124.2057         estimate D2E/DX2                !
 ! A92   A(4,28,27)            124.6902         estimate D2E/DX2                !
 ! A93   A(24,28,27)           111.1008         estimate D2E/DX2                !
 ! A94   A(26,29,83)           111.7303         estimate D2E/DX2                !
 ! A95   A(26,29,84)           111.3068         estimate D2E/DX2                !
 ! A96   A(26,29,85)           111.7051         estimate D2E/DX2                !
 ! A97   A(83,29,84)           107.3234         estimate D2E/DX2                !
 ! A98   A(83,29,85)           107.0072         estimate D2E/DX2                !
 ! A99   A(84,29,85)           107.5155         estimate D2E/DX2                !
 ! A100  A(27,30,31)           113.1504         estimate D2E/DX2                !
 ! A101  A(27,30,86)           109.7675         estimate D2E/DX2                !
 ! A102  A(27,30,87)           109.4517         estimate D2E/DX2                !
 ! A103  A(31,30,86)           109.2735         estimate D2E/DX2                !
 ! A104  A(31,30,87)           109.1754         estimate D2E/DX2                !
 ! A105  A(86,30,87)           105.7542         estimate D2E/DX2                !
 ! A106  A(30,31,88)           110.7169         estimate D2E/DX2                !
 ! A107  A(30,31,89)           111.0338         estimate D2E/DX2                !
 ! A108  A(30,31,90)           111.0889         estimate D2E/DX2                !
 ! A109  A(88,31,89)           107.4426         estimate D2E/DX2                !
 ! A110  A(88,31,90)           108.2292         estimate D2E/DX2                !
 ! A111  A(89,31,90)           108.1947         estimate D2E/DX2                !
 ! A112  A(33,32,36)           109.3563         estimate D2E/DX2                !
 ! A113  A(33,32,138)          120.5249         estimate D2E/DX2                !
 ! A114  A(36,32,138)          130.1186         estimate D2E/DX2                !
 ! A115  A(4,33,32)            121.5017         estimate D2E/DX2                !
 ! A116  A(4,33,34)            130.3023         estimate D2E/DX2                !
 ! A117  A(32,33,34)           108.1929         estimate D2E/DX2                !
 ! A118  A(33,34,35)           105.3098         estimate D2E/DX2                !
 ! A119  A(33,34,37)           127.0683         estimate D2E/DX2                !
 ! A120  A(35,34,37)           127.6213         estimate D2E/DX2                !
 ! A121  A(34,35,36)           108.9753         estimate D2E/DX2                !
 ! A122  A(34,35,38)           142.0128         estimate D2E/DX2                !
 ! A123  A(36,35,38)           109.0077         estimate D2E/DX2                !
 ! A124  A(1,36,32)            137.5267         estimate D2E/DX2                !
 ! A125  A(1,36,35)            114.307          estimate D2E/DX2                !
 ! A126  A(32,36,35)           108.1649         estimate D2E/DX2                !
 ! A127  A(34,37,91)           111.4958         estimate D2E/DX2                !
 ! A128  A(34,37,92)           109.849          estimate D2E/DX2                !
 ! A129  A(34,37,93)           111.4516         estimate D2E/DX2                !
 ! A130  A(91,37,92)           108.3352         estimate D2E/DX2                !
 ! A131  A(91,37,93)           107.2607         estimate D2E/DX2                !
 ! A132  A(92,37,93)           108.3255         estimate D2E/DX2                !
 ! A133  A(35,38,39)           130.0594         estimate D2E/DX2                !
 ! A134  A(35,38,40)           105.3647         estimate D2E/DX2                !
 ! A135  A(39,38,40)           124.5757         estimate D2E/DX2                !
 ! A136  A(1,40,38)            105.025          estimate D2E/DX2                !
 ! A137  A(1,40,41)            115.4483         estimate D2E/DX2                !
 ! A138  A(1,40,94)            113.1149         estimate D2E/DX2                !
 ! A139  A(38,40,41)           109.4703         estimate D2E/DX2                !
 ! A140  A(38,40,94)           105.7161         estimate D2E/DX2                !
 ! A141  A(41,40,94)           107.5863         estimate D2E/DX2                !
 ! A142  A(40,41,42)           125.9165         estimate D2E/DX2                !
 ! A143  A(40,41,43)           110.3594         estimate D2E/DX2                !
 ! A144  A(42,41,43)           123.715          estimate D2E/DX2                !
 ! A145  A(41,43,44)           114.9933         estimate D2E/DX2                !
 ! A146  A(43,44,95)           105.6592         estimate D2E/DX2                !
 ! A147  A(43,44,96)           110.6056         estimate D2E/DX2                !
 ! A148  A(43,44,97)           110.4371         estimate D2E/DX2                !
 ! A149  A(95,44,96)           110.7492         estimate D2E/DX2                !
 ! A150  A(95,44,97)           110.61           estimate D2E/DX2                !
 ! A151  A(96,44,97)           108.7675         estimate D2E/DX2                !
 ! A152  A(15,45,46)           111.3135         estimate D2E/DX2                !
 ! A153  A(15,45,98)           103.5264         estimate D2E/DX2                !
 ! A154  A(15,45,99)           108.7553         estimate D2E/DX2                !
 ! A155  A(46,45,98)           110.8995         estimate D2E/DX2                !
 ! A156  A(46,45,99)           112.6564         estimate D2E/DX2                !
 ! A157  A(98,45,99)           109.2748         estimate D2E/DX2                !
 ! A158  A(45,46,47)           126.449          estimate D2E/DX2                !
 ! A159  A(45,46,100)          115.0229         estimate D2E/DX2                !
 ! A160  A(47,46,100)          118.5251         estimate D2E/DX2                !
 ! A161  A(46,47,48)           123.9504         estimate D2E/DX2                !
 ! A162  A(46,47,49)           120.1008         estimate D2E/DX2                !
 ! A163  A(48,47,49)           115.9426         estimate D2E/DX2                !
 ! A164  A(47,48,101)          111.8988         estimate D2E/DX2                !
 ! A165  A(47,48,102)          110.0403         estimate D2E/DX2                !
 ! A166  A(47,48,103)          111.4729         estimate D2E/DX2                !
 ! A167  A(101,48,102)         107.7665         estimate D2E/DX2                !
 ! A168  A(101,48,103)         108.8465         estimate D2E/DX2                !
 ! A169  A(102,48,103)         106.6077         estimate D2E/DX2                !
 ! A170  A(47,49,50)           113.5285         estimate D2E/DX2                !
 ! A171  A(47,49,104)          108.9339         estimate D2E/DX2                !
 ! A172  A(47,49,105)          109.8057         estimate D2E/DX2                !
 ! A173  A(50,49,104)          108.4688         estimate D2E/DX2                !
 ! A174  A(50,49,105)          109.1243         estimate D2E/DX2                !
 ! A175  A(104,49,105)         106.7492         estimate D2E/DX2                !
 ! A176  A(49,50,51)           112.386          estimate D2E/DX2                !
 ! A177  A(49,50,106)          108.4945         estimate D2E/DX2                !
 ! A178  A(49,50,107)          109.6574         estimate D2E/DX2                !
 ! A179  A(51,50,106)          110.531          estimate D2E/DX2                !
 ! A180  A(51,50,107)          109.1836         estimate D2E/DX2                !
 ! A181  A(106,50,107)         106.4095         estimate D2E/DX2                !
 ! A182  A(50,51,52)           115.2062         estimate D2E/DX2                !
 ! A183  A(50,51,108)          108.4915         estimate D2E/DX2                !
 ! A184  A(50,51,109)          109.3248         estimate D2E/DX2                !
 ! A185  A(52,51,108)          108.5472         estimate D2E/DX2                !
 ! A186  A(52,51,109)          108.9324         estimate D2E/DX2                !
 ! A187  A(108,51,109)         105.936          estimate D2E/DX2                !
 ! A188  A(51,52,53)           111.7375         estimate D2E/DX2                !
 ! A189  A(51,52,54)           109.9195         estimate D2E/DX2                !
 ! A190  A(51,52,110)          107.5488         estimate D2E/DX2                !
 ! A191  A(53,52,54)           111.8385         estimate D2E/DX2                !
 ! A192  A(53,52,110)          108.0409         estimate D2E/DX2                !
 ! A193  A(54,52,110)          107.5534         estimate D2E/DX2                !
 ! A194  A(52,53,111)          111.7804         estimate D2E/DX2                !
 ! A195  A(52,53,112)          111.7363         estimate D2E/DX2                !
 ! A196  A(52,53,113)          110.4994         estimate D2E/DX2                !
 ! A197  A(111,53,112)         107.1978         estimate D2E/DX2                !
 ! A198  A(111,53,113)         107.7131         estimate D2E/DX2                !
 ! A199  A(112,53,113)         107.7132         estimate D2E/DX2                !
 ! A200  A(52,54,55)           115.311          estimate D2E/DX2                !
 ! A201  A(52,54,114)          108.494          estimate D2E/DX2                !
 ! A202  A(52,54,115)          108.8975         estimate D2E/DX2                !
 ! A203  A(55,54,114)          108.5398         estimate D2E/DX2                !
 ! A204  A(55,54,115)          109.2863         estimate D2E/DX2                !
 ! A205  A(114,54,115)         105.8982         estimate D2E/DX2                !
 ! A206  A(54,55,56)           112.5395         estimate D2E/DX2                !
 ! A207  A(54,55,116)          109.7317         estimate D2E/DX2                !
 ! A208  A(54,55,117)          109.1964         estimate D2E/DX2                !
 ! A209  A(56,55,116)          109.7386         estimate D2E/DX2                !
 ! A210  A(56,55,117)          109.1968         estimate D2E/DX2                !
 ! A211  A(116,55,117)         106.2374         estimate D2E/DX2                !
 ! A212  A(55,56,57)           115.3297         estimate D2E/DX2                !
 ! A213  A(55,56,118)          108.5347         estimate D2E/DX2                !
 ! A214  A(55,56,119)          109.2796         estimate D2E/DX2                !
 ! A215  A(57,56,118)          108.4924         estimate D2E/DX2                !
 ! A216  A(57,56,119)          108.8983         estimate D2E/DX2                !
 ! A217  A(118,56,119)         105.89           estimate D2E/DX2                !
 ! A218  A(56,57,58)           111.8222         estimate D2E/DX2                !
 ! A219  A(56,57,59)           109.9527         estimate D2E/DX2                !
 ! A220  A(56,57,120)          107.5515         estimate D2E/DX2                !
 ! A221  A(58,57,59)           111.7528         estimate D2E/DX2                !
 ! A222  A(58,57,120)          108.0129         estimate D2E/DX2                !
 ! A223  A(59,57,120)          107.5448         estimate D2E/DX2                !
 ! A224  A(57,58,121)          111.7845         estimate D2E/DX2                !
 ! A225  A(57,58,122)          111.7362         estimate D2E/DX2                !
 ! A226  A(57,58,123)          110.501          estimate D2E/DX2                !
 ! A227  A(121,58,122)         107.2017         estimate D2E/DX2                !
 ! A228  A(121,58,123)         107.7127         estimate D2E/DX2                !
 ! A229  A(122,58,123)         107.7037         estimate D2E/DX2                !
 ! A230  A(57,59,60)           115.3385         estimate D2E/DX2                !
 ! A231  A(57,59,124)          108.4795         estimate D2E/DX2                !
 ! A232  A(57,59,125)          108.9273         estimate D2E/DX2                !
 ! A233  A(60,59,124)          108.4855         estimate D2E/DX2                !
 ! A234  A(60,59,125)          109.3065         estimate D2E/DX2                !
 ! A235  A(124,59,125)         105.8857         estimate D2E/DX2                !
 ! A236  A(59,60,61)           112.5513         estimate D2E/DX2                !
 ! A237  A(59,60,126)          110.1514         estimate D2E/DX2                !
 ! A238  A(59,60,127)          108.8803         estimate D2E/DX2                !
 ! A239  A(61,60,126)          108.8159         estimate D2E/DX2                !
 ! A240  A(61,60,127)          110.0269         estimate D2E/DX2                !
 ! A241  A(126,60,127)         106.2208         estimate D2E/DX2                !
 ! A242  A(60,61,62)           115.1763         estimate D2E/DX2                !
 ! A243  A(60,61,128)          109.3679         estimate D2E/DX2                !
 ! A244  A(60,61,129)          108.6292         estimate D2E/DX2                !
 ! A245  A(62,61,128)          108.8367         estimate D2E/DX2                !
 ! A246  A(62,61,129)          108.5278         estimate D2E/DX2                !
 ! A247  A(128,61,129)         105.8996         estimate D2E/DX2                !
 ! A248  A(61,62,63)           112.3344         estimate D2E/DX2                !
 ! A249  A(61,62,64)           110.4512         estimate D2E/DX2                !
 ! A250  A(61,62,130)          107.591          estimate D2E/DX2                !
 ! A251  A(63,62,64)           110.4202         estimate D2E/DX2                !
 ! A252  A(63,62,130)          107.9537         estimate D2E/DX2                !
 ! A253  A(64,62,130)          107.9175         estimate D2E/DX2                !
 ! A254  A(62,63,131)          110.5886         estimate D2E/DX2                !
 ! A255  A(62,63,132)          110.9713         estimate D2E/DX2                !
 ! A256  A(62,63,133)          112.1615         estimate D2E/DX2                !
 ! A257  A(131,63,132)         107.5896         estimate D2E/DX2                !
 ! A258  A(131,63,133)         107.7566         estimate D2E/DX2                !
 ! A259  A(132,63,133)         107.5848         estimate D2E/DX2                !
 ! A260  A(62,64,134)          111.4359         estimate D2E/DX2                !
 ! A261  A(62,64,135)          111.3609         estimate D2E/DX2                !
 ! A262  A(62,64,136)          110.7062         estimate D2E/DX2                !
 ! A263  A(134,64,135)         107.9347         estimate D2E/DX2                !
 ! A264  A(134,64,136)         107.6462         estimate D2E/DX2                !
 ! A265  A(135,64,136)         107.5841         estimate D2E/DX2                !
 ! D1    D(36,1,6,5)             0.1643         estimate D2E/DX2                !
 ! D2    D(36,1,6,7)           179.7278         estimate D2E/DX2                !
 ! D3    D(40,1,6,5)          -178.8846         estimate D2E/DX2                !
 ! D4    D(40,1,6,7)             0.679          estimate D2E/DX2                !
 ! D5    D(6,1,36,32)            2.6497         estimate D2E/DX2                !
 ! D6    D(6,1,36,35)         -176.8695         estimate D2E/DX2                !
 ! D7    D(40,1,36,32)        -178.1242         estimate D2E/DX2                !
 ! D8    D(40,1,36,35)           2.3566         estimate D2E/DX2                !
 ! D9    D(6,1,40,38)          175.6907         estimate D2E/DX2                !
 ! D10   D(6,1,40,41)           55.0314         estimate D2E/DX2                !
 ! D11   D(6,1,40,94)          -69.5055         estimate D2E/DX2                !
 ! D12   D(36,1,40,38)          -3.5004         estimate D2E/DX2                !
 ! D13   D(36,1,40,41)        -124.1597         estimate D2E/DX2                !
 ! D14   D(36,1,40,94)         111.3034         estimate D2E/DX2                !
 ! D15   D(17,2,9,5)             0.5256         estimate D2E/DX2                !
 ! D16   D(17,2,9,8)          -178.2677         estimate D2E/DX2                !
 ! D17   D(65,2,9,5)          -178.8883         estimate D2E/DX2                !
 ! D18   D(65,2,9,8)             2.3184         estimate D2E/DX2                !
 ! D19   D(9,2,17,16)            2.1989         estimate D2E/DX2                !
 ! D20   D(9,2,17,18)         -177.3764         estimate D2E/DX2                !
 ! D21   D(65,2,17,16)        -178.3817         estimate D2E/DX2                !
 ! D22   D(65,2,17,18)           2.043          estimate D2E/DX2                !
 ! D23   D(25,3,20,16)          -3.3742         estimate D2E/DX2                !
 ! D24   D(25,3,20,19)        -178.9228         estimate D2E/DX2                !
 ! D25   D(66,3,20,16)         175.2969         estimate D2E/DX2                !
 ! D26   D(66,3,20,19)          -0.2517         estimate D2E/DX2                !
 ! D27   D(20,3,25,24)          -0.8012         estimate D2E/DX2                !
 ! D28   D(20,3,25,26)         179.3363         estimate D2E/DX2                !
 ! D29   D(66,3,25,24)        -179.4592         estimate D2E/DX2                !
 ! D30   D(66,3,25,26)           0.6783         estimate D2E/DX2                !
 ! D31   D(33,4,28,24)          -0.1815         estimate D2E/DX2                !
 ! D32   D(33,4,28,27)        -179.4667         estimate D2E/DX2                !
 ! D33   D(67,4,28,24)         179.4491         estimate D2E/DX2                !
 ! D34   D(67,4,28,27)           0.1639         estimate D2E/DX2                !
 ! D35   D(28,4,33,32)          -0.2213         estimate D2E/DX2                !
 ! D36   D(28,4,33,34)         179.0632         estimate D2E/DX2                !
 ! D37   D(67,4,33,32)        -179.8556         estimate D2E/DX2                !
 ! D38   D(67,4,33,34)          -0.571          estimate D2E/DX2                !
 ! D39   D(9,5,6,1)            175.4111         estimate D2E/DX2                !
 ! D40   D(9,5,6,7)             -4.2057         estimate D2E/DX2                !
 ! D41   D(6,5,9,2)            177.3162         estimate D2E/DX2                !
 ! D42   D(6,5,9,8)             -3.7974         estimate D2E/DX2                !
 ! D43   D(1,6,7,8)           -169.6973         estimate D2E/DX2                !
 ! D44   D(1,6,7,11)            68.6898         estimate D2E/DX2                !
 ! D45   D(1,6,7,68)           -52.587          estimate D2E/DX2                !
 ! D46   D(5,6,7,8)              9.8989         estimate D2E/DX2                !
 ! D47   D(5,6,7,11)          -111.714          estimate D2E/DX2                !
 ! D48   D(5,6,7,68)           127.0092         estimate D2E/DX2                !
 ! D49   D(6,7,8,9)            -10.7143         estimate D2E/DX2                !
 ! D50   D(6,7,8,10)           109.714          estimate D2E/DX2                !
 ! D51   D(6,7,8,69)          -127.5294         estimate D2E/DX2                !
 ! D52   D(11,7,8,9)           110.1791         estimate D2E/DX2                !
 ! D53   D(11,7,8,10)         -129.3926         estimate D2E/DX2                !
 ! D54   D(11,7,8,69)           -6.636          estimate D2E/DX2                !
 ! D55   D(68,7,8,9)          -126.8669         estimate D2E/DX2                !
 ! D56   D(68,7,8,10)           -6.4386         estimate D2E/DX2                !
 ! D57   D(68,7,8,69)          116.318          estimate D2E/DX2                !
 ! D58   D(6,7,11,12)         -174.5838         estimate D2E/DX2                !
 ! D59   D(6,7,11,73)          -53.0618         estimate D2E/DX2                !
 ! D60   D(6,7,11,74)           63.0369         estimate D2E/DX2                !
 ! D61   D(8,7,11,12)           70.6333         estimate D2E/DX2                !
 ! D62   D(8,7,11,73)         -167.8447         estimate D2E/DX2                !
 ! D63   D(8,7,11,74)          -51.7459         estimate D2E/DX2                !
 ! D64   D(68,7,11,12)         -53.1732         estimate D2E/DX2                !
 ! D65   D(68,7,11,73)          68.3488         estimate D2E/DX2                !
 ! D66   D(68,7,11,74)        -175.5525         estimate D2E/DX2                !
 ! D67   D(7,8,9,2)           -171.3697         estimate D2E/DX2                !
 ! D68   D(7,8,9,5)              9.7045         estimate D2E/DX2                !
 ! D69   D(10,8,9,2)            67.1803         estimate D2E/DX2                !
 ! D70   D(10,8,9,5)          -111.7455         estimate D2E/DX2                !
 ! D71   D(69,8,9,2)           -53.5049         estimate D2E/DX2                !
 ! D72   D(69,8,9,5)           127.5693         estimate D2E/DX2                !
 ! D73   D(7,8,10,70)           64.6444         estimate D2E/DX2                !
 ! D74   D(7,8,10,71)         -175.0336         estimate D2E/DX2                !
 ! D75   D(7,8,10,72)          -54.9246         estimate D2E/DX2                !
 ! D76   D(9,8,10,70)          179.4032         estimate D2E/DX2                !
 ! D77   D(9,8,10,71)          -60.2748         estimate D2E/DX2                !
 ! D78   D(9,8,10,72)           59.8342         estimate D2E/DX2                !
 ! D79   D(69,8,10,70)         -59.4001         estimate D2E/DX2                !
 ! D80   D(69,8,10,71)          60.9218         estimate D2E/DX2                !
 ! D81   D(69,8,10,72)        -178.9692         estimate D2E/DX2                !
 ! D82   D(7,11,12,13)         179.8672         estimate D2E/DX2                !
 ! D83   D(7,11,12,75)         -58.8973         estimate D2E/DX2                !
 ! D84   D(7,11,12,76)          58.6485         estimate D2E/DX2                !
 ! D85   D(73,11,12,13)         57.3297         estimate D2E/DX2                !
 ! D86   D(73,11,12,75)        178.5652         estimate D2E/DX2                !
 ! D87   D(73,11,12,76)        -63.889          estimate D2E/DX2                !
 ! D88   D(74,11,12,13)        -57.7701         estimate D2E/DX2                !
 ! D89   D(74,11,12,75)         63.4654         estimate D2E/DX2                !
 ! D90   D(74,11,12,76)       -178.9887         estimate D2E/DX2                !
 ! D91   D(11,12,13,14)          0.8481         estimate D2E/DX2                !
 ! D92   D(11,12,13,15)       -178.5535         estimate D2E/DX2                !
 ! D93   D(75,12,13,14)       -122.8332         estimate D2E/DX2                !
 ! D94   D(75,12,13,15)         57.7652         estimate D2E/DX2                !
 ! D95   D(76,12,13,14)        123.8765         estimate D2E/DX2                !
 ! D96   D(76,12,13,15)        -55.5251         estimate D2E/DX2                !
 ! D97   D(12,13,15,45)       -177.8085         estimate D2E/DX2                !
 ! D98   D(14,13,15,45)          2.7879         estimate D2E/DX2                !
 ! D99   D(13,15,45,46)         89.9718         estimate D2E/DX2                !
 ! D100  D(13,15,45,98)       -150.8386         estimate D2E/DX2                !
 ! D101  D(13,15,45,99)        -34.7193         estimate D2E/DX2                !
 ! D102  D(20,16,17,2)         179.6136         estimate D2E/DX2                !
 ! D103  D(20,16,17,18)         -0.744          estimate D2E/DX2                !
 ! D104  D(137,16,17,2)          3.5141         estimate D2E/DX2                !
 ! D105  D(137,16,17,18)      -176.8435         estimate D2E/DX2                !
 ! D106  D(17,16,20,3)        -174.4733         estimate D2E/DX2                !
 ! D107  D(17,16,20,19)          1.8569         estimate D2E/DX2                !
 ! D108  D(137,16,20,3)          1.6063         estimate D2E/DX2                !
 ! D109  D(137,16,20,19)       177.9366         estimate D2E/DX2                !
 ! D110  D(2,17,18,19)         178.9017         estimate D2E/DX2                !
 ! D111  D(2,17,18,21)           1.0166         estimate D2E/DX2                !
 ! D112  D(16,17,18,19)         -0.7415         estimate D2E/DX2                !
 ! D113  D(16,17,18,21)       -178.6266         estimate D2E/DX2                !
 ! D114  D(17,18,19,20)          1.8485         estimate D2E/DX2                !
 ! D115  D(17,18,19,22)       -178.1916         estimate D2E/DX2                !
 ! D116  D(21,18,19,20)        179.6271         estimate D2E/DX2                !
 ! D117  D(21,18,19,22)         -0.4131         estimate D2E/DX2                !
 ! D118  D(17,18,21,77)         62.9372         estimate D2E/DX2                !
 ! D119  D(17,18,21,78)       -177.2425         estimate D2E/DX2                !
 ! D120  D(17,18,21,79)        -56.6854         estimate D2E/DX2                !
 ! D121  D(19,18,21,77)       -114.5084         estimate D2E/DX2                !
 ! D122  D(19,18,21,78)          5.3119         estimate D2E/DX2                !
 ! D123  D(19,18,21,79)        125.869          estimate D2E/DX2                !
 ! D124  D(18,19,20,3)         173.9675         estimate D2E/DX2                !
 ! D125  D(18,19,20,16)         -2.2774         estimate D2E/DX2                !
 ! D126  D(22,19,20,3)          -5.9919         estimate D2E/DX2                !
 ! D127  D(22,19,20,16)        177.7633         estimate D2E/DX2                !
 ! D128  D(18,19,22,23)        143.4233         estimate D2E/DX2                !
 ! D129  D(18,19,22,80)        -34.587          estimate D2E/DX2                !
 ! D130  D(20,19,22,23)        -36.6244         estimate D2E/DX2                !
 ! D131  D(20,19,22,80)        145.3653         estimate D2E/DX2                !
 ! D132  D(19,22,23,81)         -1.425          estimate D2E/DX2                !
 ! D133  D(19,22,23,82)       -179.7013         estimate D2E/DX2                !
 ! D134  D(80,22,23,81)        176.5377         estimate D2E/DX2                !
 ! D135  D(80,22,23,82)         -1.7386         estimate D2E/DX2                !
 ! D136  D(28,24,25,3)        -179.9828         estimate D2E/DX2                !
 ! D137  D(28,24,25,26)         -0.1068         estimate D2E/DX2                !
 ! D138  D(25,24,28,4)        -179.2574         estimate D2E/DX2                !
 ! D139  D(25,24,28,27)          0.1127         estimate D2E/DX2                !
 ! D140  D(3,25,26,27)         179.9411         estimate D2E/DX2                !
 ! D141  D(3,25,26,29)           0.0895         estimate D2E/DX2                !
 ! D142  D(24,25,26,27)          0.0616         estimate D2E/DX2                !
 ! D143  D(24,25,26,29)       -179.79           estimate D2E/DX2                !
 ! D144  D(25,26,27,28)          0.0093         estimate D2E/DX2                !
 ! D145  D(25,26,27,30)       -178.0755         estimate D2E/DX2                !
 ! D146  D(29,26,27,28)        179.8542         estimate D2E/DX2                !
 ! D147  D(29,26,27,30)          1.7693         estimate D2E/DX2                !
 ! D148  D(25,26,29,83)         63.386          estimate D2E/DX2                !
 ! D149  D(25,26,29,84)       -176.6465         estimate D2E/DX2                !
 ! D150  D(25,26,29,85)        -56.4516         estimate D2E/DX2                !
 ! D151  D(27,26,29,83)       -116.4313         estimate D2E/DX2                !
 ! D152  D(27,26,29,84)          3.5362         estimate D2E/DX2                !
 ! D153  D(27,26,29,85)        123.7311         estimate D2E/DX2                !
 ! D154  D(26,27,28,4)         179.2897         estimate D2E/DX2                !
 ! D155  D(26,27,28,24)         -0.0766         estimate D2E/DX2                !
 ! D156  D(30,27,28,4)          -2.5478         estimate D2E/DX2                !
 ! D157  D(30,27,28,24)        178.0858         estimate D2E/DX2                !
 ! D158  D(26,27,30,31)         97.4367         estimate D2E/DX2                !
 ! D159  D(26,27,30,86)       -140.2108         estimate D2E/DX2                !
 ! D160  D(26,27,30,87)        -24.5591         estimate D2E/DX2                !
 ! D161  D(28,27,30,31)        -80.2998         estimate D2E/DX2                !
 ! D162  D(28,27,30,86)         42.0527         estimate D2E/DX2                !
 ! D163  D(28,27,30,87)        157.7044         estimate D2E/DX2                !
 ! D164  D(27,30,31,88)        -60.2694         estimate D2E/DX2                !
 ! D165  D(27,30,31,89)         58.9913         estimate D2E/DX2                !
 ! D166  D(27,30,31,90)        179.4454         estimate D2E/DX2                !
 ! D167  D(86,30,31,88)        177.1031         estimate D2E/DX2                !
 ! D168  D(86,30,31,89)        -63.6362         estimate D2E/DX2                !
 ! D169  D(86,30,31,90)         56.8179         estimate D2E/DX2                !
 ! D170  D(87,30,31,88)         61.881          estimate D2E/DX2                !
 ! D171  D(87,30,31,89)       -178.8583         estimate D2E/DX2                !
 ! D172  D(87,30,31,90)        -58.4043         estimate D2E/DX2                !
 ! D173  D(36,32,33,4)         179.2351         estimate D2E/DX2                !
 ! D174  D(36,32,33,34)         -0.1906         estimate D2E/DX2                !
 ! D175  D(138,32,33,4)         -0.6238         estimate D2E/DX2                !
 ! D176  D(138,32,33,34)       179.9505         estimate D2E/DX2                !
 ! D177  D(33,32,36,1)        -179.2649         estimate D2E/DX2                !
 ! D178  D(33,32,36,35)          0.2739         estimate D2E/DX2                !
 ! D179  D(138,32,36,1)          0.5761         estimate D2E/DX2                !
 ! D180  D(138,32,36,35)      -179.885          estimate D2E/DX2                !
 ! D181  D(4,33,34,35)        -179.3303         estimate D2E/DX2                !
 ! D182  D(4,33,34,37)           0.429          estimate D2E/DX2                !
 ! D183  D(32,33,34,35)          0.0276         estimate D2E/DX2                !
 ! D184  D(32,33,34,37)        179.7869         estimate D2E/DX2                !
 ! D185  D(33,34,35,36)          0.136          estimate D2E/DX2                !
 ! D186  D(33,34,35,38)        179.2449         estimate D2E/DX2                !
 ! D187  D(37,34,35,36)       -179.6215         estimate D2E/DX2                !
 ! D188  D(37,34,35,38)         -0.5126         estimate D2E/DX2                !
 ! D189  D(33,34,37,91)         60.7697         estimate D2E/DX2                !
 ! D190  D(33,34,37,92)       -179.1235         estimate D2E/DX2                !
 ! D191  D(33,34,37,93)        -59.0574         estimate D2E/DX2                !
 ! D192  D(35,34,37,91)       -119.5234         estimate D2E/DX2                !
 ! D193  D(35,34,37,92)          0.5834         estimate D2E/DX2                !
 ! D194  D(35,34,37,93)        120.6495         estimate D2E/DX2                !
 ! D195  D(34,35,36,1)         179.4004         estimate D2E/DX2                !
 ! D196  D(34,35,36,32)         -0.258          estimate D2E/DX2                !
 ! D197  D(38,35,36,1)          -0.0196         estimate D2E/DX2                !
 ! D198  D(38,35,36,32)       -179.6779         estimate D2E/DX2                !
 ! D199  D(34,35,38,39)         -1.1577         estimate D2E/DX2                !
 ! D200  D(34,35,38,40)        178.6652         estimate D2E/DX2                !
 ! D201  D(36,35,38,39)        177.9511         estimate D2E/DX2                !
 ! D202  D(36,35,38,40)         -2.2261         estimate D2E/DX2                !
 ! D203  D(35,38,40,1)           3.4992         estimate D2E/DX2                !
 ! D204  D(35,38,40,41)        128.0257         estimate D2E/DX2                !
 ! D205  D(35,38,40,94)       -116.3546         estimate D2E/DX2                !
 ! D206  D(39,38,40,1)        -176.6654         estimate D2E/DX2                !
 ! D207  D(39,38,40,41)        -52.1389         estimate D2E/DX2                !
 ! D208  D(39,38,40,94)         63.4807         estimate D2E/DX2                !
 ! D209  D(1,40,41,42)          18.4772         estimate D2E/DX2                !
 ! D210  D(1,40,41,43)        -162.5928         estimate D2E/DX2                !
 ! D211  D(38,40,41,42)        -99.7355         estimate D2E/DX2                !
 ! D212  D(38,40,41,43)         79.1944         estimate D2E/DX2                !
 ! D213  D(94,40,41,42)        145.8433         estimate D2E/DX2                !
 ! D214  D(94,40,41,43)        -35.2268         estimate D2E/DX2                !
 ! D215  D(40,41,43,44)       -175.0599         estimate D2E/DX2                !
 ! D216  D(42,41,43,44)          3.8983         estimate D2E/DX2                !
 ! D217  D(41,43,44,95)        179.5108         estimate D2E/DX2                !
 ! D218  D(41,43,44,96)        -60.59           estimate D2E/DX2                !
 ! D219  D(41,43,44,97)         59.8683         estimate D2E/DX2                !
 ! D220  D(15,45,46,47)       -115.2432         estimate D2E/DX2                !
 ! D221  D(15,45,46,100)        65.3976         estimate D2E/DX2                !
 ! D222  D(98,45,46,47)        130.0656         estimate D2E/DX2                !
 ! D223  D(98,45,46,100)       -49.2936         estimate D2E/DX2                !
 ! D224  D(99,45,46,47)          7.2262         estimate D2E/DX2                !
 ! D225  D(99,45,46,100)      -172.133          estimate D2E/DX2                !
 ! D226  D(45,46,47,48)          1.5265         estimate D2E/DX2                !
 ! D227  D(45,46,47,49)       -177.5246         estimate D2E/DX2                !
 ! D228  D(100,46,47,48)      -179.1344         estimate D2E/DX2                !
 ! D229  D(100,46,47,49)         1.8145         estimate D2E/DX2                !
 ! D230  D(46,47,48,101)        27.3993         estimate D2E/DX2                !
 ! D231  D(46,47,48,102)       147.1807         estimate D2E/DX2                !
 ! D232  D(46,47,48,103)       -94.7579         estimate D2E/DX2                !
 ! D233  D(49,47,48,101)      -153.5136         estimate D2E/DX2                !
 ! D234  D(49,47,48,102)       -33.7323         estimate D2E/DX2                !
 ! D235  D(49,47,48,103)        84.3291         estimate D2E/DX2                !
 ! D236  D(46,47,49,50)        115.5956         estimate D2E/DX2                !
 ! D237  D(46,47,49,104)      -123.4312         estimate D2E/DX2                !
 ! D238  D(46,47,49,105)        -6.8566         estimate D2E/DX2                !
 ! D239  D(48,47,49,50)        -63.529          estimate D2E/DX2                !
 ! D240  D(48,47,49,104)        57.4441         estimate D2E/DX2                !
 ! D241  D(48,47,49,105)       174.0187         estimate D2E/DX2                !
 ! D242  D(47,49,50,51)       -179.8254         estimate D2E/DX2                !
 ! D243  D(47,49,50,106)       -57.2965         estimate D2E/DX2                !
 ! D244  D(47,49,50,107)        58.5399         estimate D2E/DX2                !
 ! D245  D(104,49,50,51)        58.9405         estimate D2E/DX2                !
 ! D246  D(104,49,50,106)     -178.5307         estimate D2E/DX2                !
 ! D247  D(104,49,50,107)      -62.6942         estimate D2E/DX2                !
 ! D248  D(105,49,50,51)       -56.9971         estimate D2E/DX2                !
 ! D249  D(105,49,50,106)       65.5317         estimate D2E/DX2                !
 ! D250  D(105,49,50,107)     -178.6319         estimate D2E/DX2                !
 ! D251  D(49,50,51,52)       -175.8426         estimate D2E/DX2                !
 ! D252  D(49,50,51,108)       -53.9644         estimate D2E/DX2                !
 ! D253  D(49,50,51,109)        61.1277         estimate D2E/DX2                !
 ! D254  D(106,50,51,52)        62.7858         estimate D2E/DX2                !
 ! D255  D(106,50,51,108)     -175.336          estimate D2E/DX2                !
 ! D256  D(106,50,51,109)      -60.2439         estimate D2E/DX2                !
 ! D257  D(107,50,51,52)       -53.9381         estimate D2E/DX2                !
 ! D258  D(107,50,51,108)       67.94           estimate D2E/DX2                !
 ! D259  D(107,50,51,109)     -176.9678         estimate D2E/DX2                !
 ! D260  D(50,51,52,53)        -63.3093         estimate D2E/DX2                !
 ! D261  D(50,51,52,54)        171.9101         estimate D2E/DX2                !
 ! D262  D(50,51,52,110)        55.0996         estimate D2E/DX2                !
 ! D263  D(108,51,52,53)       174.8425         estimate D2E/DX2                !
 ! D264  D(108,51,52,54)        50.062          estimate D2E/DX2                !
 ! D265  D(108,51,52,110)      -66.7485         estimate D2E/DX2                !
 ! D266  D(109,51,52,53)        59.9289         estimate D2E/DX2                !
 ! D267  D(109,51,52,54)       -64.8517         estimate D2E/DX2                !
 ! D268  D(109,51,52,110)      178.3378         estimate D2E/DX2                !
 ! D269  D(51,52,53,111)        57.9345         estimate D2E/DX2                !
 ! D270  D(51,52,53,112)       178.0719         estimate D2E/DX2                !
 ! D271  D(51,52,53,113)       -62.0113         estimate D2E/DX2                !
 ! D272  D(54,52,53,111)      -178.3604         estimate D2E/DX2                !
 ! D273  D(54,52,53,112)       -58.2229         estimate D2E/DX2                !
 ! D274  D(54,52,53,113)        61.6938         estimate D2E/DX2                !
 ! D275  D(110,52,53,111)      -60.1807         estimate D2E/DX2                !
 ! D276  D(110,52,53,112)       59.9568         estimate D2E/DX2                !
 ! D277  D(110,52,53,113)      179.8735         estimate D2E/DX2                !
 ! D278  D(51,52,54,55)       -171.9523         estimate D2E/DX2                !
 ! D279  D(51,52,54,114)       -50.0097         estimate D2E/DX2                !
 ! D280  D(51,52,54,115)        64.8125         estimate D2E/DX2                !
 ! D281  D(53,52,54,55)         63.3253         estimate D2E/DX2                !
 ! D282  D(53,52,54,114)      -174.7321         estimate D2E/DX2                !
 ! D283  D(53,52,54,115)       -59.9099         estimate D2E/DX2                !
 ! D284  D(110,52,54,55)       -55.1447         estimate D2E/DX2                !
 ! D285  D(110,52,54,114)       66.7979         estimate D2E/DX2                !
 ! D286  D(110,52,54,115)     -178.3799         estimate D2E/DX2                !
 ! D287  D(52,54,55,56)        175.6179         estimate D2E/DX2                !
 ! D288  D(52,54,55,116)       -61.88           estimate D2E/DX2                !
 ! D289  D(52,54,55,117)        54.1874         estimate D2E/DX2                !
 ! D290  D(114,54,55,56)        53.7            estimate D2E/DX2                !
 ! D291  D(114,54,55,116)      176.202          estimate D2E/DX2                !
 ! D292  D(114,54,55,117)      -67.7306         estimate D2E/DX2                !
 ! D293  D(115,54,55,56)       -61.353          estimate D2E/DX2                !
 ! D294  D(115,54,55,116)       61.149          estimate D2E/DX2                !
 ! D295  D(115,54,55,117)      177.2164         estimate D2E/DX2                !
 ! D296  D(54,55,56,57)       -175.7645         estimate D2E/DX2                !
 ! D297  D(54,55,56,118)       -53.8398         estimate D2E/DX2                !
 ! D298  D(54,55,56,119)        61.1972         estimate D2E/DX2                !
 ! D299  D(116,55,56,57)        61.7374         estimate D2E/DX2                !
 ! D300  D(116,55,56,118)     -176.3379         estimate D2E/DX2                !
 ! D301  D(116,55,56,119)      -61.301          estimate D2E/DX2                !
 ! D302  D(117,55,56,57)       -54.3342         estimate D2E/DX2                !
 ! D303  D(117,55,56,118)       67.5906         estimate D2E/DX2                !
 ! D304  D(117,55,56,119)     -177.3725         estimate D2E/DX2                !
 ! D305  D(55,56,57,58)        -63.5058         estimate D2E/DX2                !
 ! D306  D(55,56,57,59)        171.7392         estimate D2E/DX2                !
 ! D307  D(55,56,57,120)        54.9195         estimate D2E/DX2                !
 ! D308  D(118,56,57,58)       174.5467         estimate D2E/DX2                !
 ! D309  D(118,56,57,59)        49.7917         estimate D2E/DX2                !
 ! D310  D(118,56,57,120)      -67.028          estimate D2E/DX2                !
 ! D311  D(119,56,57,58)        59.7346         estimate D2E/DX2                !
 ! D312  D(119,56,57,59)       -65.0204         estimate D2E/DX2                !
 ! D313  D(119,56,57,120)      178.16           estimate D2E/DX2                !
 ! D314  D(56,57,58,121)        58.0503         estimate D2E/DX2                !
 ! D315  D(56,57,58,122)       178.1955         estimate D2E/DX2                !
 ! D316  D(56,57,58,123)       -61.8988         estimate D2E/DX2                !
 ! D317  D(59,57,58,121)      -178.2017         estimate D2E/DX2                !
 ! D318  D(59,57,58,122)       -58.0565         estimate D2E/DX2                !
 ! D319  D(59,57,58,123)        61.8492         estimate D2E/DX2                !
 ! D320  D(120,57,58,121)      -60.1001         estimate D2E/DX2                !
 ! D321  D(120,57,58,122)       60.0452         estimate D2E/DX2                !
 ! D322  D(120,57,58,123)      179.9509         estimate D2E/DX2                !
 ! D323  D(56,57,59,60)       -172.3048         estimate D2E/DX2                !
 ! D324  D(56,57,59,124)       -50.4253         estimate D2E/DX2                !
 ! D325  D(56,57,59,125)        64.3901         estimate D2E/DX2                !
 ! D326  D(58,57,59,60)         62.9002         estimate D2E/DX2                !
 ! D327  D(58,57,59,124)      -175.2202         estimate D2E/DX2                !
 ! D328  D(58,57,59,125)       -60.4049         estimate D2E/DX2                !
 ! D329  D(120,57,59,60)       -55.4809         estimate D2E/DX2                !
 ! D330  D(120,57,59,124)       66.3986         estimate D2E/DX2                !
 ! D331  D(120,57,59,125)     -178.7861         estimate D2E/DX2                !
 ! D332  D(57,59,60,61)        175.0304         estimate D2E/DX2                !
 ! D333  D(57,59,60,126)       -63.3422         estimate D2E/DX2                !
 ! D334  D(57,59,60,127)        52.7599         estimate D2E/DX2                !
 ! D335  D(124,59,60,61)        53.1541         estimate D2E/DX2                !
 ! D336  D(124,59,60,126)      174.7815         estimate D2E/DX2                !
 ! D337  D(124,59,60,127)      -69.1164         estimate D2E/DX2                !
 ! D338  D(125,59,60,61)       -61.8652         estimate D2E/DX2                !
 ! D339  D(125,59,60,126)       59.7621         estimate D2E/DX2                !
 ! D340  D(125,59,60,127)      175.8642         estimate D2E/DX2                !
 ! D341  D(59,60,61,62)        175.4739         estimate D2E/DX2                !
 ! D342  D(59,60,61,128)       -61.6106         estimate D2E/DX2                !
 ! D343  D(59,60,61,129)        53.5364         estimate D2E/DX2                !
 ! D344  D(126,60,61,62)        53.0905         estimate D2E/DX2                !
 ! D345  D(126,60,61,128)      176.006          estimate D2E/DX2                !
 ! D346  D(126,60,61,129)      -68.8469         estimate D2E/DX2                !
 ! D347  D(127,60,61,62)       -62.9051         estimate D2E/DX2                !
 ! D348  D(127,60,61,128)       60.0104         estimate D2E/DX2                !
 ! D349  D(127,60,61,129)      175.1574         estimate D2E/DX2                !
 ! D350  D(60,61,62,63)         62.7986         estimate D2E/DX2                !
 ! D351  D(60,61,62,64)       -173.4371         estimate D2E/DX2                !
 ! D352  D(60,61,62,130)       -55.8769         estimate D2E/DX2                !
 ! D353  D(128,61,62,63)       -60.3996         estimate D2E/DX2                !
 ! D354  D(128,61,62,64)        63.3647         estimate D2E/DX2                !
 ! D355  D(128,61,62,130)     -179.075          estimate D2E/DX2                !
 ! D356  D(129,61,62,63)      -175.2093         estimate D2E/DX2                !
 ! D357  D(129,61,62,64)       -51.445          estimate D2E/DX2                !
 ! D358  D(129,61,62,130)       66.1153         estimate D2E/DX2                !
 ! D359  D(61,62,63,131)        59.7068         estimate D2E/DX2                !
 ! D360  D(61,62,63,132)       179.0276         estimate D2E/DX2                !
 ! D361  D(61,62,63,133)       -60.6096         estimate D2E/DX2                !
 ! D362  D(64,62,63,131)       -64.0748         estimate D2E/DX2                !
 ! D363  D(64,62,63,132)        55.2459         estimate D2E/DX2                !
 ! D364  D(64,62,63,133)       175.6088         estimate D2E/DX2                !
 ! D365  D(130,62,63,131)      178.1687         estimate D2E/DX2                !
 ! D366  D(130,62,63,132)      -62.5105         estimate D2E/DX2                !
 ! D367  D(130,62,63,133)       57.8523         estimate D2E/DX2                !
 ! D368  D(61,62,64,134)        57.2068         estimate D2E/DX2                !
 ! D369  D(61,62,64,135)       177.7891         estimate D2E/DX2                !
 ! D370  D(61,62,64,136)       -62.5659         estimate D2E/DX2                !
 ! D371  D(63,62,64,134)      -177.9309         estimate D2E/DX2                !
 ! D372  D(63,62,64,135)       -57.3487         estimate D2E/DX2                !
 ! D373  D(63,62,64,136)        62.2964         estimate D2E/DX2                !
 ! D374  D(130,62,64,134)      -60.1522         estimate D2E/DX2                !
 ! D375  D(130,62,64,135)       60.43           estimate D2E/DX2                !
 ! D376  D(130,62,64,136)     -179.9249         estimate D2E/DX2                !
 --------------------------------------------------------------------------------
 Trust Radius=3.00D-01 FncErr=1.00D-07 GrdErr=1.00D-06 EigMax=2.50D+02 EigMin=1.00D-04
 Number of steps in this run=    794 maximum allowed number of steps=    828.
 GradGradGradGradGradGradGradGradGradGradGradGradGradGradGradGradGradGrad

 Stoichiometry    C55H74N4O5
 Framework group  C1[X(C55H74N4O5)]
 Deg. of freedom   408
 Full point group                 C1      NOp   1
 Largest Abelian subgroup         C1      NOp   1
 Largest concise Abelian subgroup C1      NOp   1
                         Standard orientation:                         
 ---------------------------------------------------------------------
 Center     Atomic      Atomic             Coordinates (Angstroms)
 Number     Number       Type             X           Y           Z
 ---------------------------------------------------------------------
      1          6           0       -5.170231   -1.907306   -0.396266
      2          6           0       -3.691196    1.226522    2.903794
      3          6           0       -6.495943    4.615617    0.788783
      4          6           0       -8.210050    1.406161   -2.399381
      5          7           0       -4.579913   -0.144787    1.109295
      6          6           0       -4.439792   -1.427374    0.672794
      7          6           0       -3.427226   -2.218904    1.489859
      8          6           0       -3.156989   -1.261095    2.675146
      9          6           0       -3.835913    0.023206    2.210545
     10          6           0       -3.735360   -1.763189    4.005355
     11          6           0       -2.162809   -2.561384    0.681195
     12          6           0       -1.203010   -3.465810    1.450740
     13          6           0        0.039621   -3.806795    0.656839
     14          8           0        0.276856   -3.404430   -0.463521
     15          8           0        0.843388   -4.629685    1.357449
     16          7           0       -5.154848    2.720968    1.597240
     17          6           0       -4.277066    2.456911    2.611991
     18          6           0       -4.064577    3.694096    3.319211
     19          6           0       -4.812227    4.672833    2.694262
     20          6           0       -5.540620    4.043982    1.606989
     21          6           0       -3.142972    3.845070    4.487584
     22          6           0       -4.854514    6.085138    3.070522
     23          6           0       -4.946556    7.127608    2.235920
     24          7           0       -7.107191    2.735509   -0.665835
     25          6           0       -7.228347    4.018651   -0.256755
     26          6           0       -8.228652    4.741240   -1.041499
     27          6           0       -8.716731    3.843767   -1.949304
     28          6           0       -8.003157    2.594116   -1.697442
     29          6           0       -8.604024    6.177632   -0.851549
     30          6           0       -9.736700    4.062571   -3.027432
     31          6           0       -9.110945    4.325504   -4.407328
[...]
   D283      -1.05844  -0.00001  -0.00048   0.00030  -0.00018  -1.05862
   D284      -0.97724   0.00000  -0.00094   0.00073  -0.00021  -0.97746
   D285       1.15069   0.00000  -0.00082   0.00067  -0.00015   1.15053
   D286      -3.12663  -0.00001  -0.00081   0.00063  -0.00018  -3.12681
   D287       3.05124  -0.00002   0.00008  -0.00011  -0.00003   3.05121
   D288      -1.09780  -0.00001  -0.00012  -0.00002  -0.00014  -1.09794
   D289       0.93148  -0.00002  -0.00001  -0.00013  -0.00014   0.93134
   D290       0.92447  -0.00001   0.00007  -0.00012  -0.00005   0.92442
   D291       3.05861  -0.00000  -0.00013  -0.00003  -0.00015   3.05845
   D292      -1.19530  -0.00001  -0.00002  -0.00014  -0.00016  -1.19545
   D293      -1.08611   0.00000  -0.00010   0.00004  -0.00007  -1.08618
   D294       1.04802   0.00001  -0.00030   0.00013  -0.00017   1.04785
   D295       3.07731   0.00000  -0.00020   0.00002  -0.00018   3.07713
   D296      -3.05957   0.00001   0.00055  -0.00018   0.00037  -3.05920
   D297      -0.93294   0.00000   0.00043  -0.00007   0.00036  -0.93258
   D298       1.07740  -0.00000   0.00056  -0.00017   0.00039   1.07779
   D299       1.08962   0.00001   0.00077  -0.00028   0.00049   1.09011
   D300      -3.06694   0.00000   0.00064  -0.00016   0.00048  -3.06646
   D301      -1.05660  -0.00000   0.00077  -0.00026   0.00051  -1.05608
   D302      -0.93971   0.00001   0.00063  -0.00015   0.00049  -0.93923
   D303       1.18691   0.00001   0.00051  -0.00003   0.00048   1.18739
   D304      -3.08593   0.00000   0.00064  -0.00013   0.00051  -3.08542
   D305      -1.10175   0.00000   0.00029   0.00009   0.00037  -1.10138
   D306       3.00468  -0.00002   0.00081  -0.00043   0.00038   3.00506
   D307       0.96607  -0.00000   0.00069  -0.00031   0.00038   0.96644
   D308       3.05378   0.00001   0.00028   0.00004   0.00032   3.05410
   D309       0.87702  -0.00002   0.00080  -0.00047   0.00033   0.87735
   D310      -1.16158  -0.00000   0.00068  -0.00036   0.00032  -1.16126
   D311       1.04805   0.00001   0.00030   0.00003   0.00033   1.04838
   D312      -1.12871  -0.00001   0.00083  -0.00048   0.00034  -1.12836
   D313       3.11587   0.00000   0.00071  -0.00037   0.00034   3.11621
   D314       1.00975  -0.00001   0.00014  -0.00001   0.00013   1.00988
   D315       3.10359  -0.00001   0.00001   0.00013   0.00014   3.10372
   D316      -1.08555  -0.00001   0.00006   0.00008   0.00014  -1.08541
   D317      -3.11575   0.00001  -0.00071   0.00078   0.00007  -3.11568
   D318      -1.02191   0.00002  -0.00083   0.00091   0.00007  -1.02183
   D319       1.07214   0.00002  -0.00078   0.00086   0.00008   1.07222
   D320      -1.05380  -0.00000  -0.00025   0.00036   0.00011  -1.05370
   D321       1.04004   0.00000  -0.00038   0.00050   0.00011   1.04015
   D322       3.13408   0.00000  -0.00033   0.00045   0.00012   3.13420
   D323      -3.03196   0.00001  -0.00013   0.00020   0.00007  -3.03189
   D324      -0.90605   0.00002  -0.00023   0.00033   0.00010  -0.90595
   D325       1.09964   0.00002  -0.00024   0.00034   0.00010   1.09974
   D326       1.07327  -0.00001   0.00039  -0.00031   0.00008   1.07335
   D327      -3.08401  -0.00001   0.00029  -0.00018   0.00011  -3.08390
   D328      -1.07831  -0.00001   0.00027  -0.00017   0.00010  -1.07821
   D329      -0.99315   0.00000  -0.00004   0.00011   0.00007  -0.99308
   D330       1.13276   0.00000  -0.00014   0.00024   0.00010   1.13286
   D331       3.13845   0.00000  -0.00016   0.00025   0.00009   3.13855
   D332       3.01980  -0.00001  -0.00023   0.00003  -0.00019   3.01961
   D333      -1.14288  -0.00000  -0.00034   0.00015  -0.00019  -1.14307
   D334       0.88724  -0.00001  -0.00024   0.00005  -0.00019   0.88705
   D335       0.89421  -0.00001  -0.00007  -0.00013  -0.00020   0.89401
   D336       3.01471  -0.00000  -0.00019  -0.00001  -0.00020   3.01451
   D337      -1.23835  -0.00001  -0.00009  -0.00011  -0.00020  -1.23855
   D338      -1.11562  -0.00000  -0.00020  -0.00002  -0.00022  -1.11584
   D339       1.00488   0.00001  -0.00032   0.00010  -0.00021   1.00466
   D340       3.03500   0.00000  -0.00022  -0.00000  -0.00022   3.03479
   D341       3.03228  -0.00001  -0.00005  -0.00013  -0.00018   3.03210
   D342      -1.10704  -0.00000   0.00001  -0.00022  -0.00021  -1.10725
   D343       0.90509  -0.00001   0.00012  -0.00031  -0.00019   0.90490
   D344       0.89754  -0.00001   0.00005  -0.00020  -0.00015   0.89739
   D345       3.04141  -0.00000   0.00010  -0.00029  -0.00019   3.04122
   D346      -1.22965  -0.00001   0.00021  -0.00038  -0.00017  -1.22981
   D347      -1.13039  -0.00000  -0.00000  -0.00013  -0.00013  -1.13053
   D348       1.01348   0.00000   0.00005  -0.00022  -0.00017   1.01331
   D349       3.02560  -0.00001   0.00016  -0.00030  -0.00014   3.02546
   D350       1.07126   0.00000   0.00048  -0.00066  -0.00018   1.07108
   D351      -3.05135   0.00000   0.00012  -0.00034  -0.00021  -3.05156
   D352      -0.99951  -0.00000   0.00024  -0.00043  -0.00019  -0.99970
   D353      -1.07740  -0.00000   0.00040  -0.00055  -0.00016  -1.07756
   D354       1.08317  -0.00000   0.00004  -0.00022  -0.00019   1.08299
   D355       3.13502  -0.00001   0.00015  -0.00032  -0.00017   3.13485
   D356      -3.08357   0.00000   0.00034  -0.00052  -0.00018  -3.08375
   D357      -0.92299   0.00000  -0.00002  -0.00019  -0.00021  -0.92320
   D358       1.12885  -0.00000   0.00010  -0.00029  -0.00019   1.12866
   D359       1.02037   0.00000  -0.00076   0.00062  -0.00014   1.02023
   D360       3.10408   0.00000  -0.00066   0.00055  -0.00011   3.10397
   D361      -1.07991   0.00001  -0.00074   0.00064  -0.00010  -1.08002
   D362      -1.13916  -0.00001  -0.00025   0.00016  -0.00009  -1.13925
   D363       0.94454  -0.00001  -0.00015   0.00010  -0.00006   0.94449
   D364       3.04374  -0.00001  -0.00024   0.00019  -0.00005   3.04369
   D365       3.08751   0.00000  -0.00047   0.00035  -0.00012   3.08738
   D366      -1.11197  -0.00000  -0.00037   0.00028  -0.00009  -1.11206
   D367       0.98723   0.00000  -0.00045   0.00037  -0.00008   0.98714
   D368       0.99439  -0.00002   0.00089  -0.00086   0.00002   0.99441
   D369       3.09840  -0.00001   0.00080  -0.00079   0.00002   3.09842
   D370      -1.09601  -0.00001   0.00082  -0.00079   0.00003  -1.09597
   D371      -3.11045   0.00000   0.00044  -0.00050  -0.00006  -3.11050
   D372      -1.00643   0.00001   0.00036  -0.00042  -0.00006  -1.00650
   D373       1.08234   0.00001   0.00038  -0.00042  -0.00005   1.08230
   D374      -1.05380  -0.00001   0.00069  -0.00071  -0.00002  -1.05381
   D375       1.05022  -0.00000   0.00061  -0.00063  -0.00002   1.05019
   D376       3.13899  -0.00000   0.00063  -0.00063  -0.00000   3.13899
         Item               Value     Threshold  Converged?
 Maximum Force            0.000459     0.000450     NO 
 RMS     Force            0.000055     0.000300     YES
 Maximum Displacement     0.049916     0.001800     NO 
 RMS     Displacement     0.010081     0.001200     NO 
 Predicted change in Energy=-1.713357D-06
 GradGradGradGradGradGradGradGradGradGradGradGradGradGradGradGradGradGrad

 Stoichiometry    C55H74N4O5
 Framework group  C1[X(C55H74N4O5)]
 Deg. of freedom   408
 Full point group                 C1      NOp   1
 Largest Abelian subgroup         C1      NOp   1
 Largest concise Abelian subgroup C1      NOp   1
                         Standard orientation:                         
 ---------------------------------------------------------------------
 Center     Atomic      Atomic             Coordinates (Angstroms)
 Number     Number       Type             X           Y           Z
 ---------------------------------------------------------------------
      1          6           0       -5.101771   -1.915021   -0.332844
      2          6           0       -3.615456    1.486714    2.643935
      3          6           0       -6.805186    4.514315    0.613553
      4          6           0       -8.563725    1.022866   -2.191515
      5          7           0       -4.523549   -0.036834    1.011352
      6          6           0       -4.343626   -1.340317    0.633677
      7          6           0       -3.250699   -2.020670    1.430249
      8          6           0       -2.928869   -0.964672    2.502772
      9          6           0       -3.729786    0.232010    2.024067
     10          6           0       -3.323315   -1.392417    3.914844
     11          6           0       -2.044012   -2.415695    0.577021
     12          6           0       -1.051820   -3.257243    1.361076
     13          6           0        0.165966   -3.643098    0.558977
     14          8           0        0.405125   -3.263986   -0.555892
     15          8           0        0.948356   -4.473577    1.255335
     16          7           0       -5.281704    2.769755    1.392478
     17          6           0       -4.310250    2.631268    2.331321
     18          6           0       -4.131599    3.930541    2.945281
     19          6           0       -4.990110    4.798232    2.345333
     20          6           0       -5.765104    4.054345    1.362133
     21          6           0       -3.129037    4.210689    4.010817
     22          6           0       -5.108005    6.227148    2.634038
     23          6           0       -5.257943    7.191935    1.733784
     24          7           0       -7.414228    2.527989   -0.663997
     25          6           0       -7.588999    3.801689   -0.329452
     26          6           0       -8.703101    4.403977   -1.048844
     27          6           0       -9.209430    3.425672   -1.839671
     28          6           0       -8.391359    2.249169   -1.592698
     29          6           0       -9.149704    5.821331   -0.912171
     30          6           0      -10.333827    3.511753   -2.820582
     31          6           0       -9.851881    3.799105   -4.244314
     32          7           0       -6.708241   -0.086060   -1.088617
     33          6           0       -7.780774   -0.114030   -1.962488
     34          6           0       -7.897988   -1.420848   -2.483114
     35          6           0       -6.867250   -2.147886   -1.886954
     36          6           0       -6.160532   -1.294665   -1.032254
     37          6           0       -8.920754   -1.906187   -3.452770
     38          6           0       -6.281450   -3.477136   -1.811357
     39          8           0       -6.601054   -4.502820   -2.352820
     40          6           0       -5.051548   -3.344350   -0.841410
     41          6           0       -5.131815   -4.392673    0.244109
     42          8           0       -5.907200   -4.376339    1.159775
     43          8           0       -4.221849   -5.354237    0.059111
     44          6           0       -4.253376   -6.423491    0.999587
     45          6           0        2.197164   -4.859873    0.644625
     46          6           0        3.274327   -3.874560    0.953554
     47          6           0        3.942054   -3.124532    0.078546
     48          6           0        3.697263   -3.137493   -1.404473
     49          6           0        5.038503   -2.206953    0.548614
     50          6           0        6.416545   -2.576363   -0.004707
     51          6           0        7.514099   -1.659010    0.520235
     52          6           0        8.898267   -1.880034   -0.095839
     53          6           0        9.430472   -3.281556    0.194161
     54          6           0        9.860605   -0.792317    0.389313
     55          6           0       11.230590   -0.789509   -0.279269
     56          6           0       12.089413    0.391565    0.158252
     57          6           0       13.436494    0.521930   -0.557915
     58          6           0       14.345078   -0.674267   -0.283725
     59          6           0       14.104873    1.843430   -0.169510
     60          6           0       15.386779    2.172900   -0.926011
     61          6           0       15.902811    3.572759   -0.613143
     62          6           0       17.264807    3.913873   -1.221057
     63          6           0       17.247016    3.861476   -2.746560
     64          6           0       17.734567    5.283305   -0.738665
     65          1           0       -2.894929    1.571083    3.446868
     66          1           0       -7.076039    5.547853    0.778515
     67          1           0       -9.377391    0.913525   -2.898355
     68          1           0       -3.656484   -2.921689    1.901353
     69          1           0       -1.864212   -0.712259    2.494810
     70          1           0       -2.750140   -2.270007    4.220072
     71          1           0       -3.139343   -0.597965    4.639657
     72          1           0       -4.383913   -1.648571    3.953773
     73          1           0       -2.368272   -2.982365   -0.295697
     74          1           0       -1.555931   -1.517350    0.192277
     75          1           0       -0.698364   -2.736982    2.256285
     76          1           0       -1.523481   -4.176628    1.718773
     77          1           0       -2.115635    4.012660    3.654210
     78          1           0       -3.169901    5.250291    4.330918
     79          1           0       -3.297727    3.577540    4.884825
     80          1           0       -5.034166    6.503677    3.681548
     81          1           0       -5.294173    6.984955    0.671376
     82          1           0       -5.324669    8.228277    2.038499
     83          1           0       -8.359537    6.517304   -1.205757
     84          1           0      -10.016092    6.025633   -1.540771
     85          1           0       -9.423816    6.057376    0.118966
     86          1           0      -10.906422    2.580753   -2.810300
     87          1           0      -11.029709    4.293708   -2.509168
     88          1           0       -9.317051    4.749562   -4.283821
     89          1           0       -9.167703    3.021465   -4.588291
     90          1           0      -10.691329    3.848930   -4.940026
     91          1           0       -8.871440   -1.348859   -4.390736
     92          1           0       -8.761740   -2.960218   -3.671830
     93          1           0       -9.929854   -1.788686   -3.052044
     94          1           0       -4.164331   -3.536214   -1.447517
     95          1           0       -3.459561   -7.103141    0.701920
     96          1           0       -4.079460   -6.051490    2.009911
     97          1           0       -5.218469   -6.928376    0.969781
     98          1           0        2.420210   -5.826592    1.095987
     99          1           0        2.046317   -4.996184   -0.423803
    100          1           0        3.522760   -3.787197    2.007716
    101          1           0        2.683590   -3.444675   -1.652878
    102          1           0        3.855043   -2.139339   -1.818444
    103          1           0        4.400758   -3.805675   -1.908396
    104          1           0        4.798147   -1.182913    0.239475
    105          1           0        5.078635   -2.207598    1.640904
    106          1           0        6.627666   -3.615977    0.259170
    107          1           0        6.401413   -2.528667   -1.098165
    108          1           0        7.215368   -0.620696    0.339409
    109          1           0        7.588315   -1.768183    1.609171
    110          1           0        8.798051   -1.773213   -1.183774
    111          1           0        8.757466   -4.053777   -0.179743
    112          1           0       10.401490   -3.447893   -0.272991
    113          1           0        9.546501   -3.430154    1.272095
    114          1           0        9.390912    0.183729    0.226319
    115          1           0        9.987953   -0.889637    1.474587
    116          1           0       11.749741   -1.723711   -0.056186
    117          1           0       11.101584   -0.758831   -1.367614
    118          1           0       11.521068    1.314125   -0.002170
    119          1           0       12.266684    0.329318    1.239100
    120          1           0       13.236762    0.556008   -1.636845
    121          1           0       13.878585   -1.612805   -0.584674
    122          1           0       15.287977   -0.595586   -0.825726
    123          1           0       14.576006   -0.741017    0.783887
    124          1           0       13.387556    2.655283   -0.332173
    125          1           0       14.311686    1.833795    0.907744
    126          1           0       16.167671    1.446832   -0.680267
    127          1           0       15.199175    2.073334   -1.999703
    128          1           0       15.168557    4.314573   -0.951096
    129          1           0       15.969078    3.686442    0.474531
    130          1           0       17.983426    3.165698   -0.865486
    131          1           0       16.500973    4.555690   -3.145017
    132          1           0       18.218116    4.145103   -3.157394
    133          1           0       17.009414    2.864245   -3.119068
    134          1           0       17.782371    5.325595    0.351508
    135          1           0       18.725613    5.522822   -1.129447
    136          1           0       17.046924    6.065501   -1.073174
    137          1           0       -5.656045    2.006726    0.852610
    138          1           0       -6.446786    0.762618   -0.605933
 ---------------------------------------------------------------------
 Rotational constants (GHZ):           0.0394926           0.0081394           0.0072600
 Standard basis: def2TZVP (5D, 7F)
 There are  2748 symmetry adapted cartesian basis functions of A   symmetry.
 There are  2428 symmetry adapted basis functions of A   symmetry.
  2428 basis functions,  3856 primitive gaussians,  2748 cartesian basis functions
   236 alpha electrons      236 beta electrons
       nuclear repulsion energy      8550.7073699780 Hartrees.
 NAtoms=  138 NActive=  138 NUniq=  138 SFac= 1.00D+00 NAtFMM=   60 NAOKFM=T Big=T
 Integral buffers will be    131072 words long.
 Raffenetti 2 integral format.
 Two-electron integral symmetry is turned on.
 Nuclear repulsion after empirical dispersion term =     8550.5792567660 Hartrees.
 One-electron integrals computed using PRISM.
   1 Symmetry operations used in ECPInt.
 ECPInt:  NShTT=  500500 NPrTT= 1488580 LenC2=  222602 LenP2D=  432906.
 LDataN:  DoStor=T MaxTD1= 6 Len=  172
 Number of processors reduced to  23 by ecpmxn.
 NBasis=  2428 RedAO= T EigKep=  3.45D-06  NBF=  2428
 NBsUse=  2428 1.00D-06 EigRej= -1.00D+00 NBFU=  2428
 Initial guess from the checkpoint file:  "pheo-a-s0.chk"
 B after Tr=    -0.000000    0.000000   -0.000000
         Rot=    1.000000    0.000648    0.000062   -0.000331 Ang=   0.08 deg.
 ExpMin= 9.52D-02 ExpMax= 2.70D+04 ExpMxC= 9.22D+02 IAcc=2 IRadAn=         4 AccDes= 0.00D+00
 Harris functional with IExCor= 4639 and IRadAn=       4 diagonalized for initial guess.
 HarFok:  IExCor= 4639 AccDes= 0.00D+00 IRadAn=         4 IDoV= 1 UseB2=F ITyADJ=14
 ICtDFT=  3500011 ScaDFX=  1.000000  1.000000  1.000000  1.000000
 FoFCou: FMM=F IPFlag=           0 FMFlag=      100000 FMFlg1=        2001
         NFxFlg=           0 DoJE=T BraDBF=F KetDBF=T FulRan=T
         wScrn=  0.000000 ICntrl=       500 IOpCl=  0 I1Cent=   200000004 NGrid=           0
         NMat0=    1 NMatS0=      1 NMatT0=    0 NMatD0=    1 NMtDS0=    0 NMtDT0=    0
 Petite list used in FoFCou.
 Requested convergence on RMS density matrix=1.00D-08 within 128 cycles.
 Requested convergence on MAX density matrix=1.00D-06.
 Requested convergence on             energy=1.00D-06.
 No special actions if energy rises.
 Integral accuracy reduced to 1.0D-05 until final iterations.
 Problem detected with inexpensive integrals.
 Switching to full accuracy and repeating last cycle.
