 Entering Gaussian System, Link 0=g16
 Input=Geometria-325-.com
 Output=Geometria-325-.log
 Initial command:
 /usr/local/g09/l1.exe "/home/padawan/israel-mol/chlorophyll-a/spectra/abs/Gau-70139.inp" -scrdir="/home/padawan/israel-mol/chlorophyll-a/spectra/abs/"
 Entering Link 1 = /usr/local/g09/l1.exe PID=     70141.
  
 Copyright (c) 1988,1990,1992,1993,1995,1998,2003,2009,2013,
            Gaussian, Inc.  All Rights Reserved.
  
 This is part of the Gaussian(R) 09 program.  It is based on
 the Gaussian(R) 03 system (copyright 2003, Gaussian, Inc.),
 the Gaussian(R) 98 system (copyright 1998, Gaussian, Inc.),
 the Gaussian(R) 94 system (copyright 1995, Gaussian, Inc.),
 the Gaussian 92(TM) system (copyright 1992, Gaussian, Inc.),
 the Gaussian 90(TM) system (copyright 1990, Gaussian, Inc.),
 the Gaussian 88(TM) system (copyright 1988, Gaussian, Inc.),
 the Gaussian 86(TM) system (copyright 1986, Carnegie Mellon
 University), and the Gaussian 82(TM) system (copyright 1983,
 Carnegie Mellon University). Gaussian is a federally registered
 trademark of Gaussian, Inc.
  
 This software contains proprietary and confidential information,
 including trade secrets, belonging to Gaussian, Inc.
  
 This software is provided under written license and may be
 used, copied, transmitted, or stored only in accord with that
 written license.
  
 The following legend is applicable only to US Government
 contracts under FAR:
  
                    RESTRICTED RIGHTS LEGEND
  
 Use, reproduction and disclosure by the US Government is
 subject to restrictions as set forth in subparagraphs (a)
 and (c) of the Commercial Computer Software - Restricted
 Rights clause in FAR 52.227-19.
  
 Gaussian, Inc.
 340 Quinnipiac St., Bldg. 40, Wallingford CT 06492
  
  
 ---------------------------------------------------------------
 Warning -- This program may not be used in any manner that
 competes with the business of Gaussian, Inc. or will provide
 assistance to any competitor of Gaussian, Inc.  The licensee
 of this program is prohibited from giving any competitor of
 Gaussian, Inc. access to this program.  By using this program,
 the user acknowledges that Gaussian, Inc. is engaged in the
 business of creating and licensing software in the field of
 computational chemistry and represents and warrants to the
 licensee that it is not a competitor of Gaussian, Inc. and that
 it will not use this program in any manner prohibited above.
 ---------------------------------------------------------------
  

 Cite this work as:
 Gaussian 09, Revision D.01,
 M. J. Frisch, G. W. Trucks, H. B. Schlegel, G. E. Scuseria, 
 M. A. Robb, J. R. Cheeseman, G. Scalmani, V. Barone, B. Mennucci, 
 G. A. Petersson, H. Nakatsuji, M. Caricato, X. Li, H. P. Hratchian, 
 A. F. Izmaylov, J. Bloino, G. Zheng, J. L. Sonnenberg, M. Hada, 
 M. Ehara, K. Toyota, R. Fukuda, J. Hasegawa, M. Ishida, T. Nakajima, 
 Y. Honda, O. Kitao, H. Nakai, T. Vreven, J. A. Montgomery, Jr., 
 J. E. Peralta, F. Ogliaro, M. Bearpark, J. J. Heyd, E. Brothers, 
 K. N. Kudin, V. N. Staroverov, T. Keith, R. Kobayashi, J. Normand, 
 K. Raghavachari, A. Rendell, J. C. Burant, S. S. Iyengar, J. Tomasi, 
 M. Cossi, N. Rega, J. M. Millam, M. Klene, J. E. Knox, J. B. Cross, 
 V. Bakken, C. Adamo, J. Jaramillo, R. Gomperts, R. E. Stratmann, 
 O. Yazyev, A. J. Austin, R. Cammi, C. Pomelli, J. W. Ochterski, 
 R. L. Martin, K. Morokuma, V. G. Zakrzewski, G. A. Voth, 
 P. Salvador, J. J. Dannenberg, S. Dapprich, A. D. Daniels, 
 O. Farkas, J. B. Foresman, J. V. Ortiz, J. Cioslowski, 
 and D. J. Fox, Gaussian, Inc., Wallingford CT, 2013.
 
 ******************************************
 Gaussian 09:  ES64L-G09RevD.01 24-Apr-2013
                29-Jun-2019 
 ******************************************
 %nproc=4
 Will use up to    4 processors via shared memory.
 %Mem=2GB
 -------------------------------------
 # td=(NStates=1) CAM-B3LYP/6-31G(d,p)
 -------------------------------------
 1/38=1/1;
 2/12=2,17=6,18=5,40=1/2;
 3/5=1,6=6,7=101,11=9,16=1,25=1,30=1,74=-40/1,2,8,3;
 4//1;
 5/5=2,38=5/2;
 8/6=1,10=2,108=1/1;
 9/41=1,42=1,70=2/14;
 6/7=2,8=2,9=2,10=2/1;
 99/5=1,9=1/99;
 --
 TD
 --
 Symbolic Z-matrix:
 Charge =  0 Multiplicity = 1
 12                   -7.20607   0.54092   0.10856 
 6                    -4.78506  -1.89722   0.56738 
 6                    -4.87362   2.88687   1.27229 
 6                    -9.51054   3.01988  -0.23381 
 6                    -9.58266  -1.81692  -0.8088 
 7                    -5.12786   0.46436   0.82545 
 6                    -4.34741  -0.69109   0.76349 
 6                    -2.85963  -0.29967   1.1392 
 6                    -3.01126   1.22616   1.58282 
 6                    -4.43276   1.59837   1.24254 
 6                    -2.70128   1.39494   3.07705 
 6                    -1.90767  -0.60228   0.08713 
 6                    -0.41986  -0.48802   0.43113 
 6                     0.62158  -0.50316  -0.68918 
 8                     0.27012  -0.85517  -1.87047 
 8                     1.84173  -0.48106  -0.26397 
 7                    -7.18459   2.5953    0.31467 
 6                    -6.13472   3.3757    0.82366 
 6                    -6.53862   4.81715   1.07251 
 6                    -7.81261   4.86337   0.58259 
 6                    -8.27316   3.4993    0.2401 
 6                    -5.69471   5.87222   1.50823 
 6                    -8.68662   6.06971   0.46028 
 6                    -8.18028   7.2605    0.16455 
 7                    -9.17189   0.65842  -0.49653 
 6                    -9.93604   1.8032   -0.53465 
 6                    -11.19212   1.4212   -1.21935 
 6                    -11.2067   0.01172  -1.28183 
 6                    -9.95915  -0.47859  -0.93317 
 6                    -12.32559   2.35444  -1.50473 
 6                    -12.23414  -0.79104  -1.852 
 6                    -12.17325  -0.99551  -3.37864 
 7                    -7.25639  -1.47711  -0.05519 
 6                    -8.2029   -2.31688  -0.54865 
 6                    -7.76558  -3.70154  -0.62222 
 6                    -6.45584  -3.5888   -0.12311 
 6                    -6.18203  -2.19305   0.14191 
 6                    -8.63568  -4.91025  -0.93219 
 6                    -5.25866  -4.41111   0.21058 
 8                    -5.07874  -5.57984   0.29362 
 6                    -4.13202  -3.33723   0.64177 
 6                    -3.43992  -3.62304   1.97638 
 8                    -3.53042  -2.97831   3.00871 
 8                    -2.63454  -4.78294   1.78711 
 6                    -2.10138  -5.27795   3.07419 
 6                     2.8592   -0.55688  -1.36921 
 6                     4.07372  -0.23088  -0.64879 
 6                     5.04723   0.49376  -1.10267 
 6                     5.02481   1.30784  -2.45191 
 6                     6.39054   0.4656   -0.33422 
 6                     7.58243  -0.10439  -1.04772 
 6                     8.86258  -0.11786  -0.22041 
 6                     10.15347  -0.68134  -1.02035 
 6                     9.96731  -2.16484  -1.25796 
 6                     11.31092  -0.3105   -0.08131 
 6                     12.71267  -0.57304  -0.6817 
 6                     13.92753  -0.15694   0.15486 
 6                     15.37166  -0.28136  -0.42184 
 6                     15.79001  -1.74454  -0.74554 
 6                     16.37851   0.25737   0.56981 
 6                     17.69613   0.52022  -0.08577 
 6                     18.81777   1.26145   0.77767 
 6                     20.25099   1.35586   0.25737 
 6                     20.47531   2.02585  -1.03094 
 6                     21.1612   1.96867   1.28467 
 1                    -3.98946   3.72273   1.57414 
 1                    -10.36711   3.74312  -0.37739 
 1                    -10.152   -2.58165  -1.16536 
 1                    -2.60271  -0.8521    1.98863 
 1                    -2.24348   1.79037   0.99817 
 1                    -1.68602   1.08221   3.30456 
 1                    -2.77521   2.51526   3.5841 
 1                    -3.42404   0.80591   3.70789 
 1                    -1.97336  -1.58492  -0.54982 
 1                    -1.91925   0.24619  -0.61506 
 1                    -0.2514    0.45587   0.78019 
 1                    -0.12496  -1.17614   1.14032 
 1                    -5.12886   6.35738   0.67145 
 1                    -6.42118   6.78007   1.84595 
 1                    -4.90703   5.70236   2.33543 
 1                    -9.82441   5.94135   0.47456 
 1                    -8.98644   8.01991   0.16381 
 1                    -7.07347   7.46745   0.05183 
 1                    -12.24704   3.02101  -2.42373 
 1                    -13.12931   1.60409  -1.71326 
 1                    -12.65233   3.08622  -0.68456 
 1                    -12.14212  -1.62187  -1.34591 
 1                    -13.24051  -0.25188  -1.53633 
 1                    -12.79442  -1.8877   -3.77016 
 1                    -12.40971  -0.24911  -3.94308 
 1                    -11.2015  -1.32643  -3.66409 
 1                    -9.39196  -4.88185  -1.87945 
 1                    -8.11239  -5.9054   -0.88953 
 1                    -9.45245  -5.11156  -0.2749 
 1                    -3.38187  -3.48583  -0.18786 
 1                    -1.65282  -4.43726   3.65292 
 1                    -3.08894  -5.48109   3.58799 
 1                    -1.51106  -6.19219   2.57326 
 1                     2.70015  -1.55184  -1.67338 
 1                     2.50983   0.12179  -2.02649 
 1                     4.05538  -0.72774   0.38307 
 1                     3.93436   1.44688  -2.59277 
 1                     5.55473   2.33733  -2.25455 
 1                     5.32735   0.68382  -3.33201 
 1                     6.26397   1.43163  -0.16039 
 1                     6.36151   0.13595   0.81942 
 1                     7.29016  -1.13177  -1.27397 
 1                     7.73784   0.56078  -2.00701 
 1                     9.01748   0.83453   0.01472 
 1                     8.75168  -0.63984   0.81453 
 1                     10.10639  -0.06918  -1.85185 
 1                     9.05248  -2.51437  -1.89332 
 1                     10.95563  -2.34131  -1.8221 
 1                     10.15878  -2.74291  -0.37826 
 1                     11.33653   0.65197   0.37066 
 1                     11.2642  -1.04301   0.85278 
 1                     12.79212  -1.66818  -0.69576 
 1                     12.72222   0.00194  -1.76211 
 1                     13.8413   0.92924   0.43822 
 1                     13.7597  -0.77004   0.99457 
 1                     15.44316   0.1888   -1.25362 
 1                     16.14522  -2.2112    0.23115 
 1                     15.07194  -2.28528  -1.26595 
 1                     16.74847  -1.70407  -1.34327 
 1                     15.96828   1.31797   0.91758 
 1                     16.56703  -0.48266   1.39303 
 1                     18.09484  -0.44756  -0.27421 
 1                     17.48688   1.11335  -1.02857 
 1                     18.67092   2.43639   0.86067 
 1                     18.75481   0.88603   1.82212 
 1                     20.64395   0.5468   -0.01944 
 1                     20.01742   3.03505  -1.21155 
 1                     21.51659   2.08349  -1.21235 
 1                     19.81805   1.73063  -1.95084 
 1                     20.92397   1.53627   2.26499 
 1                     22.22139   2.05709   1.01711 
 1                     20.72886   2.86495   1.47455 
 
 Stoichiometry    C55H72MgN4O5
 Framework group  C1[X(C55H72MgN4O5)]
 Deg. of freedom   405
 Full point group                 C1      NOp   1
 Largest Abelian subgroup         C1      NOp   1
 Largest concise Abelian subgroup C1      NOp   1
                         Standard orientation:                         
 ---------------------------------------------------------------------
 Center     Atomic      Atomic             Coordinates (Angstroms)
 Number     Number       Type             X           Y           Z
 ---------------------------------------------------------------------
      1         12           0       -7.207918    0.528813    0.108305
      2          6           0       -4.782534   -1.901046    0.587548
      3          6           0       -4.878914    2.888955    1.250046
      4          6           0       -9.516766    3.000720   -0.254912
      5          6           0       -9.580918   -1.841112   -0.786944
      6          7           0       -5.129235    0.462143    0.824831
      7          6           0       -4.346853   -0.692480    0.772736
      8          6           0       -2.859559   -0.295209    1.144234
      9          6           0       -3.013583    1.234234    1.574381
     10          6           0       -4.435877    1.600991    1.231508
     11          6           0       -2.703180    1.416779    3.066904
     12          6           0       -1.907581   -0.605528    0.094422
     13          6           0       -0.419810   -0.485685    0.436671
     14          6           0        0.621125   -0.508997   -0.683972
     15          8           0        0.269701   -0.872060   -1.861917
     16          8           0        1.841436   -0.481051   -0.259571
     17          7           0       -7.189836    2.584973    0.296176
     18          6           0       -6.141061    3.371638    0.797715
     19          6           0       -6.547301    4.814553    1.033965
     20          6           0       -7.821600    4.854254    0.544277
     21          6           0       -8.279983    3.486423    0.214132
     22          6           0       -5.704978    5.874875    1.459901
     23          6           0       -8.697719    6.057980    0.411703
     24          6           0       -8.193549    7.246959    0.105183
     25          7           0       -9.174222    0.637600   -0.496842
     26          6           0       -9.940334    1.780694   -0.544736
     27          6           0      -11.196094    1.390504   -1.225405
     28          6           0      -11.208296   -0.019506   -1.275377
     29          6           0       -9.959744   -0.504574   -0.922998
     30          6           0      -12.331285    2.319242   -1.518500
     31          6           0      -12.234641   -0.829032   -1.837906
     32          6           0      -12.174126   -1.046933   -3.362698
     33          7           0       -7.254876   -1.490672   -0.037515
     34          6           0       -8.200181   -2.336394   -0.523050
     35          6           0       -7.760545   -3.720913   -0.584549
     36          6           0       -6.450759   -3.601523   -0.087103
     37          6           0       -6.179205   -2.203006    0.165395
     38          6           0       -8.628730   -4.933802   -0.883364
     39          6           0       -5.252023   -4.418798    0.253285
     40          8           0       -5.070068   -5.586442    0.346594
     41          6           0       -4.127005   -3.339222    0.674379
     42          6           0       -3.433788   -3.612009    2.011136
     43          8           0       -3.524896   -2.958306    3.037758
     44          8           0       -2.626528   -4.772169    1.831764
     45          6           0       -2.091913   -5.254839    3.122924
     46          6           0        2.858509   -0.564942   -1.364594
     47          6           0        4.072813   -0.230493   -0.647683
     48          6           0        5.044869    0.491747   -1.108450
     49          6           0        5.020424    1.293782   -2.464847
     50          6           0        6.388587    0.472680   -0.340438
     51          6           0        7.581109   -0.101586   -1.049442
     52          6           0        8.861671   -0.105541   -0.222671
     53          6           0       10.153141   -0.673891   -1.018208
     54          6           0        9.969405   -2.159755   -1.242561
     55          6           0       11.310408   -0.292777   -0.083059
     56          6           0       12.712315   -0.558250   -0.681784
     57          6           0       13.926861   -0.132680    0.150461
     58          6           0       15.370931   -0.259753   -0.425817
     59          6           0       15.791622   -1.725029   -0.736740
     60          6           0       16.377330    0.289463    0.560515
     61          6           0       17.694183    0.548728   -0.098008
     62          6           0       18.814969    1.299491    0.758274
     63          6           0       20.247785    1.391722    0.236451
     64          6           0       20.470347    2.050637   -1.057854
     65          6           0       21.157437    2.015166    1.257831
     66          1           0       -3.996039    3.728959    1.544041
     67          1           0      -10.374640    3.721198   -0.404478
     68          1           0      -10.149127   -2.609937   -1.136431
     69          1           0       -2.601297   -0.839656    1.998401
     70          1           0       -2.247046    1.794535    0.984378
     71          1           0       -1.687285    1.107813    3.296681
     72          1           0       -2.778784    2.541429    3.564037
     73          1           0       -3.424641    0.832148    3.703300
     74          1           0       -1.971903   -1.593889   -0.533754
     75          1           0       -1.920941    0.236661   -0.615253
     76          1           0       -0.252796    0.461549    0.777263
     77          1           0       -0.123400   -1.166989    1.151787
     78          1           0       -5.140352    6.353559    0.618576
     79          1           0       -6.432835    6.784448    1.789914
     80          1           0       -4.916626    5.713695    2.288189
     81          1           0       -9.835284    5.927812    0.427676
     82          1           0       -9.001005    8.004959    0.098097
     83          1           0       -7.087152    7.454778   -0.009911
     84          1           0      -12.254306    2.977770   -2.443411
     85          1           0      -13.133821    1.565705   -1.719978
     86          1           0      -12.658884    3.057715   -0.704691
     87          1           0      -12.140958   -1.655188   -1.324517
     88          1           0      -13.241775   -0.288804   -1.526538
     89          1           0      -12.793956   -1.943612   -3.745990
     90          1           0      -12.412123   -0.305972   -3.933625
     91          1           0      -11.201949   -1.378711   -3.645677
     92          1           0       -9.385502   -4.915087   -1.830462
     93          1           0       -8.103725   -5.927640   -0.832137
     94          1           0       -9.444837   -5.130657   -0.223909
     95          1           0       -3.376997   -3.493902   -0.154258
     96          1           0       -1.644506   -4.408292    3.693960
     97          1           0       -3.078883   -5.455093    3.638986
     98          1           0       -1.500273   -6.172486    2.629838
     99          1           0        2.701016   -1.562830   -1.659850
    100          1           0        2.507674    0.107277   -2.027699
    101          1           0        4.055813   -0.718216    0.388550
    102          1           0        3.929676    1.429713   -2.606402
    103          1           0        5.548681    2.325884   -2.276882
    104          1           0        5.323608    0.662499   -3.339529
    105          1           0        6.260456    1.440001   -0.175118
    106          1           0        6.360669    0.153230    0.816097
    107          1           0        7.290490   -1.131430   -1.266426
    108          1           0        7.734929    0.555318   -2.014665
    109          1           0        9.015061    0.849157    0.003928
    110          1           0        8.752159   -0.618510    0.816912
    111          1           0       10.104630   -0.069218   -1.855081
    112          1           0        9.054869   -2.516464   -1.874355
    113          1           0       10.957752   -2.339546   -1.805598
    114          1           0       10.162277   -2.729674   -0.357865
    115          1           0       11.334588    0.673707    0.360342
    116          1           0       11.265374   -1.017047    0.857513
    117          1           0       12.793632   -1.653334   -0.686169
    118          1           0       12.720376    0.007144   -1.767260
    119          1           0       13.838911    0.955821    0.424217
    120          1           0       13.760477   -0.738590    0.995659
    121          1           0       15.441230    0.203132   -1.261769
    122          1           0       16.148083   -2.182405    0.243873
    123          1           0       15.074229   -2.271583   -1.251986
    124          1           0       16.749728   -1.688240   -1.335269
    125          1           0       15.965458    1.352407    0.899065
    126          1           0       16.567498   -0.442920    1.390179
    127          1           0       18.094456   -0.420008   -0.278059
    128          1           0       17.483479    1.133119   -1.045927
    129          1           0       18.666155    2.474867    0.830924
    130          1           0       18.753149    0.933246    1.806041
    131          1           0       20.641994    0.580908   -0.033365
    132          1           0       20.010653    3.057420   -1.247185
    133          1           0       21.511441    2.108442   -1.240280
    134          1           0       19.813160    1.746160   -1.974774
    135          1           0       20.921408    1.591076    2.242064
    136          1           0       22.217341    2.103015    0.988980
    137          1           0       20.723652    2.912357    1.439975
 ---------------------------------------------------------------------
 Rotational constants (GHZ):      0.0633115      0.0060873      0.0057359
 Standard basis: 6-31G(d,p) (6D, 7F)
 There are  1339 symmetry adapted cartesian basis functions of A   symmetry.
 There are  1339 symmetry adapted basis functions of A   symmetry.
  1339 basis functions,  2348 primitive gaussians,  1339 cartesian basis functions
   241 alpha electrons      241 beta electrons
       nuclear repulsion energy      8706.8828560525 Hartrees.
 NAtoms=  137 NActive=  137 NUniq=  137 SFac= 1.00D+00 NAtFMM=   60 NAOKFM=T Big=T
 Integral buffers will be    131072 words long.
 Raffenetti 1 integral format.
 Two-electron integral symmetry is turned on.
 One-electron integrals computed using PRISM.
 NBasis=  1339 RedAO= T EigKep=  3.47D-04  NBF=  1339
 NBsUse=  1339 1.00D-06 EigRej= -1.00D+00 NBFU=  1339
 ExpMin= 4.21D-02 ExpMax= 1.17D+04 ExpMxC= 1.76D+03 IAcc=2 IRadAn=         4 AccDes= 0.00D+00
 Harris functional with IExCor=20419 and IRadAn=       4 diagonalized for initial guess.
 HarFok:  IExCor=20419 AccDes= 0.00D+00 IRadAn=         4 IDoV= 1 UseB2=F ITyADJ=14
 ICtDFT=  3500011 ScaDFX=  1.000000  1.000000  1.000000  1.000000
 FoFCou: FMM=F IPFlag=           0 FMFlag=      100000 FMFlg1=        2001
         NFxFlg=           0 DoJE=T BraDBF=F KetDBF=T FulRan=T
         wScrn=  0.000000 ICntrl=     500 IOpCl=  0 I1Cent=   200000004 NGrid=           0
         NMat0=    1 NMatS0=      1 NMatT0=    0 NMatD0=    1 NMtDS0=    0 NMtDT0=    0
 Petite list used in FoFCou.
 Requested convergence on RMS density matrix=1.00D-08 within 128 cycles.
 Requested convergence on MAX density matrix=1.00D-06.
 Requested convergence on             energy=1.00D-06.
 No special actions if energy rises.
 SCF Done:  E(RCAM-B3LYP) =  -2932.66197350     A.U. after   18 cycles
            NFock= 18  Conv=0.50D-08     -V/T= 2.0092
 DoSCS=F DFT=T ScalE2(SS,OS)=  1.000000  1.000000
 ExpMin= 4.21D-02 ExpMax= 1.17D+04 ExpMxC= 1.76D+03 IAcc=3 IRadAn=         5 AccDes= 0.00D+00
 HarFok:  IExCor=  205 AccDes= 0.00D+00 IRadAn=         5 IDoV=-2 UseB2=F ITyADJ=14
 ICtDFT= 12500011 ScaDFX=  1.000000  1.000000  1.000000  1.000000
 Range of M.O.s used for correlation:    70  1339
 NBasis=  1339 NAE=   241 NBE=   241 NFC=    69 NFV=     0
 NROrb=   1270 NOA=   172 NOB=   172 NVA=  1098 NVB=  1098
 Would need an additional       2415464100000 words for in-memory AO integral storage.
 Orbital symmetries:
       Occupied  (A) (A) (A) (A) (A) (A) (A) (A) (A) (A) (A) (A)
                 (A) (A) (A) (A) (A) (A) (A) (A) (A) (A) (A) (A)
                 (A) (A) (A) (A) (A) (A) (A) (A) (A) (A) (A) (A)
                 (A) (A) (A) (A) (A) (A) (A) (A) (A) (A) (A) (A)
                 (A) (A) (A) (A) (A) (A) (A) (A) (A) (A) (A) (A)
                 (A) (A) (A) (A) (A) (A) (A) (A) (A) (A) (A) (A)
                 (A) (A) (A) (A) (A) (A) (A) (A) (A) (A) (A) (A)
                 (A) (A) (A) (A) (A) (A) (A) (A) (A) (A) (A) (A)
                 (A) (A) (A) (A) (A) (A) (A) (A) (A) (A) (A) (A)
                 (A) (A) (A) (A) (A) (A) (A) (A) (A) (A) (A) (A)
                 (A) (A) (A) (A) (A) (A) (A) (A) (A) (A) (A) (A)
                 (A) (A) (A) (A) (A) (A) (A) (A) (A) (A) (A) (A)
                 (A) (A) (A) (A) (A) (A) (A) (A) (A) (A) (A) (A)
                 (A) (A) (A) (A) (A) (A) (A) (A) (A) (A) (A) (A)
                 (A) (A) (A) (A) (A) (A) (A) (A) (A) (A) (A) (A)
                 (A) (A) (A) (A) (A) (A) (A) (A) (A) (A) (A) (A)
                 (A) (A) (A) (A) (A) (A) (A) (A) (A) (A) (A) (A)
                 (A) (A) (A) (A) (A) (A) (A) (A) (A) (A) (A) (A)
                 (A) (A) (A) (A) (A) (A) (A) (A) (A) (A) (A) (A)
                 (A) (A) (A) (A) (A) (A) (A) (A) (A) (A) (A) (A)
                 (A)
       Virtual   (A) (A) (A) (A) (A) (A) (A) (A) (A) (A) (A) (A)
                 (A) (A) (A) (A) (A) (A) (A) (A) (A) (A) (A) (A)
                 (A) (A) (A) (A) (A) (A) (A) (A) (A) (A) (A) (A)
                 (A) (A) (A) (A) (A) (A) (A) (A) (A) (A) (A) (A)
                 (A) (A) (A) (A) (A) (A) (A) (A) (A) (A) (A) (A)
                 (A) (A) (A) (A) (A) (A) (A) (A) (A) (A) (A) (A)
                 (A) (A) (A) (A) (A) (A) (A) (A) (A) (A) (A) (A)
                 (A) (A) (A) (A) (A) (A) (A) (A) (A) (A) (A) (A)
                 (A) (A) (A) (A) (A) (A) (A) (A) (A) (A) (A) (A)
                 (A) (A) (A) (A) (A) (A) (A) (A) (A) (A) (A) (A)
                 (A) (A) (A) (A) (A) (A) (A) (A) (A) (A) (A) (A)
                 (A) (A) (A) (A) (A) (A) (A) (A) (A) (A) (A) (A)
                 (A) (A) (A) (A) (A) (A) (A) (A) (A) (A) (A) (A)
                 (A) (A) (A) (A) (A) (A) (A) (A) (A) (A) (A) (A)
                 (A) (A) (A) (A) (A) (A) (A) (A) (A) (A) (A) (A)
                 (A) (A) (A) (A) (A) (A) (A) (A) (A) (A) (A) (A)
                 (A) (A) (A) (A) (A) (A) (A) (A) (A) (A) (A) (A)
                 (A) (A) (A) (A) (A) (A) (A) (A) (A) (A) (A) (A)
                 (A) (A) (A) (A) (A) (A) (A) (A) (A) (A) (A) (A)
                 (A) (A) (A) (A) (A) (A) (A) (A) (A) (A) (A) (A)
                 (A) (A) (A) (A) (A) (A) (A) (A) (A) (A) (A) (A)
                 (A) (A) (A) (A) (A) (A) (A) (A) (A) (A) (A) (A)
                 (A) (A) (A) (A) (A) (A) (A) (A) (A) (A) (A) (A)
                 (A) (A) (A) (A) (A) (A) (A) (A) (A) (A) (A) (A)
                 (A) (A) (A) (A) (A) (A) (A) (A) (A) (A) (A) (A)
                 (A) (A) (A) (A) (A) (A) (A) (A) (A) (A) (A) (A)
                 (A) (A) (A) (A) (A) (A) (A) (A) (A) (A) (A) (A)
                 (A) (A) (A) (A) (A) (A) (A) (A) (A) (A) (A) (A)
                 (A) (A) (A) (A) (A) (A) (A) (A) (A) (A) (A) (A)
                 (A) (A) (A) (A) (A) (A) (A) (A) (A) (A) (A) (A)
                 (A) (A) (A) (A) (A) (A) (A) (A) (A) (A) (A) (A)
                 (A) (A) (A) (A) (A) (A) (A) (A) (A) (A) (A) (A)
                 (A) (A) (A) (A) (A) (A) (A) (A) (A) (A) (A) (A)
                 (A) (A) (A) (A) (A) (A) (A) (A) (A) (A) (A) (A)
                 (A) (A) (A) (A) (A) (A) (A) (A) (A) (A) (A) (A)
                 (A) (A) (A) (A) (A) (A) (A) (A) (A) (A) (A) (A)
                 (A) (A) (A) (A) (A) (A) (A) (A) (A) (A) (A) (A)
                 (A) (A) (A) (A) (A) (A) (A) (A) (A) (A) (A) (A)
                 (A) (A) (A) (A) (A) (A) (A) (A) (A) (A) (A) (A)
                 (A) (A) (A) (A) (A) (A) (A) (A) (A) (A) (A) (A)
                 (A) (A) (A) (A) (A) (A) (A) (A) (A) (A) (A) (A)
                 (A) (A) (A) (A) (A) (A) (A) (A) (A) (A) (A) (A)
                 (A) (A) (A) (A) (A) (A) (A) (A) (A) (A) (A) (A)
                 (A) (A) (A) (A) (A) (A) (A) (A) (A) (A) (A) (A)
                 (A) (A) (A) (A) (A) (A) (A) (A) (A) (A) (A) (A)
                 (A) (A) (A) (A) (A) (A) (A) (A) (A) (A) (A) (A)
                 (A) (A) (A) (A) (A) (A) (A) (A) (A) (A) (A) (A)
                 (A) (A) (A) (A) (A) (A) (A) (A) (A) (A) (A) (A)
                 (A) (A) (A) (A) (A) (A) (A) (A) (A) (A) (A) (A)
                 (A) (A) (A) (A) (A) (A) (A) (A) (A) (A) (A) (A)
                 (A) (A) (A) (A) (A) (A) (A) (A) (A) (A) (A) (A)
                 (A) (A) (A) (A) (A) (A) (A) (A) (A) (A) (A) (A)
                 (A) (A) (A) (A) (A) (A) (A) (A) (A) (A) (A) (A)
                 (A) (A) (A) (A) (A) (A) (A) (A) (A) (A) (A) (A)
                 (A) (A) (A) (A) (A) (A) (A) (A) (A) (A) (A) (A)
                 (A) (A) (A) (A) (A) (A) (A) (A) (A) (A) (A) (A)
                 (A) (A) (A) (A) (A) (A) (A) (A) (A) (A) (A) (A)
                 (A) (A) (A) (A) (A) (A) (A) (A) (A) (A) (A) (A)
                 (A) (A) (A) (A) (A) (A) (A) (A) (A) (A) (A) (A)
                 (A) (A) (A) (A) (A) (A) (A) (A) (A) (A) (A) (A)
                 (A) (A) (A) (A) (A) (A) (A) (A) (A) (A) (A) (A)
                 (A) (A) (A) (A) (A) (A) (A) (A) (A) (A) (A) (A)
                 (A) (A) (A) (A) (A) (A) (A) (A) (A) (A) (A) (A)
                 (A) (A) (A) (A) (A) (A) (A) (A) (A) (A) (A) (A)
                 (A) (A) (A) (A) (A) (A) (A) (A) (A) (A) (A) (A)
                 (A) (A) (A) (A) (A) (A) (A) (A) (A) (A) (A) (A)
                 (A) (A) (A) (A) (A) (A) (A) (A) (A) (A) (A) (A)
                 (A) (A) (A) (A) (A) (A) (A) (A) (A) (A) (A) (A)
                 (A) (A) (A) (A) (A) (A) (A) (A) (A) (A) (A) (A)
                 (A) (A) (A) (A) (A) (A) (A) (A) (A) (A) (A) (A)
                 (A) (A) (A) (A) (A) (A) (A) (A) (A) (A) (A) (A)
                 (A) (A) (A) (A) (A) (A) (A) (A) (A) (A) (A) (A)
                 (A) (A) (A) (A) (A) (A) (A) (A) (A) (A) (A) (A)
                 (A) (A) (A) (A) (A) (A) (A) (A) (A) (A) (A) (A)
                 (A) (A) (A) (A) (A) (A) (A) (A) (A) (A) (A) (A)
                 (A) (A) (A) (A) (A) (A) (A) (A) (A) (A) (A) (A)
                 (A) (A) (A) (A) (A) (A) (A) (A) (A) (A) (A) (A)
                 (A) (A) (A) (A) (A) (A) (A) (A) (A) (A) (A) (A)
                 (A) (A) (A) (A) (A) (A) (A) (A) (A) (A) (A) (A)
                 (A) (A) (A) (A) (A) (A) (A) (A) (A) (A) (A) (A)
                 (A) (A) (A) (A) (A) (A) (A) (A) (A) (A) (A) (A)
                 (A) (A) (A) (A) (A) (A) (A) (A) (A) (A) (A) (A)
                 (A) (A) (A) (A) (A) (A) (A) (A) (A) (A) (A) (A)
                 (A) (A) (A) (A) (A) (A) (A) (A) (A) (A) (A) (A)
                 (A) (A) (A) (A) (A) (A) (A) (A) (A) (A) (A) (A)
                 (A) (A) (A) (A) (A) (A) (A) (A) (A) (A) (A) (A)
                 (A) (A) (A) (A) (A) (A) (A) (A) (A) (A) (A) (A)
                 (A) (A) (A) (A) (A) (A) (A) (A) (A) (A) (A) (A)
                 (A) (A) (A) (A) (A) (A) (A) (A) (A) (A) (A) (A)
                 (A) (A) (A) (A) (A) (A) (A) (A) (A) (A) (A) (A)
                 (A) (A) (A) (A) (A) (A) (A) (A) (A) (A) (A) (A)
                 (A) (A) (A) (A) (A) (A)
     8 initial guesses have been made.
 Convergence on wavefunction:    0.001000000000000
 Iteration     1 Dimension     8 NMult     0 NNew      8
 CISAX will form     8 AO SS matrices at one time.
 Iteration     2 Dimension    12 NMult     8 NNew      4
 Iteration     3 Dimension    16 NMult    12 NNew      4
 Iteration     4 Dimension    20 NMult    16 NNew      4
 Iteration     5 Dimension    24 NMult    20 NNew      4
 Iteration     6 Dimension    28 NMult    24 NNew      4
 ***********************************************************************
 Excited states from <AA,BB:AA,BB> singles matrix:
 ***********************************************************************
 
 Ground to excited state transition densities written to RWF  633
 Ground to excited state transition electric dipole moments (Au):
       state          X           Y           Z        Dip. S.      Osc.
         1        -0.1957     -2.3475     -0.3409      5.6654      0.2797
 Ground to excited state transition velocity dipole moments (Au):
       state          X           Y           Z        Dip. S.      Osc.
         1         0.0146      0.1710      0.0242      0.0300      0.2704
 Ground to excited state transition magnetic dipole moments (Au):
       state          X           Y           Z
         1         0.5240      0.5405     -4.0764
 Ground to excited state transition velocity quadrupole moments (Au):
       state          XX          YY          ZZ          XY          XZ          YZ
         1        -0.3754      0.1692      0.0314     -2.2057     -0.3041      0.1297
 <0|del|b> * <b|rxdel|0> + <0|del|b> * <b|delr+rdel|0>
 Rotatory Strengths (R) in cgs (10**-40 erg-esu-cm/Gauss)
       state          XX          YY          ZZ    R(velocity)    E-M Angle
         1       -36.1911   -170.5017    220.5356      4.6143       89.88
 1/2[<0|r|b>*<b|rxdel|0> + (<0|rxdel|b>*<b|r|0>)*]
 Rotatory Strengths (R) in cgs (10**-40 erg-esu-cm/Gauss)
       state          XX          YY          ZZ     R(length)
         1        72.5161    897.3024   -982.6188     -4.2667
  1/2[<0|del|b>*<b|r|0> + (<0|r|b>*<b|del|0>)*] (Au)
       state          X           Y           Z        Dip. S.   Osc.(frdel)
         1        -0.0029     -0.4015     -0.0082      0.4126      0.2750

 Excitation energies and oscillator strengths:
 
 Excited State   1:      Singlet-A      2.0154 eV  615.18 nm  f=0.2797  <S**2>=0.000
     240 -> 243       -0.21716
     241 -> 242        0.65721
 This state for optimization and/or second-order correction.
 Total Energy, E(TD-HF/TD-KS) =  -2932.58790862    
 Copying the excited state density for this state as the 1-particle RhoCI density.
 SavETr:  write IOETrn=   770 NScale= 10 NData=  16 NLR=1 NState=    1 LETran=      28.

 **********************************************************************

            Population analysis using the SCF density.

 **********************************************************************

 Orbital symmetries:
       Occupied  (A) (A) (A) (A) (A) (A) (A) (A) (A) (A) (A) (A)
                 (A) (A) (A) (A) (A) (A) (A) (A) (A) (A) (A) (A)
                 (A) (A) (A) (A) (A) (A) (A) (A) (A) (A) (A) (A)
                 (A) (A) (A) (A) (A) (A) (A) (A) (A) (A) (A) (A)
                 (A) (A) (A) (A) (A) (A) (A) (A) (A) (A) (A) (A)
                 (A) (A) (A) (A) (A) (A) (A) (A) (A) (A) (A) (A)
                 (A) (A) (A) (A) (A) (A) (A) (A) (A) (A) (A) (A)
                 (A) (A) (A) (A) (A) (A) (A) (A) (A) (A) (A) (A)
                 (A) (A) (A) (A) (A) (A) (A) (A) (A) (A) (A) (A)
                 (A) (A) (A) (A) (A) (A) (A) (A) (A) (A) (A) (A)
                 (A) (A) (A) (A) (A) (A) (A) (A) (A) (A) (A) (A)
                 (A) (A) (A) (A) (A) (A) (A) (A) (A) (A) (A) (A)
                 (A) (A) (A) (A) (A) (A) (A) (A) (A) (A) (A) (A)
                 (A) (A) (A) (A) (A) (A) (A) (A) (A) (A) (A) (A)
                 (A) (A) (A) (A) (A) (A) (A) (A) (A) (A) (A) (A)
                 (A) (A) (A) (A) (A) (A) (A) (A) (A) (A) (A) (A)
                 (A) (A) (A) (A) (A) (A) (A) (A) (A) (A) (A) (A)
                 (A) (A) (A) (A) (A) (A) (A) (A) (A) (A) (A) (A)
                 (A) (A) (A) (A) (A) (A) (A) (A) (A) (A) (A) (A)
                 (A) (A) (A) (A) (A) (A) (A) (A) (A) (A) (A) (A)
                 (A)
       Virtual   (A) (A) (A) (A) (A) (A) (A) (A) (A) (A) (A) (A)
                 (A) (A) (A) (A) (A) (A) (A) (A) (A) (A) (A) (A)
                 (A) (A) (A) (A) (A) (A) (A) (A) (A) (A) (A) (A)
                 (A) (A) (A) (A) (A) (A) (A) (A) (A) (A) (A) (A)
                 (A) (A) (A) (A) (A) (A) (A) (A) (A) (A) (A) (A)
                 (A) (A) (A) (A) (A) (A) (A) (A) (A) (A) (A) (A)
                 (A) (A) (A) (A) (A) (A) (A) (A) (A) (A) (A) (A)
                 (A) (A) (A) (A) (A) (A) (A) (A) (A) (A) (A) (A)
                 (A) (A) (A) (A) (A) (A) (A) (A) (A) (A) (A) (A)
                 (A) (A) (A) (A) (A) (A) (A) (A) (A) (A) (A) (A)
                 (A) (A) (A) (A) (A) (A) (A) (A) (A) (A) (A) (A)
                 (A) (A) (A) (A) (A) (A) (A) (A) (A) (A) (A) (A)
                 (A) (A) (A) (A) (A) (A) (A) (A) (A) (A) (A) (A)
                 (A) (A) (A) (A) (A) (A) (A) (A) (A) (A) (A) (A)
                 (A) (A) (A) (A) (A) (A) (A) (A) (A) (A) (A) (A)
                 (A) (A) (A) (A) (A) (A) (A) (A) (A) (A) (A) (A)
                 (A) (A) (A) (A) (A) (A) (A) (A) (A) (A) (A) (A)
                 (A) (A) (A) (A) (A) (A) (A) (A) (A) (A) (A) (A)
                 (A) (A) (A) (A) (A) (A) (A) (A) (A) (A) (A) (A)
                 (A) (A) (A) (A) (A) (A) (A) (A) (A) (A) (A) (A)
                 (A) (A) (A) (A) (A) (A) (A) (A) (A) (A) (A) (A)
                 (A) (A) (A) (A) (A) (A) (A) (A) (A) (A) (A) (A)
                 (A) (A) (A) (A) (A) (A) (A) (A) (A) (A) (A) (A)
                 (A) (A) (A) (A) (A) (A) (A) (A) (A) (A) (A) (A)
                 (A) (A) (A) (A) (A) (A) (A) (A) (A) (A) (A) (A)
                 (A) (A) (A) (A) (A) (A) (A) (A) (A) (A) (A) (A)
                 (A) (A) (A) (A) (A) (A) (A) (A) (A) (A) (A) (A)
                 (A) (A) (A) (A) (A) (A) (A) (A) (A) (A) (A) (A)
                 (A) (A) (A) (A) (A) (A) (A) (A) (A) (A) (A) (A)
                 (A) (A) (A) (A) (A) (A) (A) (A) (A) (A) (A) (A)
                 (A) (A) (A) (A) (A) (A) (A) (A) (A) (A) (A) (A)
                 (A) (A) (A) (A) (A) (A) (A) (A) (A) (A) (A) (A)
                 (A) (A) (A) (A) (A) (A) (A) (A) (A) (A) (A) (A)
                 (A) (A) (A) (A) (A) (A) (A) (A) (A) (A) (A) (A)
                 (A) (A) (A) (A) (A) (A) (A) (A) (A) (A) (A) (A)
                 (A) (A) (A) (A) (A) (A) (A) (A) (A) (A) (A) (A)
                 (A) (A) (A) (A) (A) (A) (A) (A) (A) (A) (A) (A)
                 (A) (A) (A) (A) (A) (A) (A) (A) (A) (A) (A) (A)
                 (A) (A) (A) (A) (A) (A) (A) (A) (A) (A) (A) (A)
                 (A) (A) (A) (A) (A) (A) (A) (A) (A) (A) (A) (A)
                 (A) (A) (A) (A) (A) (A) (A) (A) (A) (A) (A) (A)
                 (A) (A) (A) (A) (A) (A) (A) (A) (A) (A) (A) (A)
                 (A) (A) (A) (A) (A) (A) (A) (A) (A) (A) (A) (A)
                 (A) (A) (A) (A) (A) (A) (A) (A) (A) (A) (A) (A)
                 (A) (A) (A) (A) (A) (A) (A) (A) (A) (A) (A) (A)
                 (A) (A) (A) (A) (A) (A) (A) (A) (A) (A) (A) (A)
                 (A) (A) (A) (A) (A) (A) (A) (A) (A) (A) (A) (A)
                 (A) (A) (A) (A) (A) (A) (A) (A) (A) (A) (A) (A)
                 (A) (A) (A) (A) (A) (A) (A) (A) (A) (A) (A) (A)
                 (A) (A) (A) (A) (A) (A) (A) (A) (A) (A) (A) (A)
                 (A) (A) (A) (A) (A) (A) (A) (A) (A) (A) (A) (A)
                 (A) (A) (A) (A) (A) (A) (A) (A) (A) (A) (A) (A)
                 (A) (A) (A) (A) (A) (A) (A) (A) (A) (A) (A) (A)
                 (A) (A) (A) (A) (A) (A) (A) (A) (A) (A) (A) (A)
                 (A) (A) (A) (A) (A) (A) (A) (A) (A) (A) (A) (A)
                 (A) (A) (A) (A) (A) (A) (A) (A) (A) (A) (A) (A)
                 (A) (A) (A) (A) (A) (A) (A) (A) (A) (A) (A) (A)
                 (A) (A) (A) (A) (A) (A) (A) (A) (A) (A) (A) (A)
                 (A) (A) (A) (A) (A) (A) (A) (A) (A) (A) (A) (A)
                 (A) (A) (A) (A) (A) (A) (A) (A) (A) (A) (A) (A)
                 (A) (A) (A) (A) (A) (A) (A) (A) (A) (A) (A) (A)
                 (A) (A) (A) (A) (A) (A) (A) (A) (A) (A) (A) (A)
                 (A) (A) (A) (A) (A) (A) (A) (A) (A) (A) (A) (A)
                 (A) (A) (A) (A) (A) (A) (A) (A) (A) (A) (A) (A)
                 (A) (A) (A) (A) (A) (A) (A) (A) (A) (A) (A) (A)
                 (A) (A) (A) (A) (A) (A) (A) (A) (A) (A) (A) (A)
                 (A) (A) (A) (A) (A) (A) (A) (A) (A) (A) (A) (A)
                 (A) (A) (A) (A) (A) (A) (A) (A) (A) (A) (A) (A)
                 (A) (A) (A) (A) (A) (A) (A) (A) (A) (A) (A) (A)
                 (A) (A) (A) (A) (A) (A) (A) (A) (A) (A) (A) (A)
                 (A) (A) (A) (A) (A) (A) (A) (A) (A) (A) (A) (A)
                 (A) (A) (A) (A) (A) (A) (A) (A) (A) (A) (A) (A)
                 (A) (A) (A) (A) (A) (A) (A) (A) (A) (A) (A) (A)
                 (A) (A) (A) (A) (A) (A) (A) (A) (A) (A) (A) (A)
                 (A) (A) (A) (A) (A) (A) (A) (A) (A) (A) (A) (A)
                 (A) (A) (A) (A) (A) (A) (A) (A) (A) (A) (A) (A)
                 (A) (A) (A) (A) (A) (A) (A) (A) (A) (A) (A) (A)
                 (A) (A) (A) (A) (A) (A) (A) (A) (A) (A) (A) (A)
                 (A) (A) (A) (A) (A) (A) (A) (A) (A) (A) (A) (A)
                 (A) (A) (A) (A) (A) (A) (A) (A) (A) (A) (A) (A)
                 (A) (A) (A) (A) (A) (A) (A) (A) (A) (A) (A) (A)
                 (A) (A) (A) (A) (A) (A) (A) (A) (A) (A) (A) (A)
                 (A) (A) (A) (A) (A) (A) (A) (A) (A) (A) (A) (A)
                 (A) (A) (A) (A) (A) (A) (A) (A) (A) (A) (A) (A)
                 (A) (A) (A) (A) (A) (A) (A) (A) (A) (A) (A) (A)
                 (A) (A) (A) (A) (A) (A) (A) (A) (A) (A) (A) (A)
                 (A) (A) (A) (A) (A) (A) (A) (A) (A) (A) (A) (A)
                 (A) (A) (A) (A) (A) (A) (A) (A) (A) (A) (A) (A)
                 (A) (A) (A) (A) (A) (A) (A) (A) (A) (A) (A) (A)
                 (A) (A) (A) (A) (A) (A) (A) (A) (A) (A) (A) (A)
                 (A) (A) (A) (A) (A) (A) (A) (A) (A) (A) (A) (A)
                 (A) (A) (A) (A) (A) (A)
 The electronic state is 1-A.
 Alpha  occ. eigenvalues --  -46.84500 -19.26600 -19.24699 -19.21795 -19.20347
 Alpha  occ. eigenvalues --  -19.18830 -14.41283 -14.40499 -14.39540 -14.38737
 Alpha  occ. eigenvalues --  -10.39369 -10.38390 -10.35044 -10.31794 -10.31590
 Alpha  occ. eigenvalues --  -10.31133 -10.30931 -10.30782 -10.29460 -10.29063
 Alpha  occ. eigenvalues --  -10.28814 -10.28696 -10.28684 -10.28601 -10.28460
 Alpha  occ. eigenvalues --  -10.28294 -10.28200 -10.28124 -10.28114 -10.28098
 Alpha  occ. eigenvalues --  -10.27954 -10.27897 -10.27597 -10.27300 -10.27284
 Alpha  occ. eigenvalues --  -10.27081 -10.26850 -10.26826 -10.26816 -10.26694
 Alpha  occ. eigenvalues --  -10.26374 -10.26330 -10.26261 -10.26173 -10.26165
 Alpha  occ. eigenvalues --  -10.26158 -10.25996 -10.25815 -10.25777 -10.25623
 Alpha  occ. eigenvalues --  -10.25508 -10.25462 -10.25409 -10.25355 -10.25338
 Alpha  occ. eigenvalues --  -10.25260 -10.25211 -10.24792 -10.24551 -10.24532
 Alpha  occ. eigenvalues --  -10.24449 -10.24272 -10.24187 -10.23455 -10.23129
 Alpha  occ. eigenvalues --   -3.13390  -1.88111  -1.87621  -1.87559  -1.18577
 Alpha  occ. eigenvalues --   -1.15212  -1.12419  -1.07939  -1.05072  -1.04812
 Alpha  occ. eigenvalues --   -1.02397  -1.01470  -1.00737  -0.91918  -0.91245
 Alpha  occ. eigenvalues --   -0.91004  -0.90433  -0.90345  -0.89859  -0.89783
 Alpha  occ. eigenvalues --   -0.89449  -0.87785  -0.87121  -0.86616  -0.86497
 Alpha  occ. eigenvalues --   -0.85110  -0.84531  -0.83717  -0.82906  -0.82608
 Alpha  occ. eigenvalues --   -0.81750  -0.80685  -0.80281  -0.79794  -0.78207
 Alpha  occ. eigenvalues --   -0.77880  -0.77308  -0.76613  -0.76471  -0.75372
 Alpha  occ. eigenvalues --   -0.75187  -0.74554  -0.74155  -0.73615  -0.73040
 Alpha  occ. eigenvalues --   -0.71796  -0.70617  -0.70046  -0.69106  -0.67606
 Alpha  occ. eigenvalues --   -0.67153  -0.66388  -0.65099  -0.64906  -0.64874
 Alpha  occ. eigenvalues --   -0.64168  -0.63906  -0.63882  -0.63293  -0.62930
 Alpha  occ. eigenvalues --   -0.60927  -0.60393  -0.59804  -0.59199  -0.58994
 Alpha  occ. eigenvalues --   -0.58420  -0.58032  -0.57802  -0.57499  -0.56306
 Alpha  occ. eigenvalues --   -0.56178  -0.55370  -0.55180  -0.55041  -0.54418
 Alpha  occ. eigenvalues --   -0.54205  -0.54006  -0.53717  -0.53509  -0.52746
 Alpha  occ. eigenvalues --   -0.52520  -0.52232  -0.51939  -0.51652  -0.51498
 Alpha  occ. eigenvalues --   -0.51280  -0.51003  -0.50728  -0.50417  -0.50340
 Alpha  occ. eigenvalues --   -0.50282  -0.49984  -0.49948  -0.49637  -0.49430
 Alpha  occ. eigenvalues --   -0.49175  -0.48911  -0.48748  -0.48489  -0.48345
 Alpha  occ. eigenvalues --   -0.48280  -0.48068  -0.47490  -0.47433  -0.47216
 Alpha  occ. eigenvalues --   -0.47110  -0.46935  -0.46734  -0.46386  -0.45961
 Alpha  occ. eigenvalues --   -0.45529  -0.45419  -0.45285  -0.45221  -0.44944
 Alpha  occ. eigenvalues --   -0.44865  -0.44736  -0.44644  -0.44290  -0.44220
 Alpha  occ. eigenvalues --   -0.44075  -0.43752  -0.43491  -0.43377  -0.43201
 Alpha  occ. eigenvalues --   -0.43153  -0.42991  -0.42843  -0.42680  -0.42507
 Alpha  occ. eigenvalues --   -0.42203  -0.42105  -0.41920  -0.41626  -0.41586
 Alpha  occ. eigenvalues --   -0.41256  -0.40770  -0.40640  -0.40407  -0.40339
 Alpha  occ. eigenvalues --   -0.40084  -0.39798  -0.39753  -0.39349  -0.39331
 Alpha  occ. eigenvalues --   -0.38687  -0.38553  -0.38305  -0.37937  -0.37690
 Alpha  occ. eigenvalues --   -0.37462  -0.37453  -0.37036  -0.36833  -0.36596
 Alpha  occ. eigenvalues --   -0.36347  -0.36056  -0.35897  -0.35689  -0.35022
 Alpha  occ. eigenvalues --   -0.34800  -0.34634  -0.34411  -0.33842  -0.33147
 Alpha  occ. eigenvalues --   -0.32824  -0.31948  -0.31561  -0.31080  -0.30223
 Alpha  occ. eigenvalues --   -0.29588  -0.29490  -0.28565  -0.27120  -0.23273
 Alpha  occ. eigenvalues --   -0.21491
 Alpha virt. eigenvalues --   -0.07054  -0.02706   0.02515   0.04366   0.05519
 Alpha virt. eigenvalues --    0.06321   0.06360   0.06430   0.07004   0.07119
 Alpha virt. eigenvalues --    0.08871   0.10796   0.11475   0.11704   0.11921
 Alpha virt. eigenvalues --    0.12097   0.12401   0.12878   0.12915   0.13033
 Alpha virt. eigenvalues --    0.13410   0.13500   0.13685   0.13878   0.14371
 Alpha virt. eigenvalues --    0.14486   0.14731   0.14942   0.15627   0.15640
 Alpha virt. eigenvalues --    0.15698   0.15826   0.15961   0.16166   0.16516
 Alpha virt. eigenvalues --    0.16938   0.16990   0.17229   0.17422   0.17570
 Alpha virt. eigenvalues --    0.17736   0.17760   0.18110   0.18139   0.18447
 Alpha virt. eigenvalues --    0.18493   0.18677   0.18983   0.19073   0.19155
 Alpha virt. eigenvalues --    0.19210   0.19380   0.19458   0.19574   0.20066
 Alpha virt. eigenvalues --    0.20126   0.20377   0.20524   0.20681   0.20752
 Alpha virt. eigenvalues --    0.20998   0.21198   0.21466   0.21590   0.22000
 Alpha virt. eigenvalues --    0.22075   0.22173   0.22303   0.22458   0.22832
 Alpha virt. eigenvalues --    0.23004   0.23277   0.23366   0.23559   0.23711
 Alpha virt. eigenvalues --    0.23867   0.24126   0.24188   0.24391   0.24448
 Alpha virt. eigenvalues --    0.24704   0.24912   0.25105   0.25201   0.25384
 Alpha virt. eigenvalues --    0.25494   0.25686   0.25800   0.26163   0.26269
 Alpha virt. eigenvalues --    0.26766   0.26915   0.27003   0.27159   0.27326
 Alpha virt. eigenvalues --    0.27717   0.27796   0.28085   0.28355   0.28553
 Alpha virt. eigenvalues --    0.28932   0.29070   0.29304   0.29504   0.29677
 Alpha virt. eigenvalues --    0.29851   0.30161   0.30299   0.30561   0.30626
 Alpha virt. eigenvalues --    0.30782   0.31263   0.31469   0.31550   0.31764
 Alpha virt. eigenvalues --    0.31948   0.32264   0.32563   0.32979   0.33222
 Alpha virt. eigenvalues --    0.33449   0.33576   0.33859   0.34247   0.34612
 Alpha virt. eigenvalues --    0.34880   0.35166   0.35236   0.35899   0.36215
 Alpha virt. eigenvalues --    0.36409   0.36773   0.37095   0.37207   0.37683
 Alpha virt. eigenvalues --    0.38319   0.39118   0.39401   0.40249   0.40468
 Alpha virt. eigenvalues --    0.40614   0.41320   0.41606   0.42015   0.42470
 Alpha virt. eigenvalues --    0.42561   0.42855   0.43978   0.44163   0.45815
 Alpha virt. eigenvalues --    0.46924   0.46972   0.47308   0.48058   0.48524
 Alpha virt. eigenvalues --    0.50076   0.50436   0.51189   0.51771   0.52083
 Alpha virt. eigenvalues --    0.52833   0.53110   0.53184   0.53635   0.53880
 Alpha virt. eigenvalues --    0.54019   0.54324   0.54850   0.55231   0.55567
 Alpha virt. eigenvalues --    0.55604   0.55997   0.56392   0.56785   0.57032
 Alpha virt. eigenvalues --    0.57118   0.57617   0.57805   0.57834   0.57942
 Alpha virt. eigenvalues --    0.58008   0.58096   0.58351   0.58568   0.58752
 Alpha virt. eigenvalues --    0.58925   0.58941   0.59353   0.59681   0.59930
 Alpha virt. eigenvalues --    0.60191   0.60323   0.60465   0.60992   0.61333
 Alpha virt. eigenvalues --    0.61619   0.61745   0.61975   0.62077   0.62378
 Alpha virt. eigenvalues --    0.62716   0.63051   0.63499   0.63693   0.63999
 Alpha virt. eigenvalues --    0.64207   0.64590   0.64803   0.64948   0.65138
 Alpha virt. eigenvalues --    0.65414   0.65659   0.65908   0.66332   0.66483
 Alpha virt. eigenvalues --    0.66736   0.66916   0.67180   0.67534   0.67927
 Alpha virt. eigenvalues --    0.67993   0.68156   0.68412   0.68677   0.69063
 Alpha virt. eigenvalues --    0.69187   0.69616   0.69999   0.70347   0.70535
 Alpha virt. eigenvalues --    0.70614   0.70956   0.70982   0.71302   0.71743
 Alpha virt. eigenvalues --    0.72072   0.72381   0.72698   0.73186   0.73286
 Alpha virt. eigenvalues --    0.73395   0.73592   0.73850   0.73962   0.73966
 Alpha virt. eigenvalues --    0.74295   0.74697   0.74900   0.74982   0.75482
 Alpha virt. eigenvalues --    0.75676   0.75939   0.76075   0.76228   0.76491
 Alpha virt. eigenvalues --    0.76916   0.77093   0.77472   0.77596   0.77981
 Alpha virt. eigenvalues --    0.78212   0.78659   0.78913   0.78968   0.79106
 Alpha virt. eigenvalues --    0.79616   0.79986   0.80209   0.80364   0.80671
 Alpha virt. eigenvalues --    0.80909   0.81347   0.81541   0.82163   0.82304
 Alpha virt. eigenvalues --    0.82389   0.82853   0.82976   0.83079   0.83411
 Alpha virt. eigenvalues --    0.83514   0.84021   0.84247   0.84351   0.84598
 Alpha virt. eigenvalues --    0.85012   0.85203   0.85354   0.85562   0.85819
 Alpha virt. eigenvalues --    0.86002   0.86044   0.86302   0.86523   0.86722
 Alpha virt. eigenvalues --    0.86928   0.87266   0.87481   0.87634   0.87864
 Alpha virt. eigenvalues --    0.87996   0.88205   0.88287   0.88613   0.88977
 Alpha virt. eigenvalues --    0.89317   0.89374   0.89633   0.89794   0.89946
 Alpha virt. eigenvalues --    0.90030   0.90154   0.90248   0.90386   0.90679
 Alpha virt. eigenvalues --    0.91132   0.91275   0.91327   0.91560   0.91656
 Alpha virt. eigenvalues --    0.92024   0.92234   0.92428   0.92673   0.92748
 Alpha virt. eigenvalues --    0.93217   0.93484   0.93579   0.93800   0.93989
 Alpha virt. eigenvalues --    0.94034   0.94347   0.94424   0.94831   0.95030
 Alpha virt. eigenvalues --    0.95146   0.95399   0.95633   0.95766   0.95941
 Alpha virt. eigenvalues --    0.96130   0.96313   0.96495   0.96630   0.97148
 Alpha virt. eigenvalues --    0.97198   0.97312   0.97480   0.97584   0.97762
 Alpha virt. eigenvalues --    0.98222   0.98416   0.98474   0.98748   0.98769
 Alpha virt. eigenvalues --    0.99048   0.99230   0.99399   0.99570   0.99989
 Alpha virt. eigenvalues --    1.00300   1.00768   1.00879   1.00915   1.01295
 Alpha virt. eigenvalues --    1.01515   1.01612   1.01672   1.02053   1.02727
 Alpha virt. eigenvalues --    1.03000   1.03164   1.03202   1.03419   1.03578
 Alpha virt. eigenvalues --    1.04171   1.04407   1.04580   1.04743   1.04752
 Alpha virt. eigenvalues --    1.05071   1.05236   1.05351   1.05672   1.06071
 Alpha virt. eigenvalues --    1.06584   1.07072   1.07291   1.07561   1.07808
 Alpha virt. eigenvalues --    1.08081   1.08115   1.08532   1.08782   1.09174
 Alpha virt. eigenvalues --    1.09471   1.09519   1.09738   1.09832   1.10429
 Alpha virt. eigenvalues --    1.10494   1.11086   1.11400   1.11794   1.12118
 Alpha virt. eigenvalues --    1.12437   1.12772   1.12975   1.13408   1.14794
 Alpha virt. eigenvalues --    1.15463   1.15859   1.15976   1.16122   1.17426
 Alpha virt. eigenvalues --    1.17994   1.18213   1.19263   1.19669   1.19997
 Alpha virt. eigenvalues --    1.20397   1.20764   1.21228   1.21540   1.21776
 Alpha virt. eigenvalues --    1.22578   1.23432   1.23652   1.23896   1.24852
 Alpha virt. eigenvalues --    1.25321   1.25388   1.26281   1.26649   1.27154
 Alpha virt. eigenvalues --    1.28011   1.28915   1.29071   1.29727   1.30030
 Alpha virt. eigenvalues --    1.30416   1.30707   1.31279   1.31874   1.32068
 Alpha virt. eigenvalues --    1.32806   1.33499   1.33716   1.34128   1.35031
 Alpha virt. eigenvalues --    1.35887   1.36129   1.36802   1.37537   1.38223
 Alpha virt. eigenvalues --    1.38736   1.39019   1.39699   1.40441   1.40728
 Alpha virt. eigenvalues --    1.41053   1.41060   1.41832   1.42063   1.42957
 Alpha virt. eigenvalues --    1.43294   1.43962   1.44856   1.45034   1.45393
 Alpha virt. eigenvalues --    1.45587   1.46350   1.46676   1.47543   1.47654
 Alpha virt. eigenvalues --    1.47872   1.48308   1.48511   1.49563   1.49746
 Alpha virt. eigenvalues --    1.50625   1.51469   1.51998   1.52268   1.52689
 Alpha virt. eigenvalues --    1.53036   1.53847   1.54083   1.54397   1.54982
 Alpha virt. eigenvalues --    1.55312   1.55911   1.56022   1.56503   1.56882
 Alpha virt. eigenvalues --    1.56927   1.57151   1.57618   1.59627   1.59798
 Alpha virt. eigenvalues --    1.60075   1.60349   1.60815   1.61327   1.61565
 Alpha virt. eigenvalues --    1.61905   1.62075   1.62342   1.63199   1.63294
 Alpha virt. eigenvalues --    1.63358   1.64081   1.64397   1.64876   1.64988
 Alpha virt. eigenvalues --    1.65283   1.65441   1.65864   1.66570   1.66694
 Alpha virt. eigenvalues --    1.67079   1.67477   1.67746   1.68346   1.68507
 Alpha virt. eigenvalues --    1.68948   1.69622   1.70022   1.70394   1.71310
 Alpha virt. eigenvalues --    1.71352   1.71855   1.72708   1.73144   1.73554
 Alpha virt. eigenvalues --    1.73987   1.74343   1.74838   1.75555   1.76188
 Alpha virt. eigenvalues --    1.76314   1.76462   1.76836   1.77080   1.77155
 Alpha virt. eigenvalues --    1.78012   1.78415   1.78851   1.79159   1.79381
 Alpha virt. eigenvalues --    1.79749   1.79861   1.80440   1.80519   1.80963
 Alpha virt. eigenvalues --    1.81043   1.81824   1.82418   1.82729   1.83325
 Alpha virt. eigenvalues --    1.83675   1.84388   1.84769   1.84827   1.85155
 Alpha virt. eigenvalues --    1.85563   1.86084   1.86237   1.86302   1.86772
 Alpha virt. eigenvalues --    1.87013   1.87078   1.87460   1.87675   1.88036
 Alpha virt. eigenvalues --    1.88780   1.88881   1.89266   1.89499   1.89701
 Alpha virt. eigenvalues --    1.89795   1.90461   1.90723   1.90975   1.91147
 Alpha virt. eigenvalues --    1.91480   1.91523   1.91699   1.92209   1.92584
 Alpha virt. eigenvalues --    1.92851   1.93017   1.93187   1.93340   1.93639
 Alpha virt. eigenvalues --    1.93812   1.94121   1.94247   1.94962   1.95052
 Alpha virt. eigenvalues --    1.95154   1.95568   1.95772   1.96206   1.96372
 Alpha virt. eigenvalues --    1.96503   1.96607   1.96994   1.97294   1.97634
 Alpha virt. eigenvalues --    1.97839   1.98029   1.98145   1.98279   1.98718
 Alpha virt. eigenvalues --    1.99379   1.99631   1.99823   2.00326   2.00490
 Alpha virt. eigenvalues --    2.00788   2.00848   2.01494   2.01581   2.01966
 Alpha virt. eigenvalues --    2.02263   2.02473   2.02554   2.02932   2.03232
 Alpha virt. eigenvalues --    2.03352   2.03812   2.03995   2.04311   2.04591
 Alpha virt. eigenvalues --    2.04818   2.05223   2.05623   2.06017   2.06091
 Alpha virt. eigenvalues --    2.06443   2.06704   2.06932   2.07160   2.07664
 Alpha virt. eigenvalues --    2.07824   2.08298   2.08536   2.09141   2.09206
 Alpha virt. eigenvalues --    2.09325   2.09622   2.10071   2.10510   2.11020
 Alpha virt. eigenvalues --    2.11099   2.11366   2.11505   2.11917   2.12141
 Alpha virt. eigenvalues --    2.12321   2.12828   2.13227   2.13831   2.13952
 Alpha virt. eigenvalues --    2.14285   2.14653   2.14775   2.14986   2.15448
 Alpha virt. eigenvalues --    2.15516   2.15783   2.16142   2.16726   2.16818
 Alpha virt. eigenvalues --    2.17028   2.17164   2.17827   2.18206   2.18463
 Alpha virt. eigenvalues --    2.18821   2.18874   2.19125   2.19563   2.19806
 Alpha virt. eigenvalues --    2.20136   2.20349   2.20735   2.20931   2.21043
 Alpha virt. eigenvalues --    2.21537   2.21879   2.22046   2.22278   2.22561
 Alpha virt. eigenvalues --    2.22972   2.23190   2.23831   2.24024   2.24534
 Alpha virt. eigenvalues --    2.24847   2.25052   2.25425   2.25457   2.25829
 Alpha virt. eigenvalues --    2.26076   2.26239   2.26550   2.26809   2.27124
 Alpha virt. eigenvalues --    2.27516   2.28295   2.29004   2.29650   2.29841
 Alpha virt. eigenvalues --    2.30190   2.30680   2.31097   2.31421   2.31516
 Alpha virt. eigenvalues --    2.31755   2.32067   2.32495   2.32817   2.33251
 Alpha virt. eigenvalues --    2.33563   2.34074   2.34265   2.34370   2.34686
 Alpha virt. eigenvalues --    2.35264   2.35387   2.36028   2.36278   2.36296
 Alpha virt. eigenvalues --    2.36480   2.36742   2.37481   2.37861   2.38181
 Alpha virt. eigenvalues --    2.38393   2.38796   2.39060   2.39080   2.39607
 Alpha virt. eigenvalues --    2.39742   2.39905   2.40135   2.40652   2.40774
 Alpha virt. eigenvalues --    2.40881   2.41525   2.41671   2.41960   2.42031
 Alpha virt. eigenvalues --    2.42316   2.42502   2.42858   2.43412   2.43415
 Alpha virt. eigenvalues --    2.43954   2.44128   2.44790   2.44996   2.45122
 Alpha virt. eigenvalues --    2.45542   2.45648   2.46636   2.46862   2.47016
 Alpha virt. eigenvalues --    2.47560   2.47599   2.47848   2.48431   2.48950
 Alpha virt. eigenvalues --    2.49333   2.49487   2.49942   2.50245   2.50591
 Alpha virt. eigenvalues --    2.50693   2.50849   2.50985   2.51793   2.52126
 Alpha virt. eigenvalues --    2.52557   2.52740   2.52956   2.53522   2.53843
 Alpha virt. eigenvalues --    2.54125   2.54575   2.55157   2.55588   2.55839
 Alpha virt. eigenvalues --    2.56007   2.56504   2.56588   2.56785   2.57336
 Alpha virt. eigenvalues --    2.57685   2.58091   2.59327   2.59773   2.60483
 Alpha virt. eigenvalues --    2.60950   2.61104   2.61225   2.61449   2.62035
 Alpha virt. eigenvalues --    2.62382   2.63104   2.63208   2.63325   2.63939
 Alpha virt. eigenvalues --    2.64086   2.64824   2.65271   2.65330   2.65595
 Alpha virt. eigenvalues --    2.65813   2.66180   2.66470   2.66695   2.67092
 Alpha virt. eigenvalues --    2.67525   2.67995   2.68584   2.68735   2.69151
 Alpha virt. eigenvalues --    2.69329   2.69823   2.70033   2.70337   2.70567
 Alpha virt. eigenvalues --    2.70970   2.71590   2.71810   2.71852   2.72197
 Alpha virt. eigenvalues --    2.72636   2.73277   2.73654   2.73981   2.74112
 Alpha virt. eigenvalues --    2.74699   2.74858   2.75178   2.75645   2.76057
 Alpha virt. eigenvalues --    2.76227   2.76665   2.76904   2.77129   2.77181
 Alpha virt. eigenvalues --    2.77558   2.77715   2.78615   2.78837   2.79298
 Alpha virt. eigenvalues --    2.79647   2.80074   2.80175   2.80526   2.80841
 Alpha virt. eigenvalues --    2.81113   2.81313   2.82097   2.82384   2.82441
 Alpha virt. eigenvalues --    2.82884   2.83137   2.83281   2.83598   2.83916
 Alpha virt. eigenvalues --    2.84089   2.84314   2.84568   2.84764   2.85352
 Alpha virt. eigenvalues --    2.85513   2.86236   2.86628   2.87235   2.87546
 Alpha virt. eigenvalues --    2.88074   2.88103   2.88215   2.88752   2.89388
 Alpha virt. eigenvalues --    2.90184   2.90452   2.90740   2.90910   2.91044
 Alpha virt. eigenvalues --    2.91589   2.91891   2.92232   2.92288   2.92982
 Alpha virt. eigenvalues --    2.93177   2.93727   2.94017   2.94191   2.94801
 Alpha virt. eigenvalues --    2.95090   2.95334   2.96110   2.96400   2.96710
 Alpha virt. eigenvalues --    2.96937   2.97257   2.97495   2.97888   2.98420
 Alpha virt. eigenvalues --    2.98530   2.99114   2.99522   3.00150   3.00578
 Alpha virt. eigenvalues --    3.00805   3.00963   3.01041   3.01580   3.01646
 Alpha virt. eigenvalues --    3.02716   3.03379   3.04313   3.04324   3.04438
 Alpha virt. eigenvalues --    3.04780   3.04869   3.05442   3.05994   3.06443
 Alpha virt. eigenvalues --    3.06563   3.07240   3.07959   3.08163   3.08853
 Alpha virt. eigenvalues --    3.10003   3.10321   3.10618   3.11442   3.11608
 Alpha virt. eigenvalues --    3.12005   3.12596   3.13082   3.13651   3.14665
 Alpha virt. eigenvalues --    3.16515   3.16589   3.17626   3.17912   3.19100
 Alpha virt. eigenvalues --    3.19606   3.20139   3.21001   3.22606   3.22883
 Alpha virt. eigenvalues --    3.23224   3.23748   3.25087   3.25130   3.26183
 Alpha virt. eigenvalues --    3.26927   3.27434   3.28319   3.29439   3.29769
 Alpha virt. eigenvalues --    3.31263   3.32006   3.32771   3.33216   3.34320
 Alpha virt. eigenvalues --    3.34648   3.35064   3.35910   3.36030   3.36411
 Alpha virt. eigenvalues --    3.36549   3.36757   3.37908   3.38505   3.39427
 Alpha virt. eigenvalues --    3.41044   3.41997   3.42729   3.42998   3.43484
 Alpha virt. eigenvalues --    3.45403   3.45778   3.46371   3.46831   3.47849
 Alpha virt. eigenvalues --    3.47986   3.48495   3.48747   3.49156   3.49340
 Alpha virt. eigenvalues --    3.49632   3.50025   3.50353   3.50666   3.51406
 Alpha virt. eigenvalues --    3.51634   3.52276   3.53299   3.54859   3.55052
 Alpha virt. eigenvalues --    3.55297   3.56939   3.57652   3.59158   3.59695
 Alpha virt. eigenvalues --    3.59762   3.59972   3.61393   3.61725   3.64128
 Alpha virt. eigenvalues --    3.65748   3.66856   3.67901   3.68933   3.70076
 Alpha virt. eigenvalues --    3.70747   3.73256   3.73826   3.80097   3.80820
 Alpha virt. eigenvalues --    3.81816   3.86395   3.91986   4.00694   4.06494
 Alpha virt. eigenvalues --    4.08542   4.10765   4.19380   4.20121   4.21539
 Alpha virt. eigenvalues --    4.22998   4.24557   4.25033   4.26716   4.26930
 Alpha virt. eigenvalues --    4.28805   4.29728   4.30425   4.31042   4.32047
 Alpha virt. eigenvalues --    4.34205   4.35335   4.36448   4.37657   4.38242
 Alpha virt. eigenvalues --    4.39558   4.40397   4.41034   4.42766   4.44097
 Alpha virt. eigenvalues --    4.44991   4.45944   4.47967   4.48390   4.49759
 Alpha virt. eigenvalues --    4.51669   4.53492   4.54021   4.54846   4.55596
 Alpha virt. eigenvalues --    4.56267   4.57433   4.57864   4.58852   4.60162
 Alpha virt. eigenvalues --    4.61058   4.61469   4.61774   4.63704   4.68709
 Alpha virt. eigenvalues --    4.69645   4.70648   4.72142   4.72863   4.73284
 Alpha virt. eigenvalues --    4.75107   4.75252   4.77371   4.80346   4.82186
 Alpha virt. eigenvalues --    4.84228   4.85691   4.85847   4.87594   4.88291
 Alpha virt. eigenvalues --    4.88772   4.93466   5.02293
          Condensed to atoms (all electrons):
 Mulliken charges:
               1
     1  Mg   0.818974
     2  C    0.110647
     3  C   -0.203723
     4  C   -0.187678
     5  C   -0.128978
     6  N   -0.662633
     7  C    0.257198
     8  C   -0.135652
     9  C   -0.161113
    10  C    0.373184
    11  C   -0.308737
    12  C   -0.173308
    13  C   -0.260413
    14  C    0.568085
    15  O   -0.525629
    16  O   -0.463687
    17  N   -0.682395
    18  C    0.296314
    19  C    0.085368
    20  C    0.017693
    21  C    0.292650
    22  C   -0.420973
    23  C   -0.075447
    24  C   -0.237416
    25  N   -0.718947
    26  C    0.330902
    27  C    0.016983
    28  C    0.017111
    29  C    0.302259
    30  C   -0.379679
    31  C   -0.229041
    32  C   -0.304828
    33  N   -0.693172
    34  C    0.185223
    35  C    0.069095
    36  C   -0.055717
    37  C    0.294703
    38  C   -0.396139
    39  C    0.371946
    40  O   -0.425230
    41  C   -0.322653
    42  C    0.629438
    43  O   -0.467862
    44  O   -0.488718
    45  C   -0.086925
    46  C    0.013002
    47  C   -0.098286
    48  C    0.036298
    49  C   -0.356548
    50  C   -0.202386
    51  C   -0.171130
    52  C   -0.175839
    53  C   -0.049123
    54  C   -0.310618
    55  C   -0.175699
    56  C   -0.182592
    57  C   -0.169515
    58  C   -0.031850
    59  C   -0.327672
    60  C   -0.170847
    61  C   -0.177567
    62  C   -0.179898
    63  C   -0.033751
    64  C   -0.315087
    65  C   -0.316894
    66  H    0.082817
    67  H    0.080879
    68  H    0.087542
    69  H    0.130446
    70  H    0.103430
    71  H    0.115295
    72  H    0.079001
    73  H    0.128068
    74  H    0.119572
    75  H    0.105822
    76  H    0.121927
    77  H    0.135086
    78  H    0.132334
    79  H    0.111988
    80  H    0.119377
    81  H    0.102356
    82  H    0.102962
    83  H    0.113430
    84  H    0.116610
    85  H    0.103956
    86  H    0.112818
    87  H    0.109455
    88  H    0.084661
    89  H    0.087204
    90  H    0.124558
    91  H    0.115274
    92  H    0.098338
    93  H    0.143211
    94  H    0.138801
    95  H    0.165290
    96  H    0.139598
    97  H    0.134301
    98  H    0.132209
    99  H    0.152217
   100  H    0.137207
   101  H    0.105250
   102  H    0.115634
   103  H    0.113590
   104  H    0.135675
   105  H    0.113079
   106  H    0.072422
   107  H    0.102794
   108  H    0.079308
   109  H    0.099949
   110  H    0.073599
   111  H    0.096009
   112  H    0.106899
   113  H    0.094892
   114  H    0.114154
   115  H    0.102178
   116  H    0.067364
   117  H    0.097679
   118  H    0.056861
   119  H    0.075901
   120  H    0.092896
   121  H    0.093418
   122  H    0.090141
   123  H    0.110586
   124  H    0.098929
   125  H    0.071138
   126  H    0.087772
   127  H    0.104025
   128  H    0.086270
   129  H    0.068990
   130  H    0.087096
   131  H    0.101584
   132  H    0.080034
   133  H    0.105116
   134  H    0.081601
   135  H    0.092367
   136  H    0.101128
   137  H    0.110553
 Sum of Mulliken charges =   0.00000
 Mulliken charges with hydrogens summed into heavy atoms:
               1
     1  Mg   0.818974
     2  C    0.110647
     3  C   -0.120906
     4  C   -0.106799
     5  C   -0.041436
     6  N   -0.662633
     7  C    0.257198
     8  C   -0.005206
     9  C   -0.057683
    10  C    0.373184
    11  C    0.013626
    12  C    0.052087
    13  C   -0.003400
    14  C    0.568085
    15  O   -0.525629
    16  O   -0.463687
    17  N   -0.682395
    18  C    0.296314
    19  C    0.085368
    20  C    0.017693
    21  C    0.292650
    22  C   -0.057274
    23  C    0.026909
    24  C   -0.021025
    25  N   -0.718947
    26  C    0.330902
    27  C    0.016983
    28  C    0.017111
    29  C    0.302259
    30  C   -0.046295
    31  C   -0.034925
    32  C    0.022208
    33  N   -0.693172
    34  C    0.185223
    35  C    0.069095
    36  C   -0.055717
    37  C    0.294703
    38  C   -0.015789
    39  C    0.371946
    40  O   -0.425230
    41  C   -0.157363
    42  C    0.629438
    43  O   -0.467862
    44  O   -0.488718
    45  C    0.319183
    46  C    0.302427
    47  C    0.006964
    48  C    0.036298
    49  C    0.008350
    50  C   -0.016886
    51  C    0.010973
    52  C   -0.002292
    53  C    0.046886
    54  C    0.005326
    55  C   -0.006157
    56  C   -0.028051
    57  C   -0.000718
    58  C    0.061568
    59  C   -0.028016
    60  C   -0.011937
    61  C    0.012728
    62  C   -0.023812
    63  C    0.067834
    64  C   -0.048336
    65  C   -0.012846
 Electronic spatial extent (au):  <R**2>=         179874.8967
 Charge=              0.0000 electrons
 Dipole moment (field-independent basis, Debye):
    X=              1.9937    Y=              5.3743    Z=             -0.1077  Tot=              5.7332
 Quadrupole moment (field-independent basis, Debye-Ang):
   XX=           -339.2433   YY=           -386.0968   ZZ=           -400.3155
   XY=            -25.1683   XZ=              8.2147   YZ=             -1.1315
 Traceless Quadrupole moment (field-independent basis, Debye-Ang):
   XX=             35.9753   YY=            -10.8783   ZZ=            -25.0970
   XY=            -25.1683   XZ=              8.2147   YZ=             -1.1315
 Octapole moment (field-independent basis, Debye-Ang**2):
  XXX=           -518.4792  YYY=            147.6050  ZZZ=              6.4786  XYY=           -126.0494
  XXY=             48.3212  XXZ=           -202.3873  XZZ=              9.0057  YZZ=            -33.5453
  YYZ=             30.7398  XYZ=            -67.2256
 Hexadecapole moment (field-independent basis, Debye-Ang**3):
 XXXX=        -217671.7145 YYYY=         -17498.6890 ZZZZ=          -4462.8014 XXXY=          -1469.1579
 XXXZ=           1227.8130 YYYX=          -1175.3867 YYYZ=           -149.6276 ZZZX=             63.4028
 ZZZY=           -146.7996 XXYY=         -39931.6375 XXZZ=         -39070.1446 YYZZ=          -3673.6871
 XXYZ=           -140.1570 YYXZ=             25.1257 ZZXY=            175.9638
 N-N= 8.706882856053D+03 E-N=-2.423726149541D+04  KE= 2.905883391272D+03
 1\1\GINC-PEDRO-RYZENSSD\SP\RCAM-B3LYP TD-FC\6-31G(d,p)\C55H72Mg1N4O5\P
 ADAWAN\29-Jun-2019\0\\# td=(NStates=1) CAM-B3LYP/6-31G(d,p)\\TD\\0,1\M
 g,0,-7.2060722765,0.5409223329,0.1085589045\C,0,-4.7850573868,-1.89722
 18335,0.5673823731\C,0,-4.873616668,2.8868730146,1.2722906863\C,0,-9.5
 105356424,3.0198843878,-0.2338147145\C,0,-9.5826592935,-1.8169218672,-
 0.8087989949\N,0,-5.1278555672,0.4643576963,0.8254500654\C,0,-4.347412
 3465,-0.6910897294,0.7634882516\C,0,-2.8596269239,-0.2996652386,1.1391
 993611\C,0,-3.0112614153,1.2261637489,1.5828210885\C,0,-4.4327613628,1
 .5983702174,1.2425405153\C,0,-2.7012779188,1.3949359809,3.0770512312\C
 ,0,-1.9076650474,-0.6022842385,0.0871280386\C,0,-0.41986024,-0.4880170
 331,0.4311316961\C,0,0.6215815366,-0.5031637485,-0.6891805699\O,0,0.27
 01175615,-0.8551669205,-1.8704663269\O,0,1.8417311981,-0.4810630131,-0
 .2639706172\N,0,-7.1845860671,2.5953009374,0.3146666235\C,0,-6.1347206
 031,3.3756985238,0.82366035\C,0,-6.5386218519,4.8171523456,1.072505015
 \C,0,-7.8126118566,4.8633662233,0.5825851655\C,0,-8.273157869,3.499300
 2213,0.2401043496\C,0,-5.6947052517,5.8722183131,1.5082273479\C,0,-8.6
 866178742,6.0697120392,0.4602760495\C,0,-8.1802772255,7.2605021345,0.1
 645521929\N,0,-9.1718922249,0.6584223205,-0.4965313584\C,0,-9.93603526
 25,1.8032010027,-0.5346485891\C,0,-11.1921239553,1.4212031107,-1.21934
 66843\C,0,-11.2066991906,0.0117150488,-1.2818274489\C,0,-9.9591457983,
 -0.4785863467,-0.9331726202\C,0,-12.3255908012,2.3544377247,-1.5047310
 04\C,0,-12.23414346,-0.7910401662,-1.8520003772\C,0,-12.1732536574,-0.
 9955134365,-3.378635969\N,0,-7.2563918913,-1.4771070723,-0.0551886376\
 C,0,-8.2028955119,-2.3168776273,-0.5486526712\C,0,-7.7655842259,-3.701
 5443373,-0.6222206511\C,0,-6.4558411061,-3.5888031958,-0.1231148036\C,
 0,-6.1820329815,-2.193045459,0.141905812\C,0,-8.6356839131,-4.91025384
 43,-0.9321927663\C,0,-5.2586624039,-4.411107096,0.2105795579\O,0,-5.07
 87392357,-5.5798406377,0.2936153963\C,0,-4.1320166117,-3.3372266568,0.
 6417650685\C,0,-3.439918356,-3.6230383884,1.9763788176\O,0,-3.53041669
 63,-2.9783110639,3.0087145868\O,0,-2.6345448024,-4.7829364461,1.787106
 7987\C,0,-2.1013827768,-5.2779482641,3.0741887559\C,0,2.8591996966,-0.
 5568849462,-1.3692122961\C,0,4.0737206945,-0.2308769371,-0.6487874074\
 C,0,5.0472283302,0.4937627008,-1.1026701672\C,0,5.0248098976,1.3078353
 198,-2.4519122823\C,0,6.3905355112,0.4655953664,-0.3342201082\C,0,7.58
 24259815,-0.1043923211,-1.0477244411\C,0,8.8625753399,-0.1178615197,-0
 .2204146357\C,0,10.1534662396,-0.6813352318,-1.0203484292\C,0,9.967313
 9176,-2.1648358185,-1.2579574572\C,0,11.3109222093,-0.3105019408,-0.08
 13079321\C,0,12.7126684358,-0.5730438203,-0.6816987097\C,0,13.92752844
 06,-0.1569424574,0.1548626993\C,0,15.3716625103,-0.2813607478,-0.42183
 52338\C,0,15.7900131035,-1.7445372395,-0.745541834\C,0,16.3785111051,0
 .2573701231,0.5698061653\C,0,17.6961253168,0.5202201478,-0.0857668566\
 C,0,18.8177671762,1.2614479916,0.7776701287\C,0,20.2509927791,1.355861
 3307,0.2573653401\C,0,20.4753077597,2.0258482328,-1.0309389153\C,0,21.
 1612039945,1.9686712365,1.2846651681\H,0,-3.9894592044,3.7227306548,1.
 5741419352\H,0,-10.3671104627,3.7431218961,-0.3773920418\H,0,-10.15200
 44622,-2.5816482195,-1.1653600835\H,0,-2.6027089616,-0.8521048742,1.98
 86261012\H,0,-2.2434839864,1.7903675254,0.9981741839\H,0,-1.6860223255
 ,1.0822137104,3.3045606695\H,0,-2.7752123074,2.5152609827,3.5841029778
 \H,0,-3.4240433855,0.8059149592,3.707894674\H,0,-1.9733598629,-1.58492
 44128,-0.549819968\H,0,-1.9192461268,0.24618671,-0.6150566073\H,0,-0.2
 514022342,0.4558735109,0.7801902709\H,0,-0.1249584495,-1.1761405895,1.
 1403169076\H,0,-5.1288550532,6.3573809132,0.6714489271\H,0,-6.42117678
 8,6.7800678056,1.8459492841\H,0,-4.9070339322,5.7023554069,2.335427221
 4\H,0,-9.8244099399,5.9413470708,0.4745553\H,0,-8.9864392843,8.0199105
 806,0.163806974\H,0,-7.0734723838,7.4674473139,0.0518307125\H,0,-12.24
 70401168,3.0210094062,-2.4237286713\H,0,-13.1293081443,1.6040860467,-1
 .7132648502\H,0,-12.6523321946,3.0862217076,-0.684559954\H,0,-12.14211
 67398,-1.6218745857,-1.3459147994\H,0,-13.2405100546,-0.2518790009,-1.
 5363309901\H,0,-12.7944199082,-1.8877000092,-3.7701600137\H,0,-12.4097
 111451,-0.2491136373,-3.9430818832\H,0,-11.2015034979,-1.3264255866,-3
 .6640855241\H,0,-9.3919600919,-4.8818510334,-1.879445526\H,0,-8.112394
 9405,-5.9054006483,-0.8895331814\H,0,-9.4524474105,-5.1115579428,-0.27
 48957458\H,0,-3.3818683188,-3.4858301675,-0.1878554385\H,0,-1.65281637
 16,-4.4372621035,3.6529219792\H,0,-3.0889440818,-5.4810887513,3.587986
 0207\H,0,-1.5110625328,-6.1921933964,2.5732640293\H,0,2.7001546866,-1.
 5518448744,-1.6733814144\H,0,2.5098326835,0.1217850969,-2.0264946693\H
 ,0,4.0553847628,-0.7277407803,0.3830706833\H,0,3.9343643727,1.44687578
 39,-2.5927726196\H,0,5.5547287713,2.337328123,-2.2545498096\H,0,5.3273
 480576,0.6838187121,-3.3320145008\H,0,6.2639694202,1.4316293906,-0.160
 3885412\H,0,6.3615094989,0.1359503461,0.8194229494\H,0,7.2901627584,-1
 .1317742491,-1.2739715259\H,0,7.7378353145,0.5607829548,-2.007010848\H
 ,0,9.017477845,0.8345260691,0.014715434\H,0,8.7516829911,-0.6398423396
 ,0.8145260712\H,0,10.1063923507,-0.0691821519,-1.8518490155\H,0,9.0524
 817446,-2.5143684811,-1.8933242936\H,0,10.9556286476,-2.3413106437,-1.
 8220983958\H,0,10.1587833519,-2.7429059132,-0.3782599167\H,0,11.336528
 415,0.6519696045,0.3706590293\H,0,11.2641968294,-1.0430066388,0.852782
 7513\H,0,12.7921249482,-1.6681836798,-0.6957579107\H,0,12.7222211281,0
 .001939673,-1.7621145753\H,0,13.8412956328,0.9292361791,0.4382204825\H
 ,0,13.7597020605,-0.7700394412,0.9945746272\H,0,15.4431567078,0.188798
 7403,-1.253615021\H,0,16.1452165227,-2.2111978457,0.231145517\H,0,15.0
 719447263,-2.2852767213,-1.2659543158\H,0,16.7484729059,-1.704074336,-
 1.3432664354\H,0,15.9682820379,1.3179708698,0.9175751785\H,0,16.567028
 4048,-0.4826646622,1.3930322349\H,0,18.0948386758,-0.44756172,-0.27421
 34289\H,0,17.4868787691,1.1133525938,-1.0285663405\H,0,18.6709157744,2
 .4363855382,0.860671168\H,0,18.7548117586,0.8860322145,1.8221185635\H,
 0,20.6439544621,0.5468011159,-0.019444194\H,0,20.0174185752,3.03505249
 01,-1.2115514246\H,0,21.5165877727,2.0834942273,-1.2123524892\H,0,19.8
 180526385,1.7306344657,-1.9508355069\H,0,20.9239724125,1.5362729311,2.
 2649859402\H,0,22.2213867792,2.0570942406,1.0171059768\H,0,20.72885541
 81,2.8649501712,1.4745533865\\Version=ES64L-G09RevD.01\State=1-A\HF=-2
 932.6619735\RMSD=4.962e-09\PG=C01 [X(C55H72Mg1N4O5)]\\@


 When cryptography is outlawed, bayl bhgynjf jvyy unir cevinpl.
 Job cpu time:       0 days  6 hours  8 minutes 18.7 seconds.
 File lengths (MBytes):  RWF=   2106 Int=      0 D2E=      0 Chk=    163 Scr=      1
 Normal termination of Gaussian 09 at Sat Jun 29 21:33:42 2019.
