 Entering Gaussian System, Link 0=g16
 Input=Geometria-10-.com
 Output=Geometria-10-.log
 Initial command:
 /usr/local/g09/l1.exe "/home/padawan/israel-mol/chlorophyll-a/spectra/abs/Gau-22304.inp" -scrdir="/home/padawan/israel-mol/chlorophyll-a/spectra/abs/"
 Entering Link 1 = /usr/local/g09/l1.exe PID=     22306.
  
 Copyright (c) 1988,1990,1992,1993,1995,1998,2003,2009,2013,
            Gaussian, Inc.  All Rights Reserved.
  
 This is part of the Gaussian(R) 09 program.  It is based on
 the Gaussian(R) 03 system (copyright 2003, Gaussian, Inc.),
 the Gaussian(R) 98 system (copyright 1998, Gaussian, Inc.),
 the Gaussian(R) 94 system (copyright 1995, Gaussian, Inc.),
 the Gaussian 92(TM) system (copyright 1992, Gaussian, Inc.),
 the Gaussian 90(TM) system (copyright 1990, Gaussian, Inc.),
 the Gaussian 88(TM) system (copyright 1988, Gaussian, Inc.),
 the Gaussian 86(TM) system (copyright 1986, Carnegie Mellon
 University), and the Gaussian 82(TM) system (copyright 1983,
 Carnegie Mellon University). Gaussian is a federally registered
 trademark of Gaussian, Inc.
  
 This software contains proprietary and confidential information,
 including trade secrets, belonging to Gaussian, Inc.
  
 This software is provided under written license and may be
 used, copied, transmitted, or stored only in accord with that
 written license.
  
 The following legend is applicable only to US Government
 contracts under FAR:
  
                    RESTRICTED RIGHTS LEGEND
  
 Use, reproduction and disclosure by the US Government is
 subject to restrictions as set forth in subparagraphs (a)
 and (c) of the Commercial Computer Software - Restricted
 Rights clause in FAR 52.227-19.
  
 Gaussian, Inc.
 340 Quinnipiac St., Bldg. 40, Wallingford CT 06492
  
  
 ---------------------------------------------------------------
 Warning -- This program may not be used in any manner that
 competes with the business of Gaussian, Inc. or will provide
 assistance to any competitor of Gaussian, Inc.  The licensee
 of this program is prohibited from giving any competitor of
 Gaussian, Inc. access to this program.  By using this program,
 the user acknowledges that Gaussian, Inc. is engaged in the
 business of creating and licensing software in the field of
 computational chemistry and represents and warrants to the
 licensee that it is not a competitor of Gaussian, Inc. and that
 it will not use this program in any manner prohibited above.
 ---------------------------------------------------------------
  

 Cite this work as:
 Gaussian 09, Revision D.01,
 M. J. Frisch, G. W. Trucks, H. B. Schlegel, G. E. Scuseria, 
 M. A. Robb, J. R. Cheeseman, G. Scalmani, V. Barone, B. Mennucci, 
 G. A. Petersson, H. Nakatsuji, M. Caricato, X. Li, H. P. Hratchian, 
 A. F. Izmaylov, J. Bloino, G. Zheng, J. L. Sonnenberg, M. Hada, 
 M. Ehara, K. Toyota, R. Fukuda, J. Hasegawa, M. Ishida, T. Nakajima, 
 Y. Honda, O. Kitao, H. Nakai, T. Vreven, J. A. Montgomery, Jr., 
 J. E. Peralta, F. Ogliaro, M. Bearpark, J. J. Heyd, E. Brothers, 
 K. N. Kudin, V. N. Staroverov, T. Keith, R. Kobayashi, J. Normand, 
 K. Raghavachari, A. Rendell, J. C. Burant, S. S. Iyengar, J. Tomasi, 
 M. Cossi, N. Rega, J. M. Millam, M. Klene, J. E. Knox, J. B. Cross, 
 V. Bakken, C. Adamo, J. Jaramillo, R. Gomperts, R. E. Stratmann, 
 O. Yazyev, A. J. Austin, R. Cammi, C. Pomelli, J. W. Ochterski, 
 R. L. Martin, K. Morokuma, V. G. Zakrzewski, G. A. Voth, 
 P. Salvador, J. J. Dannenberg, S. Dapprich, A. D. Daniels, 
 O. Farkas, J. B. Foresman, J. V. Ortiz, J. Cioslowski, 
 and D. J. Fox, Gaussian, Inc., Wallingford CT, 2013.
 
 ******************************************
 Gaussian 09:  ES64L-G09RevD.01 24-Apr-2013
                26-Jun-2019 
 ******************************************
 %nproc=4
 Will use up to    4 processors via shared memory.
 %Mem=2GB
 -------------------------------------
 # td=(NStates=1) CAM-B3LYP/6-31G(d,p)
 -------------------------------------
 1/38=1/1;
 2/12=2,17=6,18=5,40=1/2;
 3/5=1,6=6,7=101,11=9,16=1,25=1,30=1,74=-40/1,2,8,3;
 4//1;
 5/5=2,38=5/2;
 8/6=1,10=2,108=1/1;
 9/41=1,42=1,70=2/14;
 6/7=2,8=2,9=2,10=2/1;
 99/5=1,9=1/99;
 --
 TD
 --
 Symbolic Z-matrix:
 Charge =  0 Multiplicity = 1
 12                   -7.20986   0.65413   0.17961 
 6                    -4.9715   -1.9451    0.50369 
 6                    -4.78362   2.80587   1.16774 
 6                    -9.34759   3.14288  -0.36601 
 6                    -9.56112  -1.65587  -0.77167 
 7                    -5.1527    0.3578    0.72247 
 6                    -4.36148  -0.7423    0.79539 
 6                    -2.98259  -0.39495   1.16699 
 6                    -3.05303   1.02829   1.65368 
 6                    -4.44809   1.49677   1.07577 
 6                    -2.93197   1.15947   3.15385 
 6                    -1.94934  -0.70888   0.11274 
 6                    -0.42514  -0.72221   0.49537 
 6                     0.52209  -0.82694  -0.67428 
 8                     0.16424  -1.07947  -1.77263 
 8                     1.77955  -0.54926  -0.29617 
 7                    -7.0832    2.5841    0.29536 
 6                    -5.96932   3.31015   0.73624 
 6                    -6.30134   4.75237   0.73589 
 6                    -7.63357   4.7596    0.28067 
 6                    -8.05632   3.43022   0.09878 
 6                    -5.42739   5.77431   1.10563 
 6                    -8.55764   6.08526   0.26074 
 6                    -8.2151    7.35928   0.18392 
 7                    -9.06115   0.71814  -0.48706 
 6                    -9.7822    1.83307  -0.63803 
 6                    -11.21035   1.51493  -0.98962 
 6                    -11.27921   0.14915  -1.12015 
 6                    -9.86122  -0.37625  -0.74691 
 6                    -12.32768   2.56922  -1.26563 
 6                    -12.508   -0.64109  -1.6102 
 6                    -12.45944  -0.92463  -3.0674 
 7                    -7.28667  -1.4026   -0.14137 
 6                    -8.43974  -2.31376  -0.37755 
 6                    -7.95987  -3.70739  -0.32983 
 6                    -6.56769  -3.61004  -0.16448 
 6                    -6.24085  -2.16374   0.01474 
 6                    -8.82596  -4.84562  -0.5663 
 6                    -5.50658  -4.37591   0.13706 
 8                    -5.17636  -5.58305   0.20683 
 6                    -4.31979  -3.38557   0.45905 
 6                    -3.60814  -3.59483   1.74012 
 8                    -3.62302  -3.03018   2.83958 
 8                    -2.82784  -4.69663   1.5554 
 6                    -2.09677  -5.13741   2.74938 
 6                     2.77939  -0.79712  -1.31627 
 6                     4.13161  -0.59107  -0.70114 
 6                     5.1017    0.20869  -0.96313 
 6                     5.2423    1.19217  -2.07094 
 6                     6.42396   0.23053  -0.12905 
 6                     7.67417  -0.33052  -0.9058 
 6                     8.99313  -0.25397  -0.06192 
 6                     10.11816  -0.59732  -0.87924 
 6                     10.21145  -2.04047  -1.42832 
 6                     11.50661  -0.27044  -0.13246 
 6                     12.84678  -0.51596  -0.80403 
 6                     14.04782  -0.11024   0.16827 
 6                     15.39972  -0.10136  -0.46618 
 6                     15.87171  -1.52014  -0.98134 
 6                     16.45894   0.49481   0.39505 
 6                     17.78124   0.73458  -0.17564 
 6                     18.81441   1.35969   0.85353 
 6                     20.22006   1.52703   0.38136 
 6                     20.39843   2.35117  -0.91802 
 6                     21.12819   2.13136   1.54619 
 1                    -3.82579   3.46647   1.53468 
 1                    -9.9276    4.02693  -0.57611 
 1                    -10.21947  -2.20862  -1.41439 
 1                    -2.62663  -0.96302   1.97749 
 1                    -2.38558   1.56555   1.1268 
 1                    -1.92429   0.86328   3.63331 
 1                    -2.81093   2.26603   3.19528 
 1                    -3.91667   0.85494   3.61063 
 1                    -2.33398  -1.76274  -0.52897 
 1                    -1.93901   0.07548  -0.7739 
 1                    -0.24136   0.23664   1.18088 
 1                    -0.20946  -1.51029   1.18763 
 1                    -4.94572   6.20883   0.2336 
 1                    -6.03005   6.7192    1.74533 
 1                    -4.62525   5.39207   1.79899 
 1                    -9.60946   5.8867    0.62133 
 1                    -8.86442   8.15033   0.36797 
 1                    -7.11167   7.37986  -0.18986 
 1                    -12.10384   3.07337  -2.34161 
 1                    -13.38012   2.06696  -1.34914 
 1                    -12.27145   3.4423   -0.44092 
 1                    -12.70885  -1.4566   -0.78771 
 1                    -13.4026   0.18388  -1.49145 
 1                    -13.47496  -1.37548  -3.50607 
 1                    -12.25237   0.08173  -3.56312 
 1                    -11.68135  -1.52761  -3.38381 
 1                    -9.49493  -4.59326  -1.48648 
 1                    -8.17061  -5.73654  -0.64078 
 1                    -9.76461  -5.16868   0.29136 
 1                    -3.43007  -3.27156  -0.31852 
 1                    -1.1852   -4.44567   3.03946 
 1                    -2.69187  -5.1989    3.63955 
 1                    -1.6585   -6.1157    2.35968 
 1                     2.81636  -1.84296  -1.60034 
 1                     2.41361   0.04179  -2.31275 
 1                     4.23066  -1.44113   0.15915 
 1                     4.08809   1.41044  -2.32496 
 1                     5.85778   2.04022  -1.51507 
 1                     5.676     0.71616  -2.83671 
 1                     6.55501   1.29544   0.31642 
 1                     6.27553  -0.3544    0.84402 
 1                     7.38847  -1.47781  -1.04965 
 1                     7.86218  -0.00211  -1.76055 
 1                     9.05377   0.69816   0.51589 
 1                     8.91775  -1.1889    0.71727 
 1                     10.20839   0.216    -1.73943 
 1                     9.40823  -2.18269  -2.25001 
 1                     11.0881  -2.11372  -2.0455 
 1                     10.15876  -2.73041  -0.72784 
 1                     11.37812   0.84293   0.27646 
 1                     11.43466  -0.94336   0.7222 
 1                     12.89435  -1.53615  -1.18427 
 1                     13.02339   0.32133  -1.64814 
 1                     13.87362   0.82871   0.46078 
 1                     14.15698  -0.80928   0.94533 
 1                     15.27568   0.54354  -1.37039 
 1                     15.99377  -2.11486  -0.07463 
 1                     15.04973  -1.85373  -1.57594 
 1                     16.75166  -1.52322  -1.42348 
 1                     15.9774   1.44132   0.58239 
 1                     16.41111  -0.01164   1.44369 
 1                     18.2765  -0.29661  -0.42428 
 1                     17.86954   1.00472  -1.26988 
 1                     18.26862   2.36612   1.01562 
 1                     18.69887   0.77847   1.76413 
 1                     20.81606   0.55077   0.21699 
 1                     19.95622   3.36835  -0.90704 
 1                     21.34945   2.52584  -1.04284 
 1                     20.234    1.5536   -1.89906 
 1                     21.37656   1.62409   2.46717 
 1                     22.0642   2.35418   1.01357 
 1                     20.90918   3.21302   1.73554 
 
 Stoichiometry    C55H72MgN4O5
 Framework group  C1[X(C55H72MgN4O5)]
 Deg. of freedom   405
 Full point group                 C1      NOp   1
 Largest Abelian subgroup         C1      NOp   1
 Largest concise Abelian subgroup C1      NOp   1
                         Standard orientation:                         
 ---------------------------------------------------------------------
 Center     Atomic      Atomic             Coordinates (Angstroms)
 Number     Number       Type             X           Y           Z
 ---------------------------------------------------------------------
      1         12           0       -7.209886    0.672150    0.182249
      2          6           0       -4.978915   -1.933821    0.503171
      3          6           0       -4.777108    2.815976    1.171523
      4          6           0       -9.340613    3.167548   -0.360342
      5          6           0       -9.568119   -1.630184   -0.770333
      6          7           0       -5.153400    0.369383    0.724132
      7          6           0       -4.365337   -0.733063    0.795771
      8          6           0       -2.985319   -0.390032    1.167215
      9          6           0       -3.051484    1.032966    1.655232
     10          6           0       -4.445392    1.505994    1.078239
     11          6           0       -2.929538    1.162415    3.155481
     12          6           0       -1.953339   -0.705971    0.112320
     13          6           0       -0.429055   -0.724044    0.494410
     14          6           0        0.517472   -0.830426   -0.675660
     15          8           0        0.158515   -1.080916   -1.774115
     16          8           0        1.775860   -0.556725   -0.297733
     17          7           0       -7.077614    2.601636    0.299736
     18          6           0       -5.961502    3.324067    0.740896
     19          6           0       -6.289356    4.767232    0.741985
     20          6           0       -7.621721    4.778722    0.287234
     21          6           0       -8.048357    3.450742    0.104264
     22          6           0       -5.412336    5.786310    1.112358
     23          6           0       -8.541971    6.107067    0.268831
     24          6           0       -8.195780    7.380163    0.193071
     25          7           0       -9.061210    0.742106   -0.483720
     26          6           0       -9.779092    1.859255   -0.633416
     27          6           0      -11.208270    1.545557   -0.984811
     28          6           0      -11.281114    0.180098   -1.116569
     29          6           0       -9.864517   -0.349727   -0.744303
     30          6           0      -12.322654    2.603314   -1.259461
     31          6           0      -12.512350   -0.606139   -1.606916
     32          6           0      -12.465107   -0.888479   -3.064401
     33          7           0       -7.292740   -1.384057   -0.140586
     34          6           0       -8.448508   -2.291668   -0.377204
     35          6           0       -7.972648   -3.686727   -0.330935
     36          6           0       -6.580135   -3.593535   -0.165973
     37          6           0       -6.249060   -2.148356    0.014465
     38          6           0       -8.842097   -4.822230   -0.568146
     39          6           0       -5.521130   -4.362747    0.134499
     40          8           0       -5.194371   -5.570895    0.203041
     41          6           0       -4.331377   -3.376128    0.456984
     42          6           0       -3.619895   -3.588611    1.737615
     43          8           0       -3.632772   -3.024932    2.837600
     44          8           0       -2.842848   -4.692489    1.551623
     45          6           0       -2.112643   -5.136479    2.744938
     46          6           0        2.774629   -0.806528   -1.318398
     47          6           0        4.127642   -0.604948   -0.703550
     48          6           0        5.099953    0.192258   -0.965133
     49          6           0        5.243008    1.176347   -2.072096
     50          6           0        6.422550    0.209516   -0.131493
     51          6           0        7.670868   -0.354429   -0.909189
     52          6           0        8.990335   -0.282449   -0.065692
     53          6           0       10.114094   -0.628293   -0.883720
     54          6           0       10.203030   -2.071207   -1.434158
     55          6           0       11.503736   -0.306106   -0.137117
     56          6           0       12.842962   -0.554872   -0.809372
     57          6           0       14.045499   -0.153511    0.162891
     58          6           0       15.397196   -0.147952   -0.472020
     59          6           0       15.864922   -1.567615   -0.988641
     60          6           0       16.458430    0.444376    0.389391
     61          6           0       17.781225    0.680854   -0.181529
     62          6           0       18.816539    1.302032    0.847852
     63          6           0       20.222507    1.465752    0.375352
     64          6           0       20.402809    2.290570   -0.923328
     65          6           0       21.132775    2.066388    1.540427
     66          1           0       -3.817256    3.473464    1.538737
     67          1           0       -9.918140    4.053463   -0.569435
     68          1           0      -10.228284   -2.180447   -1.413343
     69          1           0       -2.630724   -0.959862    1.977073
     70          1           0       -2.382670    1.568774    1.128615
     71          1           0       -1.922548    0.862879    3.634326
     72          1           0       -2.805288    2.268577    3.197890
     73          1           0       -3.914958    0.860304    3.612326
     74          1           0       -2.341233   -1.758125   -0.530224
     75          1           0       -1.941049    0.079175   -0.773606
     76          1           0       -0.242276    0.233643    1.180739
     77          1           0       -0.215408   -1.513383    1.185875
     78          1           0       -4.929711    6.220238    0.240559
     79          1           0       -6.012049    6.732348    1.753135
     80          1           0       -4.611062    5.401127    1.805096
     81          1           0       -9.594230    5.911208    0.629605
     82          1           0       -8.842749    8.172914    0.378064
     83          1           0       -7.092419    7.397901   -0.181078
     84          1           0      -12.097723    3.107811   -2.335058
     85          1           0      -13.376569    2.104172   -1.343071
     86          1           0      -12.263627    3.475468   -0.433968
     87          1           0      -12.715272   -1.421825   -0.785109
     88          1           0      -13.404522    0.221298   -1.487101
     89          1           0      -13.482069   -1.335997   -3.503134
     90          1           0      -12.255298    0.117731   -3.559267
     91          1           0      -11.688867   -1.493408   -3.381626
     92          1           0       -9.510648   -4.567100   -1.487864
     93          1           0       -8.189343   -5.714973   -0.643672
     94          1           0       -9.781377   -5.143376    0.289537
     95          1           0       -3.441606   -3.263967   -0.320782
     96          1           0       -1.198980   -4.447637    3.035343
     97          1           0       -2.707615   -5.197067    3.635261
     98          1           0       -1.677324   -6.115662    2.354195
     99          1           0        2.808480   -1.852214   -1.603448
    100          1           0        2.410930    0.034345   -2.313987
    101          1           0        4.224540   -1.456080    0.155926
    102          1           0        4.089343    1.398176   -2.325510
    103          1           0        5.861118    2.022101   -1.515651
    104          1           0        5.675072    0.699790   -2.838453
    105          1           0        6.556823    1.273628    0.314909
    106          1           0        6.272769   -0.375878    0.841086
    107          1           0        7.381818   -1.500752   -1.053993
    108          1           0        7.859534   -0.025776   -1.763698
    109          1           0        9.053921    0.668968    0.512965
    110          1           0        8.912526   -1.217876    0.712660
    111          1           0       10.206376    0.185547   -1.743187
    112          1           0        9.399121   -2.210346   -2.255696
    113          1           0       11.079257   -2.146412   -2.051703
    114          1           0       10.148594   -2.761637   -0.734294
    115          1           0       11.378598    0.807250    0.272872
    116          1           0       11.430140   -0.979600    0.716952
    117          1           0       12.887453   -1.574848   -1.190561
    118          1           0       13.021697    0.282680   -1.652776
    119          1           0       13.874106    0.785662    0.456322
    120          1           0       14.152909   -0.853583    0.939267
    121          1           0       15.274712    0.498141   -1.375592
    122          1           0       15.985577   -2.163511   -0.082519
    123          1           0       15.041782   -1.898285   -1.583264
    124          1           0       16.744710   -1.572817   -1.431096
    125          1           0       15.979689    1.392097    0.577769
    126          1           0       16.409501   -0.062899    1.437580
    127          1           0       18.273417   -0.351529   -0.431289
    128          1           0       17.869923    0.951744   -1.275556
    129          1           0       18.273708    2.309883    1.011053
    130          1           0       18.699633    0.720314    1.757963
    131          1           0       20.815634    0.487932    0.209882
    132          1           0       19.963541    3.309006   -0.911265
    133          1           0       21.354287    2.462610   -1.048313
    134          1           0       20.235748    1.494376   -1.905046
    135          1           0       21.379993    1.557562    2.460850
    136          1           0       22.069242    2.287004    1.007683
    137          1           0       20.916953    3.148508    1.730844
 ---------------------------------------------------------------------
 Rotational constants (GHZ):      0.0652011      0.0060601      0.0057011
 Standard basis: 6-31G(d,p) (6D, 7F)
 There are  1339 symmetry adapted cartesian basis functions of A   symmetry.
 There are  1339 symmetry adapted basis functions of A   symmetry.
  1339 basis functions,  2348 primitive gaussians,  1339 cartesian basis functions
   241 alpha electrons      241 beta electrons
       nuclear repulsion energy      8756.3447604305 Hartrees.
 NAtoms=  137 NActive=  137 NUniq=  137 SFac= 1.00D+00 NAtFMM=   60 NAOKFM=T Big=T
 Integral buffers will be    131072 words long.
 Raffenetti 1 integral format.
 Two-electron integral symmetry is turned on.
 One-electron integrals computed using PRISM.
 NBasis=  1339 RedAO= T EigKep=  3.46D-04  NBF=  1339
 NBsUse=  1339 1.00D-06 EigRej= -1.00D+00 NBFU=  1339
 ExpMin= 4.21D-02 ExpMax= 1.17D+04 ExpMxC= 1.76D+03 IAcc=2 IRadAn=         4 AccDes= 0.00D+00
 Harris functional with IExCor=20419 and IRadAn=       4 diagonalized for initial guess.
 HarFok:  IExCor=20419 AccDes= 0.00D+00 IRadAn=         4 IDoV= 1 UseB2=F ITyADJ=14
 ICtDFT=  3500011 ScaDFX=  1.000000  1.000000  1.000000  1.000000
 FoFCou: FMM=F IPFlag=           0 FMFlag=      100000 FMFlg1=        2001
         NFxFlg=           0 DoJE=T BraDBF=F KetDBF=T FulRan=T
         wScrn=  0.000000 ICntrl=     500 IOpCl=  0 I1Cent=   200000004 NGrid=           0
         NMat0=    1 NMatS0=      1 NMatT0=    0 NMatD0=    1 NMtDS0=    0 NMtDT0=    0
 Petite list used in FoFCou.
 Requested convergence on RMS density matrix=1.00D-08 within 128 cycles.
 Requested convergence on MAX density matrix=1.00D-06.
 Requested convergence on             energy=1.00D-06.
 No special actions if energy rises.
 SCF Done:  E(RCAM-B3LYP) =  -2932.58656821     A.U. after   18 cycles
            NFock= 18  Conv=0.77D-08     -V/T= 2.0094
 DoSCS=F DFT=T ScalE2(SS,OS)=  1.000000  1.000000
 ExpMin= 4.21D-02 ExpMax= 1.17D+04 ExpMxC= 1.76D+03 IAcc=3 IRadAn=         5 AccDes= 0.00D+00
 HarFok:  IExCor=  205 AccDes= 0.00D+00 IRadAn=         5 IDoV=-2 UseB2=F ITyADJ=14
 ICtDFT= 12500011 ScaDFX=  1.000000  1.000000  1.000000  1.000000
 Range of M.O.s used for correlation:    70  1339
 NBasis=  1339 NAE=   241 NBE=   241 NFC=    69 NFV=     0
 NROrb=   1270 NOA=   172 NOB=   172 NVA=  1098 NVB=  1098

 **** Warning!!: The largest alpha MO coefficient is  0.10399386D+02

 Would need an additional       2415464100000 words for in-memory AO integral storage.
 Orbital symmetries:
       Occupied  (A) (A) (A) (A) (A) (A) (A) (A) (A) (A) (A) (A)
                 (A) (A) (A) (A) (A) (A) (A) (A) (A) (A) (A) (A)
                 (A) (A) (A) (A) (A) (A) (A) (A) (A) (A) (A) (A)
                 (A) (A) (A) (A) (A) (A) (A) (A) (A) (A) (A) (A)
                 (A) (A) (A) (A) (A) (A) (A) (A) (A) (A) (A) (A)
                 (A) (A) (A) (A) (A) (A) (A) (A) (A) (A) (A) (A)
                 (A) (A) (A) (A) (A) (A) (A) (A) (A) (A) (A) (A)
                 (A) (A) (A) (A) (A) (A) (A) (A) (A) (A) (A) (A)
                 (A) (A) (A) (A) (A) (A) (A) (A) (A) (A) (A) (A)
                 (A) (A) (A) (A) (A) (A) (A) (A) (A) (A) (A) (A)
                 (A) (A) (A) (A) (A) (A) (A) (A) (A) (A) (A) (A)
                 (A) (A) (A) (A) (A) (A) (A) (A) (A) (A) (A) (A)
                 (A) (A) (A) (A) (A) (A) (A) (A) (A) (A) (A) (A)
                 (A) (A) (A) (A) (A) (A) (A) (A) (A) (A) (A) (A)
                 (A) (A) (A) (A) (A) (A) (A) (A) (A) (A) (A) (A)
                 (A) (A) (A) (A) (A) (A) (A) (A) (A) (A) (A) (A)
                 (A) (A) (A) (A) (A) (A) (A) (A) (A) (A) (A) (A)
                 (A) (A) (A) (A) (A) (A) (A) (A) (A) (A) (A) (A)
                 (A) (A) (A) (A) (A) (A) (A) (A) (A) (A) (A) (A)
                 (A) (A) (A) (A) (A) (A) (A) (A) (A) (A) (A) (A)
                 (A)
       Virtual   (A) (A) (A) (A) (A) (A) (A) (A) (A) (A) (A) (A)
                 (A) (A) (A) (A) (A) (A) (A) (A) (A) (A) (A) (A)
                 (A) (A) (A) (A) (A) (A) (A) (A) (A) (A) (A) (A)
                 (A) (A) (A) (A) (A) (A) (A) (A) (A) (A) (A) (A)
                 (A) (A) (A) (A) (A) (A) (A) (A) (A) (A) (A) (A)
                 (A) (A) (A) (A) (A) (A) (A) (A) (A) (A) (A) (A)
                 (A) (A) (A) (A) (A) (A) (A) (A) (A) (A) (A) (A)
                 (A) (A) (A) (A) (A) (A) (A) (A) (A) (A) (A) (A)
                 (A) (A) (A) (A) (A) (A) (A) (A) (A) (A) (A) (A)
                 (A) (A) (A) (A) (A) (A) (A) (A) (A) (A) (A) (A)
                 (A) (A) (A) (A) (A) (A) (A) (A) (A) (A) (A) (A)
                 (A) (A) (A) (A) (A) (A) (A) (A) (A) (A) (A) (A)
                 (A) (A) (A) (A) (A) (A) (A) (A) (A) (A) (A) (A)
                 (A) (A) (A) (A) (A) (A) (A) (A) (A) (A) (A) (A)
                 (A) (A) (A) (A) (A) (A) (A) (A) (A) (A) (A) (A)
                 (A) (A) (A) (A) (A) (A) (A) (A) (A) (A) (A) (A)
                 (A) (A) (A) (A) (A) (A) (A) (A) (A) (A) (A) (A)
                 (A) (A) (A) (A) (A) (A) (A) (A) (A) (A) (A) (A)
                 (A) (A) (A) (A) (A) (A) (A) (A) (A) (A) (A) (A)
                 (A) (A) (A) (A) (A) (A) (A) (A) (A) (A) (A) (A)
                 (A) (A) (A) (A) (A) (A) (A) (A) (A) (A) (A) (A)
                 (A) (A) (A) (A) (A) (A) (A) (A) (A) (A) (A) (A)
                 (A) (A) (A) (A) (A) (A) (A) (A) (A) (A) (A) (A)
                 (A) (A) (A) (A) (A) (A) (A) (A) (A) (A) (A) (A)
                 (A) (A) (A) (A) (A) (A) (A) (A) (A) (A) (A) (A)
                 (A) (A) (A) (A) (A) (A) (A) (A) (A) (A) (A) (A)
                 (A) (A) (A) (A) (A) (A) (A) (A) (A) (A) (A) (A)
                 (A) (A) (A) (A) (A) (A) (A) (A) (A) (A) (A) (A)
                 (A) (A) (A) (A) (A) (A) (A) (A) (A) (A) (A) (A)
                 (A) (A) (A) (A) (A) (A) (A) (A) (A) (A) (A) (A)
                 (A) (A) (A) (A) (A) (A) (A) (A) (A) (A) (A) (A)
                 (A) (A) (A) (A) (A) (A) (A) (A) (A) (A) (A) (A)
                 (A) (A) (A) (A) (A) (A) (A) (A) (A) (A) (A) (A)
                 (A) (A) (A) (A) (A) (A) (A) (A) (A) (A) (A) (A)
                 (A) (A) (A) (A) (A) (A) (A) (A) (A) (A) (A) (A)
                 (A) (A) (A) (A) (A) (A) (A) (A) (A) (A) (A) (A)
                 (A) (A) (A) (A) (A) (A) (A) (A) (A) (A) (A) (A)
                 (A) (A) (A) (A) (A) (A) (A) (A) (A) (A) (A) (A)
                 (A) (A) (A) (A) (A) (A) (A) (A) (A) (A) (A) (A)
                 (A) (A) (A) (A) (A) (A) (A) (A) (A) (A) (A) (A)
                 (A) (A) (A) (A) (A) (A) (A) (A) (A) (A) (A) (A)
                 (A) (A) (A) (A) (A) (A) (A) (A) (A) (A) (A) (A)
                 (A) (A) (A) (A) (A) (A) (A) (A) (A) (A) (A) (A)
                 (A) (A) (A) (A) (A) (A) (A) (A) (A) (A) (A) (A)
                 (A) (A) (A) (A) (A) (A) (A) (A) (A) (A) (A) (A)
                 (A) (A) (A) (A) (A) (A) (A) (A) (A) (A) (A) (A)
                 (A) (A) (A) (A) (A) (A) (A) (A) (A) (A) (A) (A)
                 (A) (A) (A) (A) (A) (A) (A) (A) (A) (A) (A) (A)
                 (A) (A) (A) (A) (A) (A) (A) (A) (A) (A) (A) (A)
                 (A) (A) (A) (A) (A) (A) (A) (A) (A) (A) (A) (A)
                 (A) (A) (A) (A) (A) (A) (A) (A) (A) (A) (A) (A)
                 (A) (A) (A) (A) (A) (A) (A) (A) (A) (A) (A) (A)
                 (A) (A) (A) (A) (A) (A) (A) (A) (A) (A) (A) (A)
                 (A) (A) (A) (A) (A) (A) (A) (A) (A) (A) (A) (A)
                 (A) (A) (A) (A) (A) (A) (A) (A) (A) (A) (A) (A)
                 (A) (A) (A) (A) (A) (A) (A) (A) (A) (A) (A) (A)
                 (A) (A) (A) (A) (A) (A) (A) (A) (A) (A) (A) (A)
                 (A) (A) (A) (A) (A) (A) (A) (A) (A) (A) (A) (A)
                 (A) (A) (A) (A) (A) (A) (A) (A) (A) (A) (A) (A)
                 (A) (A) (A) (A) (A) (A) (A) (A) (A) (A) (A) (A)
                 (A) (A) (A) (A) (A) (A) (A) (A) (A) (A) (A) (A)
                 (A) (A) (A) (A) (A) (A) (A) (A) (A) (A) (A) (A)
                 (A) (A) (A) (A) (A) (A) (A) (A) (A) (A) (A) (A)
                 (A) (A) (A) (A) (A) (A) (A) (A) (A) (A) (A) (A)
                 (A) (A) (A) (A) (A) (A) (A) (A) (A) (A) (A) (A)
                 (A) (A) (A) (A) (A) (A) (A) (A) (A) (A) (A) (A)
                 (A) (A) (A) (A) (A) (A) (A) (A) (A) (A) (A) (A)
                 (A) (A) (A) (A) (A) (A) (A) (A) (A) (A) (A) (A)
                 (A) (A) (A) (A) (A) (A) (A) (A) (A) (A) (A) (A)
                 (A) (A) (A) (A) (A) (A) (A) (A) (A) (A) (A) (A)
                 (A) (A) (A) (A) (A) (A) (A) (A) (A) (A) (A) (A)
                 (A) (A) (A) (A) (A) (A) (A) (A) (A) (A) (A) (A)
                 (A) (A) (A) (A) (A) (A) (A) (A) (A) (A) (A) (A)
                 (A) (A) (A) (A) (A) (A) (A) (A) (A) (A) (A) (A)
                 (A) (A) (A) (A) (A) (A) (A) (A) (A) (A) (A) (A)
                 (A) (A) (A) (A) (A) (A) (A) (A) (A) (A) (A) (A)
                 (A) (A) (A) (A) (A) (A) (A) (A) (A) (A) (A) (A)
                 (A) (A) (A) (A) (A) (A) (A) (A) (A) (A) (A) (A)
                 (A) (A) (A) (A) (A) (A) (A) (A) (A) (A) (A) (A)
                 (A) (A) (A) (A) (A) (A) (A) (A) (A) (A) (A) (A)
                 (A) (A) (A) (A) (A) (A) (A) (A) (A) (A) (A) (A)
                 (A) (A) (A) (A) (A) (A) (A) (A) (A) (A) (A) (A)
                 (A) (A) (A) (A) (A) (A) (A) (A) (A) (A) (A) (A)
                 (A) (A) (A) (A) (A) (A) (A) (A) (A) (A) (A) (A)
                 (A) (A) (A) (A) (A) (A) (A) (A) (A) (A) (A) (A)
                 (A) (A) (A) (A) (A) (A) (A) (A) (A) (A) (A) (A)
                 (A) (A) (A) (A) (A) (A) (A) (A) (A) (A) (A) (A)
                 (A) (A) (A) (A) (A) (A) (A) (A) (A) (A) (A) (A)
                 (A) (A) (A) (A) (A) (A) (A) (A) (A) (A) (A) (A)
                 (A) (A) (A) (A) (A) (A) (A) (A) (A) (A) (A) (A)
                 (A) (A) (A) (A) (A) (A) (A) (A) (A) (A) (A) (A)
                 (A) (A) (A) (A) (A) (A)
     8 initial guesses have been made.
 Convergence on wavefunction:    0.001000000000000
 Iteration     1 Dimension     8 NMult     0 NNew      8
 CISAX will form     8 AO SS matrices at one time.
 Iteration     2 Dimension    12 NMult     8 NNew      4
 Iteration     3 Dimension    16 NMult    12 NNew      4
 Iteration     4 Dimension    20 NMult    16 NNew      4
 Iteration     5 Dimension    24 NMult    20 NNew      4
 Iteration     6 Dimension    28 NMult    24 NNew      4
 ***********************************************************************
 Excited states from <AA,BB:AA,BB> singles matrix:
 ***********************************************************************
 
 Ground to excited state transition densities written to RWF  633
 Ground to excited state transition electric dipole moments (Au):
       state          X           Y           Z        Dip. S.      Osc.
         1         0.2091      2.5276      0.2588      6.4994      0.3136
 Ground to excited state transition velocity dipole moments (Au):
       state          X           Y           Z        Dip. S.      Osc.
         1        -0.0138     -0.1783     -0.0183      0.0323      0.2978
 Ground to excited state transition magnetic dipole moments (Au):
       state          X           Y           Z
         1        -0.3672     -0.3440      3.6454
 Ground to excited state transition velocity quadrupole moments (Au):
       state          XX          YY          ZZ          XY          XZ          YZ
         1         0.4170     -0.1425     -0.0396      2.2559      0.2039     -0.1539
 <0|del|b> * <b|rxdel|0> + <0|del|b> * <b|delr+rdel|0>
 Rotatory Strengths (R) in cgs (10**-40 erg-esu-cm/Gauss)
       state          XX          YY          ZZ    R(velocity)    E-M Angle
         1       -51.1258    -89.1952    136.4905     -1.2768       90.03
 1/2[<0|r|b>*<b|rxdel|0> + (<0|rxdel|b>*<b|r|0>)*]
 Rotatory Strengths (R) in cgs (10**-40 erg-esu-cm/Gauss)
       state          XX          YY          ZZ     R(length)
         1        54.2923    614.9153   -667.0548      0.7176
  1/2[<0|del|b>*<b|r|0> + (<0|r|b>*<b|del|0>)*] (Au)
       state          X           Y           Z        Dip. S.   Osc.(frdel)
         1        -0.0029     -0.4507     -0.0047      0.4583      0.3056

 Excitation energies and oscillator strengths:
 
 Excited State   1:      Singlet-A      1.9692 eV  629.63 nm  f=0.3136  <S**2>=0.000
     240 -> 243        0.21466
     241 -> 242        0.66342
 This state for optimization and/or second-order correction.
 Total Energy, E(TD-HF/TD-KS) =  -2932.51420253    
 Copying the excited state density for this state as the 1-particle RhoCI density.
 SavETr:  write IOETrn=   770 NScale= 10 NData=  16 NLR=1 NState=    1 LETran=      28.

 **********************************************************************

            Population analysis using the SCF density.

 **********************************************************************

 Orbital symmetries:
       Occupied  (A) (A) (A) (A) (A) (A) (A) (A) (A) (A) (A) (A)
                 (A) (A) (A) (A) (A) (A) (A) (A) (A) (A) (A) (A)
                 (A) (A) (A) (A) (A) (A) (A) (A) (A) (A) (A) (A)
                 (A) (A) (A) (A) (A) (A) (A) (A) (A) (A) (A) (A)
                 (A) (A) (A) (A) (A) (A) (A) (A) (A) (A) (A) (A)
                 (A) (A) (A) (A) (A) (A) (A) (A) (A) (A) (A) (A)
                 (A) (A) (A) (A) (A) (A) (A) (A) (A) (A) (A) (A)
                 (A) (A) (A) (A) (A) (A) (A) (A) (A) (A) (A) (A)
                 (A) (A) (A) (A) (A) (A) (A) (A) (A) (A) (A) (A)
                 (A) (A) (A) (A) (A) (A) (A) (A) (A) (A) (A) (A)
                 (A) (A) (A) (A) (A) (A) (A) (A) (A) (A) (A) (A)
                 (A) (A) (A) (A) (A) (A) (A) (A) (A) (A) (A) (A)
                 (A) (A) (A) (A) (A) (A) (A) (A) (A) (A) (A) (A)
                 (A) (A) (A) (A) (A) (A) (A) (A) (A) (A) (A) (A)
                 (A) (A) (A) (A) (A) (A) (A) (A) (A) (A) (A) (A)
                 (A) (A) (A) (A) (A) (A) (A) (A) (A) (A) (A) (A)
                 (A) (A) (A) (A) (A) (A) (A) (A) (A) (A) (A) (A)
                 (A) (A) (A) (A) (A) (A) (A) (A) (A) (A) (A) (A)
                 (A) (A) (A) (A) (A) (A) (A) (A) (A) (A) (A) (A)
                 (A) (A) (A) (A) (A) (A) (A) (A) (A) (A) (A) (A)
                 (A)
       Virtual   (A) (A) (A) (A) (A) (A) (A) (A) (A) (A) (A) (A)
                 (A) (A) (A) (A) (A) (A) (A) (A) (A) (A) (A) (A)
                 (A) (A) (A) (A) (A) (A) (A) (A) (A) (A) (A) (A)
                 (A) (A) (A) (A) (A) (A) (A) (A) (A) (A) (A) (A)
                 (A) (A) (A) (A) (A) (A) (A) (A) (A) (A) (A) (A)
                 (A) (A) (A) (A) (A) (A) (A) (A) (A) (A) (A) (A)
                 (A) (A) (A) (A) (A) (A) (A) (A) (A) (A) (A) (A)
                 (A) (A) (A) (A) (A) (A) (A) (A) (A) (A) (A) (A)
                 (A) (A) (A) (A) (A) (A) (A) (A) (A) (A) (A) (A)
                 (A) (A) (A) (A) (A) (A) (A) (A) (A) (A) (A) (A)
                 (A) (A) (A) (A) (A) (A) (A) (A) (A) (A) (A) (A)
                 (A) (A) (A) (A) (A) (A) (A) (A) (A) (A) (A) (A)
                 (A) (A) (A) (A) (A) (A) (A) (A) (A) (A) (A) (A)
                 (A) (A) (A) (A) (A) (A) (A) (A) (A) (A) (A) (A)
                 (A) (A) (A) (A) (A) (A) (A) (A) (A) (A) (A) (A)
                 (A) (A) (A) (A) (A) (A) (A) (A) (A) (A) (A) (A)
                 (A) (A) (A) (A) (A) (A) (A) (A) (A) (A) (A) (A)
                 (A) (A) (A) (A) (A) (A) (A) (A) (A) (A) (A) (A)
                 (A) (A) (A) (A) (A) (A) (A) (A) (A) (A) (A) (A)
                 (A) (A) (A) (A) (A) (A) (A) (A) (A) (A) (A) (A)
                 (A) (A) (A) (A) (A) (A) (A) (A) (A) (A) (A) (A)
                 (A) (A) (A) (A) (A) (A) (A) (A) (A) (A) (A) (A)
                 (A) (A) (A) (A) (A) (A) (A) (A) (A) (A) (A) (A)
                 (A) (A) (A) (A) (A) (A) (A) (A) (A) (A) (A) (A)
                 (A) (A) (A) (A) (A) (A) (A) (A) (A) (A) (A) (A)
                 (A) (A) (A) (A) (A) (A) (A) (A) (A) (A) (A) (A)
                 (A) (A) (A) (A) (A) (A) (A) (A) (A) (A) (A) (A)
                 (A) (A) (A) (A) (A) (A) (A) (A) (A) (A) (A) (A)
                 (A) (A) (A) (A) (A) (A) (A) (A) (A) (A) (A) (A)
                 (A) (A) (A) (A) (A) (A) (A) (A) (A) (A) (A) (A)
                 (A) (A) (A) (A) (A) (A) (A) (A) (A) (A) (A) (A)
                 (A) (A) (A) (A) (A) (A) (A) (A) (A) (A) (A) (A)
                 (A) (A) (A) (A) (A) (A) (A) (A) (A) (A) (A) (A)
                 (A) (A) (A) (A) (A) (A) (A) (A) (A) (A) (A) (A)
                 (A) (A) (A) (A) (A) (A) (A) (A) (A) (A) (A) (A)
                 (A) (A) (A) (A) (A) (A) (A) (A) (A) (A) (A) (A)
                 (A) (A) (A) (A) (A) (A) (A) (A) (A) (A) (A) (A)
                 (A) (A) (A) (A) (A) (A) (A) (A) (A) (A) (A) (A)
                 (A) (A) (A) (A) (A) (A) (A) (A) (A) (A) (A) (A)
                 (A) (A) (A) (A) (A) (A) (A) (A) (A) (A) (A) (A)
                 (A) (A) (A) (A) (A) (A) (A) (A) (A) (A) (A) (A)
                 (A) (A) (A) (A) (A) (A) (A) (A) (A) (A) (A) (A)
                 (A) (A) (A) (A) (A) (A) (A) (A) (A) (A) (A) (A)
                 (A) (A) (A) (A) (A) (A) (A) (A) (A) (A) (A) (A)
                 (A) (A) (A) (A) (A) (A) (A) (A) (A) (A) (A) (A)
                 (A) (A) (A) (A) (A) (A) (A) (A) (A) (A) (A) (A)
                 (A) (A) (A) (A) (A) (A) (A) (A) (A) (A) (A) (A)
                 (A) (A) (A) (A) (A) (A) (A) (A) (A) (A) (A) (A)
                 (A) (A) (A) (A) (A) (A) (A) (A) (A) (A) (A) (A)
                 (A) (A) (A) (A) (A) (A) (A) (A) (A) (A) (A) (A)
                 (A) (A) (A) (A) (A) (A) (A) (A) (A) (A) (A) (A)
                 (A) (A) (A) (A) (A) (A) (A) (A) (A) (A) (A) (A)
                 (A) (A) (A) (A) (A) (A) (A) (A) (A) (A) (A) (A)
                 (A) (A) (A) (A) (A) (A) (A) (A) (A) (A) (A) (A)
                 (A) (A) (A) (A) (A) (A) (A) (A) (A) (A) (A) (A)
                 (A) (A) (A) (A) (A) (A) (A) (A) (A) (A) (A) (A)
                 (A) (A) (A) (A) (A) (A) (A) (A) (A) (A) (A) (A)
                 (A) (A) (A) (A) (A) (A) (A) (A) (A) (A) (A) (A)
                 (A) (A) (A) (A) (A) (A) (A) (A) (A) (A) (A) (A)
                 (A) (A) (A) (A) (A) (A) (A) (A) (A) (A) (A) (A)
                 (A) (A) (A) (A) (A) (A) (A) (A) (A) (A) (A) (A)
                 (A) (A) (A) (A) (A) (A) (A) (A) (A) (A) (A) (A)
                 (A) (A) (A) (A) (A) (A) (A) (A) (A) (A) (A) (A)
                 (A) (A) (A) (A) (A) (A) (A) (A) (A) (A) (A) (A)
                 (A) (A) (A) (A) (A) (A) (A) (A) (A) (A) (A) (A)
                 (A) (A) (A) (A) (A) (A) (A) (A) (A) (A) (A) (A)
                 (A) (A) (A) (A) (A) (A) (A) (A) (A) (A) (A) (A)
                 (A) (A) (A) (A) (A) (A) (A) (A) (A) (A) (A) (A)
                 (A) (A) (A) (A) (A) (A) (A) (A) (A) (A) (A) (A)
                 (A) (A) (A) (A) (A) (A) (A) (A) (A) (A) (A) (A)
                 (A) (A) (A) (A) (A) (A) (A) (A) (A) (A) (A) (A)
                 (A) (A) (A) (A) (A) (A) (A) (A) (A) (A) (A) (A)
                 (A) (A) (A) (A) (A) (A) (A) (A) (A) (A) (A) (A)
                 (A) (A) (A) (A) (A) (A) (A) (A) (A) (A) (A) (A)
                 (A) (A) (A) (A) (A) (A) (A) (A) (A) (A) (A) (A)
                 (A) (A) (A) (A) (A) (A) (A) (A) (A) (A) (A) (A)
                 (A) (A) (A) (A) (A) (A) (A) (A) (A) (A) (A) (A)
                 (A) (A) (A) (A) (A) (A) (A) (A) (A) (A) (A) (A)
                 (A) (A) (A) (A) (A) (A) (A) (A) (A) (A) (A) (A)
                 (A) (A) (A) (A) (A) (A) (A) (A) (A) (A) (A) (A)
                 (A) (A) (A) (A) (A) (A) (A) (A) (A) (A) (A) (A)
                 (A) (A) (A) (A) (A) (A) (A) (A) (A) (A) (A) (A)
                 (A) (A) (A) (A) (A) (A) (A) (A) (A) (A) (A) (A)
                 (A) (A) (A) (A) (A) (A) (A) (A) (A) (A) (A) (A)
                 (A) (A) (A) (A) (A) (A) (A) (A) (A) (A) (A) (A)
                 (A) (A) (A) (A) (A) (A) (A) (A) (A) (A) (A) (A)
                 (A) (A) (A) (A) (A) (A) (A) (A) (A) (A) (A) (A)
                 (A) (A) (A) (A) (A) (A) (A) (A) (A) (A) (A) (A)
                 (A) (A) (A) (A) (A) (A) (A) (A) (A) (A) (A) (A)
                 (A) (A) (A) (A) (A) (A) (A) (A) (A) (A) (A) (A)
                 (A) (A) (A) (A) (A) (A) (A) (A) (A) (A) (A) (A)
                 (A) (A) (A) (A) (A) (A)
 The electronic state is 1-A.
 Alpha  occ. eigenvalues --  -46.83731 -19.26509 -19.24661 -19.21047 -19.19997
 Alpha  occ. eigenvalues --  -19.18341 -14.42135 -14.40223 -14.39874 -14.39381
 Alpha  occ. eigenvalues --  -10.39031 -10.38035 -10.34106 -10.33496 -10.31039
 Alpha  occ. eigenvalues --  -10.30986 -10.30737 -10.30278 -10.30160 -10.29548
 Alpha  occ. eigenvalues --  -10.29469 -10.29299 -10.29272 -10.29197 -10.28873
 Alpha  occ. eigenvalues --  -10.28754 -10.28744 -10.28648 -10.28428 -10.28316
 Alpha  occ. eigenvalues --  -10.27949 -10.27802 -10.27783 -10.27557 -10.27418
 Alpha  occ. eigenvalues --  -10.27372 -10.27323 -10.27256 -10.27171 -10.26874
 Alpha  occ. eigenvalues --  -10.26837 -10.26760 -10.26650 -10.26572 -10.26507
 Alpha  occ. eigenvalues --  -10.26482 -10.26443 -10.26415 -10.26388 -10.26197
 Alpha  occ. eigenvalues --  -10.26174 -10.26081 -10.25788 -10.25712 -10.25613
 Alpha  occ. eigenvalues --  -10.25497 -10.25447 -10.25351 -10.25310 -10.24736
 Alpha  occ. eigenvalues --  -10.24502 -10.24442 -10.24383 -10.23477 -10.22319
 Alpha  occ. eigenvalues --   -3.13113  -1.87789  -1.87359  -1.87318  -1.19109
 Alpha  occ. eigenvalues --   -1.15935  -1.10669  -1.07615  -1.06527  -1.05597
 Alpha  occ. eigenvalues --   -1.04123  -1.03521  -1.01970  -0.92155  -0.91533
 Alpha  occ. eigenvalues --   -0.91020  -0.90268  -0.90078  -0.89926  -0.89065
 Alpha  occ. eigenvalues --   -0.88791  -0.88260  -0.88160  -0.87989  -0.86060
 Alpha  occ. eigenvalues --   -0.85206  -0.84661  -0.83881  -0.83252  -0.82756
 Alpha  occ. eigenvalues --   -0.81970  -0.81307  -0.80689  -0.79948  -0.78939
 Alpha  occ. eigenvalues --   -0.78620  -0.76403  -0.76334  -0.76106  -0.75691
 Alpha  occ. eigenvalues --   -0.75269  -0.74903  -0.74376  -0.73910  -0.72772
 Alpha  occ. eigenvalues --   -0.71565  -0.70508  -0.69383  -0.69037  -0.68656
 Alpha  occ. eigenvalues --   -0.67455  -0.66132  -0.65954  -0.65075  -0.64732
 Alpha  occ. eigenvalues --   -0.63541  -0.62800  -0.62670  -0.62095  -0.61277
 Alpha  occ. eigenvalues --   -0.61256  -0.60333  -0.60216  -0.59368  -0.59069
 Alpha  occ. eigenvalues --   -0.58426  -0.57671  -0.56902  -0.56644  -0.55954
 Alpha  occ. eigenvalues --   -0.55855  -0.55492  -0.55295  -0.55116  -0.54572
 Alpha  occ. eigenvalues --   -0.54459  -0.53973  -0.53609  -0.53483  -0.53256
 Alpha  occ. eigenvalues --   -0.52737  -0.52677  -0.52242  -0.52105  -0.52001
 Alpha  occ. eigenvalues --   -0.51777  -0.51399  -0.51080  -0.50625  -0.50492
 Alpha  occ. eigenvalues --   -0.50325  -0.50030  -0.49900  -0.49589  -0.49539
 Alpha  occ. eigenvalues --   -0.49194  -0.48984  -0.48481  -0.48385  -0.48101
 Alpha  occ. eigenvalues --   -0.47987  -0.47737  -0.47396  -0.47326  -0.47306
 Alpha  occ. eigenvalues --   -0.46783  -0.46663  -0.46366  -0.46350  -0.46150
 Alpha  occ. eigenvalues --   -0.45956  -0.45659  -0.45536  -0.45304  -0.45120
 Alpha  occ. eigenvalues --   -0.44817  -0.44503  -0.44384  -0.44296  -0.44107
 Alpha  occ. eigenvalues --   -0.43961  -0.43766  -0.43534  -0.43447  -0.43254
 Alpha  occ. eigenvalues --   -0.42978  -0.42733  -0.42617  -0.42580  -0.42240
 Alpha  occ. eigenvalues --   -0.42066  -0.41892  -0.41558  -0.41391  -0.41346
 Alpha  occ. eigenvalues --   -0.41134  -0.40835  -0.40735  -0.40549  -0.40476
 Alpha  occ. eigenvalues --   -0.39592  -0.39387  -0.39188  -0.38924  -0.38681
 Alpha  occ. eigenvalues --   -0.38665  -0.38541  -0.38180  -0.37949  -0.37609
 Alpha  occ. eigenvalues --   -0.37308  -0.37062  -0.36809  -0.36400  -0.36292
 Alpha  occ. eigenvalues --   -0.36252  -0.35871  -0.35638  -0.35264  -0.35161
 Alpha  occ. eigenvalues --   -0.34989  -0.34487  -0.34115  -0.33656  -0.33430
 Alpha  occ. eigenvalues --   -0.32830  -0.32786  -0.32555  -0.30957  -0.30860
 Alpha  occ. eigenvalues --   -0.29730  -0.28953  -0.28691  -0.28650  -0.23414
 Alpha  occ. eigenvalues --   -0.21310
 Alpha virt. eigenvalues --   -0.07301  -0.02768   0.00983   0.04694   0.05111
 Alpha virt. eigenvalues --    0.06112   0.06672   0.06856   0.07155   0.07543
 Alpha virt. eigenvalues --    0.07675   0.09528   0.10010   0.10359   0.10861
 Alpha virt. eigenvalues --    0.11146   0.11577   0.11797   0.11980   0.12140
 Alpha virt. eigenvalues --    0.12656   0.13254   0.13499   0.13575   0.13629
 Alpha virt. eigenvalues --    0.13958   0.14103   0.14496   0.14816   0.14962
 Alpha virt. eigenvalues --    0.15362   0.15581   0.15692   0.15937   0.16190
 Alpha virt. eigenvalues --    0.16315   0.16459   0.16604   0.16726   0.16900
 Alpha virt. eigenvalues --    0.17034   0.17356   0.17598   0.17660   0.18115
 Alpha virt. eigenvalues --    0.18376   0.18699   0.18776   0.18876   0.19201
 Alpha virt. eigenvalues --    0.19535   0.19567   0.19625   0.19713   0.19868
 Alpha virt. eigenvalues --    0.19977   0.20419   0.20544   0.20635   0.20680
 Alpha virt. eigenvalues --    0.20993   0.21167   0.21208   0.21420   0.21676
 Alpha virt. eigenvalues --    0.21947   0.22101   0.22203   0.22497   0.22557
 Alpha virt. eigenvalues --    0.22628   0.22760   0.22877   0.23202   0.23318
 Alpha virt. eigenvalues --    0.23372   0.23496   0.23717   0.23916   0.24020
 Alpha virt. eigenvalues --    0.24318   0.24479   0.24807   0.24969   0.25100
 Alpha virt. eigenvalues --    0.25151   0.25489   0.25744   0.25871   0.26250
 Alpha virt. eigenvalues --    0.26327   0.26373   0.26732   0.27199   0.27400
 Alpha virt. eigenvalues --    0.27700   0.27887   0.27944   0.28253   0.28524
 Alpha virt. eigenvalues --    0.28944   0.29071   0.29189   0.29285   0.29691
 Alpha virt. eigenvalues --    0.29816   0.30119   0.30253   0.30545   0.30762
 Alpha virt. eigenvalues --    0.30914   0.30982   0.31283   0.31364   0.31726
 Alpha virt. eigenvalues --    0.32291   0.32417   0.32584   0.32856   0.33056
 Alpha virt. eigenvalues --    0.33377   0.33472   0.33651   0.34091   0.34255
 Alpha virt. eigenvalues --    0.34762   0.35887   0.35972   0.36069   0.36548
 Alpha virt. eigenvalues --    0.36855   0.37269   0.37644   0.38253   0.38614
 Alpha virt. eigenvalues --    0.38813   0.39581   0.39827   0.40287   0.40902
 Alpha virt. eigenvalues --    0.41062   0.41646   0.42364   0.42553   0.42706
 Alpha virt. eigenvalues --    0.43252   0.43902   0.45396   0.46319   0.47269
 Alpha virt. eigenvalues --    0.47308   0.47643   0.48458   0.48911   0.49991
 Alpha virt. eigenvalues --    0.50525   0.50727   0.51110   0.51571   0.51765
 Alpha virt. eigenvalues --    0.53081   0.53205   0.53323   0.54081   0.54388
 Alpha virt. eigenvalues --    0.54797   0.54944   0.55355   0.55648   0.55838
 Alpha virt. eigenvalues --    0.55997   0.56109   0.56376   0.56421   0.56578
 Alpha virt. eigenvalues --    0.57355   0.57404   0.57620   0.57942   0.58126
 Alpha virt. eigenvalues --    0.58485   0.58578   0.58795   0.58938   0.59216
 Alpha virt. eigenvalues --    0.59539   0.59728   0.59848   0.59881   0.60185
 Alpha virt. eigenvalues --    0.60378   0.60759   0.60894   0.61178   0.61525
 Alpha virt. eigenvalues --    0.61737   0.61956   0.62088   0.62384   0.62604
 Alpha virt. eigenvalues --    0.63124   0.63198   0.63401   0.63718   0.63889
 Alpha virt. eigenvalues --    0.64388   0.64464   0.64607   0.64636   0.65017
 Alpha virt. eigenvalues --    0.65458   0.65553   0.65950   0.66168   0.66498
 Alpha virt. eigenvalues --    0.66710   0.66772   0.67199   0.67388   0.67709
 Alpha virt. eigenvalues --    0.67852   0.68449   0.68636   0.68902   0.69316
 Alpha virt. eigenvalues --    0.69365   0.69489   0.69875   0.70167   0.70629
 Alpha virt. eigenvalues --    0.70913   0.70947   0.71115   0.71566   0.71974
 Alpha virt. eigenvalues --    0.72186   0.72651   0.72838   0.73290   0.73411
 Alpha virt. eigenvalues --    0.73650   0.73836   0.74072   0.74147   0.74299
 Alpha virt. eigenvalues --    0.74747   0.75003   0.75156   0.75447   0.75628
 Alpha virt. eigenvalues --    0.75707   0.75974   0.76152   0.76392   0.76479
 Alpha virt. eigenvalues --    0.76699   0.76966   0.77006   0.77380   0.77548
 Alpha virt. eigenvalues --    0.77721   0.78052   0.78191   0.78384   0.78697
 Alpha virt. eigenvalues --    0.79128   0.79252   0.79428   0.79838   0.80064
 Alpha virt. eigenvalues --    0.80386   0.80663   0.80798   0.80877   0.81350
 Alpha virt. eigenvalues --    0.81584   0.82628   0.82723   0.82929   0.83173
 Alpha virt. eigenvalues --    0.83256   0.83671   0.83744   0.83950   0.84182
 Alpha virt. eigenvalues --    0.84516   0.84674   0.84953   0.85070   0.85401
 Alpha virt. eigenvalues --    0.85627   0.85885   0.86114   0.86399   0.86684
 Alpha virt. eigenvalues --    0.86719   0.86888   0.87062   0.87472   0.87553
 Alpha virt. eigenvalues --    0.87703   0.87860   0.87877   0.88180   0.88508
 Alpha virt. eigenvalues --    0.88637   0.88731   0.88806   0.89015   0.89488
 Alpha virt. eigenvalues --    0.89573   0.89637   0.90211   0.90301   0.90389
 Alpha virt. eigenvalues --    0.90668   0.90866   0.91304   0.91408   0.91457
 Alpha virt. eigenvalues --    0.91670   0.91834   0.91983   0.92279   0.92474
 Alpha virt. eigenvalues --    0.92565   0.93062   0.93141   0.93280   0.93535
 Alpha virt. eigenvalues --    0.93676   0.93907   0.94029   0.94227   0.94338
 Alpha virt. eigenvalues --    0.94775   0.94874   0.94977   0.94990   0.95485
 Alpha virt. eigenvalues --    0.95670   0.95800   0.95894   0.96229   0.96355
 Alpha virt. eigenvalues --    0.96484   0.96659   0.96835   0.96930   0.97035
 Alpha virt. eigenvalues --    0.97216   0.97507   0.97694   0.98056   0.98333
 Alpha virt. eigenvalues --    0.98427   0.98614   0.98863   0.99312   0.99479
 Alpha virt. eigenvalues --    0.99723   1.00207   1.00342   1.00592   1.00784
 Alpha virt. eigenvalues --    1.00816   1.01124   1.01373   1.01717   1.01868
 Alpha virt. eigenvalues --    1.02136   1.02596   1.02612   1.02890   1.02983
 Alpha virt. eigenvalues --    1.03001   1.03257   1.03627   1.03969   1.04398
 Alpha virt. eigenvalues --    1.04462   1.04863   1.05206   1.05545   1.05770
 Alpha virt. eigenvalues --    1.06082   1.06301   1.06736   1.06929   1.07514
 Alpha virt. eigenvalues --    1.08073   1.08453   1.08484   1.08568   1.09375
 Alpha virt. eigenvalues --    1.09886   1.10045   1.10399   1.11034   1.11380
 Alpha virt. eigenvalues --    1.11607   1.11865   1.12215   1.12657   1.13104
 Alpha virt. eigenvalues --    1.13276   1.14189   1.14680   1.15088   1.15264
 Alpha virt. eigenvalues --    1.15595   1.15843   1.16707   1.17310   1.17980
 Alpha virt. eigenvalues --    1.18251   1.18662   1.20057   1.20216   1.20622
 Alpha virt. eigenvalues --    1.21628   1.21681   1.21876   1.22542   1.22685
 Alpha virt. eigenvalues --    1.24011   1.24174   1.24326   1.25698   1.25785
 Alpha virt. eigenvalues --    1.25958   1.26453   1.26835   1.26939   1.27611
 Alpha virt. eigenvalues --    1.28381   1.29603   1.29713   1.29781   1.30191
 Alpha virt. eigenvalues --    1.30811   1.31280   1.31793   1.32576   1.32925
 Alpha virt. eigenvalues --    1.33342   1.34099   1.34373   1.34634   1.35053
 Alpha virt. eigenvalues --    1.35565   1.36535   1.36790   1.37783   1.38172
 Alpha virt. eigenvalues --    1.38612   1.38875   1.39396   1.39894   1.39984
 Alpha virt. eigenvalues --    1.40270   1.41036   1.41556   1.42246   1.42876
 Alpha virt. eigenvalues --    1.43018   1.43448   1.43568   1.43980   1.45124
 Alpha virt. eigenvalues --    1.45366   1.46243   1.46522   1.47116   1.47267
 Alpha virt. eigenvalues --    1.47518   1.48143   1.48732   1.48895   1.49356
 Alpha virt. eigenvalues --    1.50319   1.51010   1.51300   1.52066   1.53104
 Alpha virt. eigenvalues --    1.53540   1.53648   1.53830   1.54303   1.55054
 Alpha virt. eigenvalues --    1.55738   1.56267   1.56541   1.56724   1.57587
 Alpha virt. eigenvalues --    1.57955   1.58413   1.58575   1.58844   1.59130
 Alpha virt. eigenvalues --    1.60224   1.60324   1.61022   1.61145   1.61942
 Alpha virt. eigenvalues --    1.62332   1.62632   1.62766   1.63232   1.63505
 Alpha virt. eigenvalues --    1.64094   1.64209   1.64499   1.65168   1.65814
 Alpha virt. eigenvalues --    1.65910   1.66423   1.66825   1.67451   1.67779
 Alpha virt. eigenvalues --    1.68312   1.68703   1.68906   1.69302   1.69775
 Alpha virt. eigenvalues --    1.70096   1.70981   1.71475   1.71892   1.71954
 Alpha virt. eigenvalues --    1.72410   1.72581   1.73091   1.73882   1.74786
 Alpha virt. eigenvalues --    1.75200   1.75400   1.75643   1.75947   1.76229
 Alpha virt. eigenvalues --    1.76902   1.77213   1.77382   1.77697   1.78055
 Alpha virt. eigenvalues --    1.78414   1.78627   1.79132   1.79407   1.80072
 Alpha virt. eigenvalues --    1.80528   1.80668   1.81448   1.82028   1.82296
 Alpha virt. eigenvalues --    1.82781   1.83206   1.83374   1.83763   1.84038
 Alpha virt. eigenvalues --    1.84280   1.84449   1.84603   1.85024   1.85158
 Alpha virt. eigenvalues --    1.86006   1.86323   1.86606   1.86762   1.87028
 Alpha virt. eigenvalues --    1.87499   1.87542   1.87751   1.88299   1.88553
 Alpha virt. eigenvalues --    1.88744   1.88996   1.89090   1.89330   1.89962
 Alpha virt. eigenvalues --    1.90294   1.90557   1.90717   1.91051   1.91245
 Alpha virt. eigenvalues --    1.91511   1.91729   1.91864   1.92083   1.92199
 Alpha virt. eigenvalues --    1.92825   1.93036   1.93142   1.93238   1.93502
 Alpha virt. eigenvalues --    1.93715   1.93806   1.94042   1.94611   1.94755
 Alpha virt. eigenvalues --    1.94938   1.94966   1.95018   1.95311   1.95566
 Alpha virt. eigenvalues --    1.95740   1.95810   1.96120   1.96240   1.96709
 Alpha virt. eigenvalues --    1.96967   1.97185   1.97659   1.98099   1.98234
 Alpha virt. eigenvalues --    1.98369   1.98663   1.98739   1.99009   1.99308
 Alpha virt. eigenvalues --    1.99606   1.99644   1.99709   1.99954   2.00435
 Alpha virt. eigenvalues --    2.00778   2.01090   2.01557   2.02193   2.02371
 Alpha virt. eigenvalues --    2.02808   2.02938   2.03104   2.03119   2.03456
 Alpha virt. eigenvalues --    2.03707   2.03892   2.04292   2.04981   2.05033
 Alpha virt. eigenvalues --    2.05298   2.06510   2.06831   2.07166   2.07343
 Alpha virt. eigenvalues --    2.07618   2.07863   2.08203   2.08419   2.08543
 Alpha virt. eigenvalues --    2.09044   2.09441   2.09767   2.09995   2.10155
 Alpha virt. eigenvalues --    2.10666   2.11128   2.11438   2.11478   2.11566
 Alpha virt. eigenvalues --    2.11797   2.11828   2.11966   2.12058   2.12168
 Alpha virt. eigenvalues --    2.12491   2.13157   2.13841   2.14030   2.14338
 Alpha virt. eigenvalues --    2.14978   2.15153   2.15231   2.15591   2.15837
 Alpha virt. eigenvalues --    2.16318   2.16716   2.16812   2.17098   2.17346
 Alpha virt. eigenvalues --    2.17877   2.17983   2.18164   2.18901   2.18945
 Alpha virt. eigenvalues --    2.19019   2.19480   2.19800   2.20012   2.20126
 Alpha virt. eigenvalues --    2.20461   2.20827   2.20932   2.21116   2.21307
 Alpha virt. eigenvalues --    2.21530   2.21856   2.22178   2.22474   2.22756
 Alpha virt. eigenvalues --    2.23314   2.23700   2.24054   2.24221   2.24664
 Alpha virt. eigenvalues --    2.25043   2.25423   2.25898   2.26009   2.26625
 Alpha virt. eigenvalues --    2.26950   2.27534   2.27778   2.28101   2.28213
 Alpha virt. eigenvalues --    2.28709   2.29482   2.29721   2.29967   2.30170
 Alpha virt. eigenvalues --    2.30413   2.30965   2.31129   2.31704   2.31819
 Alpha virt. eigenvalues --    2.32325   2.32459   2.32669   2.33053   2.33299
 Alpha virt. eigenvalues --    2.33815   2.34295   2.34837   2.34976   2.35015
 Alpha virt. eigenvalues --    2.35307   2.35638   2.36294   2.36412   2.36446
 Alpha virt. eigenvalues --    2.37044   2.37323   2.37433   2.37890   2.38496
 Alpha virt. eigenvalues --    2.39052   2.39498   2.39810   2.40318   2.40366
 Alpha virt. eigenvalues --    2.40396   2.41052   2.41373   2.41588   2.41989
 Alpha virt. eigenvalues --    2.42424   2.42944   2.43480   2.43698   2.43912
 Alpha virt. eigenvalues --    2.43978   2.44347   2.44725   2.45207   2.45327
 Alpha virt. eigenvalues --    2.45667   2.45900   2.46178   2.46219   2.46480
 Alpha virt. eigenvalues --    2.46777   2.46980   2.47185   2.47824   2.47966
 Alpha virt. eigenvalues --    2.48899   2.48972   2.49359   2.49409   2.49684
 Alpha virt. eigenvalues --    2.50007   2.50205   2.50522   2.50718   2.51461
 Alpha virt. eigenvalues --    2.51663   2.51986   2.52503   2.52964   2.53060
 Alpha virt. eigenvalues --    2.53480   2.54243   2.54740   2.54902   2.55241
 Alpha virt. eigenvalues --    2.55445   2.55835   2.56156   2.56767   2.57197
 Alpha virt. eigenvalues --    2.57494   2.57675   2.58563   2.58777   2.59083
 Alpha virt. eigenvalues --    2.59419   2.59963   2.60143   2.60854   2.61053
 Alpha virt. eigenvalues --    2.61204   2.61473   2.61924   2.62199   2.62694
 Alpha virt. eigenvalues --    2.63114   2.63412   2.63674   2.63771   2.63932
 Alpha virt. eigenvalues --    2.64849   2.65057   2.65397   2.65782   2.66102
 Alpha virt. eigenvalues --    2.66394   2.66577   2.67111   2.67370   2.67919
 Alpha virt. eigenvalues --    2.68177   2.68423   2.68739   2.69175   2.69459
 Alpha virt. eigenvalues --    2.69658   2.69929   2.70119   2.70179   2.70317
 Alpha virt. eigenvalues --    2.71577   2.71843   2.72387   2.72467   2.72744
 Alpha virt. eigenvalues --    2.73074   2.73229   2.73347   2.73637   2.74097
 Alpha virt. eigenvalues --    2.74528   2.74876   2.75098   2.75228   2.75483
 Alpha virt. eigenvalues --    2.76060   2.76342   2.76624   2.77059   2.77215
 Alpha virt. eigenvalues --    2.77301   2.77470   2.78567   2.78654   2.78994
 Alpha virt. eigenvalues --    2.79366   2.80007   2.80647   2.80685   2.80915
 Alpha virt. eigenvalues --    2.81345   2.81453   2.81680   2.82171   2.82374
 Alpha virt. eigenvalues --    2.82670   2.83330   2.83558   2.83785   2.84318
 Alpha virt. eigenvalues --    2.84641   2.85034   2.85186   2.86180   2.86332
 Alpha virt. eigenvalues --    2.86460   2.86675   2.87344   2.88015   2.88249
 Alpha virt. eigenvalues --    2.88548   2.89020   2.89269   2.89307   2.89580
 Alpha virt. eigenvalues --    2.89943   2.90240   2.91079   2.91239   2.91487
 Alpha virt. eigenvalues --    2.91727   2.91999   2.92267   2.92668   2.93296
 Alpha virt. eigenvalues --    2.93437   2.93730   2.94197   2.94514   2.94846
 Alpha virt. eigenvalues --    2.95043   2.95266   2.95880   2.96299   2.96361
 Alpha virt. eigenvalues --    2.96752   2.97670   2.97929   2.98109   2.98902
 Alpha virt. eigenvalues --    2.99521   2.99804   2.99890   3.00251   3.01166
 Alpha virt. eigenvalues --    3.01184   3.01247   3.01359   3.02142   3.02252
 Alpha virt. eigenvalues --    3.03194   3.03506   3.03969   3.04206   3.04765
 Alpha virt. eigenvalues --    3.05284   3.05480   3.06721   3.06876   3.07231
 Alpha virt. eigenvalues --    3.07281   3.08306   3.09775   3.10517   3.11462
 Alpha virt. eigenvalues --    3.11730   3.12301   3.12604   3.13410   3.13658
 Alpha virt. eigenvalues --    3.15290   3.15544   3.17056   3.17840   3.18309
 Alpha virt. eigenvalues --    3.18551   3.18947   3.19555   3.19943   3.21453
 Alpha virt. eigenvalues --    3.22379   3.22506   3.23268   3.23800   3.24872
 Alpha virt. eigenvalues --    3.25901   3.26540   3.27027   3.27530   3.28603
 Alpha virt. eigenvalues --    3.28968   3.29502   3.29887   3.30668   3.30994
 Alpha virt. eigenvalues --    3.32321   3.32522   3.32919   3.34165   3.34322
 Alpha virt. eigenvalues --    3.34938   3.35475   3.35710   3.35882   3.36435
 Alpha virt. eigenvalues --    3.37632   3.38351   3.38907   3.39259   3.40638
 Alpha virt. eigenvalues --    3.40895   3.41056   3.41122   3.41570   3.42423
 Alpha virt. eigenvalues --    3.43723   3.43757   3.44158   3.44712   3.45174
 Alpha virt. eigenvalues --    3.45773   3.47247   3.47477   3.48808   3.49174
 Alpha virt. eigenvalues --    3.50643   3.51181   3.51389   3.51680   3.51745
 Alpha virt. eigenvalues --    3.53201   3.54663   3.55299   3.56053   3.56978
 Alpha virt. eigenvalues --    3.57221   3.58975   3.60300   3.60424   3.61218
 Alpha virt. eigenvalues --    3.64634   3.65061   3.65526   3.65824   3.67465
 Alpha virt. eigenvalues --    3.67968   3.68769   3.70585   3.73444   3.75841
 Alpha virt. eigenvalues --    3.76255   3.79830   3.83158   3.98728   4.09448
 Alpha virt. eigenvalues --    4.10202   4.16726   4.18480   4.21443   4.21697
 Alpha virt. eigenvalues --    4.24628   4.25729   4.26483   4.26852   4.28643
 Alpha virt. eigenvalues --    4.30473   4.30784   4.31955   4.32712   4.34525
 Alpha virt. eigenvalues --    4.35875   4.36480   4.38696   4.39222   4.40722
 Alpha virt. eigenvalues --    4.42465   4.43602   4.44914   4.45573   4.46338
 Alpha virt. eigenvalues --    4.46830   4.47531   4.48653   4.49308   4.49969
 Alpha virt. eigenvalues --    4.51945   4.52471   4.53115   4.53773   4.55338
 Alpha virt. eigenvalues --    4.55897   4.57970   4.58378   4.59741   4.60488
 Alpha virt. eigenvalues --    4.60997   4.62727   4.63993   4.64222   4.67929
 Alpha virt. eigenvalues --    4.67976   4.68520   4.69833   4.71208   4.73041
 Alpha virt. eigenvalues --    4.73458   4.74589   4.74937   4.79269   4.79460
 Alpha virt. eigenvalues --    4.82630   4.84522   4.85281   4.86818   4.90174
 Alpha virt. eigenvalues --    4.90238   4.96674   5.04668
          Condensed to atoms (all electrons):
 Mulliken charges:
               1
     1  Mg   0.831705
     2  C    0.044746
     3  C   -0.193927
     4  C   -0.171214
     5  C   -0.192817
     6  N   -0.636454
     7  C    0.341042
     8  C   -0.143518
     9  C   -0.145164
    10  C    0.310770
    11  C   -0.294663
    12  C   -0.166677
    13  C   -0.275721
    14  C    0.618655
    15  O   -0.446561
    16  O   -0.467443
    17  N   -0.760032
    18  C    0.303346
    19  C    0.084438
    20  C   -0.047583
    21  C    0.362864
    22  C   -0.411406
    23  C   -0.060404
    24  C   -0.246490
    25  N   -0.703619
    26  C    0.315780
    27  C    0.026666
    28  C    0.001018
    29  C    0.300446
    30  C   -0.355245
    31  C   -0.225065
    32  C   -0.293669
    33  N   -0.700715
    34  C    0.208236
    35  C    0.106065
    36  C    0.032370
    37  C    0.320449
    38  C   -0.378615
    39  C    0.324297
    40  O   -0.500962
    41  C   -0.320158
    42  C    0.638042
    43  O   -0.502288
    44  O   -0.451868
    45  C   -0.077839
    46  C    0.025294
    47  C   -0.137430
    48  C    0.111178
    49  C   -0.326937
    50  C   -0.239857
    51  C   -0.153750
    52  C   -0.150366
    53  C   -0.067109
    54  C   -0.312399
    55  C   -0.167731
    56  C   -0.185526
    57  C   -0.153110
    58  C   -0.091039
    59  C   -0.306458
    60  C   -0.147284
    61  C   -0.196468
    62  C   -0.142096
    63  C   -0.056969
    64  C   -0.299724
    65  C   -0.331584
    66  H    0.098863
    67  H    0.098055
    68  H    0.098409
    69  H    0.141357
    70  H    0.104693
    71  H    0.113370
    72  H    0.094533
    73  H    0.132888
    74  H    0.078682
    75  H    0.096216
    76  H    0.115404
    77  H    0.144140
    78  H    0.138987
    79  H    0.100584
    80  H    0.112966
    81  H    0.086180
    82  H    0.116212
    83  H    0.098201
    84  H    0.111388
    85  H    0.113178
    86  H    0.108194
    87  H    0.104800
    88  H    0.080690
    89  H    0.093251
    90  H    0.109233
    91  H    0.122671
    92  H    0.120817
    93  H    0.153624
    94  H    0.097860
    95  H    0.154882
    96  H    0.096127
    97  H    0.144865
    98  H    0.122291
    99  H    0.135669
   100  H    0.082207
   101  H    0.079600
   102  H    0.093484
   103  H    0.104156
   104  H    0.145107
   105  H    0.087036
   106  H    0.092430
   107  H    0.088932
   108  H    0.105319
   109  H    0.096891
   110  H    0.064040
   111  H    0.061551
   112  H    0.089834
   113  H    0.114224
   114  H    0.117209
   115  H    0.065543
   116  H    0.086844
   117  H    0.103733
   118  H    0.069581
   119  H    0.099338
   120  H    0.092230
   121  H    0.068500
   122  H    0.089316
   123  H    0.096987
   124  H    0.110526
   125  H    0.086027
   126  H    0.073761
   127  H    0.064684
   128  H    0.100977
   129  H    0.081114
   130  H    0.098428
   131  H    0.084118
   132  H    0.107599
   133  H    0.119591
   134  H    0.071700
   135  H    0.112812
   136  H    0.091861
   137  H    0.091980
 Sum of Mulliken charges =   0.00000
 Mulliken charges with hydrogens summed into heavy atoms:
               1
     1  Mg   0.831705
     2  C    0.044746
     3  C   -0.095064
     4  C   -0.073159
     5  C   -0.094408
     6  N   -0.636454
     7  C    0.341042
     8  C   -0.002161
     9  C   -0.040471
    10  C    0.310770
    11  C    0.046129
    12  C    0.008221
    13  C   -0.016176
    14  C    0.618655
    15  O   -0.446561
    16  O   -0.467443
    17  N   -0.760032
    18  C    0.303346
    19  C    0.084438
    20  C   -0.047583
    21  C    0.362864
    22  C   -0.058868
    23  C    0.025776
    24  C   -0.032078
    25  N   -0.703619
    26  C    0.315780
    27  C    0.026666
    28  C    0.001018
    29  C    0.300446
    30  C   -0.022485
    31  C   -0.039576
    32  C    0.031486
    33  N   -0.700715
    34  C    0.208236
    35  C    0.106065
    36  C    0.032370
    37  C    0.320449
    38  C   -0.006314
    39  C    0.324297
    40  O   -0.500962
    41  C   -0.165276
    42  C    0.638042
    43  O   -0.502288
    44  O   -0.451868
    45  C    0.285443
    46  C    0.243171
    47  C   -0.057830
    48  C    0.111178
    49  C    0.015811
    50  C   -0.060392
    51  C    0.040501
    52  C    0.010565
    53  C   -0.005558
    54  C    0.008868
    55  C   -0.015343
    56  C   -0.012212
    57  C    0.038458
    58  C   -0.022539
    59  C   -0.009629
    60  C    0.012504
    61  C   -0.030807
    62  C    0.037445
    63  C    0.027148
    64  C   -0.000834
    65  C   -0.034932
 Electronic spatial extent (au):  <R**2>=         180607.5091
 Charge=              0.0000 electrons
 Dipole moment (field-independent basis, Debye):
    X=              1.5422    Y=              5.8839    Z=              0.2212  Tot=              6.0867
 Quadrupole moment (field-independent basis, Debye-Ang):
   XX=           -316.6286   YY=           -399.7099   ZZ=           -400.9137
   XY=            -27.5016   XZ=              8.1413   YZ=              1.9439
 Traceless Quadrupole moment (field-independent basis, Debye-Ang):
   XX=             55.7888   YY=            -27.2925   ZZ=            -28.4963
   XY=            -27.5016   XZ=              8.1413   YZ=              1.9439
 Octapole moment (field-independent basis, Debye-Ang**2):
  XXX=           -168.7249  YYY=            182.1295  ZZZ=              9.1035  XYY=            -14.4017
  XXY=            173.5316  XXZ=           -201.5039  XZZ=              0.9955  YZZ=            -34.4200
  YYZ=             36.0516  XYZ=            -57.7468
 Hexadecapole moment (field-independent basis, Debye-Ang**3):
 XXXX=        -206588.0088 YYYY=         -17824.8040 ZZZZ=          -3978.4993 XXXY=           1146.0259
 XXXZ=            779.1577 YYYX=          -1307.1698 YYYZ=           -108.5474 ZZZX=             32.7352
 ZZZY=           -103.8777 XXYY=         -40198.9671 XXZZ=         -39142.5919 YYZZ=          -3590.9056
 XXYZ=             56.2787 YYXZ=            -59.2858 ZZXY=             48.7460
 N-N= 8.756344760431D+03 E-N=-2.433518601150D+04  KE= 2.905246060467D+03
 1\1\GINC-PEDRO-RYZENSSD\SP\RCAM-B3LYP TD-FC\6-31G(d,p)\C55H72Mg1N4O5\P
 ADAWAN\26-Jun-2019\0\\# td=(NStates=1) CAM-B3LYP/6-31G(d,p)\\TD\\0,1\M
 g,0,-7.2098626556,0.6541336541,0.1796060092\C,0,-4.9714960307,-1.94509
 6621,0.5036860035\C,0,-4.7836176681,2.8058749148,1.1677402312\C,0,-9.3
 475893477,3.1428766871,-0.3660079338\C,0,-9.5611171393,-1.6558657616,-
 0.7716652815\N,0,-5.1526980514,0.3577970402,0.7224697674\C,0,-4.361483
 7537,-0.7423048509,0.7953914419\C,0,-2.9825892201,-0.3949547676,1.1669
 921404\C,0,-3.0530255918,1.0282939619,1.6536781742\C,0,-4.448092896,1.
 4967700574,1.0757738386\C,0,-2.9319709881,1.1594724345,3.153848911\C,0
 ,-1.9493392148,-0.7088848986,0.1127405999\C,0,-0.4251407681,-0.7222104
 524,0.4953681197\C,0,0.5220915876,-0.8269361257,-0.6742790797\O,0,0.16
 42369734,-1.0794693507,-1.772626543\O,0,1.7795549805,-0.5492598328,-0.
 2961738375\N,0,-7.0831959281,2.5840998173,0.2953646933\C,0,-5.96932406
 34,3.3101519691,0.7362416082\C,0,-6.3013381235,4.752365867,0.735891353
 6\C,0,-7.6335739528,4.7595958463,0.2806749745\C,0,-8.0563161848,3.4302
 233136,0.0987802172\C,0,-5.4273885201,5.7743085222,1.1056270879\C,0,-8
 .5576449769,6.0852635944,0.2607360955\C,0,-8.2151007079,7.3592820125,0
 .1839241301\N,0,-9.0611511508,0.7181382921,-0.4870604113\C,0,-9.782199
 879,1.83307399,-0.6380289271\C,0,-11.2103457775,1.5149324836,-0.989623
 712\C,0,-11.2792064413,0.1491487922,-1.1201512813\C,0,-9.8612160053,-0
 .3762461127,-0.7469139943\C,0,-12.3276810102,2.5692192028,-1.265627093
 6\C,0,-12.5080008458,-0.6410851707,-1.6101961968\C,0,-12.4594422762,-0
 .9246263478,-3.0674048459\N,0,-7.2866749196,-1.4025996216,-0.141367255
 4\C,0,-8.4397391962,-2.3137573152,-0.3775455605\C,0,-7.9598736549,-3.7
 073949224,-0.3298314121\C,0,-6.5676922912,-3.610035319,-0.16447894\C,0
 ,-6.2408488631,-2.1637425288,0.0147430957\C,0,-8.825962941,-4.84561738
 06,-0.5662961766\C,0,-5.5065771954,-4.3759135767,0.1370622061\O,0,-5.1
 763589977,-5.5830509587,0.2068267175\C,0,-4.3197853885,-3.3855714912,0
 .4590467967\C,0,-3.6081351777,-3.5948255672,1.7401151912\O,0,-3.623015
 9562,-3.0301762504,2.8395776731\O,0,-2.8278441323,-4.6966278153,1.5554
 036284\C,0,-2.0967723157,-5.1374142107,2.7493762746\C,0,2.7793917158,-
 0.7971189696,-1.3162670016\C,0,4.131606483,-0.5910729567,-0.701142643\
 C,0,5.1017037778,0.2086941939,-0.9631262128\C,0,5.2423016468,1.1921737
 537,-2.0709441855\C,0,6.4239588535,0.2305318601,-0.1290495912\C,0,7.67
 41651554,-0.3305249344,-0.9058002487\C,0,8.9931283952,-0.25396513,-0.0
 619187861\C,0,10.1181627093,-0.59731683,-0.8792443188\C,0,10.211448331
 ,-2.0404733822,-1.4283244939\C,0,11.5066117783,-0.2704379344,-0.132463
 0476\C,0,12.8467818472,-0.5159581117,-0.8040309429\C,0,14.0478204698,-
 0.110237787,0.1682740404\C,0,15.3997153155,-0.101362748,-0.4661796683\
 C,0,15.8717112733,-1.5201448003,-0.9813354133\C,0,16.4589391479,0.4948
 138675,0.3950486896\C,0,17.7812438287,0.734581584,-0.1756358435\C,0,18
 .8144068402,1.3596878156,0.8535277145\C,0,20.2200596858,1.5270284474,0
 .3813577394\C,0,20.3984300719,2.3511707651,-0.9180176232\C,0,21.128190
 6932,2.1313575052,1.5461913207\H,0,-3.8257928378,3.4664650282,1.534677
 9888\H,0,-9.9275965114,4.0269302769,-0.5761119138\H,0,-10.2194712089,-
 2.2086209168,-1.414394987\H,0,-2.6266313538,-0.9630159653,1.9774949881
 \H,0,-2.3855781958,1.5655450431,1.1267970462\H,0,-1.9242861519,0.86328
 18172,3.6333135448\H,0,-2.8109258788,2.2660260592,3.1952840959\H,0,-3.
 9166726485,0.8549398617,3.610634948\H,0,-2.3339759245,-1.7627421946,-0
 .5289678828\H,0,-1.939008103,0.0754796393,-0.7739024918\H,0,-0.2413612
 301,0.2366415877,1.1808803399\H,0,-0.2094568994,-1.5102940048,1.187631
 6391\H,0,-4.9457167394,6.2088260577,0.2335951417\H,0,-6.0300476751,6.7
 19201719,1.7453292221\H,0,-4.6252457534,5.3920743788,1.7989935781\H,0,
 -9.6094584447,5.8867016063,0.6213299775\H,0,-8.8644170821,8.1503336229
 ,0.36796739\H,0,-7.1116662032,7.3798585551,-0.1898634569\H,0,-12.10383
 57964,3.0733746428,-2.3416104594\H,0,-13.3801232258,2.0669623343,-1.34
 91384375\H,0,-12.2714541068,3.4422973151,-0.4409155896\H,0,-12.7088534
 134,-1.456598058,-0.7877089788\H,0,-13.4025962632,0.1838845755,-1.4914
 465017\H,0,-13.474957962,-1.3754787871,-3.5060736051\H,0,-12.252365410
 5,0.081729447,-3.5631238874\H,0,-11.6813514827,-1.5276057046,-3.383807
 4962\H,0,-9.4949303889,-4.5932621745,-1.486476229\H,0,-8.1706107621,-5
 .7365437626,-0.6407783059\H,0,-9.7646086267,-5.1686836554,0.2913608799
 \H,0,-3.4300731393,-3.2715587404,-0.3185185049\H,0,-1.18519961,-4.4456
 729446,3.0394606331\H,0,-2.6918743748,-5.1989005325,3.6395511772\H,0,-
 1.6584972762,-6.1156957467,2.3596826712\H,0,2.8163563067,-1.8429639863
 ,-1.6003441107\H,0,2.4136130615,0.0417870971,-2.3127532951\H,0,4.23066
 22905,-1.4411321194,0.159148291\H,0,4.0880897453,1.4104421405,-2.32495
 58379\H,0,5.8577790763,2.040218412,-1.5150658612\H,0,5.6760029231,0.71
 61619464,-2.8367149708\H,0,6.5550085242,1.2954357713,0.3164191396\H,0,
 6.2755309011,-0.3543986888,0.8440154086\H,0,7.3884725894,-1.4778088526
 ,-1.0496490936\H,0,7.8621777488,-0.0021133348,-1.7605462015\H,0,9.0537
 714743,0.6981624327,0.5158855511\H,0,8.9177495978,-1.1888972451,0.7172
 663452\H,0,10.2083925508,0.2159963659,-1.7394277734\H,0,9.4082273191,-
 2.1826853128,-2.2500099622\H,0,11.0881018949,-2.1137178844,-2.04550073
 61\H,0,10.1587633499,-2.7304146641,-0.7278448752\H,0,11.3781225745,0.8
 429287004,0.2764596094\H,0,11.4346638761,-0.9433566738,0.722199693\H,0
 ,12.8943451702,-1.5361504764,-1.1842667616\H,0,13.0233912451,0.3213316
 122,-1.6481431781\H,0,13.8736188651,0.8287061261,0.4607827388\H,0,14.1
 569817885,-0.8092833656,0.9453297027\H,0,15.2756799601,0.5435442148,-1
 .3703866982\H,0,15.9937713781,-2.1148582117,-0.0746250601\H,0,15.04973
 25051,-1.853733567,-1.5759353139\H,0,16.7516632249,-1.5232162502,-1.42
 34844572\H,0,15.97740295,1.441323205,0.5823916602\H,0,16.4111128133,-0
 .0116375595,1.4436873004\H,0,18.2764968416,-0.2966066245,-0.4242784354
 \H,0,17.8695370349,1.0047217307,-1.2698804719\H,0,18.2686155444,2.3661
 185115,1.0156166626\H,0,18.698866164,0.7784714584,1.7641327649\H,0,20.
 8160616729,0.550771513,0.2169894493\H,0,19.9562224555,3.3683458195,-0.
 9070409736\H,0,21.349451059,2.5258384617,-1.0428355376\H,0,20.23400423
 36,1.553596762,-1.8990603293\H,0,21.3765576711,1.624091713,2.467166158
 2\H,0,22.0642010606,2.3541839496,1.0135656228\H,0,20.9091834509,3.2130
 249787,1.7355394851\\Version=ES64L-G09RevD.01\State=1-A\HF=-2932.58656
 82\RMSD=7.731e-09\PG=C01 [X(C55H72Mg1N4O5)]\\@


 WOMEN HOLD UP HALF THE SKY. -- MAO TSE TUNG
 Job cpu time:       0 days  6 hours 25 minutes 58.4 seconds.
 File lengths (MBytes):  RWF=   2106 Int=      0 D2E=      0 Chk=    163 Scr=      1
 Normal termination of Gaussian 09 at Wed Jun 26 23:08:41 2019.
