 Entering Gaussian System, Link 0=g16
 Input=Geometria-321-.com
 Output=Geometria-321-.log
 Initial command:
 /usr/local/g09/l1.exe "/home/padawan/israel-mol/chlorophyll-a/spectra/abs/Gau-69730.inp" -scrdir="/home/padawan/israel-mol/chlorophyll-a/spectra/abs/"
 Entering Link 1 = /usr/local/g09/l1.exe PID=     69732.
  
 Copyright (c) 1988,1990,1992,1993,1995,1998,2003,2009,2013,
            Gaussian, Inc.  All Rights Reserved.
  
 This is part of the Gaussian(R) 09 program.  It is based on
 the Gaussian(R) 03 system (copyright 2003, Gaussian, Inc.),
 the Gaussian(R) 98 system (copyright 1998, Gaussian, Inc.),
 the Gaussian(R) 94 system (copyright 1995, Gaussian, Inc.),
 the Gaussian 92(TM) system (copyright 1992, Gaussian, Inc.),
 the Gaussian 90(TM) system (copyright 1990, Gaussian, Inc.),
 the Gaussian 88(TM) system (copyright 1988, Gaussian, Inc.),
 the Gaussian 86(TM) system (copyright 1986, Carnegie Mellon
 University), and the Gaussian 82(TM) system (copyright 1983,
 Carnegie Mellon University). Gaussian is a federally registered
 trademark of Gaussian, Inc.
  
 This software contains proprietary and confidential information,
 including trade secrets, belonging to Gaussian, Inc.
  
 This software is provided under written license and may be
 used, copied, transmitted, or stored only in accord with that
 written license.
  
 The following legend is applicable only to US Government
 contracts under FAR:
  
                    RESTRICTED RIGHTS LEGEND
  
 Use, reproduction and disclosure by the US Government is
 subject to restrictions as set forth in subparagraphs (a)
 and (c) of the Commercial Computer Software - Restricted
 Rights clause in FAR 52.227-19.
  
 Gaussian, Inc.
 340 Quinnipiac St., Bldg. 40, Wallingford CT 06492
  
  
 ---------------------------------------------------------------
 Warning -- This program may not be used in any manner that
 competes with the business of Gaussian, Inc. or will provide
 assistance to any competitor of Gaussian, Inc.  The licensee
 of this program is prohibited from giving any competitor of
 Gaussian, Inc. access to this program.  By using this program,
 the user acknowledges that Gaussian, Inc. is engaged in the
 business of creating and licensing software in the field of
 computational chemistry and represents and warrants to the
 licensee that it is not a competitor of Gaussian, Inc. and that
 it will not use this program in any manner prohibited above.
 ---------------------------------------------------------------
  

 Cite this work as:
 Gaussian 09, Revision D.01,
 M. J. Frisch, G. W. Trucks, H. B. Schlegel, G. E. Scuseria, 
 M. A. Robb, J. R. Cheeseman, G. Scalmani, V. Barone, B. Mennucci, 
 G. A. Petersson, H. Nakatsuji, M. Caricato, X. Li, H. P. Hratchian, 
 A. F. Izmaylov, J. Bloino, G. Zheng, J. L. Sonnenberg, M. Hada, 
 M. Ehara, K. Toyota, R. Fukuda, J. Hasegawa, M. Ishida, T. Nakajima, 
 Y. Honda, O. Kitao, H. Nakai, T. Vreven, J. A. Montgomery, Jr., 
 J. E. Peralta, F. Ogliaro, M. Bearpark, J. J. Heyd, E. Brothers, 
 K. N. Kudin, V. N. Staroverov, T. Keith, R. Kobayashi, J. Normand, 
 K. Raghavachari, A. Rendell, J. C. Burant, S. S. Iyengar, J. Tomasi, 
 M. Cossi, N. Rega, J. M. Millam, M. Klene, J. E. Knox, J. B. Cross, 
 V. Bakken, C. Adamo, J. Jaramillo, R. Gomperts, R. E. Stratmann, 
 O. Yazyev, A. J. Austin, R. Cammi, C. Pomelli, J. W. Ochterski, 
 R. L. Martin, K. Morokuma, V. G. Zakrzewski, G. A. Voth, 
 P. Salvador, J. J. Dannenberg, S. Dapprich, A. D. Daniels, 
 O. Farkas, J. B. Foresman, J. V. Ortiz, J. Cioslowski, 
 and D. J. Fox, Gaussian, Inc., Wallingford CT, 2013.
 
 ******************************************
 Gaussian 09:  ES64L-G09RevD.01 24-Apr-2013
                29-Jun-2019 
 ******************************************
 %nproc=4
 Will use up to    4 processors via shared memory.
 %Mem=2GB
 -------------------------------------
 # td=(NStates=1) CAM-B3LYP/6-31G(d,p)
 -------------------------------------
 1/38=1/1;
 2/12=2,17=6,18=5,40=1/2;
 3/5=1,6=6,7=101,11=9,16=1,25=1,30=1,74=-40/1,2,8,3;
 4//1;
 5/5=2,38=5/2;
 8/6=1,10=2,108=1/1;
 9/41=1,42=1,70=2/14;
 6/7=2,8=2,9=2,10=2/1;
 99/5=1,9=1/99;
 --
 TD
 --
 Symbolic Z-matrix:
 Charge =  0 Multiplicity = 1
 12                   -7.14333   0.54066   0.05822 
 6                    -4.90441  -1.97307   0.52009 
 6                    -4.84097   2.76743   1.05364 
 6                    -9.40832   3.10626  -0.36399 
 6                    -9.44011  -1.73003  -0.96614 
 7                    -5.039     0.45399   0.7022 
 6                    -4.32041  -0.69594   0.76292 
 6                    -2.87752  -0.29909   1.26896 
 6                    -3.06873   1.18353   1.53103 
 6                    -4.42053   1.52737   1.04415 
 6                    -2.96233   1.43118   3.06205 
 6                    -1.93267  -0.58297   0.10228 
 6                    -0.53221  -0.30861   0.50867 
 6                     0.49021  -0.69654  -0.57534 
 8                     0.31099  -1.12283  -1.65395 
 8                     1.75356  -0.41569  -0.10545 
 7                    -7.1603    2.55909   0.39773 
 6                    -6.07887   3.33375   0.69145 
 6                    -6.3696    4.73379   0.8679 
 6                    -7.74671   4.8314    0.53966 
 6                    -8.16183   3.47442   0.22019 
 6                    -5.50746   5.81448   1.43831 
 6                    -8.5733    5.98928   0.34248 
 6                    -8.14194   7.25787   0.19654 
 7                    -9.08099   0.61345  -0.4297 
 6                    -9.85344   1.7872   -0.60932 
 6                    -11.15371   1.43268  -1.1014 
 6                    -11.21567  -0.01156  -1.23246 
 6                    -9.88024  -0.45856  -0.83437 
 6                    -12.2057   2.46672  -1.4749 
 6                    -12.37186  -0.82424  -1.73159 
 6                    -11.97407  -1.20986  -3.28053 
 7                    -7.27735  -1.48343  -0.10264 
 6                    -8.20635  -2.30379  -0.53989 
 6                    -7.7713   -3.642    -0.59012 
 6                    -6.46438  -3.59071  -0.18044 
 6                    -6.2115   -2.21577   0.2468 
 6                    -8.64013  -4.89956  -0.98367 
 6                    -5.29079  -4.40124   0.22629 
 8                    -5.07188  -5.60531   0.2062 
 6                    -4.15073  -3.25524   0.60528 
 6                    -3.52479  -3.60611   1.88934 
 8                    -3.74993  -3.03638   2.91009 
 8                    -2.75371  -4.70774   1.8545 
 6                    -2.25907  -5.30447   3.02228 
 6                     2.73086  -0.45415  -1.15563 
 6                     4.08578  -0.50366  -0.54555 
 6                     5.05466   0.36212  -0.94213 
 6                     4.9191    1.31093  -1.97443 
 6                     6.35416   0.41855  -0.15931 
 6                     7.53315  -0.10203  -0.97949 
 6                     8.99895   0.14094  -0.10791 
 6                     10.13531  -0.35109  -0.92494 
 6                     10.00499  -1.84074  -1.34702 
 6                     11.38728  -0.14142  -0.0901 
 6                     12.72216  -0.30528  -0.7677 
 6                     13.86181   0.00372   0.08456 
 6                     15.3039  -0.18976  -0.5742 
 6                     15.62413  -1.58654  -1.01878 
 6                     16.4589   0.48413   0.2945 
 6                     17.85096   0.43086  -0.22676 
 6                     18.83036   1.08523   0.81656 
 6                     20.26296   1.09218   0.29437 
 6                     20.28267   1.91758  -1.02918 
 6                     21.14616   1.68695   1.39661 
 1                    -3.89268   3.52465   1.48597 
 1                    -10.19952   4.19983  -0.64478 
 1                    -10.21716  -2.41343  -1.21952 
 1                    -2.43078  -0.95662   2.23797 
 1                    -2.33132   1.72932   0.93534 
 1                    -2.08982   0.88767   3.35 
 1                    -2.96141   2.60712   3.40858 
 1                    -3.81079   0.90039   3.60499 
 1                    -1.75472  -1.69573  -0.19967 
 1                    -2.05103  -0.0152   -0.81192 
 1                    -0.30694   0.7351    0.78167 
 1                    -0.50284  -1.08248   1.344 
 1                    -4.74266   6.37608   0.82217 
 1                    -6.19585   6.42499   1.85732 
 1                    -5.04115   5.5254    2.51142 
 1                    -9.68635   5.74155   0.52116 
 1                    -8.8364    8.18679   0.216 
 1                    -6.90781   7.39462   0.29162 
 1                    -12.17167   2.96817  -2.33684 
 1                    -13.12901   1.77655  -1.89244 
 1                    -12.40783   3.09876  -0.63203 
 1                    -12.65704  -1.88239  -1.15146 
 1                    -13.31853  -0.29476  -1.66645 
 1                    -12.83733  -1.65546  -3.60953 
 1                    -12.0048  -0.36144  -3.85607 
 1                    -11.09816  -1.91109  -3.16142 
 1                    -8.63612  -4.96075  -2.17988 
 1                    -8.14937  -5.83691  -0.63942 
 1                    -9.6962   -4.61131  -0.48017 
 1                    -3.24687  -3.26392  -0.1488 
 1                    -1.77615  -4.48997   3.65802 
 1                    -3.07635  -5.51292   3.64519 
 1                    -1.80767  -6.34575   2.75889 
 1                     2.59652  -1.468    -1.63082 
 1                     2.56992   0.11411  -2.07747 
 1                     4.18693  -1.21932   0.40689 
 1                     3.76682   1.4978   -2.34731 
 1                     5.53818   2.25923  -1.79251 
 1                     5.40638   0.81771  -2.78557 
 1                     6.70146   1.47209   0.04595 
 1                     6.40458  -0.12417   0.73508 
 1                     7.50952  -1.24259  -1.27002 
 1                     7.76425   0.24459  -1.92045 
 1                     8.95289   1.15383   0.01869 
 1                     8.7979   -0.56595   0.63785 
 1                     10.14125   0.242    -1.83238 
 1                     9.10791  -1.73142  -2.09333 
 1                     10.97216  -2.09787  -1.88928 
 1                     10.03978  -2.62333  -0.44685 
 1                     11.06711   0.91245   0.39084 
 1                     11.46835  -0.94316   0.64087 
 1                     12.80492  -1.18422  -1.37853 
 1                     12.68404   0.44435  -1.65529 
 1                     13.73149   1.09847   0.17965 
 1                     13.69494  -0.52005   1.05724 
 1                     15.26825   0.60173  -1.50208 
 1                     15.68213  -2.39197  -0.12235 
 1                     14.75241  -2.04642  -1.64377 
 1                     16.61779  -1.82074  -1.5096 
 1                     16.21151   1.38039   0.49938 
 1                     16.27156   0.11566   1.43481 
 1                     18.2453  -0.51615  -0.39991 
 1                     17.74077   1.04758  -1.18734 
 1                     18.55847   2.08687   0.8728 
 1                     18.79761   0.5881    1.71739 
 1                     20.40227   0.13907  -0.00333 
 1                     19.6767   2.78188  -0.8828 
 1                     21.24175   2.22015  -1.15617 
 1                     20.00501   1.19993  -1.85488 
 1                     21.32225   0.97322   2.23987 
 1                     22.12314   1.8888    0.88735 
 1                     20.73509   2.56632   1.79568 
 
 Stoichiometry    C55H72MgN4O5
 Framework group  C1[X(C55H72MgN4O5)]
 Deg. of freedom   405
 Full point group                 C1      NOp   1
 Largest Abelian subgroup         C1      NOp   1
 Largest concise Abelian subgroup C1      NOp   1
                         Standard orientation:                         
 ---------------------------------------------------------------------
 Center     Atomic      Atomic             Coordinates (Angstroms)
 Number     Number       Type             X           Y           Z
 ---------------------------------------------------------------------
      1         12           0       -7.141737    0.544136    0.051472
      2          6           0       -4.904283   -1.968230    0.527634
      3          6           0       -4.839011    2.774903    1.037023
      4          6           0       -9.405266    3.108584   -0.385320
      5          6           0       -9.438891   -1.730707   -0.962804
      6          7           0       -5.037871    0.459785    0.697264
      7          6           0       -4.319854   -0.690145    0.764327
      8          6           0       -2.877112   -0.291373    1.269288
      9          6           0       -3.067809    1.192648    1.523654
     10          6           0       -4.419134    1.534620    1.034141
     11          6           0       -2.962306    1.448061    3.053464
     12          6           0       -1.931628   -0.581644    0.104691
     13          6           0       -0.531312   -0.305851    0.510597
     14          6           0        0.491640   -0.699782   -0.570744
     15          8           0        0.312934   -1.131491   -1.647288
     16          8           0        1.754815   -0.417109   -0.101468
     17          7           0       -7.158007    2.564275    0.380665
     18          6           0       -6.076404    3.339936    0.671130
     19          6           0       -6.366614    4.740991    0.840248
     20          6           0       -7.743453    4.837554    0.510604
     21          6           0       -8.158991    3.479146    0.197793
     22          6           0       -5.504341    5.824183    1.405697
     23          6           0       -8.569381    5.994792    0.306976
     24          6           0       -8.137348    7.262420    0.154837
     25          7           0       -9.079050    0.615317   -0.438097
     26          6           0       -9.850835    1.788490   -0.624205
     27          6           0      -11.150948    1.432062   -1.115334
     28          6           0      -11.213488   -0.012801   -1.239059
     29          6           0       -9.878524   -0.458381   -0.837814
     30          6           0      -12.202215    2.464659   -1.494792
     31          6           0      -12.369723   -0.827495   -1.734790
     32          6           0      -11.971101   -1.221200   -3.281478
     33          7           0       -7.276593   -1.480687   -0.099150
     34          6           0       -8.205676   -2.302842   -0.532816
     35          6           0       -7.771219   -3.641492   -0.575924
     36          6           0       -6.464542   -3.588715   -0.165655
     37          6           0       -6.211302   -2.211722    0.254725
     38          6           0       -8.640371   -4.900651   -0.963622
     39          6           0       -5.291587   -4.397688    0.245981
     40          8           0       -5.073222   -5.601952    0.232177
     41          6           0       -4.151250   -3.250292    0.619867
     42          6           0       -3.526312   -3.594888    1.906112
     43          8           0       -3.751860   -3.019852    2.923796
     44          8           0       -2.755717   -4.697036    1.877406
     45          6           0       -2.262120   -5.288026    3.048542
     46          6           0        2.732780   -0.461384   -1.150791
     47          6           0        4.087281   -0.508399   -0.539571
     48          6           0        5.056817    0.354905   -0.939935
     49          6           0        4.922372    1.298491   -1.977153
     50          6           0        6.355833    0.414737   -0.156556
     51          6           0        7.535119   -0.110566   -0.973287
     52          6           0        9.000457    0.136186   -0.102000
     53          6           0       10.137131   -0.360535   -0.915756
     54          6           0       10.006394   -1.852262   -1.330310
     55          6           0       11.388645   -0.147172   -0.081173
     56          6           0       12.723893   -0.315102   -0.757048
     57          6           0       13.863129   -0.002277    0.094367
     58          6           0       15.305555   -0.199782   -0.562444
     59          6           0       15.625433   -1.598960   -0.999677
     60          6           0       16.460299    0.478009    0.303564
     61          6           0       17.852678    0.421440   -0.216501
     62          6           0       18.831693    1.080678    0.824115
     63          6           0       20.264643    1.084311    0.302834
     64          6           0       20.285596    1.902927   -1.024897
     65          6           0       21.147393    1.684294    1.402602
     66          1           0       -3.890652    3.533885    1.466110
     67          1           0      -10.195786    4.201064   -0.672210
     68          1           0      -10.216096   -2.415034   -1.213195
     69          1           0       -2.431314   -0.944153    2.241934
     70          1           0       -2.329763    1.735054    0.925674
     71          1           0       -2.090234    0.905633    3.344754
     72          1           0       -2.961068    2.625755    3.393983
     73          1           0       -3.811364    0.920443    3.598552
     74          1           0       -1.753993   -1.696006   -0.191462
     75          1           0       -2.049128   -0.018491   -0.812468
     76          1           0       -0.305736    0.739136    0.778415
     77          1           0       -0.502841   -1.075463    1.349883
     78          1           0       -4.738879    6.382280    0.787206
     79          1           0       -6.192732    6.437139    1.821132
     80          1           0       -5.038869    5.540366    2.480580
     81          1           0       -9.682662    5.748480    0.486181
     82          1           0       -8.831393    8.191741    0.169106
     83          1           0       -6.903210    7.399087    0.250040
     84          1           0      -12.167392    2.961692   -2.359260
     85          1           0      -13.125568    1.772793   -1.909416
     86          1           0      -12.404605    3.101089   -0.655299
     87          1           0      -12.655772   -1.882536   -1.149452
     88          1           0      -13.316191   -0.297256   -1.672983
     89          1           0      -12.834351   -1.668070   -3.608775
     90          1           0      -12.001060   -0.375715   -3.861368
     91          1           0      -11.095593   -1.922213   -3.158213
     92          1           0       -8.635605   -4.967944   -2.159499
     93          1           0       -8.150263   -5.836457   -0.614270
     94          1           0       -9.696635   -4.609346   -0.462294
     95          1           0       -3.246906   -3.263235   -0.133567
     96          1           0       -1.779242   -4.470509    3.680433
     97          1           0       -3.079909   -5.492920    3.671968
     98          1           0       -1.811032   -6.330841    2.790767
     99          1           0        2.598291   -1.477577   -1.620885
    100          1           0        2.572708    0.102245   -2.075624
    101          1           0        4.187473   -1.219230    0.416576
    102          1           0        3.770422    1.483988   -2.351734
    103          1           0        5.541768    2.247429   -1.799668
    104          1           0        5.409953    0.800921   -2.785440
    105          1           0        6.703485    1.469154    0.043557
    106          1           0        6.405418   -0.123430    0.740632
    107          1           0        7.511157   -1.252576   -1.258011
    108          1           0        7.766993    0.231144   -1.915857
    109          1           0        8.954784    1.149723    0.019397
    110          1           0        8.798591   -0.566805    0.647228
    111          1           0       10.143931    0.227913   -1.826205
    112          1           0        9.109854   -1.746339   -2.077766
    113          1           0       10.973804   -2.112592   -1.870612
    114          1           0       10.040237   -2.630263   -0.426134
    115          1           0       11.068648    0.909276    0.394171
    116          1           0       11.468864   -0.945209    0.653933
    117          1           0       12.806645   -1.197185   -1.363328
    118          1           0       12.686699    0.430006   -1.648484
    119          1           0       13.733254    1.093003    0.183791
    120          1           0       13.695373   -0.521006    1.069603
    121          1           0       15.270882    0.586979   -1.494375
    122          1           0       15.682478   -2.399824   -0.099110
    123          1           0       14.753918   -2.061627   -1.622887
    124          1           0       16.619310   -1.836112   -1.488645
    125          1           0       16.213186    1.375411    0.503708
    126          1           0       16.272041    0.115443    1.445614
    127          1           0       18.246697   -0.526622   -0.384550
    128          1           0       17.743405    1.033294   -1.180290
    129          1           0       18.560234    2.082717    0.875061
    130          1           0       18.798120    0.588170    1.727443
    131          1           0       20.403705    0.129625    0.010093
    132          1           0       19.679935    2.768240   -0.883329
    133          1           0       21.244901    2.204407   -1.152796
    134          1           0       20.008150    1.181203   -1.847102
    135          1           0       21.322601    0.974790    2.249617
    136          1           0       22.124794    1.883088    0.892968
    137          1           0       20.736461    2.565875    1.796907
 ---------------------------------------------------------------------
 Rotational constants (GHZ):      0.0651111      0.0061235      0.0057690
 Standard basis: 6-31G(d,p) (6D, 7F)
 There are  1339 symmetry adapted cartesian basis functions of A   symmetry.
 There are  1339 symmetry adapted basis functions of A   symmetry.
  1339 basis functions,  2348 primitive gaussians,  1339 cartesian basis functions
   241 alpha electrons      241 beta electrons
       nuclear repulsion energy      8776.2735328673 Hartrees.
 NAtoms=  137 NActive=  137 NUniq=  137 SFac= 1.00D+00 NAtFMM=   60 NAOKFM=T Big=T
 Integral buffers will be    131072 words long.
 Raffenetti 1 integral format.
 Two-electron integral symmetry is turned on.
 One-electron integrals computed using PRISM.
 NBasis=  1339 RedAO= T EigKep=  3.50D-04  NBF=  1339
 NBsUse=  1339 1.00D-06 EigRej= -1.00D+00 NBFU=  1339
 ExpMin= 4.21D-02 ExpMax= 1.17D+04 ExpMxC= 1.76D+03 IAcc=2 IRadAn=         4 AccDes= 0.00D+00
 Harris functional with IExCor=20419 and IRadAn=       4 diagonalized for initial guess.
 HarFok:  IExCor=20419 AccDes= 0.00D+00 IRadAn=         4 IDoV= 1 UseB2=F ITyADJ=14
 ICtDFT=  3500011 ScaDFX=  1.000000  1.000000  1.000000  1.000000
 FoFCou: FMM=F IPFlag=           0 FMFlag=      100000 FMFlg1=        2001
         NFxFlg=           0 DoJE=T BraDBF=F KetDBF=T FulRan=T
         wScrn=  0.000000 ICntrl=     500 IOpCl=  0 I1Cent=   200000004 NGrid=           0
         NMat0=    1 NMatS0=      1 NMatT0=    0 NMatD0=    1 NMtDS0=    0 NMtDT0=    0
 Petite list used in FoFCou.
 Requested convergence on RMS density matrix=1.00D-08 within 128 cycles.
 Requested convergence on MAX density matrix=1.00D-06.
 Requested convergence on             energy=1.00D-06.
 No special actions if energy rises.
 SCF Done:  E(RCAM-B3LYP) =  -2932.61335579     A.U. after   18 cycles
            NFock= 18  Conv=0.70D-08     -V/T= 2.0092
 DoSCS=F DFT=T ScalE2(SS,OS)=  1.000000  1.000000
 ExpMin= 4.21D-02 ExpMax= 1.17D+04 ExpMxC= 1.76D+03 IAcc=3 IRadAn=         5 AccDes= 0.00D+00
 HarFok:  IExCor=  205 AccDes= 0.00D+00 IRadAn=         5 IDoV=-2 UseB2=F ITyADJ=14
 ICtDFT= 12500011 ScaDFX=  1.000000  1.000000  1.000000  1.000000
 Range of M.O.s used for correlation:    70  1339
 NBasis=  1339 NAE=   241 NBE=   241 NFC=    69 NFV=     0
 NROrb=   1270 NOA=   172 NOB=   172 NVA=  1098 NVB=  1098
 Would need an additional       2415464100000 words for in-memory AO integral storage.
 Orbital symmetries:
       Occupied  (A) (A) (A) (A) (A) (A) (A) (A) (A) (A) (A) (A)
                 (A) (A) (A) (A) (A) (A) (A) (A) (A) (A) (A) (A)
                 (A) (A) (A) (A) (A) (A) (A) (A) (A) (A) (A) (A)
                 (A) (A) (A) (A) (A) (A) (A) (A) (A) (A) (A) (A)
                 (A) (A) (A) (A) (A) (A) (A) (A) (A) (A) (A) (A)
                 (A) (A) (A) (A) (A) (A) (A) (A) (A) (A) (A) (A)
                 (A) (A) (A) (A) (A) (A) (A) (A) (A) (A) (A) (A)
                 (A) (A) (A) (A) (A) (A) (A) (A) (A) (A) (A) (A)
                 (A) (A) (A) (A) (A) (A) (A) (A) (A) (A) (A) (A)
                 (A) (A) (A) (A) (A) (A) (A) (A) (A) (A) (A) (A)
                 (A) (A) (A) (A) (A) (A) (A) (A) (A) (A) (A) (A)
                 (A) (A) (A) (A) (A) (A) (A) (A) (A) (A) (A) (A)
                 (A) (A) (A) (A) (A) (A) (A) (A) (A) (A) (A) (A)
                 (A) (A) (A) (A) (A) (A) (A) (A) (A) (A) (A) (A)
                 (A) (A) (A) (A) (A) (A) (A) (A) (A) (A) (A) (A)
                 (A) (A) (A) (A) (A) (A) (A) (A) (A) (A) (A) (A)
                 (A) (A) (A) (A) (A) (A) (A) (A) (A) (A) (A) (A)
                 (A) (A) (A) (A) (A) (A) (A) (A) (A) (A) (A) (A)
                 (A) (A) (A) (A) (A) (A) (A) (A) (A) (A) (A) (A)
                 (A) (A) (A) (A) (A) (A) (A) (A) (A) (A) (A) (A)
                 (A)
       Virtual   (A) (A) (A) (A) (A) (A) (A) (A) (A) (A) (A) (A)
                 (A) (A) (A) (A) (A) (A) (A) (A) (A) (A) (A) (A)
                 (A) (A) (A) (A) (A) (A) (A) (A) (A) (A) (A) (A)
                 (A) (A) (A) (A) (A) (A) (A) (A) (A) (A) (A) (A)
                 (A) (A) (A) (A) (A) (A) (A) (A) (A) (A) (A) (A)
                 (A) (A) (A) (A) (A) (A) (A) (A) (A) (A) (A) (A)
                 (A) (A) (A) (A) (A) (A) (A) (A) (A) (A) (A) (A)
                 (A) (A) (A) (A) (A) (A) (A) (A) (A) (A) (A) (A)
                 (A) (A) (A) (A) (A) (A) (A) (A) (A) (A) (A) (A)
                 (A) (A) (A) (A) (A) (A) (A) (A) (A) (A) (A) (A)
                 (A) (A) (A) (A) (A) (A) (A) (A) (A) (A) (A) (A)
                 (A) (A) (A) (A) (A) (A) (A) (A) (A) (A) (A) (A)
                 (A) (A) (A) (A) (A) (A) (A) (A) (A) (A) (A) (A)
                 (A) (A) (A) (A) (A) (A) (A) (A) (A) (A) (A) (A)
                 (A) (A) (A) (A) (A) (A) (A) (A) (A) (A) (A) (A)
                 (A) (A) (A) (A) (A) (A) (A) (A) (A) (A) (A) (A)
                 (A) (A) (A) (A) (A) (A) (A) (A) (A) (A) (A) (A)
                 (A) (A) (A) (A) (A) (A) (A) (A) (A) (A) (A) (A)
                 (A) (A) (A) (A) (A) (A) (A) (A) (A) (A) (A) (A)
                 (A) (A) (A) (A) (A) (A) (A) (A) (A) (A) (A) (A)
                 (A) (A) (A) (A) (A) (A) (A) (A) (A) (A) (A) (A)
                 (A) (A) (A) (A) (A) (A) (A) (A) (A) (A) (A) (A)
                 (A) (A) (A) (A) (A) (A) (A) (A) (A) (A) (A) (A)
                 (A) (A) (A) (A) (A) (A) (A) (A) (A) (A) (A) (A)
                 (A) (A) (A) (A) (A) (A) (A) (A) (A) (A) (A) (A)
                 (A) (A) (A) (A) (A) (A) (A) (A) (A) (A) (A) (A)
                 (A) (A) (A) (A) (A) (A) (A) (A) (A) (A) (A) (A)
                 (A) (A) (A) (A) (A) (A) (A) (A) (A) (A) (A) (A)
                 (A) (A) (A) (A) (A) (A) (A) (A) (A) (A) (A) (A)
                 (A) (A) (A) (A) (A) (A) (A) (A) (A) (A) (A) (A)
                 (A) (A) (A) (A) (A) (A) (A) (A) (A) (A) (A) (A)
                 (A) (A) (A) (A) (A) (A) (A) (A) (A) (A) (A) (A)
                 (A) (A) (A) (A) (A) (A) (A) (A) (A) (A) (A) (A)
                 (A) (A) (A) (A) (A) (A) (A) (A) (A) (A) (A) (A)
                 (A) (A) (A) (A) (A) (A) (A) (A) (A) (A) (A) (A)
                 (A) (A) (A) (A) (A) (A) (A) (A) (A) (A) (A) (A)
                 (A) (A) (A) (A) (A) (A) (A) (A) (A) (A) (A) (A)
                 (A) (A) (A) (A) (A) (A) (A) (A) (A) (A) (A) (A)
                 (A) (A) (A) (A) (A) (A) (A) (A) (A) (A) (A) (A)
                 (A) (A) (A) (A) (A) (A) (A) (A) (A) (A) (A) (A)
                 (A) (A) (A) (A) (A) (A) (A) (A) (A) (A) (A) (A)
                 (A) (A) (A) (A) (A) (A) (A) (A) (A) (A) (A) (A)
                 (A) (A) (A) (A) (A) (A) (A) (A) (A) (A) (A) (A)
                 (A) (A) (A) (A) (A) (A) (A) (A) (A) (A) (A) (A)
                 (A) (A) (A) (A) (A) (A) (A) (A) (A) (A) (A) (A)
                 (A) (A) (A) (A) (A) (A) (A) (A) (A) (A) (A) (A)
                 (A) (A) (A) (A) (A) (A) (A) (A) (A) (A) (A) (A)
                 (A) (A) (A) (A) (A) (A) (A) (A) (A) (A) (A) (A)
                 (A) (A) (A) (A) (A) (A) (A) (A) (A) (A) (A) (A)
                 (A) (A) (A) (A) (A) (A) (A) (A) (A) (A) (A) (A)
                 (A) (A) (A) (A) (A) (A) (A) (A) (A) (A) (A) (A)
                 (A) (A) (A) (A) (A) (A) (A) (A) (A) (A) (A) (A)
                 (A) (A) (A) (A) (A) (A) (A) (A) (A) (A) (A) (A)
                 (A) (A) (A) (A) (A) (A) (A) (A) (A) (A) (A) (A)
                 (A) (A) (A) (A) (A) (A) (A) (A) (A) (A) (A) (A)
                 (A) (A) (A) (A) (A) (A) (A) (A) (A) (A) (A) (A)
                 (A) (A) (A) (A) (A) (A) (A) (A) (A) (A) (A) (A)
                 (A) (A) (A) (A) (A) (A) (A) (A) (A) (A) (A) (A)
                 (A) (A) (A) (A) (A) (A) (A) (A) (A) (A) (A) (A)
                 (A) (A) (A) (A) (A) (A) (A) (A) (A) (A) (A) (A)
                 (A) (A) (A) (A) (A) (A) (A) (A) (A) (A) (A) (A)
                 (A) (A) (A) (A) (A) (A) (A) (A) (A) (A) (A) (A)
                 (A) (A) (A) (A) (A) (A) (A) (A) (A) (A) (A) (A)
                 (A) (A) (A) (A) (A) (A) (A) (A) (A) (A) (A) (A)
                 (A) (A) (A) (A) (A) (A) (A) (A) (A) (A) (A) (A)
                 (A) (A) (A) (A) (A) (A) (A) (A) (A) (A) (A) (A)
                 (A) (A) (A) (A) (A) (A) (A) (A) (A) (A) (A) (A)
                 (A) (A) (A) (A) (A) (A) (A) (A) (A) (A) (A) (A)
                 (A) (A) (A) (A) (A) (A) (A) (A) (A) (A) (A) (A)
                 (A) (A) (A) (A) (A) (A) (A) (A) (A) (A) (A) (A)
                 (A) (A) (A) (A) (A) (A) (A) (A) (A) (A) (A) (A)
                 (A) (A) (A) (A) (A) (A) (A) (A) (A) (A) (A) (A)
                 (A) (A) (A) (A) (A) (A) (A) (A) (A) (A) (A) (A)
                 (A) (A) (A) (A) (A) (A) (A) (A) (A) (A) (A) (A)
                 (A) (A) (A) (A) (A) (A) (A) (A) (A) (A) (A) (A)
                 (A) (A) (A) (A) (A) (A) (A) (A) (A) (A) (A) (A)
                 (A) (A) (A) (A) (A) (A) (A) (A) (A) (A) (A) (A)
                 (A) (A) (A) (A) (A) (A) (A) (A) (A) (A) (A) (A)
                 (A) (A) (A) (A) (A) (A) (A) (A) (A) (A) (A) (A)
                 (A) (A) (A) (A) (A) (A) (A) (A) (A) (A) (A) (A)
                 (A) (A) (A) (A) (A) (A) (A) (A) (A) (A) (A) (A)
                 (A) (A) (A) (A) (A) (A) (A) (A) (A) (A) (A) (A)
                 (A) (A) (A) (A) (A) (A) (A) (A) (A) (A) (A) (A)
                 (A) (A) (A) (A) (A) (A) (A) (A) (A) (A) (A) (A)
                 (A) (A) (A) (A) (A) (A) (A) (A) (A) (A) (A) (A)
                 (A) (A) (A) (A) (A) (A) (A) (A) (A) (A) (A) (A)
                 (A) (A) (A) (A) (A) (A) (A) (A) (A) (A) (A) (A)
                 (A) (A) (A) (A) (A) (A) (A) (A) (A) (A) (A) (A)
                 (A) (A) (A) (A) (A) (A) (A) (A) (A) (A) (A) (A)
                 (A) (A) (A) (A) (A) (A) (A) (A) (A) (A) (A) (A)
                 (A) (A) (A) (A) (A) (A) (A) (A) (A) (A) (A) (A)
                 (A) (A) (A) (A) (A) (A)
     8 initial guesses have been made.
 Convergence on wavefunction:    0.001000000000000
 Iteration     1 Dimension     8 NMult     0 NNew      8
 CISAX will form     8 AO SS matrices at one time.
 Iteration     2 Dimension    12 NMult     8 NNew      4
 Iteration     3 Dimension    16 NMult    12 NNew      4
 Iteration     4 Dimension    20 NMult    16 NNew      4
 Iteration     5 Dimension    24 NMult    20 NNew      4
 Iteration     6 Dimension    28 NMult    24 NNew      4
 ***********************************************************************
 Excited states from <AA,BB:AA,BB> singles matrix:
 ***********************************************************************
 
 Ground to excited state transition densities written to RWF  633
 Ground to excited state transition electric dipole moments (Au):
       state          X           Y           Z        Dip. S.      Osc.
         1         0.7653     -2.3127      0.0069      5.9343      0.2928
 Ground to excited state transition velocity dipole moments (Au):
       state          X           Y           Z        Dip. S.      Osc.
         1        -0.0536      0.1670     -0.0002      0.0308      0.2771
 Ground to excited state transition magnetic dipole moments (Au):
       state          X           Y           Z
         1         0.2110      0.0252     -2.9519
 Ground to excited state transition velocity quadrupole moments (Au):
       state          XX          YY          ZZ          XY          XZ          YZ
         1         1.2469      0.4385      0.0234     -2.0901      0.0433      0.1478
 <0|del|b> * <b|rxdel|0> + <0|del|b> * <b|delr+rdel|0>
 Rotatory Strengths (R) in cgs (10**-40 erg-esu-cm/Gauss)
       state          XX          YY          ZZ    R(velocity)    E-M Angle
         1       -10.7459    -91.2130     38.4809    -21.1593       90.73
 1/2[<0|r|b>*<b|rxdel|0> + (<0|rxdel|b>*<b|r|0>)*]
 Rotatory Strengths (R) in cgs (10**-40 erg-esu-cm/Gauss)
       state          XX          YY          ZZ     R(length)
         1      -114.1705     41.1761     14.4773    -19.5057
  1/2[<0|del|b>*<b|r|0> + (<0|r|b>*<b|del|0>)*] (Au)
       state          X           Y           Z        Dip. S.   Osc.(frdel)
         1        -0.0410     -0.3863      0.0000      0.4273      0.2849

 Excitation energies and oscillator strengths:
 
 Excited State   1:      Singlet-A      2.0141 eV  615.59 nm  f=0.2928  <S**2>=0.000
     240 -> 243        0.25689
     241 -> 242        0.64910
 This state for optimization and/or second-order correction.
 Total Energy, E(TD-HF/TD-KS) =  -2932.53933999    
 Copying the excited state density for this state as the 1-particle RhoCI density.
 SavETr:  write IOETrn=   770 NScale= 10 NData=  16 NLR=1 NState=    1 LETran=      28.

 **********************************************************************

            Population analysis using the SCF density.

 **********************************************************************

 Orbital symmetries:
       Occupied  (A) (A) (A) (A) (A) (A) (A) (A) (A) (A) (A) (A)
                 (A) (A) (A) (A) (A) (A) (A) (A) (A) (A) (A) (A)
                 (A) (A) (A) (A) (A) (A) (A) (A) (A) (A) (A) (A)
                 (A) (A) (A) (A) (A) (A) (A) (A) (A) (A) (A) (A)
                 (A) (A) (A) (A) (A) (A) (A) (A) (A) (A) (A) (A)
                 (A) (A) (A) (A) (A) (A) (A) (A) (A) (A) (A) (A)
                 (A) (A) (A) (A) (A) (A) (A) (A) (A) (A) (A) (A)
                 (A) (A) (A) (A) (A) (A) (A) (A) (A) (A) (A) (A)
                 (A) (A) (A) (A) (A) (A) (A) (A) (A) (A) (A) (A)
                 (A) (A) (A) (A) (A) (A) (A) (A) (A) (A) (A) (A)
                 (A) (A) (A) (A) (A) (A) (A) (A) (A) (A) (A) (A)
                 (A) (A) (A) (A) (A) (A) (A) (A) (A) (A) (A) (A)
                 (A) (A) (A) (A) (A) (A) (A) (A) (A) (A) (A) (A)
                 (A) (A) (A) (A) (A) (A) (A) (A) (A) (A) (A) (A)
                 (A) (A) (A) (A) (A) (A) (A) (A) (A) (A) (A) (A)
                 (A) (A) (A) (A) (A) (A) (A) (A) (A) (A) (A) (A)
                 (A) (A) (A) (A) (A) (A) (A) (A) (A) (A) (A) (A)
                 (A) (A) (A) (A) (A) (A) (A) (A) (A) (A) (A) (A)
                 (A) (A) (A) (A) (A) (A) (A) (A) (A) (A) (A) (A)
                 (A) (A) (A) (A) (A) (A) (A) (A) (A) (A) (A) (A)
                 (A)
       Virtual   (A) (A) (A) (A) (A) (A) (A) (A) (A) (A) (A) (A)
                 (A) (A) (A) (A) (A) (A) (A) (A) (A) (A) (A) (A)
                 (A) (A) (A) (A) (A) (A) (A) (A) (A) (A) (A) (A)
                 (A) (A) (A) (A) (A) (A) (A) (A) (A) (A) (A) (A)
                 (A) (A) (A) (A) (A) (A) (A) (A) (A) (A) (A) (A)
                 (A) (A) (A) (A) (A) (A) (A) (A) (A) (A) (A) (A)
                 (A) (A) (A) (A) (A) (A) (A) (A) (A) (A) (A) (A)
                 (A) (A) (A) (A) (A) (A) (A) (A) (A) (A) (A) (A)
                 (A) (A) (A) (A) (A) (A) (A) (A) (A) (A) (A) (A)
                 (A) (A) (A) (A) (A) (A) (A) (A) (A) (A) (A) (A)
                 (A) (A) (A) (A) (A) (A) (A) (A) (A) (A) (A) (A)
                 (A) (A) (A) (A) (A) (A) (A) (A) (A) (A) (A) (A)
                 (A) (A) (A) (A) (A) (A) (A) (A) (A) (A) (A) (A)
                 (A) (A) (A) (A) (A) (A) (A) (A) (A) (A) (A) (A)
                 (A) (A) (A) (A) (A) (A) (A) (A) (A) (A) (A) (A)
                 (A) (A) (A) (A) (A) (A) (A) (A) (A) (A) (A) (A)
                 (A) (A) (A) (A) (A) (A) (A) (A) (A) (A) (A) (A)
                 (A) (A) (A) (A) (A) (A) (A) (A) (A) (A) (A) (A)
                 (A) (A) (A) (A) (A) (A) (A) (A) (A) (A) (A) (A)
                 (A) (A) (A) (A) (A) (A) (A) (A) (A) (A) (A) (A)
                 (A) (A) (A) (A) (A) (A) (A) (A) (A) (A) (A) (A)
                 (A) (A) (A) (A) (A) (A) (A) (A) (A) (A) (A) (A)
                 (A) (A) (A) (A) (A) (A) (A) (A) (A) (A) (A) (A)
                 (A) (A) (A) (A) (A) (A) (A) (A) (A) (A) (A) (A)
                 (A) (A) (A) (A) (A) (A) (A) (A) (A) (A) (A) (A)
                 (A) (A) (A) (A) (A) (A) (A) (A) (A) (A) (A) (A)
                 (A) (A) (A) (A) (A) (A) (A) (A) (A) (A) (A) (A)
                 (A) (A) (A) (A) (A) (A) (A) (A) (A) (A) (A) (A)
                 (A) (A) (A) (A) (A) (A) (A) (A) (A) (A) (A) (A)
                 (A) (A) (A) (A) (A) (A) (A) (A) (A) (A) (A) (A)
                 (A) (A) (A) (A) (A) (A) (A) (A) (A) (A) (A) (A)
                 (A) (A) (A) (A) (A) (A) (A) (A) (A) (A) (A) (A)
                 (A) (A) (A) (A) (A) (A) (A) (A) (A) (A) (A) (A)
                 (A) (A) (A) (A) (A) (A) (A) (A) (A) (A) (A) (A)
                 (A) (A) (A) (A) (A) (A) (A) (A) (A) (A) (A) (A)
                 (A) (A) (A) (A) (A) (A) (A) (A) (A) (A) (A) (A)
                 (A) (A) (A) (A) (A) (A) (A) (A) (A) (A) (A) (A)
                 (A) (A) (A) (A) (A) (A) (A) (A) (A) (A) (A) (A)
                 (A) (A) (A) (A) (A) (A) (A) (A) (A) (A) (A) (A)
                 (A) (A) (A) (A) (A) (A) (A) (A) (A) (A) (A) (A)
                 (A) (A) (A) (A) (A) (A) (A) (A) (A) (A) (A) (A)
                 (A) (A) (A) (A) (A) (A) (A) (A) (A) (A) (A) (A)
                 (A) (A) (A) (A) (A) (A) (A) (A) (A) (A) (A) (A)
                 (A) (A) (A) (A) (A) (A) (A) (A) (A) (A) (A) (A)
                 (A) (A) (A) (A) (A) (A) (A) (A) (A) (A) (A) (A)
                 (A) (A) (A) (A) (A) (A) (A) (A) (A) (A) (A) (A)
                 (A) (A) (A) (A) (A) (A) (A) (A) (A) (A) (A) (A)
                 (A) (A) (A) (A) (A) (A) (A) (A) (A) (A) (A) (A)
                 (A) (A) (A) (A) (A) (A) (A) (A) (A) (A) (A) (A)
                 (A) (A) (A) (A) (A) (A) (A) (A) (A) (A) (A) (A)
                 (A) (A) (A) (A) (A) (A) (A) (A) (A) (A) (A) (A)
                 (A) (A) (A) (A) (A) (A) (A) (A) (A) (A) (A) (A)
                 (A) (A) (A) (A) (A) (A) (A) (A) (A) (A) (A) (A)
                 (A) (A) (A) (A) (A) (A) (A) (A) (A) (A) (A) (A)
                 (A) (A) (A) (A) (A) (A) (A) (A) (A) (A) (A) (A)
                 (A) (A) (A) (A) (A) (A) (A) (A) (A) (A) (A) (A)
                 (A) (A) (A) (A) (A) (A) (A) (A) (A) (A) (A) (A)
                 (A) (A) (A) (A) (A) (A) (A) (A) (A) (A) (A) (A)
                 (A) (A) (A) (A) (A) (A) (A) (A) (A) (A) (A) (A)
                 (A) (A) (A) (A) (A) (A) (A) (A) (A) (A) (A) (A)
                 (A) (A) (A) (A) (A) (A) (A) (A) (A) (A) (A) (A)
                 (A) (A) (A) (A) (A) (A) (A) (A) (A) (A) (A) (A)
                 (A) (A) (A) (A) (A) (A) (A) (A) (A) (A) (A) (A)
                 (A) (A) (A) (A) (A) (A) (A) (A) (A) (A) (A) (A)
                 (A) (A) (A) (A) (A) (A) (A) (A) (A) (A) (A) (A)
                 (A) (A) (A) (A) (A) (A) (A) (A) (A) (A) (A) (A)
                 (A) (A) (A) (A) (A) (A) (A) (A) (A) (A) (A) (A)
                 (A) (A) (A) (A) (A) (A) (A) (A) (A) (A) (A) (A)
                 (A) (A) (A) (A) (A) (A) (A) (A) (A) (A) (A) (A)
                 (A) (A) (A) (A) (A) (A) (A) (A) (A) (A) (A) (A)
                 (A) (A) (A) (A) (A) (A) (A) (A) (A) (A) (A) (A)
                 (A) (A) (A) (A) (A) (A) (A) (A) (A) (A) (A) (A)
                 (A) (A) (A) (A) (A) (A) (A) (A) (A) (A) (A) (A)
                 (A) (A) (A) (A) (A) (A) (A) (A) (A) (A) (A) (A)
                 (A) (A) (A) (A) (A) (A) (A) (A) (A) (A) (A) (A)
                 (A) (A) (A) (A) (A) (A) (A) (A) (A) (A) (A) (A)
                 (A) (A) (A) (A) (A) (A) (A) (A) (A) (A) (A) (A)
                 (A) (A) (A) (A) (A) (A) (A) (A) (A) (A) (A) (A)
                 (A) (A) (A) (A) (A) (A) (A) (A) (A) (A) (A) (A)
                 (A) (A) (A) (A) (A) (A) (A) (A) (A) (A) (A) (A)
                 (A) (A) (A) (A) (A) (A) (A) (A) (A) (A) (A) (A)
                 (A) (A) (A) (A) (A) (A) (A) (A) (A) (A) (A) (A)
                 (A) (A) (A) (A) (A) (A) (A) (A) (A) (A) (A) (A)
                 (A) (A) (A) (A) (A) (A) (A) (A) (A) (A) (A) (A)
                 (A) (A) (A) (A) (A) (A) (A) (A) (A) (A) (A) (A)
                 (A) (A) (A) (A) (A) (A) (A) (A) (A) (A) (A) (A)
                 (A) (A) (A) (A) (A) (A) (A) (A) (A) (A) (A) (A)
                 (A) (A) (A) (A) (A) (A) (A) (A) (A) (A) (A) (A)
                 (A) (A) (A) (A) (A) (A) (A) (A) (A) (A) (A) (A)
                 (A) (A) (A) (A) (A) (A) (A) (A) (A) (A) (A) (A)
                 (A) (A) (A) (A) (A) (A) (A) (A) (A) (A) (A) (A)
                 (A) (A) (A) (A) (A) (A)
 The electronic state is 1-A.
 Alpha  occ. eigenvalues --  -46.84617 -19.25434 -19.25036 -19.21973 -19.21220
 Alpha  occ. eigenvalues --  -19.19960 -14.41573 -14.39871 -14.39241 -14.39140
 Alpha  occ. eigenvalues --  -10.39027 -10.38309 -10.36218 -10.31346 -10.31287
 Alpha  occ. eigenvalues --  -10.30748 -10.29815 -10.29794 -10.29765 -10.29561
 Alpha  occ. eigenvalues --  -10.29256 -10.28918 -10.28907 -10.28814 -10.28793
 Alpha  occ. eigenvalues --  -10.28773 -10.28628 -10.28467 -10.28435 -10.28162
 Alpha  occ. eigenvalues --  -10.27911 -10.27648 -10.27546 -10.27524 -10.27489
 Alpha  occ. eigenvalues --  -10.27328 -10.27247 -10.27147 -10.27112 -10.27085
 Alpha  occ. eigenvalues --  -10.26878 -10.26796 -10.26582 -10.26492 -10.26492
 Alpha  occ. eigenvalues --  -10.26480 -10.26410 -10.26326 -10.26095 -10.26038
 Alpha  occ. eigenvalues --  -10.25849 -10.25813 -10.25369 -10.25163 -10.25134
 Alpha  occ. eigenvalues --  -10.25104 -10.24977 -10.24530 -10.24448 -10.24314
 Alpha  occ. eigenvalues --  -10.24227 -10.24036 -10.23928 -10.23190 -10.22941
 Alpha  occ. eigenvalues --   -3.13657  -1.88361  -1.87885  -1.87843  -1.18997
 Alpha  occ. eigenvalues --   -1.18500  -1.10858  -1.10367  -1.09478  -1.06432
 Alpha  occ. eigenvalues --   -1.05690  -1.03882  -1.00981  -0.93138  -0.91744
 Alpha  occ. eigenvalues --   -0.91306  -0.90826  -0.90179  -0.89525  -0.88797
 Alpha  occ. eigenvalues --   -0.88150  -0.87942  -0.87235  -0.86837  -0.86186
 Alpha  occ. eigenvalues --   -0.85252  -0.84442  -0.83560  -0.83241  -0.82202
 Alpha  occ. eigenvalues --   -0.81465  -0.81059  -0.80111  -0.79792  -0.78007
 Alpha  occ. eigenvalues --   -0.77246  -0.77154  -0.76254  -0.76113  -0.75532
 Alpha  occ. eigenvalues --   -0.75297  -0.74880  -0.74347  -0.73093  -0.72599
 Alpha  occ. eigenvalues --   -0.71770  -0.70319  -0.69916  -0.68900  -0.68535
 Alpha  occ. eigenvalues --   -0.67129  -0.66760  -0.65719  -0.64999  -0.64672
 Alpha  occ. eigenvalues --   -0.64137  -0.63842  -0.62875  -0.62811  -0.61880
 Alpha  occ. eigenvalues --   -0.61399  -0.60774  -0.60488  -0.59038  -0.58753
 Alpha  occ. eigenvalues --   -0.58545  -0.57988  -0.57642  -0.57273  -0.56843
 Alpha  occ. eigenvalues --   -0.55853  -0.55352  -0.55174  -0.54947  -0.54851
 Alpha  occ. eigenvalues --   -0.54828  -0.54234  -0.53888  -0.53749  -0.53457
 Alpha  occ. eigenvalues --   -0.52938  -0.52655  -0.52470  -0.52334  -0.51515
 Alpha  occ. eigenvalues --   -0.51280  -0.51151  -0.51093  -0.50798  -0.50733
 Alpha  occ. eigenvalues --   -0.50676  -0.50552  -0.50148  -0.49715  -0.49504
 Alpha  occ. eigenvalues --   -0.49184  -0.48937  -0.48646  -0.48423  -0.48114
 Alpha  occ. eigenvalues --   -0.47747  -0.47688  -0.47231  -0.47077  -0.46978
 Alpha  occ. eigenvalues --   -0.46843  -0.46485  -0.46257  -0.46160  -0.45724
 Alpha  occ. eigenvalues --   -0.45685  -0.45483  -0.45315  -0.45209  -0.45055
 Alpha  occ. eigenvalues --   -0.44841  -0.44658  -0.44239  -0.44165  -0.43983
 Alpha  occ. eigenvalues --   -0.43923  -0.43724  -0.43694  -0.43302  -0.43141
 Alpha  occ. eigenvalues --   -0.43013  -0.42902  -0.42622  -0.42533  -0.42273
 Alpha  occ. eigenvalues --   -0.42050  -0.41958  -0.41869  -0.41808  -0.41429
 Alpha  occ. eigenvalues --   -0.41275  -0.40977  -0.40647  -0.40456  -0.40400
 Alpha  occ. eigenvalues --   -0.40219  -0.39635  -0.39459  -0.39445  -0.39316
 Alpha  occ. eigenvalues --   -0.39297  -0.38574  -0.38243  -0.38201  -0.38040
 Alpha  occ. eigenvalues --   -0.37509  -0.37422  -0.37320  -0.36926  -0.36727
 Alpha  occ. eigenvalues --   -0.36274  -0.35863  -0.35634  -0.35418  -0.35120
 Alpha  occ. eigenvalues --   -0.34983  -0.34852  -0.34520  -0.33520  -0.33303
 Alpha  occ. eigenvalues --   -0.33094  -0.32435  -0.32132  -0.31595  -0.30234
 Alpha  occ. eigenvalues --   -0.29982  -0.27935  -0.27861  -0.27174  -0.23058
 Alpha  occ. eigenvalues --   -0.21227
 Alpha virt. eigenvalues --   -0.06908  -0.03303   0.00896   0.03855   0.05254
 Alpha virt. eigenvalues --    0.06074   0.06595   0.06680   0.07226   0.07383
 Alpha virt. eigenvalues --    0.08687   0.09480   0.10264   0.10722   0.11401
 Alpha virt. eigenvalues --    0.11936   0.12037   0.12693   0.12738   0.12834
 Alpha virt. eigenvalues --    0.12863   0.13321   0.13690   0.13849   0.13903
 Alpha virt. eigenvalues --    0.14055   0.14265   0.14587   0.14981   0.15433
 Alpha virt. eigenvalues --    0.15663   0.15969   0.16212   0.16228   0.16368
 Alpha virt. eigenvalues --    0.16740   0.16904   0.17002   0.17298   0.17489
 Alpha virt. eigenvalues --    0.17541   0.17568   0.18015   0.18124   0.18147
 Alpha virt. eigenvalues --    0.18742   0.18884   0.18959   0.19232   0.19296
 Alpha virt. eigenvalues --    0.19431   0.19650   0.19830   0.20071   0.20169
 Alpha virt. eigenvalues --    0.20299   0.20437   0.20635   0.20803   0.20955
 Alpha virt. eigenvalues --    0.21027   0.21112   0.21227   0.21484   0.21550
 Alpha virt. eigenvalues --    0.21684   0.22009   0.22056   0.22362   0.22435
 Alpha virt. eigenvalues --    0.22590   0.22734   0.23212   0.23401   0.23678
 Alpha virt. eigenvalues --    0.23702   0.23931   0.24218   0.24406   0.24523
 Alpha virt. eigenvalues --    0.24607   0.24947   0.24971   0.25053   0.25249
 Alpha virt. eigenvalues --    0.25446   0.25629   0.25769   0.25907   0.26329
 Alpha virt. eigenvalues --    0.26510   0.26671   0.26854   0.26975   0.27259
 Alpha virt. eigenvalues --    0.27359   0.28036   0.28090   0.28171   0.28348
 Alpha virt. eigenvalues --    0.28578   0.29005   0.29579   0.29729   0.30028
 Alpha virt. eigenvalues --    0.30277   0.30590   0.30736   0.30808   0.30927
 Alpha virt. eigenvalues --    0.31212   0.31339   0.31495   0.31631   0.31872
 Alpha virt. eigenvalues --    0.32197   0.32490   0.32626   0.33200   0.33449
 Alpha virt. eigenvalues --    0.33658   0.33954   0.34200   0.34577   0.34995
 Alpha virt. eigenvalues --    0.35087   0.35141   0.35723   0.35874   0.36100
 Alpha virt. eigenvalues --    0.36924   0.37242   0.37653   0.38062   0.38546
 Alpha virt. eigenvalues --    0.38812   0.38889   0.40532   0.40805   0.41084
 Alpha virt. eigenvalues --    0.41499   0.41768   0.41824   0.42434   0.42970
 Alpha virt. eigenvalues --    0.43574   0.44126   0.44252   0.44545   0.45484
 Alpha virt. eigenvalues --    0.46893   0.47440   0.47832   0.48668   0.48783
 Alpha virt. eigenvalues --    0.49614   0.50462   0.50751   0.51582   0.52396
 Alpha virt. eigenvalues --    0.52918   0.52978   0.53077   0.53326   0.53977
 Alpha virt. eigenvalues --    0.54588   0.54754   0.54835   0.55273   0.55953
 Alpha virt. eigenvalues --    0.56047   0.56163   0.56567   0.56725   0.57211
 Alpha virt. eigenvalues --    0.57311   0.57706   0.57813   0.57970   0.58171
 Alpha virt. eigenvalues --    0.58459   0.58777   0.59029   0.59323   0.59372
 Alpha virt. eigenvalues --    0.59497   0.59828   0.59958   0.60139   0.60379
 Alpha virt. eigenvalues --    0.60700   0.60902   0.61353   0.61432   0.61548
 Alpha virt. eigenvalues --    0.61718   0.62040   0.62099   0.62469   0.62889
 Alpha virt. eigenvalues --    0.63129   0.63374   0.63761   0.63858   0.64389
 Alpha virt. eigenvalues --    0.64531   0.64746   0.65082   0.65378   0.65440
 Alpha virt. eigenvalues --    0.65536   0.65811   0.65889   0.66311   0.66428
 Alpha virt. eigenvalues --    0.66925   0.67155   0.67412   0.67574   0.67791
 Alpha virt. eigenvalues --    0.67988   0.68417   0.68848   0.69156   0.69479
 Alpha virt. eigenvalues --    0.69624   0.69887   0.70512   0.70895   0.71103
 Alpha virt. eigenvalues --    0.71154   0.71190   0.71646   0.71887   0.72008
 Alpha virt. eigenvalues --    0.72304   0.72433   0.72722   0.73132   0.73294
 Alpha virt. eigenvalues --    0.73560   0.73605   0.74090   0.74461   0.74643
 Alpha virt. eigenvalues --    0.74871   0.75276   0.75420   0.75662   0.75815
 Alpha virt. eigenvalues --    0.75909   0.76247   0.76354   0.76588   0.76925
 Alpha virt. eigenvalues --    0.77799   0.77880   0.77932   0.78261   0.78434
 Alpha virt. eigenvalues --    0.78486   0.79078   0.79427   0.79758   0.79795
 Alpha virt. eigenvalues --    0.79900   0.80132   0.80435   0.80709   0.80806
 Alpha virt. eigenvalues --    0.81349   0.81431   0.81576   0.81751   0.81877
 Alpha virt. eigenvalues --    0.82212   0.82416   0.82784   0.82963   0.83201
 Alpha virt. eigenvalues --    0.83411   0.83596   0.83682   0.83921   0.84167
 Alpha virt. eigenvalues --    0.84335   0.84468   0.84621   0.84882   0.84913
 Alpha virt. eigenvalues --    0.85207   0.85382   0.85688   0.85766   0.86212
 Alpha virt. eigenvalues --    0.86334   0.86642   0.86780   0.86971   0.87188
 Alpha virt. eigenvalues --    0.87512   0.87988   0.88117   0.88212   0.88615
 Alpha virt. eigenvalues --    0.88767   0.88980   0.89428   0.89624   0.89730
 Alpha virt. eigenvalues --    0.89913   0.90012   0.90323   0.90364   0.90555
 Alpha virt. eigenvalues --    0.90619   0.90941   0.91161   0.91277   0.91467
 Alpha virt. eigenvalues --    0.91672   0.91790   0.91835   0.92086   0.92572
 Alpha virt. eigenvalues --    0.92671   0.92992   0.93335   0.93632   0.93780
 Alpha virt. eigenvalues --    0.93974   0.94142   0.94429   0.94757   0.94798
 Alpha virt. eigenvalues --    0.94980   0.95494   0.95625   0.95936   0.96161
 Alpha virt. eigenvalues --    0.96320   0.96541   0.96816   0.96908   0.97261
 Alpha virt. eigenvalues --    0.97371   0.97734   0.97801   0.97908   0.98062
 Alpha virt. eigenvalues --    0.98103   0.98479   0.98618   0.98938   0.99081
 Alpha virt. eigenvalues --    0.99551   0.99639   0.99702   0.99889   1.00186
 Alpha virt. eigenvalues --    1.00353   1.00477   1.00777   1.01144   1.01222
 Alpha virt. eigenvalues --    1.01445   1.01775   1.02024   1.02482   1.02607
 Alpha virt. eigenvalues --    1.02711   1.02802   1.03133   1.03738   1.03982
 Alpha virt. eigenvalues --    1.04059   1.04175   1.04440   1.04843   1.05019
 Alpha virt. eigenvalues --    1.05265   1.05607   1.05782   1.05928   1.06195
 Alpha virt. eigenvalues --    1.06565   1.07427   1.07493   1.07639   1.07899
 Alpha virt. eigenvalues --    1.08270   1.08362   1.08432   1.08970   1.09278
 Alpha virt. eigenvalues --    1.09377   1.09902   1.10007   1.10418   1.10928
 Alpha virt. eigenvalues --    1.11267   1.11974   1.12221   1.12548   1.13003
 Alpha virt. eigenvalues --    1.13617   1.14035   1.14959   1.15317   1.15705
 Alpha virt. eigenvalues --    1.15911   1.16302   1.16831   1.17451   1.17627
 Alpha virt. eigenvalues --    1.18125   1.18144   1.18662   1.19675   1.19943
 Alpha virt. eigenvalues --    1.20185   1.21049   1.21495   1.22637   1.23073
 Alpha virt. eigenvalues --    1.23928   1.24424   1.24709   1.24981   1.25100
 Alpha virt. eigenvalues --    1.25793   1.26554   1.27623   1.28288   1.28448
 Alpha virt. eigenvalues --    1.28819   1.29061   1.29290   1.29337   1.30353
 Alpha virt. eigenvalues --    1.30652   1.31267   1.31505   1.31894   1.32707
 Alpha virt. eigenvalues --    1.33842   1.34261   1.34355   1.35246   1.35494
 Alpha virt. eigenvalues --    1.35882   1.36469   1.36691   1.36869   1.37272
 Alpha virt. eigenvalues --    1.38069   1.38447   1.38890   1.39380   1.40135
 Alpha virt. eigenvalues --    1.41133   1.41407   1.41934   1.42395   1.42557
 Alpha virt. eigenvalues --    1.42919   1.43073   1.43839   1.43975   1.44693
 Alpha virt. eigenvalues --    1.44960   1.45608   1.46435   1.46730   1.47556
 Alpha virt. eigenvalues --    1.48111   1.48236   1.48836   1.48979   1.49319
 Alpha virt. eigenvalues --    1.49896   1.51474   1.52008   1.52431   1.52491
 Alpha virt. eigenvalues --    1.53157   1.53415   1.54009   1.54822   1.55172
 Alpha virt. eigenvalues --    1.55485   1.56094   1.56670   1.57294   1.57323
 Alpha virt. eigenvalues --    1.57994   1.58209   1.58728   1.58989   1.59236
 Alpha virt. eigenvalues --    1.60120   1.60926   1.61138   1.61759   1.61816
 Alpha virt. eigenvalues --    1.62515   1.62582   1.62877   1.63729   1.63851
 Alpha virt. eigenvalues --    1.64265   1.64922   1.65203   1.65446   1.66031
 Alpha virt. eigenvalues --    1.66348   1.66539   1.67317   1.67447   1.67821
 Alpha virt. eigenvalues --    1.68125   1.68142   1.68792   1.69574   1.69953
 Alpha virt. eigenvalues --    1.69996   1.70579   1.71147   1.71404   1.71525
 Alpha virt. eigenvalues --    1.72476   1.72966   1.73097   1.73409   1.74178
 Alpha virt. eigenvalues --    1.74435   1.74658   1.75006   1.75287   1.75417
 Alpha virt. eigenvalues --    1.76013   1.76527   1.76896   1.76953   1.77722
 Alpha virt. eigenvalues --    1.77984   1.78044   1.78414   1.78858   1.79914
 Alpha virt. eigenvalues --    1.80027   1.80693   1.81180   1.81860   1.82130
 Alpha virt. eigenvalues --    1.82394   1.82797   1.82983   1.83019   1.83597
 Alpha virt. eigenvalues --    1.83860   1.84344   1.84910   1.85080   1.85148
 Alpha virt. eigenvalues --    1.86101   1.86174   1.86457   1.86981   1.87138
 Alpha virt. eigenvalues --    1.87415   1.87523   1.88039   1.88721   1.88795
 Alpha virt. eigenvalues --    1.89051   1.89123   1.89238   1.89673   1.89701
 Alpha virt. eigenvalues --    1.90070   1.90242   1.90300   1.90310   1.90769
 Alpha virt. eigenvalues --    1.90864   1.91112   1.91668   1.91899   1.92276
 Alpha virt. eigenvalues --    1.92608   1.92799   1.93186   1.93346   1.93562
 Alpha virt. eigenvalues --    1.93887   1.94196   1.94588   1.94601   1.95049
 Alpha virt. eigenvalues --    1.95221   1.95399   1.95475   1.95731   1.95915
 Alpha virt. eigenvalues --    1.96042   1.96199   1.96519   1.96652   1.96830
 Alpha virt. eigenvalues --    1.97347   1.97727   1.98177   1.98396   1.98706
 Alpha virt. eigenvalues --    1.98787   1.99242   1.99774   1.99844   2.00660
 Alpha virt. eigenvalues --    2.00906   2.01166   2.01298   2.01619   2.01806
 Alpha virt. eigenvalues --    2.01964   2.02254   2.02597   2.02809   2.03348
 Alpha virt. eigenvalues --    2.03556   2.03802   2.04076   2.04150   2.04522
 Alpha virt. eigenvalues --    2.05244   2.05612   2.06300   2.06450   2.06592
 Alpha virt. eigenvalues --    2.06693   2.06823   2.07325   2.07582   2.08103
 Alpha virt. eigenvalues --    2.08279   2.08409   2.08563   2.08836   2.09486
 Alpha virt. eigenvalues --    2.09890   2.10445   2.10604   2.10941   2.11042
 Alpha virt. eigenvalues --    2.11223   2.11520   2.11748   2.12281   2.12488
 Alpha virt. eigenvalues --    2.12547   2.12751   2.12948   2.13236   2.13630
 Alpha virt. eigenvalues --    2.13786   2.14213   2.14517   2.14760   2.15044
 Alpha virt. eigenvalues --    2.15153   2.15580   2.16061   2.16231   2.16611
 Alpha virt. eigenvalues --    2.16975   2.17488   2.17815   2.17979   2.18318
 Alpha virt. eigenvalues --    2.18715   2.19017   2.19071   2.19703   2.19787
 Alpha virt. eigenvalues --    2.19996   2.20202   2.20600   2.20806   2.20900
 Alpha virt. eigenvalues --    2.21211   2.21405   2.21539   2.21825   2.22241
 Alpha virt. eigenvalues --    2.22561   2.22896   2.23026   2.23835   2.24013
 Alpha virt. eigenvalues --    2.24259   2.24752   2.25360   2.25606   2.25820
 Alpha virt. eigenvalues --    2.26763   2.27236   2.27766   2.28006   2.28364
 Alpha virt. eigenvalues --    2.28536   2.29083   2.29417   2.29531   2.29930
 Alpha virt. eigenvalues --    2.30536   2.30834   2.31085   2.31537   2.32069
 Alpha virt. eigenvalues --    2.32202   2.32654   2.33111   2.33375   2.33747
 Alpha virt. eigenvalues --    2.34009   2.34375   2.35015   2.35274   2.35326
 Alpha virt. eigenvalues --    2.35728   2.36044   2.36116   2.36371   2.36585
 Alpha virt. eigenvalues --    2.37217   2.37366   2.37439   2.37850   2.38016
 Alpha virt. eigenvalues --    2.38169   2.38222   2.38607   2.38992   2.40139
 Alpha virt. eigenvalues --    2.40438   2.40548   2.40588   2.40761   2.41107
 Alpha virt. eigenvalues --    2.41397   2.41571   2.41701   2.41949   2.42236
 Alpha virt. eigenvalues --    2.42413   2.42678   2.42894   2.43191   2.43417
 Alpha virt. eigenvalues --    2.43835   2.43957   2.44396   2.44660   2.44821
 Alpha virt. eigenvalues --    2.45368   2.45522   2.46089   2.46266   2.46401
 Alpha virt. eigenvalues --    2.46891   2.46948   2.47081   2.47609   2.48095
 Alpha virt. eigenvalues --    2.48300   2.48800   2.49104   2.49550   2.49786
 Alpha virt. eigenvalues --    2.49819   2.50089   2.50944   2.51035   2.51307
 Alpha virt. eigenvalues --    2.51525   2.52196   2.52303   2.53902   2.54202
 Alpha virt. eigenvalues --    2.54612   2.54722   2.55097   2.55261   2.55682
 Alpha virt. eigenvalues --    2.56016   2.56382   2.57021   2.57407   2.57902
 Alpha virt. eigenvalues --    2.58310   2.58505   2.58950   2.59055   2.59591
 Alpha virt. eigenvalues --    2.59789   2.60427   2.60539   2.60699   2.61060
 Alpha virt. eigenvalues --    2.61471   2.61575   2.61840   2.62574   2.62896
 Alpha virt. eigenvalues --    2.63106   2.63383   2.63879   2.65035   2.65172
 Alpha virt. eigenvalues --    2.65602   2.65652   2.66208   2.66701   2.67032
 Alpha virt. eigenvalues --    2.67135   2.67288   2.67531   2.67604   2.67758
 Alpha virt. eigenvalues --    2.68287   2.68681   2.68778   2.68992   2.69578
 Alpha virt. eigenvalues --    2.69764   2.70152   2.70443   2.70822   2.71035
 Alpha virt. eigenvalues --    2.71620   2.71970   2.72451   2.72633   2.72998
 Alpha virt. eigenvalues --    2.73150   2.73518   2.74350   2.74564   2.74806
 Alpha virt. eigenvalues --    2.75096   2.75189   2.75512   2.75958   2.76170
 Alpha virt. eigenvalues --    2.76487   2.76628   2.76916   2.77383   2.78055
 Alpha virt. eigenvalues --    2.78165   2.78265   2.78679   2.79502   2.79629
 Alpha virt. eigenvalues --    2.79958   2.80498   2.80794   2.80880   2.81426
 Alpha virt. eigenvalues --    2.81804   2.82058   2.82421   2.82443   2.82753
 Alpha virt. eigenvalues --    2.83078   2.83171   2.83928   2.84380   2.84837
 Alpha virt. eigenvalues --    2.84955   2.85534   2.85712   2.86124   2.86310
 Alpha virt. eigenvalues --    2.86692   2.87387   2.87651   2.87779   2.88298
 Alpha virt. eigenvalues --    2.88581   2.89130   2.89740   2.89984   2.90260
 Alpha virt. eigenvalues --    2.90451   2.90705   2.91115   2.91795   2.91973
 Alpha virt. eigenvalues --    2.92148   2.92428   2.92875   2.93053   2.93565
 Alpha virt. eigenvalues --    2.93962   2.94541   2.94753   2.95491   2.95574
 Alpha virt. eigenvalues --    2.96407   2.96959   2.97063   2.97481   2.97693
 Alpha virt. eigenvalues --    2.97956   2.99233   2.99257   2.99578   2.99952
 Alpha virt. eigenvalues --    3.00288   3.01208   3.01710   3.02229   3.02396
 Alpha virt. eigenvalues --    3.02840   3.02929   3.03037   3.03231   3.03792
 Alpha virt. eigenvalues --    3.04125   3.04565   3.05503   3.05759   3.06106
 Alpha virt. eigenvalues --    3.06779   3.07223   3.08064   3.08343   3.08871
 Alpha virt. eigenvalues --    3.09001   3.09406   3.10113   3.11020   3.11576
 Alpha virt. eigenvalues --    3.12164   3.12169   3.13068   3.14268   3.15080
 Alpha virt. eigenvalues --    3.15717   3.16201   3.16668   3.16737   3.17780
 Alpha virt. eigenvalues --    3.18608   3.19497   3.20017   3.20913   3.21513
 Alpha virt. eigenvalues --    3.22583   3.23365   3.23558   3.24055   3.26496
 Alpha virt. eigenvalues --    3.27488   3.29120   3.29448   3.29617   3.30103
 Alpha virt. eigenvalues --    3.30385   3.31239   3.31466   3.32136   3.32237
 Alpha virt. eigenvalues --    3.32662   3.33447   3.34442   3.34775   3.35463
 Alpha virt. eigenvalues --    3.36283   3.36704   3.37161   3.37804   3.38388
 Alpha virt. eigenvalues --    3.39281   3.39489   3.39853   3.39996   3.40371
 Alpha virt. eigenvalues --    3.41110   3.43235   3.43752   3.45277   3.45306
 Alpha virt. eigenvalues --    3.45575   3.45762   3.46342   3.46418   3.47200
 Alpha virt. eigenvalues --    3.47814   3.49328   3.49488   3.49765   3.49897
 Alpha virt. eigenvalues --    3.51427   3.52658   3.53237   3.54930   3.55160
 Alpha virt. eigenvalues --    3.55942   3.56861   3.57118   3.58003   3.58253
 Alpha virt. eigenvalues --    3.58618   3.59307   3.61207   3.61238   3.61998
 Alpha virt. eigenvalues --    3.62622   3.62871   3.65992   3.67933   3.69272
 Alpha virt. eigenvalues --    3.69368   3.69897   3.70095   3.70244   3.71705
 Alpha virt. eigenvalues --    3.72425   3.75038   3.80439   3.94445   4.07046
 Alpha virt. eigenvalues --    4.12588   4.16743   4.19006   4.21306   4.21867
 Alpha virt. eigenvalues --    4.22796   4.25903   4.27734   4.28167   4.28602
 Alpha virt. eigenvalues --    4.30118   4.30406   4.31763   4.32980   4.36453
 Alpha virt. eigenvalues --    4.36694   4.39069   4.39565   4.40164   4.41241
 Alpha virt. eigenvalues --    4.41473   4.43721   4.43916   4.44157   4.46555
 Alpha virt. eigenvalues --    4.47634   4.49126   4.49846   4.50519   4.51201
 Alpha virt. eigenvalues --    4.51857   4.53720   4.53877   4.55425   4.56077
 Alpha virt. eigenvalues --    4.56959   4.57175   4.58820   4.59602   4.62095
 Alpha virt. eigenvalues --    4.62489   4.63664   4.64196   4.64495   4.66805
 Alpha virt. eigenvalues --    4.67793   4.69062   4.71368   4.72610   4.74198
 Alpha virt. eigenvalues --    4.74625   4.77929   4.79787   4.80841   4.81690
 Alpha virt. eigenvalues --    4.85293   4.86759   4.87579   4.88185   4.91029
 Alpha virt. eigenvalues --    4.91460   4.95790   5.02612
          Condensed to atoms (all electrons):
 Mulliken charges:
               1
     1  Mg   0.824033
     2  C    0.088565
     3  C   -0.188780
     4  C   -0.185414
     5  C   -0.196497
     6  N   -0.639720
     7  C    0.287163
     8  C   -0.161333
     9  C   -0.155958
    10  C    0.409440
    11  C   -0.297583
    12  C   -0.179128
    13  C   -0.265528
    14  C    0.600348
    15  O   -0.440513
    16  O   -0.486932
    17  N   -0.683003
    18  C    0.278591
    19  C    0.037892
    20  C    0.014878
    21  C    0.298106
    22  C   -0.385456
    23  C   -0.060794
    24  C   -0.263749
    25  N   -0.717542
    26  C    0.306355
    27  C   -0.008695
    28  C    0.059073
    29  C    0.325052
    30  C   -0.355871
    31  C   -0.276881
    32  C   -0.307599
    33  N   -0.695867
    34  C    0.299220
    35  C    0.000472
    36  C   -0.033334
    37  C    0.269032
    38  C   -0.345322
    39  C    0.389912
    40  O   -0.449812
    41  C   -0.339700
    42  C    0.607607
    43  O   -0.467882
    44  O   -0.447799
    45  C   -0.085762
    46  C    0.005855
    47  C   -0.148587
    48  C    0.154505
    49  C   -0.370901
    50  C   -0.215621
    51  C   -0.239116
    52  C   -0.171403
    53  C   -0.068616
    54  C   -0.300954
    55  C   -0.151940
    56  C   -0.186271
    57  C   -0.164531
    58  C   -0.045295
    59  C   -0.305360
    60  C   -0.150766
    61  C   -0.188359
    62  C   -0.167427
    63  C   -0.071337
    64  C   -0.307889
    65  C   -0.312086
    66  H    0.069786
    67  H    0.079419
    68  H    0.081224
    69  H    0.113722
    70  H    0.107884
    71  H    0.115468
    72  H    0.089125
    73  H    0.125789
    74  H    0.107290
    75  H    0.120046
    76  H    0.133152
    77  H    0.129024
    78  H    0.125419
    79  H    0.143180
    80  H    0.096985
    81  H    0.092796
    82  H    0.111251
    83  H    0.091610
    84  H    0.140404
    85  H    0.071940
    86  H    0.126674
    87  H    0.085368
    88  H    0.114355
    89  H    0.110450
    90  H    0.124236
    91  H    0.119795
    92  H    0.118523
    93  H    0.150334
    94  H    0.112396
    95  H    0.151413
    96  H    0.117754
    97  H    0.132168
    98  H    0.129590
    99  H    0.117577
   100  H    0.118735
   101  H    0.092691
   102  H    0.096336
   103  H    0.109155
   104  H    0.139314
   105  H    0.092601
   106  H    0.111881
   107  H    0.085081
   108  H    0.098751
   109  H    0.103476
   110  H    0.110413
   111  H    0.083702
   112  H    0.096758
   113  H    0.095926
   114  H    0.092170
   115  H    0.067864
   116  H    0.088352
   117  H    0.097001
   118  H    0.065617
   119  H    0.099058
   120  H    0.087047
   121  H    0.055666
   122  H    0.078292
   123  H    0.091586
   124  H    0.107369
   125  H    0.100428
   126  H    0.044205
   127  H    0.097562
   128  H    0.090553
   129  H    0.090182
   130  H    0.096790
   131  H    0.089922
   132  H    0.100558
   133  H    0.100810
   134  H    0.099983
   135  H    0.099105
   136  H    0.091109
   137  H    0.110612
 Sum of Mulliken charges =   0.00000
 Mulliken charges with hydrogens summed into heavy atoms:
               1
     1  Mg   0.824033
     2  C    0.088565
     3  C   -0.118994
     4  C   -0.105996
     5  C   -0.115273
     6  N   -0.639720
     7  C    0.287163
     8  C   -0.047612
     9  C   -0.048074
    10  C    0.409440
    11  C    0.032800
    12  C    0.048209
    13  C   -0.003352
    14  C    0.600348
    15  O   -0.440513
    16  O   -0.486932
    17  N   -0.683003
    18  C    0.278591
    19  C    0.037892
    20  C    0.014878
    21  C    0.298106
    22  C   -0.019872
    23  C    0.032002
    24  C   -0.060887
    25  N   -0.717542
    26  C    0.306355
    27  C   -0.008695
    28  C    0.059073
    29  C    0.325052
    30  C   -0.016852
    31  C   -0.077158
    32  C    0.046882
    33  N   -0.695867
    34  C    0.299220
    35  C    0.000472
    36  C   -0.033334
    37  C    0.269032
    38  C    0.035931
    39  C    0.389912
    40  O   -0.449812
    41  C   -0.188288
    42  C    0.607607
    43  O   -0.467882
    44  O   -0.447799
    45  C    0.293749
    46  C    0.242168
    47  C   -0.055896
    48  C    0.154505
    49  C   -0.026096
    50  C   -0.011139
    51  C   -0.055283
    52  C    0.042486
    53  C    0.015086
    54  C   -0.016100
    55  C    0.004276
    56  C   -0.023652
    57  C    0.021575
    58  C    0.010371
    59  C   -0.028113
    60  C   -0.006132
    61  C   -0.000244
    62  C    0.019545
    63  C    0.018585
    64  C   -0.006537
    65  C   -0.011260
 Electronic spatial extent (au):  <R**2>=         178644.3033
 Charge=              0.0000 electrons
 Dipole moment (field-independent basis, Debye):
    X=              0.4599    Y=              4.5001    Z=             -0.3866  Tot=              4.5400
 Quadrupole moment (field-independent basis, Debye-Ang):
   XX=           -339.5427   YY=           -390.9028   ZZ=           -398.2339
   XY=            -16.4177   XZ=             14.1145   YZ=             -1.5600
 Traceless Quadrupole moment (field-independent basis, Debye-Ang):
   XX=             36.6838   YY=            -14.6763   ZZ=            -22.0074
   XY=            -16.4177   XZ=             14.1145   YZ=             -1.5600
 Octapole moment (field-independent basis, Debye-Ang**2):
  XXX=           -520.1250  YYY=            117.4012  ZZZ=             13.9092  XYY=            -47.8663
  XXY=             70.7165  XXZ=           -224.6087  XZZ=            -23.2653  YZZ=            -36.8288
  YYZ=             67.4577  XYZ=            -43.8827
 Hexadecapole moment (field-independent basis, Debye-Ang**3):
 XXXX=        -213890.9519 YYYY=         -17121.2489 ZZZZ=          -4198.3923 XXXY=           -852.7359
 XXXZ=           2534.8536 YYYX=           -929.7402 YYYZ=           -167.3597 ZZZX=            100.4744
 ZZZY=           -150.1230 XXYY=         -39569.2952 XXZZ=         -38754.6272 YYZZ=          -3503.0690
 XXYZ=            255.5852 YYXZ=            -64.2297 ZZXY=            100.6836
 N-N= 8.776273532867D+03 E-N=-2.437543008492D+04  KE= 2.905808476063D+03
 1\1\GINC-PEDRO-RYZENSSD\SP\RCAM-B3LYP TD-FC\6-31G(d,p)\C55H72Mg1N4O5\P
 ADAWAN\29-Jun-2019\0\\# td=(NStates=1) CAM-B3LYP/6-31G(d,p)\\TD\\0,1\M
 g,0,-7.1433260019,0.5406623069,0.058223871\C,0,-4.904409322,-1.9730694
 182,0.5200876437\C,0,-4.8409734036,2.7674310704,1.0536388211\C,0,-9.40
 83154203,3.1062630257,-0.3639877318\C,0,-9.4401050381,-1.7300331783,-0
 .9661447295\N,0,-5.0389966813,0.4539866592,0.7021977402\C,0,-4.3204096
 463,-0.6959402144,0.7629181946\C,0,-2.8775187131,-0.2990851806,1.26896
 23374\C,0,-3.0687271619,1.1835294854,1.531025909\C,0,-4.4205301397,1.5
 273731177,1.0441506763\C,0,-2.9623340244,1.4311796053,3.0620497311\C,0
 ,-1.9326675477,-0.5829723073,0.1022795538\C,0,-0.5322114751,-0.3086090
 923,0.5086694498\C,0,0.4902083992,-0.6965430864,-0.5753391857\O,0,0.31
 09916489,-1.1228336872,-1.6539546758\O,0,1.7535623812,-0.4156864754,-0
 .1054547656\N,0,-7.1603036389,2.559087316,0.3977349303\C,0,-6.07886501
 75,3.3337543293,0.6914471287\C,0,-6.3696049502,4.7337940098,0.86790455
 5\C,0,-7.7467052659,4.831403027,0.5396608731\C,0,-8.1618267359,3.47441
 77331,0.2201923584\C,0,-5.5074565269,5.8144825396,1.4383103562\C,0,-8.
 5732965421,5.9892839964,0.3424842703\C,0,-8.1419433921,7.2578718715,0.
 1965353912\N,0,-9.080993135,0.6134478231,-0.4297046758\C,0,-9.85343700
 27,1.7871994025,-0.6093160558\C,0,-11.1537101139,1.4326842588,-1.10140
 48901\C,0,-11.2156700877,-0.0115572784,-1.2324625125\C,0,-9.8802379075
 ,-0.4585643445,-0.8343727402\C,0,-12.205698812,2.4667189528,-1.4748980
 207\C,0,-12.3718572314,-0.8242434865,-1.731588336\C,0,-11.9740737394,-
 1.2098648717,-3.280526158\N,0,-7.2773539875,-1.4834277044,-0.102643383
 \C,0,-8.2063458569,-2.3037863181,-0.5398917951\C,0,-7.771304798,-3.641
 9983827,-0.5901174407\C,0,-6.4643819602,-3.5907133868,-0.1804405362\C,
 0,-6.2114959278,-2.2157677313,0.246796301\C,0,-8.6401343581,-4.8995627
 752,-0.9836679138\C,0,-5.2907856163,-4.4012361089,0.226291129\O,0,-5.0
 718785497,-5.6053131849,0.2061966545\C,0,-4.1507284828,-3.2552384579,0
 .6052814201\C,0,-3.5247868429,-3.6061066953,1.8893401137\O,0,-3.749928
 6475,-3.0363768705,2.9100947248\O,0,-2.7537067186,-4.7077389264,1.8545
 035384\C,0,-2.2590685454,-5.3044709164,3.0222835654\C,0,2.7308568623,-
 0.4541546732,-1.155630938\C,0,4.0857819006,-0.5036642158,-0.5455470834
 \C,0,5.0546590733,0.3621195365,-0.9421341136\C,0,4.9190993265,1.310925
 6289,-1.9744345346\C,0,6.3541618738,0.418550662,-0.1593126175\C,0,7.53
 3151054,-0.1020320851,-0.9794876175\C,0,8.9989489773,0.1409443609,-0.1
 079133855\C,0,10.1353144244,-0.3510922075,-0.9249388883\C,0,10.0049876
 85,-1.8407434092,-1.3470163631\C,0,11.3872798451,-0.1414150321,-0.0900
 988112\C,0,12.7221593849,-0.3052770436,-0.7676973095\C,0,13.861811869,
 0.0037236092,0.0845556686\C,0,15.3038957336,-0.1897615879,-0.574200470
 3\C,0,15.6241265149,-1.5865414399,-1.0187791577\C,0,16.4588991439,0.48
 41327994,0.2944986346\C,0,17.8509608004,0.4308612119,-0.226760956\C,0,
 18.8303584353,1.0852303698,0.8165640181\C,0,20.2629639762,1.0921849631
 ,0.2943690405\C,0,20.2826684957,1.9175774057,-1.0291787393\C,0,21.1461
 624903,1.6869530647,1.3966063622\H,0,-3.8926795265,3.5246508468,1.4859
 731183\H,0,-10.1995237041,4.1998275667,-0.6447787805\H,0,-10.217160977
 9,-2.4134313978,-1.219515499\H,0,-2.4307817689,-0.9566153252,2.2379710
 357\H,0,-2.3313227703,1.7293214207,0.9353379003\H,0,-2.0898227056,0.88
 76742564,3.3499952129\H,0,-2.9614109273,2.6071201686,3.408575425\H,0,-
 3.8107920604,0.9003944071,3.6049943839\H,0,-1.7547179987,-1.6957254929
 ,-0.1996749535\H,0,-2.0510293051,-0.0151994286,-0.8119162932\H,0,-0.30
 69377878,0.7351014336,0.7816704189\H,0,-0.5028362373,-1.0824812235,1.3
 439972756\H,0,-4.7426564333,6.3760827834,0.8221739996\H,0,-6.195854255
 7,6.424992298,1.8573204212\H,0,-5.0411473435,5.5253977112,2.5114248212
 \H,0,-9.6863461335,5.7415470908,0.5211599605\H,0,-8.8364042808,8.18678
 72682,0.2160021935\H,0,-6.9078058172,7.3946200312,0.2916246919\H,0,-12
 .1716725801,2.9681741227,-2.3368399824\H,0,-13.1290081143,1.7765532934
 ,-1.892442768\H,0,-12.4078277442,3.0987629617,-0.6320347015\H,0,-12.65
 70382319,-1.8823906373,-1.1514553534\H,0,-13.3185278564,-0.2947632893,
 -1.6664540024\H,0,-12.8373341996,-1.6554567849,-3.6095339511\H,0,-12.0
 048006541,-0.3614448704,-3.8560731823\H,0,-11.0981631639,-1.9110940534
 ,-3.161415257\H,0,-8.6361245084,-4.9607489232,-2.179875569\H,0,-8.1493
 686379,-5.8369137996,-0.6394181699\H,0,-9.696201786,-4.6113079178,-0.4
 801662728\H,0,-3.2468748195,-3.2639179763,-0.1488015332\H,0,-1.7761487
 049,-4.489967374,3.6580224892\H,0,-3.0763528227,-5.5129219346,3.645191
 7413\H,0,-1.8076721937,-6.345748752,2.7588925922\H,0,2.5965243235,-1.4
 679964895,-1.630817158\H,0,2.5699186921,0.1141143298,-2.0774697668\H,0
 ,4.1869279171,-1.2193199382,0.4068930655\H,0,3.7668176181,1.4978008764
 ,-2.3473080731\H,0,5.5381771161,2.2592303132,-1.792513606\H,0,5.406375
 9604,0.8177121014,-2.7855698563\H,0,6.7014631696,1.472093437,0.0459520
 929\H,0,6.4045838064,-0.1241656655,0.7350845156\H,0,7.5095246946,-1.24
 25853302,-1.2700211308\H,0,7.7642479558,0.2445913356,-1.9204521921\H,0
 ,8.9528913863,1.1538279993,0.0186858311\H,0,8.7978976126,-0.5659549509
 ,0.6378484034\H,0,10.1412458361,0.2419989662,-1.8323770683\H,0,9.10790
 72871,-1.7314201863,-2.0933342946\H,0,10.9721603007,-2.0978662992,-1.8
 892751135\H,0,10.0397814517,-2.623333956,-0.4468467754\H,0,11.06711147
 33,0.9124456521,0.3908410475\H,0,11.4683472444,-0.9431566538,0.6408715
 602\H,0,12.8049162273,-1.1842152829,-1.3785261875\H,0,12.6840373097,0.
 4443539144,-1.6552938932\H,0,13.7314946527,1.0984731028,0.179654626\H,
 0,13.6949355839,-0.5200544427,1.0572408938\H,0,15.268249217,0.60173003
 34,-1.5020798675\H,0,15.682130214,-2.3919659225,-0.1223498326\H,0,14.7
 524127731,-2.0464228359,-1.6437720976\H,0,16.6177898376,-1.8207360022,
 -1.5096030691\H,0,16.2115063603,1.3803871114,0.4993833593\H,0,16.27155
 88579,0.1156551698,1.4348064123\H,0,18.2453037223,-0.5161485787,-0.399
 9059982\H,0,17.7407741586,1.0475760161,-1.1873422181\H,0,18.5584745303
 ,2.0868705867,0.8728023811\H,0,18.797606038,0.5881024215,1.7173880904\
 H,0,20.4022702937,0.1390703428,-0.0033325829\H,0,19.6767045038,2.78187
 71726,-0.8827985494\H,0,21.2417502889,2.2201478927,-1.1561668707\H,0,2
 0.0050113343,1.1999313954,-1.8548759109\H,0,21.3222522405,0.9732166255
 ,2.2398734289\H,0,22.1231369542,1.8887974109,0.8873530015\H,0,20.73508
 60412,2.5663203082,1.7956754987\\Version=ES64L-G09RevD.01\State=1-A\HF
 =-2932.6133558\RMSD=7.041e-09\PG=C01 [X(C55H72Mg1N4O5)]\\@


 A SCIENTIST IS SOMEONE WHOSE CURIOSITY SURVIVES
 EDUCATION'S ASSAULTS ON IT.
                          - SIR HERMANN BONDI
 Job cpu time:       0 days  6 hours 44 minutes 44.1 seconds.
 File lengths (MBytes):  RWF=   2106 Int=      0 D2E=      0 Chk=    163 Scr=      1
 Normal termination of Gaussian 09 at Sat Jun 29 20:15:50 2019.
