 Entering Gaussian System, Link 0=g16
 Input=Geometria-68-.com
 Output=Geometria-68-.log
 Initial command:
 /usr/local/g09/l1.exe "/home/padawan/israel-mol/chlorophyll-a/spectra/abs/Gau-28031.inp" -scrdir="/home/padawan/israel-mol/chlorophyll-a/spectra/abs/"
 Entering Link 1 = /usr/local/g09/l1.exe PID=     28033.
  
 Copyright (c) 1988,1990,1992,1993,1995,1998,2003,2009,2013,
            Gaussian, Inc.  All Rights Reserved.
  
 This is part of the Gaussian(R) 09 program.  It is based on
 the Gaussian(R) 03 system (copyright 2003, Gaussian, Inc.),
 the Gaussian(R) 98 system (copyright 1998, Gaussian, Inc.),
 the Gaussian(R) 94 system (copyright 1995, Gaussian, Inc.),
 the Gaussian 92(TM) system (copyright 1992, Gaussian, Inc.),
 the Gaussian 90(TM) system (copyright 1990, Gaussian, Inc.),
 the Gaussian 88(TM) system (copyright 1988, Gaussian, Inc.),
 the Gaussian 86(TM) system (copyright 1986, Carnegie Mellon
 University), and the Gaussian 82(TM) system (copyright 1983,
 Carnegie Mellon University). Gaussian is a federally registered
 trademark of Gaussian, Inc.
  
 This software contains proprietary and confidential information,
 including trade secrets, belonging to Gaussian, Inc.
  
 This software is provided under written license and may be
 used, copied, transmitted, or stored only in accord with that
 written license.
  
 The following legend is applicable only to US Government
 contracts under FAR:
  
                    RESTRICTED RIGHTS LEGEND
  
 Use, reproduction and disclosure by the US Government is
 subject to restrictions as set forth in subparagraphs (a)
 and (c) of the Commercial Computer Software - Restricted
 Rights clause in FAR 52.227-19.
  
 Gaussian, Inc.
 340 Quinnipiac St., Bldg. 40, Wallingford CT 06492
  
  
 ---------------------------------------------------------------
 Warning -- This program may not be used in any manner that
 competes with the business of Gaussian, Inc. or will provide
 assistance to any competitor of Gaussian, Inc.  The licensee
 of this program is prohibited from giving any competitor of
 Gaussian, Inc. access to this program.  By using this program,
 the user acknowledges that Gaussian, Inc. is engaged in the
 business of creating and licensing software in the field of
 computational chemistry and represents and warrants to the
 licensee that it is not a competitor of Gaussian, Inc. and that
 it will not use this program in any manner prohibited above.
 ---------------------------------------------------------------
  

 Cite this work as:
 Gaussian 09, Revision D.01,
 M. J. Frisch, G. W. Trucks, H. B. Schlegel, G. E. Scuseria, 
 M. A. Robb, J. R. Cheeseman, G. Scalmani, V. Barone, B. Mennucci, 
 G. A. Petersson, H. Nakatsuji, M. Caricato, X. Li, H. P. Hratchian, 
 A. F. Izmaylov, J. Bloino, G. Zheng, J. L. Sonnenberg, M. Hada, 
 M. Ehara, K. Toyota, R. Fukuda, J. Hasegawa, M. Ishida, T. Nakajima, 
 Y. Honda, O. Kitao, H. Nakai, T. Vreven, J. A. Montgomery, Jr., 
 J. E. Peralta, F. Ogliaro, M. Bearpark, J. J. Heyd, E. Brothers, 
 K. N. Kudin, V. N. Staroverov, T. Keith, R. Kobayashi, J. Normand, 
 K. Raghavachari, A. Rendell, J. C. Burant, S. S. Iyengar, J. Tomasi, 
 M. Cossi, N. Rega, J. M. Millam, M. Klene, J. E. Knox, J. B. Cross, 
 V. Bakken, C. Adamo, J. Jaramillo, R. Gomperts, R. E. Stratmann, 
 O. Yazyev, A. J. Austin, R. Cammi, C. Pomelli, J. W. Ochterski, 
 R. L. Martin, K. Morokuma, V. G. Zakrzewski, G. A. Voth, 
 P. Salvador, J. J. Dannenberg, S. Dapprich, A. D. Daniels, 
 O. Farkas, J. B. Foresman, J. V. Ortiz, J. Cioslowski, 
 and D. J. Fox, Gaussian, Inc., Wallingford CT, 2013.
 
 ******************************************
 Gaussian 09:  ES64L-G09RevD.01 24-Apr-2013
                27-Jun-2019 
 ******************************************
 %nproc=4
 Will use up to    4 processors via shared memory.
 %Mem=2GB
 -------------------------------------
 # td=(NStates=1) CAM-B3LYP/6-31G(d,p)
 -------------------------------------
 1/38=1/1;
 2/12=2,17=6,18=5,40=1/2;
 3/5=1,6=6,7=101,11=9,16=1,25=1,30=1,74=-40/1,2,8,3;
 4//1;
 5/5=2,38=5/2;
 8/6=1,10=2,108=1/1;
 9/41=1,42=1,70=2/14;
 6/7=2,8=2,9=2,10=2/1;
 99/5=1,9=1/99;
 --
 TD
 --
 Symbolic Z-matrix:
 Charge =  0 Multiplicity = 1
 12                   -7.07617   0.65784   0.05185 
 6                    -4.86468  -1.97387   0.50433 
 6                    -4.80008   2.82864   1.11501 
 6                    -9.45462   3.12484  -0.31584 
 6                    -9.49507  -1.74238  -0.85607 
 7                    -5.02982   0.43037   0.63167 
 6                    -4.34856  -0.77173   0.7546 
 6                    -2.89093  -0.40131   1.11735 
 6                    -3.01399   1.13421   1.54329 
 6                    -4.29878   1.4404    1.06049 
 6                    -2.76981   1.41999   3.02639 
 6                    -1.90419  -0.71158   0.07496 
 6                    -0.46525  -0.51113   0.4455 
 6                     0.53979  -0.80742  -0.64916 
 8                     0.27649  -1.098    -1.81557 
 8                     1.78295  -0.53776  -0.09431 
 7                    -7.05558   2.63073   0.35156 
 6                    -6.0215    3.35515   0.75753 
 6                    -6.46086   4.77928   0.84328 
 6                    -7.73959   4.72958   0.45734 
 6                    -8.11485   3.45367   0.1384 
 6                    -5.47349   5.83074   1.31274 
 6                    -8.58824   5.97895   0.36041 
 6                    -8.22496   7.26553   0.17963 
 7                    -9.11261   0.79307  -0.5298 
 6                    -9.89179   1.87685  -0.59488 
 6                    -11.21484   1.48013  -1.06269 
 6                    -11.26312   0.09871  -1.22768 
 6                    -9.91319  -0.27991  -0.84128 
 6                    -12.23872   2.51191  -1.42426 
 6                    -12.35004  -0.79042  -1.67088 
 6                    -12.50115  -1.13077  -3.18185 
 7                    -7.24914  -1.30237  -0.11616 
 6                    -8.24986  -2.22138  -0.51156 
 6                    -7.82035  -3.58096  -0.49141 
 6                    -6.52913  -3.57585   0.03932 
 6                    -6.2247   -2.12922   0.17071 
 6                    -8.49497  -4.83057  -0.9708 
 6                    -5.36013  -4.38277   0.22535 
 8                    -5.22469  -5.56758   0.18162 
 6                    -4.19984  -3.30773   0.55234 
 6                    -3.45933  -3.73623   1.87967 
 8                    -3.51408  -3.15893   2.89756 
 8                    -2.65971  -4.79958   1.68962 
 6                    -1.90138  -5.29001   2.76979 
 6                     2.87716  -0.74459  -1.07013 
 6                     4.13902  -0.5948   -0.47777 
 6                     5.03183   0.35048  -0.86783 
 6                     4.96421   1.2366   -2.11909 
 6                     6.3299    0.4851   -0.10658 
 6                     7.55542  -0.14788  -0.82614 
 6                     8.83173   0.01809  -0.15768 
 6                     10.13363  -0.41321  -0.81239 
 6                     10.13193  -1.78836  -1.44128 
 6                     11.30804  -0.19986   0.16697 
 6                     12.61936  -0.49666  -0.60047 
 6                     13.94404  -0.14243   0.29705 
 6                     15.30145  -0.23779  -0.33021 
 6                     15.57114  -1.69514  -0.82168 
 6                     16.29458   0.41243   0.48838 
 6                     17.70038   0.51487  -0.199 
 6                     18.66789   1.42132   0.60061 
 6                     20.09779   1.32675   0.10453 
 6                     20.34156   2.1661   -1.14368 
 6                     21.161    1.68839   1.24277 
 1                    -4.09601   3.51995   1.50889 
 1                    -10.18828   3.85925  -0.36401 
 1                    -10.24542  -2.40399  -0.99055 
 1                    -2.57163  -1.04099   2.14417 
 1                    -2.29247   1.7505    0.92636 
 1                    -1.82095   1.16706   3.4461 
 1                    -2.78587   2.54731   3.42188 
 1                    -3.53525   0.79476   3.59802 
 1                    -1.88787  -1.91965  -0.01621 
 1                    -2.16648  -0.30733  -0.98115 
 1                    -0.17056   0.54739   0.84156 
 1                    -0.1422   -1.09174   1.13729 
 1                    -5.04801   6.28748   0.49108 
 1                    -6.15763   6.67205   1.71879 
 1                    -4.90377   5.30451   2.19994 
 1                    -9.58635   5.70358   0.66925 
 1                    -8.92509   8.02418  -0.06071 
 1                    -7.0812    7.35175   0.13062 
 1                    -11.93575   3.16991  -2.30635 
 1                    -13.2754   2.02853  -1.50171 
 1                    -12.26684   2.91444  -0.46123 
 1                    -12.34517  -1.69293  -1.11494 
 1                    -13.28342  -0.20746  -1.4727 
 1                    -13.31405  -1.82228  -3.53948 
 1                    -12.77264  -0.31521  -3.96749 
 1                    -11.67746  -1.62411  -3.46344 
 1                    -8.73051  -4.70512  -2.11743 
 1                    -7.92032  -5.74287  -0.67523 
 1                    -9.47921  -4.86673  -0.46656 
 1                    -3.56488  -3.59092  -0.13242 
 1                    -1.12203  -4.47535   3.10159 
 1                    -2.57841  -5.45505   3.59641 
 1                    -1.44183  -6.22528   2.44281 
 1                     2.7117   -1.85051  -1.42034 
 1                     2.75731  -0.11801  -1.97113 
 1                     4.3482   -1.37341   0.31281 
 1                     3.99304   1.36332  -2.63777 
 1                     5.24135   2.26047  -1.81811 
 1                     5.53      0.84423  -2.93813 
 1                     6.70124   1.57026  -0.19071 
 1                     6.20173  -0.01271   0.90285 
 1                     7.24636  -1.20822  -0.96318 
 1                     7.61487   0.27581  -1.90118 
 1                     8.86611   1.14453   0.32853 
 1                     8.92881  -0.6953    0.78984 
 1                     10.16555   0.47123  -1.54407 
 1                     9.22556  -1.95738  -1.99687 
 1                     11.01695  -1.85682  -2.17314 
 1                     10.25038  -2.54499  -0.61182 
 1                     11.32639   0.84495   0.51687 
 1                     11.09609  -0.74497   1.00778 
 1                     12.69895  -1.47172  -1.12895 
 1                     12.58316   0.28612  -1.42146 
 1                     13.67298   0.85468   0.47739 
 1                     13.73772  -0.77237   1.19771 
 1                     15.28717   0.26317  -1.35576 
 1                     15.76344  -2.44458  -0.15087 
 1                     14.71105  -2.00799  -1.44652 
 1                     16.53227  -1.51476  -1.40921 
 1                     15.83359   1.57295   0.56663 
 1                     16.31227  -0.18616   1.49754 
 1                     18.17725  -0.38497  -0.38808 
 1                     17.69841   0.72467  -1.22051 
 1                     18.30982   2.30754   0.83551 
 1                     18.80365   1.00356   1.61035 
 1                     20.53018   0.2712   -0.18496 
 1                     20.11809   3.20733  -0.61548 
 1                     21.33679   2.2133   -1.68271 
 1                     19.38234   2.20429  -1.73939 
 1                     21.06383   1.20594   2.19262 
 1                     22.27426   1.58723   0.89431 
 1                     21.02042   2.79647   1.45127 
 
 Stoichiometry    C55H72MgN4O5
 Framework group  C1[X(C55H72MgN4O5)]
 Deg. of freedom   405
 Full point group                 C1      NOp   1
 Largest Abelian subgroup         C1      NOp   1
 Largest concise Abelian subgroup C1      NOp   1
                         Standard orientation:                         
 ---------------------------------------------------------------------
 Center     Atomic      Atomic             Coordinates (Angstroms)
 Number     Number       Type             X           Y           Z
 ---------------------------------------------------------------------
      1         12           0       -7.074146    0.655484    0.060500
      2          6           0       -4.861683   -1.976352    0.507492
      3          6           0       -4.797251    2.825466    1.123595
      4          6           0       -9.453442    3.122480   -0.301716
      5          6           0       -9.493638   -1.744136   -0.847462
      6          7           0       -5.027105    0.427716    0.637768
      7          6           0       -4.345502   -0.774405    0.758559
      8          6           0       -2.887530   -0.404138    1.120101
      9          6           0       -3.010386    1.130872    1.547933
     10          6           0       -4.295766    1.437385    1.066926
     11          6           0       -2.764601    1.414995    3.031083
     12          6           0       -1.901907   -0.713041    0.076254
     13          6           0       -0.462589   -0.512763    0.445419
     14          6           0        0.541286   -0.807629   -0.650702
     15          8           0        0.276727   -1.096920   -1.817152
     16          8           0        1.785010   -0.538376   -0.096942
     17          7           0       -7.053573    2.628034    0.362438
     18          6           0       -6.019163    3.352166    0.768082
     19          6           0       -6.458683    4.776121    0.855949
     20          6           0       -7.737836    4.726639    0.471384
     21          6           0       -8.113225    3.451020    0.151408
     22          6           0       -5.470973    5.827225    1.325502
     23          6           0       -8.586808    5.975968    0.376825
     24          6           0       -8.223961    7.262818    0.197116
     25          7           0       -9.111256    0.791008   -0.518724
     26          6           0       -9.890704    1.874726   -0.581694
     27          6           0      -11.214202    1.478306   -1.048473
     28          6           0      -11.262432    0.097072   -1.214989
     29          6           0       -9.912000   -0.281750   -0.830533
     30          6           0      -12.238674    2.510321   -1.407720
     31          6           0      -12.349680   -0.791749   -1.657988
     32          6           0      -12.502422   -1.130396   -3.169170
     33          7           0       -7.246960   -1.304567   -0.109564
     34          6           0       -8.247958   -2.223301   -0.504888
     35          6           0       -7.818186   -3.582831   -0.486771
     36          6           0       -6.526372   -3.578098    0.042519
     37          6           0       -6.222050   -2.131562    0.175218
     38          6           0       -8.493121   -4.832006   -0.966833
     39          6           0       -5.357027   -4.385024    0.226319
     40          8           0       -5.221428   -5.569755    0.181086
     41          6           0       -4.196562   -3.310152    0.553234
     42          6           0       -3.454489   -3.740032    1.879247
     43          8           0       -3.508197   -3.163905    2.897861
     44          8           0       -2.654891   -4.803021    1.687086
     45          6           0       -1.895272   -5.294551    2.765847
     46          6           0        2.878171   -0.743902   -1.074220
     47          6           0        4.140662   -0.594564   -0.483099
     48          6           0        5.032868    0.351322   -0.873074
     49          6           0        4.963698    1.238858   -2.123246
     50          6           0        6.331767    0.485301   -0.113124
     51          6           0        7.556597   -0.146632   -0.834782
     52          6           0        8.833624    0.018800   -0.167557
     53          6           0       10.134869   -0.411521   -0.824214
     54          6           0       10.132704   -1.785952   -1.454671
     55          6           0       11.310334   -0.199084    0.154069
     56          6           0       12.620844   -0.494769   -0.615173
     57          6           0       13.946466   -0.141334    0.281266
     58          6           0       15.303185   -0.235731   -0.347614
     59          6           0       15.572588   -1.692477   -0.841053
     60          6           0       16.297123    0.413721    0.470601
     61          6           0       17.702128    0.517201   -0.218229
     62          6           0       18.670378    1.422913    0.581334
     63          6           0       20.099734    1.329158    0.083544
     64          6           0       20.341966    2.169981   -1.163978
     65          6           0       21.164160    1.689691    1.221008
     66          1           0       -4.092863    3.516453    1.517468
     67          1           0      -10.187287    3.856813   -0.348224
     68          1           0      -10.244024   -2.405721   -0.981858
     69          1           0       -2.566965   -1.044942    2.145836
     70          1           0       -2.289663    1.747994    0.930901
     71          1           0       -1.815218    1.161758    3.449451
     72          1           0       -2.780416    2.541865    3.427879
     73          1           0       -3.529290    0.788982    3.602862
     74          1           0       -1.885473   -1.921006   -0.016308
     75          1           0       -2.165446   -0.307635   -0.979100
     76          1           0       -0.167642    0.545358    0.842352
     77          1           0       -0.138658   -1.094109    1.136177
     78          1           0       -5.046487    6.284979    0.503892
     79          1           0       -6.154804    6.667942    1.733276
     80          1           0       -4.900168    5.300074    2.211468
     81          1           0       -9.584521    5.700068    0.686475
     82          1           0       -8.924495    8.021616   -0.041573
     83          1           0       -7.080273    7.349290    0.146920
     84          1           0      -11.936804    3.169383   -2.289390
     85          1           0      -13.275355    2.026840   -1.484564
     86          1           0      -12.265789    2.911746   -0.444195
     87          1           0      -12.344031   -1.694894   -1.103085
     88          1           0      -13.282950   -0.209186   -1.458101
     89          1           0      -13.315605   -1.821648   -3.526681
     90          1           0      -12.774936   -0.313990   -3.953582
     91          1           0      -11.678965   -1.623266   -3.452244
     92          1           0       -8.729970   -4.705296   -2.113057
     93          1           0       -7.917976   -5.744550   -0.672953
     94          1           0       -9.476790   -4.868925   -0.461542
     95          1           0       -3.562312   -3.592443   -0.132555
     96          1           0       -1.115696   -4.480128    3.097704
     97          1           0       -2.571348   -5.460652    3.593033
     98          1           0       -1.435916   -6.229362    2.437287
     99          1           0        2.712509   -1.849451   -1.425502
    100          1           0        2.757198   -0.116309   -1.974366
    101          1           0        4.350871   -1.374031    0.306360
    102          1           0        3.991923    1.365997   -2.640693
    103          1           0        5.240988    2.262435   -1.821404
    104          1           0        5.528635    0.847531   -2.943363
    105          1           0        6.702825    1.570629   -0.196433
    106          1           0        6.204819   -0.013686    0.895878
    107          1           0        7.247566   -1.206875   -0.972686
    108          1           0        7.614769    0.278297   -1.909401
    109          1           0        8.868350    1.144684    0.319897
    110          1           0        8.931888   -0.695655    0.779040
    111          1           0       10.165808    0.473760   -1.554919
    112          1           0        9.225741   -1.954503   -2.009449
    113          1           0       11.016921   -1.853422   -2.187606
    114          1           0       10.252217   -2.543506   -0.626217
    115          1           0       11.328886    0.845329    0.505149
    116          1           0       11.099419   -0.745188    0.994494
    117          1           0       12.700011   -1.469218   -1.144857
    118          1           0       12.583585    0.288936   -1.435227
    119          1           0       13.675430    0.855521    0.463056
    120          1           0       13.741264   -0.772338    1.181444
    121          1           0       15.287675    0.266390   -1.372573
    122          1           0       15.765768   -2.442648   -0.171319
    123          1           0       14.711852   -2.004762   -1.465291
    124          1           0       16.533028   -1.511248   -1.429455
    125          1           0       15.836012    1.574070    0.550695
    126          1           0       16.316048   -0.186009    1.479061
    127          1           0       18.178946   -0.382333   -0.408877
    128          1           0       17.698982    0.728171   -1.239493
    129          1           0       18.312412    2.308799    0.817643
    130          1           0       18.807336    1.004024    1.590438
    131          1           0       20.531992    0.274022   -0.207636
    132          1           0       20.118898    3.210564   -0.634340
    133          1           0       21.336580    2.217969   -1.704066
    134          1           0       19.382068    2.208681   -1.758575
    135          1           0       21.068130    1.206136    2.170412
    136          1           0       22.277045    1.589121    0.871190
    137          1           0       21.023618    2.797508    1.430931
 ---------------------------------------------------------------------
 Rotational constants (GHZ):      0.0651993      0.0061391      0.0057740
 Standard basis: 6-31G(d,p) (6D, 7F)
 There are  1339 symmetry adapted cartesian basis functions of A   symmetry.
 There are  1339 symmetry adapted basis functions of A   symmetry.
  1339 basis functions,  2348 primitive gaussians,  1339 cartesian basis functions
   241 alpha electrons      241 beta electrons
       nuclear repulsion energy      8762.0246661089 Hartrees.
 NAtoms=  137 NActive=  137 NUniq=  137 SFac= 1.00D+00 NAtFMM=   60 NAOKFM=T Big=T
 Integral buffers will be    131072 words long.
 Raffenetti 1 integral format.
 Two-electron integral symmetry is turned on.
 One-electron integrals computed using PRISM.
 NBasis=  1339 RedAO= T EigKep=  2.85D-04  NBF=  1339
 NBsUse=  1339 1.00D-06 EigRej= -1.00D+00 NBFU=  1339
 ExpMin= 4.21D-02 ExpMax= 1.17D+04 ExpMxC= 1.76D+03 IAcc=2 IRadAn=         4 AccDes= 0.00D+00
 Harris functional with IExCor=20419 and IRadAn=       4 diagonalized for initial guess.
 HarFok:  IExCor=20419 AccDes= 0.00D+00 IRadAn=         4 IDoV= 1 UseB2=F ITyADJ=14
 ICtDFT=  3500011 ScaDFX=  1.000000  1.000000  1.000000  1.000000
 FoFCou: FMM=F IPFlag=           0 FMFlag=      100000 FMFlg1=        2001
         NFxFlg=           0 DoJE=T BraDBF=F KetDBF=T FulRan=T
         wScrn=  0.000000 ICntrl=     500 IOpCl=  0 I1Cent=   200000004 NGrid=           0
         NMat0=    1 NMatS0=      1 NMatT0=    0 NMatD0=    1 NMtDS0=    0 NMtDT0=    0
 Petite list used in FoFCou.
 Requested convergence on RMS density matrix=1.00D-08 within 128 cycles.
 Requested convergence on MAX density matrix=1.00D-06.
 Requested convergence on             energy=1.00D-06.
 No special actions if energy rises.
 SCF Done:  E(RCAM-B3LYP) =  -2932.74479133     A.U. after   17 cycles
            NFock= 17  Conv=0.83D-08     -V/T= 2.0090
 DoSCS=F DFT=T ScalE2(SS,OS)=  1.000000  1.000000
 ExpMin= 4.21D-02 ExpMax= 1.17D+04 ExpMxC= 1.76D+03 IAcc=3 IRadAn=         5 AccDes= 0.00D+00
 HarFok:  IExCor=  205 AccDes= 0.00D+00 IRadAn=         5 IDoV=-2 UseB2=F ITyADJ=14
 ICtDFT= 12500011 ScaDFX=  1.000000  1.000000  1.000000  1.000000
 Range of M.O.s used for correlation:    70  1339
 NBasis=  1339 NAE=   241 NBE=   241 NFC=    69 NFV=     0
 NROrb=   1270 NOA=   172 NOB=   172 NVA=  1098 NVB=  1098
 Would need an additional       2415464100000 words for in-memory AO integral storage.
 Orbital symmetries:
       Occupied  (A) (A) (A) (A) (A) (A) (A) (A) (A) (A) (A) (A)
                 (A) (A) (A) (A) (A) (A) (A) (A) (A) (A) (A) (A)
                 (A) (A) (A) (A) (A) (A) (A) (A) (A) (A) (A) (A)
                 (A) (A) (A) (A) (A) (A) (A) (A) (A) (A) (A) (A)
                 (A) (A) (A) (A) (A) (A) (A) (A) (A) (A) (A) (A)
                 (A) (A) (A) (A) (A) (A) (A) (A) (A) (A) (A) (A)
                 (A) (A) (A) (A) (A) (A) (A) (A) (A) (A) (A) (A)
                 (A) (A) (A) (A) (A) (A) (A) (A) (A) (A) (A) (A)
                 (A) (A) (A) (A) (A) (A) (A) (A) (A) (A) (A) (A)
                 (A) (A) (A) (A) (A) (A) (A) (A) (A) (A) (A) (A)
                 (A) (A) (A) (A) (A) (A) (A) (A) (A) (A) (A) (A)
                 (A) (A) (A) (A) (A) (A) (A) (A) (A) (A) (A) (A)
                 (A) (A) (A) (A) (A) (A) (A) (A) (A) (A) (A) (A)
                 (A) (A) (A) (A) (A) (A) (A) (A) (A) (A) (A) (A)
                 (A) (A) (A) (A) (A) (A) (A) (A) (A) (A) (A) (A)
                 (A) (A) (A) (A) (A) (A) (A) (A) (A) (A) (A) (A)
                 (A) (A) (A) (A) (A) (A) (A) (A) (A) (A) (A) (A)
                 (A) (A) (A) (A) (A) (A) (A) (A) (A) (A) (A) (A)
                 (A) (A) (A) (A) (A) (A) (A) (A) (A) (A) (A) (A)
                 (A) (A) (A) (A) (A) (A) (A) (A) (A) (A) (A) (A)
                 (A)
       Virtual   (A) (A) (A) (A) (A) (A) (A) (A) (A) (A) (A) (A)
                 (A) (A) (A) (A) (A) (A) (A) (A) (A) (A) (A) (A)
                 (A) (A) (A) (A) (A) (A) (A) (A) (A) (A) (A) (A)
                 (A) (A) (A) (A) (A) (A) (A) (A) (A) (A) (A) (A)
                 (A) (A) (A) (A) (A) (A) (A) (A) (A) (A) (A) (A)
                 (A) (A) (A) (A) (A) (A) (A) (A) (A) (A) (A) (A)
                 (A) (A) (A) (A) (A) (A) (A) (A) (A) (A) (A) (A)
                 (A) (A) (A) (A) (A) (A) (A) (A) (A) (A) (A) (A)
                 (A) (A) (A) (A) (A) (A) (A) (A) (A) (A) (A) (A)
                 (A) (A) (A) (A) (A) (A) (A) (A) (A) (A) (A) (A)
                 (A) (A) (A) (A) (A) (A) (A) (A) (A) (A) (A) (A)
                 (A) (A) (A) (A) (A) (A) (A) (A) (A) (A) (A) (A)
                 (A) (A) (A) (A) (A) (A) (A) (A) (A) (A) (A) (A)
                 (A) (A) (A) (A) (A) (A) (A) (A) (A) (A) (A) (A)
                 (A) (A) (A) (A) (A) (A) (A) (A) (A) (A) (A) (A)
                 (A) (A) (A) (A) (A) (A) (A) (A) (A) (A) (A) (A)
                 (A) (A) (A) (A) (A) (A) (A) (A) (A) (A) (A) (A)
                 (A) (A) (A) (A) (A) (A) (A) (A) (A) (A) (A) (A)
                 (A) (A) (A) (A) (A) (A) (A) (A) (A) (A) (A) (A)
                 (A) (A) (A) (A) (A) (A) (A) (A) (A) (A) (A) (A)
                 (A) (A) (A) (A) (A) (A) (A) (A) (A) (A) (A) (A)
                 (A) (A) (A) (A) (A) (A) (A) (A) (A) (A) (A) (A)
                 (A) (A) (A) (A) (A) (A) (A) (A) (A) (A) (A) (A)
                 (A) (A) (A) (A) (A) (A) (A) (A) (A) (A) (A) (A)
                 (A) (A) (A) (A) (A) (A) (A) (A) (A) (A) (A) (A)
                 (A) (A) (A) (A) (A) (A) (A) (A) (A) (A) (A) (A)
                 (A) (A) (A) (A) (A) (A) (A) (A) (A) (A) (A) (A)
                 (A) (A) (A) (A) (A) (A) (A) (A) (A) (A) (A) (A)
                 (A) (A) (A) (A) (A) (A) (A) (A) (A) (A) (A) (A)
                 (A) (A) (A) (A) (A) (A) (A) (A) (A) (A) (A) (A)
                 (A) (A) (A) (A) (A) (A) (A) (A) (A) (A) (A) (A)
                 (A) (A) (A) (A) (A) (A) (A) (A) (A) (A) (A) (A)
                 (A) (A) (A) (A) (A) (A) (A) (A) (A) (A) (A) (A)
                 (A) (A) (A) (A) (A) (A) (A) (A) (A) (A) (A) (A)
                 (A) (A) (A) (A) (A) (A) (A) (A) (A) (A) (A) (A)
                 (A) (A) (A) (A) (A) (A) (A) (A) (A) (A) (A) (A)
                 (A) (A) (A) (A) (A) (A) (A) (A) (A) (A) (A) (A)
                 (A) (A) (A) (A) (A) (A) (A) (A) (A) (A) (A) (A)
                 (A) (A) (A) (A) (A) (A) (A) (A) (A) (A) (A) (A)
                 (A) (A) (A) (A) (A) (A) (A) (A) (A) (A) (A) (A)
                 (A) (A) (A) (A) (A) (A) (A) (A) (A) (A) (A) (A)
                 (A) (A) (A) (A) (A) (A) (A) (A) (A) (A) (A) (A)
                 (A) (A) (A) (A) (A) (A) (A) (A) (A) (A) (A) (A)
                 (A) (A) (A) (A) (A) (A) (A) (A) (A) (A) (A) (A)
                 (A) (A) (A) (A) (A) (A) (A) (A) (A) (A) (A) (A)
                 (A) (A) (A) (A) (A) (A) (A) (A) (A) (A) (A) (A)
                 (A) (A) (A) (A) (A) (A) (A) (A) (A) (A) (A) (A)
                 (A) (A) (A) (A) (A) (A) (A) (A) (A) (A) (A) (A)
                 (A) (A) (A) (A) (A) (A) (A) (A) (A) (A) (A) (A)
                 (A) (A) (A) (A) (A) (A) (A) (A) (A) (A) (A) (A)
                 (A) (A) (A) (A) (A) (A) (A) (A) (A) (A) (A) (A)
                 (A) (A) (A) (A) (A) (A) (A) (A) (A) (A) (A) (A)
                 (A) (A) (A) (A) (A) (A) (A) (A) (A) (A) (A) (A)
                 (A) (A) (A) (A) (A) (A) (A) (A) (A) (A) (A) (A)
                 (A) (A) (A) (A) (A) (A) (A) (A) (A) (A) (A) (A)
                 (A) (A) (A) (A) (A) (A) (A) (A) (A) (A) (A) (A)
                 (A) (A) (A) (A) (A) (A) (A) (A) (A) (A) (A) (A)
                 (A) (A) (A) (A) (A) (A) (A) (A) (A) (A) (A) (A)
                 (A) (A) (A) (A) (A) (A) (A) (A) (A) (A) (A) (A)
                 (A) (A) (A) (A) (A) (A) (A) (A) (A) (A) (A) (A)
                 (A) (A) (A) (A) (A) (A) (A) (A) (A) (A) (A) (A)
                 (A) (A) (A) (A) (A) (A) (A) (A) (A) (A) (A) (A)
                 (A) (A) (A) (A) (A) (A) (A) (A) (A) (A) (A) (A)
                 (A) (A) (A) (A) (A) (A) (A) (A) (A) (A) (A) (A)
                 (A) (A) (A) (A) (A) (A) (A) (A) (A) (A) (A) (A)
                 (A) (A) (A) (A) (A) (A) (A) (A) (A) (A) (A) (A)
                 (A) (A) (A) (A) (A) (A) (A) (A) (A) (A) (A) (A)
                 (A) (A) (A) (A) (A) (A) (A) (A) (A) (A) (A) (A)
                 (A) (A) (A) (A) (A) (A) (A) (A) (A) (A) (A) (A)
                 (A) (A) (A) (A) (A) (A) (A) (A) (A) (A) (A) (A)
                 (A) (A) (A) (A) (A) (A) (A) (A) (A) (A) (A) (A)
                 (A) (A) (A) (A) (A) (A) (A) (A) (A) (A) (A) (A)
                 (A) (A) (A) (A) (A) (A) (A) (A) (A) (A) (A) (A)
                 (A) (A) (A) (A) (A) (A) (A) (A) (A) (A) (A) (A)
                 (A) (A) (A) (A) (A) (A) (A) (A) (A) (A) (A) (A)
                 (A) (A) (A) (A) (A) (A) (A) (A) (A) (A) (A) (A)
                 (A) (A) (A) (A) (A) (A) (A) (A) (A) (A) (A) (A)
                 (A) (A) (A) (A) (A) (A) (A) (A) (A) (A) (A) (A)
                 (A) (A) (A) (A) (A) (A) (A) (A) (A) (A) (A) (A)
                 (A) (A) (A) (A) (A) (A) (A) (A) (A) (A) (A) (A)
                 (A) (A) (A) (A) (A) (A) (A) (A) (A) (A) (A) (A)
                 (A) (A) (A) (A) (A) (A) (A) (A) (A) (A) (A) (A)
                 (A) (A) (A) (A) (A) (A) (A) (A) (A) (A) (A) (A)
                 (A) (A) (A) (A) (A) (A) (A) (A) (A) (A) (A) (A)
                 (A) (A) (A) (A) (A) (A) (A) (A) (A) (A) (A) (A)
                 (A) (A) (A) (A) (A) (A) (A) (A) (A) (A) (A) (A)
                 (A) (A) (A) (A) (A) (A) (A) (A) (A) (A) (A) (A)
                 (A) (A) (A) (A) (A) (A) (A) (A) (A) (A) (A) (A)
                 (A) (A) (A) (A) (A) (A) (A) (A) (A) (A) (A) (A)
                 (A) (A) (A) (A) (A) (A) (A) (A) (A) (A) (A) (A)
                 (A) (A) (A) (A) (A) (A) (A) (A) (A) (A) (A) (A)
                 (A) (A) (A) (A) (A) (A)
     8 initial guesses have been made.
 Convergence on wavefunction:    0.001000000000000
 Iteration     1 Dimension     8 NMult     0 NNew      8
 CISAX will form     8 AO SS matrices at one time.
 Iteration     2 Dimension    12 NMult     8 NNew      4
 Iteration     3 Dimension    16 NMult    12 NNew      4
 Iteration     4 Dimension    20 NMult    16 NNew      4
