 Entering Gaussian System, Link 0=g16
 Input=Geometria-330-.com
 Output=Geometria-330-.log
 Initial command:
 /usr/local/g09/l1.exe "/home/padawan/israel-mol/chlorophyll-a/spectra/abs/Gau-70408.inp" -scrdir="/home/padawan/israel-mol/chlorophyll-a/spectra/abs/"
 Entering Link 1 = /usr/local/g09/l1.exe PID=     70410.
  
 Copyright (c) 1988,1990,1992,1993,1995,1998,2003,2009,2013,
            Gaussian, Inc.  All Rights Reserved.
  
 This is part of the Gaussian(R) 09 program.  It is based on
 the Gaussian(R) 03 system (copyright 2003, Gaussian, Inc.),
 the Gaussian(R) 98 system (copyright 1998, Gaussian, Inc.),
 the Gaussian(R) 94 system (copyright 1995, Gaussian, Inc.),
 the Gaussian 92(TM) system (copyright 1992, Gaussian, Inc.),
 the Gaussian 90(TM) system (copyright 1990, Gaussian, Inc.),
 the Gaussian 88(TM) system (copyright 1988, Gaussian, Inc.),
 the Gaussian 86(TM) system (copyright 1986, Carnegie Mellon
 University), and the Gaussian 82(TM) system (copyright 1983,
 Carnegie Mellon University). Gaussian is a federally registered
 trademark of Gaussian, Inc.
  
 This software contains proprietary and confidential information,
 including trade secrets, belonging to Gaussian, Inc.
  
 This software is provided under written license and may be
 used, copied, transmitted, or stored only in accord with that
 written license.
  
 The following legend is applicable only to US Government
 contracts under FAR:
  
                    RESTRICTED RIGHTS LEGEND
  
 Use, reproduction and disclosure by the US Government is
 subject to restrictions as set forth in subparagraphs (a)
 and (c) of the Commercial Computer Software - Restricted
 Rights clause in FAR 52.227-19.
  
 Gaussian, Inc.
 340 Quinnipiac St., Bldg. 40, Wallingford CT 06492
  
  
 ---------------------------------------------------------------
 Warning -- This program may not be used in any manner that
 competes with the business of Gaussian, Inc. or will provide
 assistance to any competitor of Gaussian, Inc.  The licensee
 of this program is prohibited from giving any competitor of
 Gaussian, Inc. access to this program.  By using this program,
 the user acknowledges that Gaussian, Inc. is engaged in the
 business of creating and licensing software in the field of
 computational chemistry and represents and warrants to the
 licensee that it is not a competitor of Gaussian, Inc. and that
 it will not use this program in any manner prohibited above.
 ---------------------------------------------------------------
  

 Cite this work as:
 Gaussian 09, Revision D.01,
 M. J. Frisch, G. W. Trucks, H. B. Schlegel, G. E. Scuseria, 
 M. A. Robb, J. R. Cheeseman, G. Scalmani, V. Barone, B. Mennucci, 
 G. A. Petersson, H. Nakatsuji, M. Caricato, X. Li, H. P. Hratchian, 
 A. F. Izmaylov, J. Bloino, G. Zheng, J. L. Sonnenberg, M. Hada, 
 M. Ehara, K. Toyota, R. Fukuda, J. Hasegawa, M. Ishida, T. Nakajima, 
 Y. Honda, O. Kitao, H. Nakai, T. Vreven, J. A. Montgomery, Jr., 
 J. E. Peralta, F. Ogliaro, M. Bearpark, J. J. Heyd, E. Brothers, 
 K. N. Kudin, V. N. Staroverov, T. Keith, R. Kobayashi, J. Normand, 
 K. Raghavachari, A. Rendell, J. C. Burant, S. S. Iyengar, J. Tomasi, 
 M. Cossi, N. Rega, J. M. Millam, M. Klene, J. E. Knox, J. B. Cross, 
 V. Bakken, C. Adamo, J. Jaramillo, R. Gomperts, R. E. Stratmann, 
 O. Yazyev, A. J. Austin, R. Cammi, C. Pomelli, J. W. Ochterski, 
 R. L. Martin, K. Morokuma, V. G. Zakrzewski, G. A. Voth, 
 P. Salvador, J. J. Dannenberg, S. Dapprich, A. D. Daniels, 
 O. Farkas, J. B. Foresman, J. V. Ortiz, J. Cioslowski, 
 and D. J. Fox, Gaussian, Inc., Wallingford CT, 2013.
 
 ******************************************
 Gaussian 09:  ES64L-G09RevD.01 24-Apr-2013
                29-Jun-2019 
 ******************************************
 %nproc=4
 Will use up to    4 processors via shared memory.
 %Mem=2GB
 -------------------------------------
 # td=(NStates=1) CAM-B3LYP/6-31G(d,p)
 -------------------------------------
 1/38=1/1;
 2/12=2,17=6,18=5,40=1/2;
 3/5=1,6=6,7=101,11=9,16=1,25=1,30=1,74=-40/1,2,8,3;
 4//1;
 5/5=2,38=5/2;
 8/6=1,10=2,108=1/1;
 9/41=1,42=1,70=2/14;
 6/7=2,8=2,9=2,10=2/1;
 99/5=1,9=1/99;
 --
 TD
 --
 Symbolic Z-matrix:
 Charge =  0 Multiplicity = 1
 12                   -7.16949   0.5506    0.09783 
 6                    -4.85186  -1.94162   0.41031 
 6                    -4.80743   2.77156   1.17252 
 6                    -9.41784   3.08653  -0.24363 
 6                    -9.50284  -1.73735  -0.83879 
 7                    -5.15296   0.35632   0.69728 
 6                    -4.38155  -0.78078   0.80211 
 6                    -2.93949  -0.37042   1.23262 
 6                    -3.06597   1.07801   1.68933 
 6                    -4.34709   1.41514   1.07137 
 6                    -2.96106   1.11107   3.20534 
 6                    -1.89207  -0.66334   0.11853 
 6                    -0.501    -0.44408   0.63831 
 6                     0.56932  -0.77979  -0.56389 
 8                     0.2568   -1.10561  -1.61709 
 8                     1.75005  -0.42996  -0.13098 
 7                    -7.17695   2.53537   0.48955 
 6                    -6.13654   3.29752   0.80523 
 6                    -6.41407   4.64585   0.91084 
 6                    -7.73741   4.79457   0.45077 
 6                    -8.21921   3.4245    0.2942 
 6                    -5.58165   5.72951   1.22867 
 6                    -8.54558   6.03408   0.25668 
 6                    -8.05053   7.22761  -0.06003 
 7                    -9.11938   0.65367  -0.5892 
 6                    -9.88706   1.83589  -0.5701 
 6                    -11.31292   1.49956  -1.09309 
 6                    -11.21595   0.14742  -1.21275 
 6                    -9.92352  -0.34542  -0.87193 
 6                    -12.43053   2.48221  -1.27481 
 6                    -12.32977  -0.76841  -1.74098 
 6                    -12.22224  -0.98161  -3.20714 
 7                    -7.28002  -1.36267  -0.27928 
 6                    -8.28454  -2.17954  -0.50951 
 6                    -7.80454  -3.57537  -0.54302 
 6                    -6.45986  -3.59792  -0.18785 
 6                    -6.18839  -2.1589    0.07137 
 6                    -8.72199  -4.75576  -0.76152 
 6                    -5.30582  -4.36866   0.09402 
 8                    -5.11826  -5.5543    0.09216 
 6                    -4.19003  -3.27545   0.45211 
 6                    -3.52826  -3.63868   1.74847 
 8                    -3.82743  -3.07269   2.84697 
 8                    -2.60164  -4.69564   1.71361 
 6                    -2.00291  -5.08006   2.98491 
 6                     2.88628  -0.5217   -1.23106 
 6                     4.16461  -0.29224  -0.44499 
 6                     5.26987   0.37821  -0.96106 
 6                     5.16626   1.23174  -2.37999 
 6                     6.40441   0.47176  -0.12441 
 6                     7.67311  -0.02001  -0.95476 
 6                     8.84999  -0.15594  -0.07277 
 6                     10.22772  -0.60451  -0.85976 
 6                     10.11177  -2.05923  -1.3103 
 6                     11.36127  -0.32187   0.0565 
 6                     12.68789  -0.43832  -0.65647 
 6                     13.89965  -0.18671   0.20486 
 6                     15.29557  -0.28054  -0.40932 
 6                     15.62459  -1.67639  -0.82917 
 6                     16.40454   0.4304    0.45397 
 6                     17.82446   0.55958  -0.07082 
 6                     18.81893   1.38262   0.66891 
 6                     20.21215   1.33619   0.07326 
 6                     20.20312   2.16691  -1.16573 
 6                     21.16364   1.88303   1.20542 
 1                    -4.01306   3.43711   1.6176 
 1                    -10.19147   4.01783  -0.35399 
 1                    -10.28052  -2.44685  -0.92523 
 1                    -2.83243  -0.89679   2.11379 
 1                    -2.30759   1.74283   1.10559 
 1                    -2.0343    0.73411   3.61446 
 1                    -3.14707   2.07      3.33185 
 1                    -3.88515   0.70008   3.76606 
 1                    -2.20897  -1.65371  -0.18347 
 1                    -2.33097   0.11112  -0.52267 
 1                    -0.21352   0.5693    0.96408 
 1                    -0.15067  -0.92715   1.47769 
 1                    -4.57518   5.94613   0.55148 
 1                    -6.16408   6.53223   1.54946 
 1                    -4.95002   5.45402   2.241 
 1                    -9.66179   6.0742    0.16333 
 1                    -8.55784   8.09138  -0.03254 
 1                    -7.06898   7.52796  -0.70645 
 1                    -12.22676   2.86812  -2.17968 
 1                    -13.26861   2.12595  -1.51365 
 1                    -12.52218   3.24756  -0.31862 
 1                    -12.39171  -1.82746  -1.30144 
 1                    -13.39665  -0.33124  -1.54809 
 1                    -13.08885  -1.5963   -3.65987 
 1                    -12.33765  -0.25487  -3.83169 
 1                    -11.18748  -1.37794  -3.47787 
 1                    -8.80808  -4.91265  -1.86057 
 1                    -8.31173  -5.734    -0.3259 
 1                    -9.56579  -4.70834  -0.23531 
 1                    -3.56363  -3.5182   -0.49674 
 1                    -1.35305  -4.32779   3.5689 
 1                    -2.94018  -5.50137   3.55056 
 1                    -1.35252  -5.95643   2.69259 
 1                     2.81355  -1.64523  -1.57969 
 1                     2.58703   0.01349  -1.97877 
 1                     4.29598  -0.63042   0.60121 
 1                     4.19179   1.5521   -2.50597 
 1                     5.78888   2.07303  -2.32237 
 1                     5.73792   0.51047  -3.1775 
 1                     6.64977   1.61599   0.00479 
 1                     6.26537  -0.12177   0.75283 
 1                     7.52919  -1.00516  -1.29969 
 1                     7.90852   0.52372  -1.81946 
 1                     9.07443   0.798     0.15369 
 1                     8.80422  -0.64815   0.79387 
 1                     10.24962   0.0893   -1.6528 
 1                     9.31841  -2.15767  -1.96922 
 1                     11.03345  -2.4489   -1.74207 
 1                     9.90183  -2.5433   -0.42488 
 1                     11.09568   0.77365   0.3937 
 1                     11.32702  -0.93946   0.95312 
 1                     12.6999  -1.44752  -1.20576 
 1                     12.66977   0.09539  -1.533 
 1                     13.75784   0.87163   0.65048 
 1                     13.93332  -0.68032   1.21907 
 1                     15.02161   0.53289  -1.26541 
 1                     15.45882  -2.35721  -0.01366 
 1                     14.96534  -2.09445  -1.63287 
 1                     16.6888  -1.64234  -1.39562 
 1                     15.9898   1.53686   0.50544 
 1                     16.37717  -0.09214   1.40014 
 1                     18.1185  -0.42741  -0.19865 
 1                     17.88465   1.07843  -1.14952 
 1                     18.80469   2.33608   0.98281 
 1                     18.70886   0.94486   1.701 
 1                     20.54078   0.30591  -0.24729 
 1                     19.98978   3.22502  -1.04802 
 1                     21.31261   2.24037  -1.30076 
 1                     19.75788   1.76195  -1.96924 
 1                     20.99366   1.0756    2.15986 
 1                     22.10619   1.92419   0.75606 
 1                     20.9807   2.87116   1.53418 
 
 Stoichiometry    C55H72MgN4O5
 Framework group  C1[X(C55H72MgN4O5)]
 Deg. of freedom   405
 Full point group                 C1      NOp   1
 Largest Abelian subgroup         C1      NOp   1
 Largest concise Abelian subgroup C1      NOp   1
                         Standard orientation:                         
 ---------------------------------------------------------------------
 Center     Atomic      Atomic             Coordinates (Angstroms)
 Number     Number       Type             X           Y           Z
 ---------------------------------------------------------------------
      1         12           0       -7.167121    0.550580    0.101285
      2          6           0       -4.850298   -1.944487    0.396512
      3          6           0       -4.804626    2.763140    1.192220
      4          6           0       -9.414648    3.089539   -0.222591
      5          6           0       -9.500958   -1.729968   -0.852050
      6          7           0       -5.150771    0.351438    0.699749
      7          6           0       -4.379717   -0.786604    0.796655
      8          6           0       -2.937633   -0.379747    1.230362
      9          6           0       -3.063771    1.065439    1.697334
     10          6           0       -4.344670    1.407337    1.081527
     11          6           0       -2.959170    1.087689    3.213564
     12          6           0       -1.890070   -0.665049    0.114434
     13          6           0       -0.499037   -0.449906    0.636044
     14          6           0        0.571426   -0.777378   -0.568295
     15          8           0        0.259026   -1.095611   -1.623851
     16          8           0        1.752176   -0.430982   -0.132668
     17          7           0       -7.174071    2.532519    0.507109
     18          6           0       -6.133506    3.292092    0.828405
     19          6           0       -6.410657    4.639714    0.943541
     20          6           0       -7.733863    4.792099    0.484273
     21          6           0       -8.216035    3.423323    0.317868
     22          6           0       -5.577987    5.720849    1.269236
     23          6           0       -8.541626    6.033196    0.298828
     24          6           0       -8.046158    7.228801   -0.009284
     25          7           0       -9.116837    0.659109   -0.585390
     26          6           0       -9.884175    1.841394   -0.558045
     27          6           0      -11.310022    1.509211   -1.083705
     28          6           0      -11.213432    0.157925   -1.212950
     29          6           0       -9.921220   -0.337711   -0.875375
     30          6           0      -12.427309    2.493460   -1.258656
     31          6           0      -12.327417   -0.753792   -1.747902
     32          6           0      -12.219644   -0.956601   -3.215519
     33          7           0       -7.278145   -1.359927   -0.289437
     34          6           0       -8.282859   -2.174849   -0.525670
     35          6           0       -7.803259   -3.570546   -0.569008
     36          6           0       -6.458663   -3.596023   -0.213732
     37          6           0       -6.186822   -2.158960    0.055766
     38          6           0       -8.721018   -4.749077   -0.796073
     39          6           0       -5.304904   -4.369089    0.062886
     40          8           0       -5.117701   -5.554736    0.052634
     41          6           0       -4.188870   -3.278781    0.428964
     42          6           0       -3.527469   -3.651413    1.722844
     43          8           0       -3.826697   -3.093158    2.825281
     44          8           0       -2.601159   -4.708372    1.680663
     45          6           0       -2.002806   -5.101998    2.949321
     46          6           0        2.888606   -0.515241   -1.233142
     47          6           0        4.166839   -0.291757   -0.445199
     48          6           0        5.272404    0.382021   -0.956264
     49          6           0        5.169342    1.245643   -2.369111
     50          6           0        6.406796    0.469278   -0.118742
     51          6           0        7.675520   -0.016954   -0.952304
     52          6           0        8.852187   -0.159491   -0.071068
     53          6           0       10.229946   -0.602868   -0.860949
     54          6           0       10.113653   -2.054311   -1.321842
     55          6           0       11.363384   -0.327090    0.057526
     56          6           0       12.690115   -0.438861   -0.655975
     57          6           0       13.901772   -0.193736    0.207362
     58          6           0       15.297800   -0.283618   -0.407187
     59          6           0       15.626485   -1.676545   -0.836878
     60          6           0       16.406801    0.420836    0.461370
     61          6           0       17.826862    0.553328   -0.062199
     62          6           0       18.821422    1.370789    0.683560
     63          6           0       20.214752    1.328179    0.087876
     64          6           0       20.206225    2.167691   -1.145179
     65          6           0       21.166176    1.866678    1.224089
     66          1           0       -4.010153    3.425274    1.642177
     67          1           0      -10.187986    4.021829   -0.326489
     68          1           0      -10.278826   -2.438605   -0.943684
     69          1           0       -2.830908   -0.912396    2.107790
     70          1           0       -2.305078    1.734170    1.118492
     71          1           0       -2.032599    0.707556    3.620181
     72          1           0       -3.144918    2.045750    3.346843
     73          1           0       -3.883493    0.673005    3.771157
     74          1           0       -2.207200   -1.653154   -0.194668
     75          1           0       -2.328602    0.114083   -0.521333
     76          1           0       -0.211324    0.561055    0.969064
     77          1           0       -0.149025   -0.939027    1.472038
     78          1           0       -4.571309    5.941974    0.593806
     79          1           0       -6.160242    6.521440    1.595606
     80          1           0       -4.946641    5.437979    2.279709
     81          1           0       -9.657805    6.074313    0.205547
     82          1           0       -8.553211    8.092503    0.024239
     83          1           0       -7.064384    7.533451   -0.653348
     84          1           0      -12.223236    2.885736   -2.160725
     85          1           0      -13.265446    2.139154   -1.500200
     86          1           0      -12.518927    3.252018   -0.297074
     87          1           0      -12.389759   -1.815919   -1.315916
     88          1           0      -13.394200   -0.317686   -1.552130
     89          1           0      -13.086343   -1.567798   -3.672783
     90          1           0      -12.334716   -0.225408   -3.834912
     91          1           0      -11.184949   -1.351303   -3.488846
     92          1           0       -8.806927   -4.898131   -1.896236
     93          1           0       -8.311139   -5.730516   -0.367336
     94          1           0       -9.564908   -4.705147   -0.269717
     95          1           0       -3.562341   -3.514969   -0.521453
     96          1           0       -1.352837   -4.354095    3.538780
     97          1           0       -2.940313   -5.527042    3.511773
     98          1           0       -1.352609   -5.976463    2.650907
     99          1           0        2.815609   -1.636246   -1.589768
    100          1           0        2.589666    0.025345   -1.977091
    101          1           0        4.297893   -0.637402    0.598597
    102          1           0        4.194989    1.567179   -2.493018
    103          1           0        5.792198    2.086321   -2.305387
    104          1           0        5.740948    0.529894   -3.171615
    105          1           0        6.652469    1.612490    0.018636
    106          1           0        6.267403   -0.130423    0.754224
    107          1           0        7.531381   -0.999582   -1.304267
    108          1           0        7.911276    0.532842   -1.813076
    109          1           0        9.076862    0.792746    0.162212
    110          1           0        8.806087   -0.657844    0.792046
    111          1           0       10.252207    0.096557   -1.649029
    112          1           0        9.320399   -2.147837   -1.981606
    113          1           0       11.035304   -2.441182   -1.756181
    114          1           0        9.903386   -2.544601   -0.439930
    115          1           0       11.098056    0.766089    0.402457
    116          1           0       11.328773   -0.951022    0.949734
    117          1           0       12.701939   -1.444136   -1.212426
    118          1           0       12.672333    0.101071   -1.528698
    119          1           0       13.760185    0.861448    0.660469
    120          1           0       13.935091   -0.694558    1.218044
    121          1           0       15.024256    0.535962   -1.257521
    122          1           0       15.460347   -2.363098   -0.026260
    123          1           0       14.967284   -2.088683   -1.643664
    124          1           0       16.690822   -1.638784   -1.402856
    125          1           0       15.992378    1.527031    0.520619
    126          1           0       16.379077   -0.108402    1.403794
    127          1           0       18.120639   -0.432820   -0.196983
    128          1           0       17.887428    1.079810   -1.137175
    129          1           0       18.807401    2.321993    1.004231
    130          1           0       18.711010    0.925734    1.712486
    131          1           0       20.543149    0.300104   -0.239917
    132          1           0       19.993169    3.225000   -1.019986
    133          1           0       21.315761    2.241777   -1.279456
    134          1           0       19.761026    1.768581   -1.951633
    135          1           0       20.995756    1.052528    2.172728
    136          1           0       22.108822    1.910749    0.775227
    137          1           0       20.983458    2.852498    1.559829
 ---------------------------------------------------------------------
 Rotational constants (GHZ):      0.0659119      0.0060996      0.0057506
 Standard basis: 6-31G(d,p) (6D, 7F)
 There are  1339 symmetry adapted cartesian basis functions of A   symmetry.
 There are  1339 symmetry adapted basis functions of A   symmetry.
  1339 basis functions,  2348 primitive gaussians,  1339 cartesian basis functions
   241 alpha electrons      241 beta electrons
       nuclear repulsion energy      8774.5947016406 Hartrees.
 NAtoms=  137 NActive=  137 NUniq=  137 SFac= 1.00D+00 NAtFMM=   60 NAOKFM=T Big=T
 Integral buffers will be    131072 words long.
 Raffenetti 1 integral format.
 Two-electron integral symmetry is turned on.
 One-electron integrals computed using PRISM.
 NBasis=  1339 RedAO= T EigKep=  2.83D-04  NBF=  1339
 NBsUse=  1339 1.00D-06 EigRej= -1.00D+00 NBFU=  1339
 ExpMin= 4.21D-02 ExpMax= 1.17D+04 ExpMxC= 1.76D+03 IAcc=2 IRadAn=         4 AccDes= 0.00D+00
 Harris functional with IExCor=20419 and IRadAn=       4 diagonalized for initial guess.
 HarFok:  IExCor=20419 AccDes= 0.00D+00 IRadAn=         4 IDoV= 1 UseB2=F ITyADJ=14
 ICtDFT=  3500011 ScaDFX=  1.000000  1.000000  1.000000  1.000000
 FoFCou: FMM=F IPFlag=           0 FMFlag=      100000 FMFlg1=        2001
         NFxFlg=           0 DoJE=T BraDBF=F KetDBF=T FulRan=T
         wScrn=  0.000000 ICntrl=     500 IOpCl=  0 I1Cent=   200000004 NGrid=           0
         NMat0=    1 NMatS0=      1 NMatT0=    0 NMatD0=    1 NMtDS0=    0 NMtDT0=    0
 Petite list used in FoFCou.
 Requested convergence on RMS density matrix=1.00D-08 within 128 cycles.
 Requested convergence on MAX density matrix=1.00D-06.
 Requested convergence on             energy=1.00D-06.
 No special actions if energy rises.
 SCF Done:  E(RCAM-B3LYP) =  -2932.58888664     A.U. after   16 cycles
            NFock= 16  Conv=0.57D-08     -V/T= 2.0085
 DoSCS=F DFT=T ScalE2(SS,OS)=  1.000000  1.000000
 ExpMin= 4.21D-02 ExpMax= 1.17D+04 ExpMxC= 1.76D+03 IAcc=3 IRadAn=         5 AccDes= 0.00D+00
 HarFok:  IExCor=  205 AccDes= 0.00D+00 IRadAn=         5 IDoV=-2 UseB2=F ITyADJ=14
 ICtDFT= 12500011 ScaDFX=  1.000000  1.000000  1.000000  1.000000
 Range of M.O.s used for correlation:    70  1339
 NBasis=  1339 NAE=   241 NBE=   241 NFC=    69 NFV=     0
 NROrb=   1270 NOA=   172 NOB=   172 NVA=  1098 NVB=  1098
 Would need an additional       2415464100000 words for in-memory AO integral storage.
 Orbital symmetries:
       Occupied  (A) (A) (A) (A) (A) (A) (A) (A) (A) (A) (A) (A)
                 (A) (A) (A) (A) (A) (A) (A) (A) (A) (A) (A) (A)
                 (A) (A) (A) (A) (A) (A) (A) (A) (A) (A) (A) (A)
                 (A) (A) (A) (A) (A) (A) (A) (A) (A) (A) (A) (A)
                 (A) (A) (A) (A) (A) (A) (A) (A) (A) (A) (A) (A)
                 (A) (A) (A) (A) (A) (A) (A) (A) (A) (A) (A) (A)
                 (A) (A) (A) (A) (A) (A) (A) (A) (A) (A) (A) (A)
                 (A) (A) (A) (A) (A) (A) (A) (A) (A) (A) (A) (A)
                 (A) (A) (A) (A) (A) (A) (A) (A) (A) (A) (A) (A)
                 (A) (A) (A) (A) (A) (A) (A) (A) (A) (A) (A) (A)
                 (A) (A) (A) (A) (A) (A) (A) (A) (A) (A) (A) (A)
                 (A) (A) (A) (A) (A) (A) (A) (A) (A) (A) (A) (A)
                 (A) (A) (A) (A) (A) (A) (A) (A) (A) (A) (A) (A)
                 (A) (A) (A) (A) (A) (A) (A) (A) (A) (A) (A) (A)
                 (A) (A) (A) (A) (A) (A) (A) (A) (A) (A) (A) (A)
                 (A) (A) (A) (A) (A) (A) (A) (A) (A) (A) (A) (A)
                 (A) (A) (A) (A) (A) (A) (A) (A) (A) (A) (A) (A)
                 (A) (A) (A) (A) (A) (A) (A) (A) (A) (A) (A) (A)
                 (A) (A) (A) (A) (A) (A) (A) (A) (A) (A) (A) (A)
                 (A) (A) (A) (A) (A) (A) (A) (A) (A) (A) (A) (A)
                 (A)
       Virtual   (A) (A) (A) (A) (A) (A) (A) (A) (A) (A) (A) (A)
                 (A) (A) (A) (A) (A) (A) (A) (A) (A) (A) (A) (A)
                 (A) (A) (A) (A) (A) (A) (A) (A) (A) (A) (A) (A)
                 (A) (A) (A) (A) (A) (A) (A) (A) (A) (A) (A) (A)
                 (A) (A) (A) (A) (A) (A) (A) (A) (A) (A) (A) (A)
                 (A) (A) (A) (A) (A) (A) (A) (A) (A) (A) (A) (A)
                 (A) (A) (A) (A) (A) (A) (A) (A) (A) (A) (A) (A)
                 (A) (A) (A) (A) (A) (A) (A) (A) (A) (A) (A) (A)
                 (A) (A) (A) (A) (A) (A) (A) (A) (A) (A) (A) (A)
                 (A) (A) (A) (A) (A) (A) (A) (A) (A) (A) (A) (A)
                 (A) (A) (A) (A) (A) (A) (A) (A) (A) (A) (A) (A)
                 (A) (A) (A) (A) (A) (A) (A) (A) (A) (A) (A) (A)
                 (A) (A) (A) (A) (A) (A) (A) (A) (A) (A) (A) (A)
                 (A) (A) (A) (A) (A) (A) (A) (A) (A) (A) (A) (A)
                 (A) (A) (A) (A) (A) (A) (A) (A) (A) (A) (A) (A)
                 (A) (A) (A) (A) (A) (A) (A) (A) (A) (A) (A) (A)
                 (A) (A) (A) (A) (A) (A) (A) (A) (A) (A) (A) (A)
                 (A) (A) (A) (A) (A) (A) (A) (A) (A) (A) (A) (A)
                 (A) (A) (A) (A) (A) (A) (A) (A) (A) (A) (A) (A)
                 (A) (A) (A) (A) (A) (A) (A) (A) (A) (A) (A) (A)
                 (A) (A) (A) (A) (A) (A) (A) (A) (A) (A) (A) (A)
                 (A) (A) (A) (A) (A) (A) (A) (A) (A) (A) (A) (A)
                 (A) (A) (A) (A) (A) (A) (A) (A) (A) (A) (A) (A)
                 (A) (A) (A) (A) (A) (A) (A) (A) (A) (A) (A) (A)
                 (A) (A) (A) (A) (A) (A) (A) (A) (A) (A) (A) (A)
                 (A) (A) (A) (A) (A) (A) (A) (A) (A) (A) (A) (A)
                 (A) (A) (A) (A) (A) (A) (A) (A) (A) (A) (A) (A)
                 (A) (A) (A) (A) (A) (A) (A) (A) (A) (A) (A) (A)
                 (A) (A) (A) (A) (A) (A) (A) (A) (A) (A) (A) (A)
                 (A) (A) (A) (A) (A) (A) (A) (A) (A) (A) (A) (A)
                 (A) (A) (A) (A) (A) (A) (A) (A) (A) (A) (A) (A)
                 (A) (A) (A) (A) (A) (A) (A) (A) (A) (A) (A) (A)
                 (A) (A) (A) (A) (A) (A) (A) (A) (A) (A) (A) (A)
                 (A) (A) (A) (A) (A) (A) (A) (A) (A) (A) (A) (A)
                 (A) (A) (A) (A) (A) (A) (A) (A) (A) (A) (A) (A)
                 (A) (A) (A) (A) (A) (A) (A) (A) (A) (A) (A) (A)
                 (A) (A) (A) (A) (A) (A) (A) (A) (A) (A) (A) (A)
                 (A) (A) (A) (A) (A) (A) (A) (A) (A) (A) (A) (A)
                 (A) (A) (A) (A) (A) (A) (A) (A) (A) (A) (A) (A)
                 (A) (A) (A) (A) (A) (A) (A) (A) (A) (A) (A) (A)
                 (A) (A) (A) (A) (A) (A) (A) (A) (A) (A) (A) (A)
                 (A) (A) (A) (A) (A) (A) (A) (A) (A) (A) (A) (A)
                 (A) (A) (A) (A) (A) (A) (A) (A) (A) (A) (A) (A)
                 (A) (A) (A) (A) (A) (A) (A) (A) (A) (A) (A) (A)
                 (A) (A) (A) (A) (A) (A) (A) (A) (A) (A) (A) (A)
                 (A) (A) (A) (A) (A) (A) (A) (A) (A) (A) (A) (A)
                 (A) (A) (A) (A) (A) (A) (A) (A) (A) (A) (A) (A)
                 (A) (A) (A) (A) (A) (A) (A) (A) (A) (A) (A) (A)
                 (A) (A) (A) (A) (A) (A) (A) (A) (A) (A) (A) (A)
                 (A) (A) (A) (A) (A) (A) (A) (A) (A) (A) (A) (A)
                 (A) (A) (A) (A) (A) (A) (A) (A) (A) (A) (A) (A)
                 (A) (A) (A) (A) (A) (A) (A) (A) (A) (A) (A) (A)
                 (A) (A) (A) (A) (A) (A) (A) (A) (A) (A) (A) (A)
                 (A) (A) (A) (A) (A) (A) (A) (A) (A) (A) (A) (A)
                 (A) (A) (A) (A) (A) (A) (A) (A) (A) (A) (A) (A)
                 (A) (A) (A) (A) (A) (A) (A) (A) (A) (A) (A) (A)
                 (A) (A) (A) (A) (A) (A) (A) (A) (A) (A) (A) (A)
                 (A) (A) (A) (A) (A) (A) (A) (A) (A) (A) (A) (A)
                 (A) (A) (A) (A) (A) (A) (A) (A) (A) (A) (A) (A)
                 (A) (A) (A) (A) (A) (A) (A) (A) (A) (A) (A) (A)
                 (A) (A) (A) (A) (A) (A) (A) (A) (A) (A) (A) (A)
                 (A) (A) (A) (A) (A) (A) (A) (A) (A) (A) (A) (A)
                 (A) (A) (A) (A) (A) (A) (A) (A) (A) (A) (A) (A)
                 (A) (A) (A) (A) (A) (A) (A) (A) (A) (A) (A) (A)
                 (A) (A) (A) (A) (A) (A) (A) (A) (A) (A) (A) (A)
                 (A) (A) (A) (A) (A) (A) (A) (A) (A) (A) (A) (A)
                 (A) (A) (A) (A) (A) (A) (A) (A) (A) (A) (A) (A)
                 (A) (A) (A) (A) (A) (A) (A) (A) (A) (A) (A) (A)
                 (A) (A) (A) (A) (A) (A) (A) (A) (A) (A) (A) (A)
                 (A) (A) (A) (A) (A) (A) (A) (A) (A) (A) (A) (A)
                 (A) (A) (A) (A) (A) (A) (A) (A) (A) (A) (A) (A)
                 (A) (A) (A) (A) (A) (A) (A) (A) (A) (A) (A) (A)
                 (A) (A) (A) (A) (A) (A) (A) (A) (A) (A) (A) (A)
                 (A) (A) (A) (A) (A) (A) (A) (A) (A) (A) (A) (A)
                 (A) (A) (A) (A) (A) (A) (A) (A) (A) (A) (A) (A)
                 (A) (A) (A) (A) (A) (A) (A) (A) (A) (A) (A) (A)
                 (A) (A) (A) (A) (A) (A) (A) (A) (A) (A) (A) (A)
                 (A) (A) (A) (A) (A) (A) (A) (A) (A) (A) (A) (A)
                 (A) (A) (A) (A) (A) (A) (A) (A) (A) (A) (A) (A)
                 (A) (A) (A) (A) (A) (A) (A) (A) (A) (A) (A) (A)
                 (A) (A) (A) (A) (A) (A) (A) (A) (A) (A) (A) (A)
                 (A) (A) (A) (A) (A) (A) (A) (A) (A) (A) (A) (A)
                 (A) (A) (A) (A) (A) (A) (A) (A) (A) (A) (A) (A)
                 (A) (A) (A) (A) (A) (A) (A) (A) (A) (A) (A) (A)
                 (A) (A) (A) (A) (A) (A) (A) (A) (A) (A) (A) (A)
                 (A) (A) (A) (A) (A) (A) (A) (A) (A) (A) (A) (A)
                 (A) (A) (A) (A) (A) (A) (A) (A) (A) (A) (A) (A)
                 (A) (A) (A) (A) (A) (A) (A) (A) (A) (A) (A) (A)
                 (A) (A) (A) (A) (A) (A) (A) (A) (A) (A) (A) (A)
                 (A) (A) (A) (A) (A) (A) (A) (A) (A) (A) (A) (A)
                 (A) (A) (A) (A) (A) (A) (A) (A) (A) (A) (A) (A)
                 (A) (A) (A) (A) (A) (A)
     8 initial guesses have been made.
 Convergence on wavefunction:    0.001000000000000
 Iteration     1 Dimension     8 NMult     0 NNew      8
 CISAX will form     8 AO SS matrices at one time.
 Iteration     2 Dimension    12 NMult     8 NNew      4
 Iteration     3 Dimension    16 NMult    12 NNew      4
 Iteration     4 Dimension    20 NMult    16 NNew      4
 Iteration     5 Dimension    24 NMult    20 NNew      4
 Iteration     6 Dimension    28 NMult    24 NNew      4
 ***********************************************************************
 Excited states from <AA,BB:AA,BB> singles matrix:
 ***********************************************************************
 
 Ground to excited state transition densities written to RWF  633
 Ground to excited state transition electric dipole moments (Au):
       state          X           Y           Z        Dip. S.      Osc.
         1        -0.0826     -2.3355     -0.2933      5.5472      0.2716
 Ground to excited state transition velocity dipole moments (Au):
       state          X           Y           Z        Dip. S.      Osc.
         1         0.0065      0.1665      0.0214      0.0282      0.2563
 Ground to excited state transition magnetic dipole moments (Au):
       state          X           Y           Z
         1         0.4727      0.5018     -3.8734
 Ground to excited state transition velocity quadrupole moments (Au):
       state          XX          YY          ZZ          XY          XZ          YZ
         1        -0.2928      0.3684      0.0246     -2.0912     -0.2773      0.1207
 <0|del|b> * <b|rxdel|0> + <0|del|b> * <b|delr+rdel|0>
 Rotatory Strengths (R) in cgs (10**-40 erg-esu-cm/Gauss)
       state          XX          YY          ZZ    R(velocity)    E-M Angle
         1         9.2010   -165.3172    191.0137     11.6325       89.69
 1/2[<0|r|b>*<b|rxdel|0> + (<0|rxdel|b>*<b|r|0>)*]
 Rotatory Strengths (R) in cgs (10**-40 erg-esu-cm/Gauss)
       state          XX          YY          ZZ     R(length)
         1        27.5983    828.7856   -803.4637     17.6401
  1/2[<0|del|b>*<b|r|0> + (<0|r|b>*<b|del|0>)*] (Au)
       state          X           Y           Z        Dip. S.   Osc.(frdel)
         1        -0.0005     -0.3889     -0.0063      0.3957      0.2638

 Excitation energies and oscillator strengths:
 
 Excited State   1:      Singlet-A      1.9985 eV  620.39 nm  f=0.2716  <S**2>=0.000
     240 -> 243       -0.21246
     241 -> 242        0.65335
 This state for optimization and/or second-order correction.
 Total Energy, E(TD-HF/TD-KS) =  -2932.51544391    
 Copying the excited state density for this state as the 1-particle RhoCI density.
 SavETr:  write IOETrn=   770 NScale= 10 NData=  16 NLR=1 NState=    1 LETran=      28.

 **********************************************************************

            Population analysis using the SCF density.

 **********************************************************************

 Orbital symmetries:
       Occupied  (A) (A) (A) (A) (A) (A) (A) (A) (A) (A) (A) (A)
                 (A) (A) (A) (A) (A) (A) (A) (A) (A) (A) (A) (A)
                 (A) (A) (A) (A) (A) (A) (A) (A) (A) (A) (A) (A)
                 (A) (A) (A) (A) (A) (A) (A) (A) (A) (A) (A) (A)
                 (A) (A) (A) (A) (A) (A) (A) (A) (A) (A) (A) (A)
                 (A) (A) (A) (A) (A) (A) (A) (A) (A) (A) (A) (A)
                 (A) (A) (A) (A) (A) (A) (A) (A) (A) (A) (A) (A)
                 (A) (A) (A) (A) (A) (A) (A) (A) (A) (A) (A) (A)
                 (A) (A) (A) (A) (A) (A) (A) (A) (A) (A) (A) (A)
                 (A) (A) (A) (A) (A) (A) (A) (A) (A) (A) (A) (A)
                 (A) (A) (A) (A) (A) (A) (A) (A) (A) (A) (A) (A)
                 (A) (A) (A) (A) (A) (A) (A) (A) (A) (A) (A) (A)
                 (A) (A) (A) (A) (A) (A) (A) (A) (A) (A) (A) (A)
                 (A) (A) (A) (A) (A) (A) (A) (A) (A) (A) (A) (A)
                 (A) (A) (A) (A) (A) (A) (A) (A) (A) (A) (A) (A)
                 (A) (A) (A) (A) (A) (A) (A) (A) (A) (A) (A) (A)
                 (A) (A) (A) (A) (A) (A) (A) (A) (A) (A) (A) (A)
                 (A) (A) (A) (A) (A) (A) (A) (A) (A) (A) (A) (A)
                 (A) (A) (A) (A) (A) (A) (A) (A) (A) (A) (A) (A)
                 (A) (A) (A) (A) (A) (A) (A) (A) (A) (A) (A) (A)
                 (A)
       Virtual   (A) (A) (A) (A) (A) (A) (A) (A) (A) (A) (A) (A)
                 (A) (A) (A) (A) (A) (A) (A) (A) (A) (A) (A) (A)
                 (A) (A) (A) (A) (A) (A) (A) (A) (A) (A) (A) (A)
                 (A) (A) (A) (A) (A) (A) (A) (A) (A) (A) (A) (A)
                 (A) (A) (A) (A) (A) (A) (A) (A) (A) (A) (A) (A)
                 (A) (A) (A) (A) (A) (A) (A) (A) (A) (A) (A) (A)
                 (A) (A) (A) (A) (A) (A) (A) (A) (A) (A) (A) (A)
                 (A) (A) (A) (A) (A) (A) (A) (A) (A) (A) (A) (A)
                 (A) (A) (A) (A) (A) (A) (A) (A) (A) (A) (A) (A)
                 (A) (A) (A) (A) (A) (A) (A) (A) (A) (A) (A) (A)
                 (A) (A) (A) (A) (A) (A) (A) (A) (A) (A) (A) (A)
                 (A) (A) (A) (A) (A) (A) (A) (A) (A) (A) (A) (A)
                 (A) (A) (A) (A) (A) (A) (A) (A) (A) (A) (A) (A)
                 (A) (A) (A) (A) (A) (A) (A) (A) (A) (A) (A) (A)
                 (A) (A) (A) (A) (A) (A) (A) (A) (A) (A) (A) (A)
                 (A) (A) (A) (A) (A) (A) (A) (A) (A) (A) (A) (A)
                 (A) (A) (A) (A) (A) (A) (A) (A) (A) (A) (A) (A)
                 (A) (A) (A) (A) (A) (A) (A) (A) (A) (A) (A) (A)
                 (A) (A) (A) (A) (A) (A) (A) (A) (A) (A) (A) (A)
                 (A) (A) (A) (A) (A) (A) (A) (A) (A) (A) (A) (A)
                 (A) (A) (A) (A) (A) (A) (A) (A) (A) (A) (A) (A)
                 (A) (A) (A) (A) (A) (A) (A) (A) (A) (A) (A) (A)
                 (A) (A) (A) (A) (A) (A) (A) (A) (A) (A) (A) (A)
                 (A) (A) (A) (A) (A) (A) (A) (A) (A) (A) (A) (A)
                 (A) (A) (A) (A) (A) (A) (A) (A) (A) (A) (A) (A)
                 (A) (A) (A) (A) (A) (A) (A) (A) (A) (A) (A) (A)
                 (A) (A) (A) (A) (A) (A) (A) (A) (A) (A) (A) (A)
                 (A) (A) (A) (A) (A) (A) (A) (A) (A) (A) (A) (A)
                 (A) (A) (A) (A) (A) (A) (A) (A) (A) (A) (A) (A)
                 (A) (A) (A) (A) (A) (A) (A) (A) (A) (A) (A) (A)
                 (A) (A) (A) (A) (A) (A) (A) (A) (A) (A) (A) (A)
                 (A) (A) (A) (A) (A) (A) (A) (A) (A) (A) (A) (A)
                 (A) (A) (A) (A) (A) (A) (A) (A) (A) (A) (A) (A)
                 (A) (A) (A) (A) (A) (A) (A) (A) (A) (A) (A) (A)
                 (A) (A) (A) (A) (A) (A) (A) (A) (A) (A) (A) (A)
                 (A) (A) (A) (A) (A) (A) (A) (A) (A) (A) (A) (A)
                 (A) (A) (A) (A) (A) (A) (A) (A) (A) (A) (A) (A)
                 (A) (A) (A) (A) (A) (A) (A) (A) (A) (A) (A) (A)
                 (A) (A) (A) (A) (A) (A) (A) (A) (A) (A) (A) (A)
                 (A) (A) (A) (A) (A) (A) (A) (A) (A) (A) (A) (A)
                 (A) (A) (A) (A) (A) (A) (A) (A) (A) (A) (A) (A)
                 (A) (A) (A) (A) (A) (A) (A) (A) (A) (A) (A) (A)
                 (A) (A) (A) (A) (A) (A) (A) (A) (A) (A) (A) (A)
                 (A) (A) (A) (A) (A) (A) (A) (A) (A) (A) (A) (A)
                 (A) (A) (A) (A) (A) (A) (A) (A) (A) (A) (A) (A)
                 (A) (A) (A) (A) (A) (A) (A) (A) (A) (A) (A) (A)
                 (A) (A) (A) (A) (A) (A) (A) (A) (A) (A) (A) (A)
                 (A) (A) (A) (A) (A) (A) (A) (A) (A) (A) (A) (A)
                 (A) (A) (A) (A) (A) (A) (A) (A) (A) (A) (A) (A)
                 (A) (A) (A) (A) (A) (A) (A) (A) (A) (A) (A) (A)
                 (A) (A) (A) (A) (A) (A) (A) (A) (A) (A) (A) (A)
                 (A) (A) (A) (A) (A) (A) (A) (A) (A) (A) (A) (A)
                 (A) (A) (A) (A) (A) (A) (A) (A) (A) (A) (A) (A)
                 (A) (A) (A) (A) (A) (A) (A) (A) (A) (A) (A) (A)
                 (A) (A) (A) (A) (A) (A) (A) (A) (A) (A) (A) (A)
                 (A) (A) (A) (A) (A) (A) (A) (A) (A) (A) (A) (A)
                 (A) (A) (A) (A) (A) (A) (A) (A) (A) (A) (A) (A)
                 (A) (A) (A) (A) (A) (A) (A) (A) (A) (A) (A) (A)
                 (A) (A) (A) (A) (A) (A) (A) (A) (A) (A) (A) (A)
                 (A) (A) (A) (A) (A) (A) (A) (A) (A) (A) (A) (A)
                 (A) (A) (A) (A) (A) (A) (A) (A) (A) (A) (A) (A)
                 (A) (A) (A) (A) (A) (A) (A) (A) (A) (A) (A) (A)
                 (A) (A) (A) (A) (A) (A) (A) (A) (A) (A) (A) (A)
                 (A) (A) (A) (A) (A) (A) (A) (A) (A) (A) (A) (A)
                 (A) (A) (A) (A) (A) (A) (A) (A) (A) (A) (A) (A)
                 (A) (A) (A) (A) (A) (A) (A) (A) (A) (A) (A) (A)
                 (A) (A) (A) (A) (A) (A) (A) (A) (A) (A) (A) (A)
                 (A) (A) (A) (A) (A) (A) (A) (A) (A) (A) (A) (A)
                 (A) (A) (A) (A) (A) (A) (A) (A) (A) (A) (A) (A)
                 (A) (A) (A) (A) (A) (A) (A) (A) (A) (A) (A) (A)
                 (A) (A) (A) (A) (A) (A) (A) (A) (A) (A) (A) (A)
                 (A) (A) (A) (A) (A) (A) (A) (A) (A) (A) (A) (A)
                 (A) (A) (A) (A) (A) (A) (A) (A) (A) (A) (A) (A)
                 (A) (A) (A) (A) (A) (A) (A) (A) (A) (A) (A) (A)
                 (A) (A) (A) (A) (A) (A) (A) (A) (A) (A) (A) (A)
                 (A) (A) (A) (A) (A) (A) (A) (A) (A) (A) (A) (A)
                 (A) (A) (A) (A) (A) (A) (A) (A) (A) (A) (A) (A)
                 (A) (A) (A) (A) (A) (A) (A) (A) (A) (A) (A) (A)
                 (A) (A) (A) (A) (A) (A) (A) (A) (A) (A) (A) (A)
                 (A) (A) (A) (A) (A) (A) (A) (A) (A) (A) (A) (A)
                 (A) (A) (A) (A) (A) (A) (A) (A) (A) (A) (A) (A)
                 (A) (A) (A) (A) (A) (A) (A) (A) (A) (A) (A) (A)
                 (A) (A) (A) (A) (A) (A) (A) (A) (A) (A) (A) (A)
                 (A) (A) (A) (A) (A) (A) (A) (A) (A) (A) (A) (A)
                 (A) (A) (A) (A) (A) (A) (A) (A) (A) (A) (A) (A)
                 (A) (A) (A) (A) (A) (A) (A) (A) (A) (A) (A) (A)
                 (A) (A) (A) (A) (A) (A) (A) (A) (A) (A) (A) (A)
                 (A) (A) (A) (A) (A) (A) (A) (A) (A) (A) (A) (A)
                 (A) (A) (A) (A) (A) (A) (A) (A) (A) (A) (A) (A)
                 (A) (A) (A) (A) (A) (A) (A) (A) (A) (A) (A) (A)
                 (A) (A) (A) (A) (A) (A) (A) (A) (A) (A) (A) (A)
                 (A) (A) (A) (A) (A) (A)
 The electronic state is 1-A.
 Alpha  occ. eigenvalues --  -46.83494 -19.26047 -19.25246 -19.21125 -19.20668
 Alpha  occ. eigenvalues --  -19.20120 -14.40966 -14.39609 -14.39383 -14.38922
 Alpha  occ. eigenvalues --  -10.40009 -10.37399 -10.35767 -10.32670 -10.32559
 Alpha  occ. eigenvalues --  -10.30291 -10.29804 -10.29746 -10.29577 -10.29348
 Alpha  occ. eigenvalues --  -10.28812 -10.28750 -10.28674 -10.28638 -10.28215
 Alpha  occ. eigenvalues --  -10.27871 -10.27809 -10.27627 -10.27573 -10.26979
 Alpha  occ. eigenvalues --  -10.26959 -10.26867 -10.26817 -10.26805 -10.26727
 Alpha  occ. eigenvalues --  -10.26707 -10.26624 -10.26188 -10.26176 -10.26067
 Alpha  occ. eigenvalues --  -10.25975 -10.25971 -10.25881 -10.25852 -10.25811
 Alpha  occ. eigenvalues --  -10.25665 -10.25644 -10.25544 -10.25426 -10.25412
 Alpha  occ. eigenvalues --  -10.25311 -10.25248 -10.25210 -10.25179 -10.25047
 Alpha  occ. eigenvalues --  -10.24989 -10.24888 -10.24832 -10.24814 -10.24555
 Alpha  occ. eigenvalues --  -10.23896 -10.23352 -10.23179 -10.23165 -10.22924
 Alpha  occ. eigenvalues --   -3.12741  -1.87436  -1.86984  -1.86938  -1.18673
 Alpha  occ. eigenvalues --   -1.14986  -1.12573  -1.09992  -1.06360  -1.05080
 Alpha  occ. eigenvalues --   -1.03951  -1.03116  -1.02428  -0.93817  -0.92056
 Alpha  occ. eigenvalues --   -0.90896  -0.90372  -0.89843  -0.88933  -0.88692
 Alpha  occ. eigenvalues --   -0.88534  -0.88268  -0.87853  -0.86824  -0.85943
 Alpha  occ. eigenvalues --   -0.85358  -0.84221  -0.83846  -0.83469  -0.82940
 Alpha  occ. eigenvalues --   -0.81819  -0.80785  -0.80383  -0.80016  -0.78571
 Alpha  occ. eigenvalues --   -0.78086  -0.77751  -0.77126  -0.76588  -0.76071
 Alpha  occ. eigenvalues --   -0.75876  -0.75171  -0.75100  -0.73186  -0.72620
 Alpha  occ. eigenvalues --   -0.71959  -0.70607  -0.69775  -0.69138  -0.68876
 Alpha  occ. eigenvalues --   -0.67476  -0.67182  -0.65647  -0.65451  -0.64221
 Alpha  occ. eigenvalues --   -0.64093  -0.63659  -0.63491  -0.62964  -0.61797
 Alpha  occ. eigenvalues --   -0.60964  -0.60267  -0.59861  -0.59463  -0.58808
 Alpha  occ. eigenvalues --   -0.58329  -0.57847  -0.57320  -0.56978  -0.56274
 Alpha  occ. eigenvalues --   -0.55706  -0.55398  -0.55020  -0.54641  -0.54376
 Alpha  occ. eigenvalues --   -0.54222  -0.53673  -0.53455  -0.53137  -0.53086
 Alpha  occ. eigenvalues --   -0.52781  -0.52665  -0.52265  -0.52055  -0.51898
 Alpha  occ. eigenvalues --   -0.51623  -0.51413  -0.51225  -0.51082  -0.50855
 Alpha  occ. eigenvalues --   -0.50663  -0.50469  -0.50175  -0.50096  -0.50018
 Alpha  occ. eigenvalues --   -0.49775  -0.49363  -0.49045  -0.48947  -0.48783
 Alpha  occ. eigenvalues --   -0.48469  -0.48072  -0.47986  -0.47687  -0.47560
 Alpha  occ. eigenvalues --   -0.47480  -0.47289  -0.47051  -0.46798  -0.46652
 Alpha  occ. eigenvalues --   -0.46033  -0.45760  -0.45571  -0.45468  -0.45303
 Alpha  occ. eigenvalues --   -0.45199  -0.44846  -0.44664  -0.44649  -0.44520
 Alpha  occ. eigenvalues --   -0.44350  -0.44286  -0.44032  -0.43875  -0.43303
 Alpha  occ. eigenvalues --   -0.43252  -0.43141  -0.42898  -0.42745  -0.42639
 Alpha  occ. eigenvalues --   -0.42434  -0.42222  -0.41855  -0.41730  -0.41505
 Alpha  occ. eigenvalues --   -0.41379  -0.40936  -0.40624  -0.40338  -0.40077
 Alpha  occ. eigenvalues --   -0.39704  -0.39649  -0.39359  -0.38978  -0.38779
 Alpha  occ. eigenvalues --   -0.38576  -0.38555  -0.38371  -0.38114  -0.37601
 Alpha  occ. eigenvalues --   -0.37305  -0.37197  -0.37023  -0.36592  -0.36500
 Alpha  occ. eigenvalues --   -0.36488  -0.35816  -0.35606  -0.35377  -0.34899
 Alpha  occ. eigenvalues --   -0.34487  -0.34411  -0.34018  -0.33545  -0.33123
 Alpha  occ. eigenvalues --   -0.32953  -0.32570  -0.32080  -0.30976  -0.30623
 Alpha  occ. eigenvalues --   -0.29683  -0.28504  -0.28376  -0.26271  -0.22950
 Alpha  occ. eigenvalues --   -0.20664
 Alpha virt. eigenvalues --   -0.06339  -0.02512   0.01010   0.03598   0.04332
 Alpha virt. eigenvalues --    0.05183   0.06282   0.06747   0.07184   0.09331
 Alpha virt. eigenvalues --    0.10241   0.11004   0.11480   0.11718   0.11863
 Alpha virt. eigenvalues --    0.12004   0.12262   0.12409   0.12701   0.13155
 Alpha virt. eigenvalues --    0.13584   0.14128   0.14156   0.14267   0.14616
 Alpha virt. eigenvalues --    0.15042   0.15155   0.15190   0.15593   0.15834
 Alpha virt. eigenvalues --    0.16111   0.16289   0.16442   0.16730   0.16871
 Alpha virt. eigenvalues --    0.16993   0.17070   0.17274   0.17381   0.17538
 Alpha virt. eigenvalues --    0.17880   0.18076   0.18141   0.18354   0.18500
 Alpha virt. eigenvalues --    0.18666   0.19010   0.19336   0.19393   0.19621
 Alpha virt. eigenvalues --    0.19669   0.19887   0.19945   0.20015   0.20291
 Alpha virt. eigenvalues --    0.20569   0.20775   0.20891   0.21160   0.21297
 Alpha virt. eigenvalues --    0.21350   0.21527   0.21554   0.21606   0.21813
 Alpha virt. eigenvalues --    0.21980   0.22363   0.22490   0.22668   0.22941
 Alpha virt. eigenvalues --    0.23000   0.23175   0.23557   0.23629   0.23706
 Alpha virt. eigenvalues --    0.24041   0.24298   0.24485   0.24673   0.24904
 Alpha virt. eigenvalues --    0.24972   0.25123   0.25197   0.25513   0.25632
 Alpha virt. eigenvalues --    0.25685   0.26001   0.26412   0.26540   0.26695
 Alpha virt. eigenvalues --    0.27031   0.27116   0.27410   0.27461   0.27721
 Alpha virt. eigenvalues --    0.27872   0.28149   0.28298   0.28588   0.28946
 Alpha virt. eigenvalues --    0.28987   0.29182   0.29311   0.29789   0.29907
 Alpha virt. eigenvalues --    0.30361   0.30531   0.30669   0.30768   0.30996
 Alpha virt. eigenvalues --    0.31055   0.31543   0.31732   0.32526   0.32792
 Alpha virt. eigenvalues --    0.32959   0.33163   0.33303   0.33508   0.33662
 Alpha virt. eigenvalues --    0.34078   0.34152   0.34347   0.34483   0.34628
 Alpha virt. eigenvalues --    0.34984   0.35158   0.35660   0.36380   0.36610
 Alpha virt. eigenvalues --    0.36956   0.37239   0.37444   0.37662   0.39215
 Alpha virt. eigenvalues --    0.39560   0.40009   0.40433   0.40628   0.41619
 Alpha virt. eigenvalues --    0.41931   0.41998   0.42477   0.42848   0.43407
 Alpha virt. eigenvalues --    0.43517   0.43634   0.43907   0.44715   0.45656
 Alpha virt. eigenvalues --    0.47309   0.48019   0.48585   0.49560   0.49723
 Alpha virt. eigenvalues --    0.50288   0.51480   0.51624   0.52050   0.52419
 Alpha virt. eigenvalues --    0.52872   0.53125   0.53384   0.54435   0.54672
 Alpha virt. eigenvalues --    0.55149   0.55250   0.55329   0.55499   0.55977
 Alpha virt. eigenvalues --    0.56345   0.56695   0.56891   0.57208   0.57329
 Alpha virt. eigenvalues --    0.57539   0.57691   0.57748   0.57832   0.58209
 Alpha virt. eigenvalues --    0.58528   0.58568   0.58738   0.58765   0.58992
 Alpha virt. eigenvalues --    0.59281   0.59616   0.59740   0.60076   0.60140
 Alpha virt. eigenvalues --    0.60270   0.60541   0.60935   0.61161   0.61599
 Alpha virt. eigenvalues --    0.61745   0.61926   0.62021   0.62556   0.62579
 Alpha virt. eigenvalues --    0.63221   0.63285   0.63531   0.63591   0.63808
 Alpha virt. eigenvalues --    0.63913   0.64737   0.64808   0.64986   0.65484
 Alpha virt. eigenvalues --    0.65641   0.65970   0.66365   0.66633   0.66764
 Alpha virt. eigenvalues --    0.66928   0.67136   0.67394   0.67664   0.68226
 Alpha virt. eigenvalues --    0.68490   0.68987   0.69176   0.69287   0.69731
 Alpha virt. eigenvalues --    0.69808   0.70149   0.70396   0.71010   0.71028
 Alpha virt. eigenvalues --    0.71223   0.71507   0.71731   0.71890   0.72262
 Alpha virt. eigenvalues --    0.72658   0.72787   0.73064   0.73500   0.73711
 Alpha virt. eigenvalues --    0.74091   0.74248   0.74393   0.75032   0.75127
 Alpha virt. eigenvalues --    0.75281   0.75457   0.75858   0.75987   0.76060
 Alpha virt. eigenvalues --    0.76544   0.76646   0.77353   0.77480   0.77782
 Alpha virt. eigenvalues --    0.78065   0.78156   0.78169   0.78246   0.78652
 Alpha virt. eigenvalues --    0.78942   0.79037   0.79267   0.79590   0.79757
 Alpha virt. eigenvalues --    0.80216   0.80429   0.80560   0.80873   0.81313
 Alpha virt. eigenvalues --    0.81514   0.81761   0.81991   0.82315   0.82910
 Alpha virt. eigenvalues --    0.83032   0.83152   0.83239   0.83314   0.83808
 Alpha virt. eigenvalues --    0.83873   0.84526   0.84592   0.84681   0.84931
 Alpha virt. eigenvalues --    0.85075   0.85449   0.85614   0.85979   0.86039
 Alpha virt. eigenvalues --    0.86199   0.86391   0.86453   0.86599   0.86822
 Alpha virt. eigenvalues --    0.87097   0.87303   0.87474   0.87611   0.87825
 Alpha virt. eigenvalues --    0.88127   0.88387   0.88784   0.88842   0.89042
 Alpha virt. eigenvalues --    0.89353   0.89760   0.89925   0.90090   0.90467
 Alpha virt. eigenvalues --    0.90668   0.90988   0.91013   0.91031   0.91334
 Alpha virt. eigenvalues --    0.91478   0.91782   0.92020   0.92178   0.92299
 Alpha virt. eigenvalues --    0.92511   0.92625   0.92872   0.92943   0.93159
 Alpha virt. eigenvalues --    0.93216   0.93399   0.93666   0.94167   0.94227
 Alpha virt. eigenvalues --    0.94546   0.95164   0.95265   0.95281   0.95831
 Alpha virt. eigenvalues --    0.95914   0.96079   0.96194   0.96436   0.96581
 Alpha virt. eigenvalues --    0.96894   0.97092   0.97288   0.97348   0.97578
 Alpha virt. eigenvalues --    0.97687   0.98007   0.98185   0.98401   0.98484
 Alpha virt. eigenvalues --    0.98714   0.99341   0.99470   0.99673   0.99732
 Alpha virt. eigenvalues --    0.99875   1.00150   1.00324   1.00512   1.00592
 Alpha virt. eigenvalues --    1.00769   1.01041   1.01084   1.01514   1.01827
 Alpha virt. eigenvalues --    1.02128   1.02349   1.02626   1.02972   1.03294
 Alpha virt. eigenvalues --    1.03382   1.03440   1.03655   1.03725   1.04239
 Alpha virt. eigenvalues --    1.04550   1.04854   1.04881   1.05253   1.05386
 Alpha virt. eigenvalues --    1.05725   1.06158   1.06537   1.06963   1.07158
 Alpha virt. eigenvalues --    1.07548   1.07634   1.08139   1.08163   1.08408
 Alpha virt. eigenvalues --    1.09007   1.09184   1.09573   1.09941   1.10046
 Alpha virt. eigenvalues --    1.10634   1.10678   1.11192   1.11515   1.11681
 Alpha virt. eigenvalues --    1.12188   1.12379   1.12594   1.12823   1.13556
 Alpha virt. eigenvalues --    1.14216   1.14278   1.14466   1.14806   1.14990
 Alpha virt. eigenvalues --    1.15642   1.16418   1.16760   1.17216   1.17459
 Alpha virt. eigenvalues --    1.17873   1.18170   1.18997   1.19634   1.20201
 Alpha virt. eigenvalues --    1.20762   1.21441   1.21884   1.22473   1.22641
 Alpha virt. eigenvalues --    1.22983   1.23631   1.24241   1.25220   1.25828
 Alpha virt. eigenvalues --    1.26550   1.26908   1.27359   1.27987   1.28553
 Alpha virt. eigenvalues --    1.28578   1.29029   1.29922   1.30334   1.30638
 Alpha virt. eigenvalues --    1.31399   1.31710   1.31915   1.32221   1.33176
 Alpha virt. eigenvalues --    1.33737   1.33937   1.34720   1.35260   1.35853
 Alpha virt. eigenvalues --    1.36480   1.36726   1.37227   1.37344   1.37672
 Alpha virt. eigenvalues --    1.37992   1.38934   1.39579   1.39666   1.39933
 Alpha virt. eigenvalues --    1.40343   1.40894   1.41046   1.41169   1.42060
 Alpha virt. eigenvalues --    1.42726   1.43137   1.43266   1.43555   1.45003
 Alpha virt. eigenvalues --    1.45684   1.45984   1.46351   1.46657   1.46999
 Alpha virt. eigenvalues --    1.48447   1.48807   1.50083   1.51379   1.51731
 Alpha virt. eigenvalues --    1.52353   1.52657   1.52797   1.52863   1.53288
 Alpha virt. eigenvalues --    1.54090   1.54266   1.54615   1.55112   1.55833
 Alpha virt. eigenvalues --    1.56161   1.56376   1.56980   1.57385   1.57409
 Alpha virt. eigenvalues --    1.58051   1.58245   1.58539   1.58754   1.59113
 Alpha virt. eigenvalues --    1.59551   1.60536   1.60758   1.61052   1.61631
 Alpha virt. eigenvalues --    1.62318   1.62686   1.62867   1.63652   1.64015
 Alpha virt. eigenvalues --    1.64121   1.64464   1.65231   1.65580   1.66337
 Alpha virt. eigenvalues --    1.66465   1.66536   1.66788   1.67235   1.67673
 Alpha virt. eigenvalues --    1.67968   1.68928   1.69465   1.69711   1.70099
 Alpha virt. eigenvalues --    1.70243   1.70761   1.70796   1.71168   1.71372
 Alpha virt. eigenvalues --    1.71884   1.72465   1.72744   1.73023   1.73761
 Alpha virt. eigenvalues --    1.74327   1.74894   1.74913   1.75500   1.76073
 Alpha virt. eigenvalues --    1.76151   1.76360   1.76716   1.76927   1.77018
 Alpha virt. eigenvalues --    1.77869   1.78124   1.78492   1.79312   1.79765
 Alpha virt. eigenvalues --    1.80069   1.80488   1.80953   1.81432   1.81987
 Alpha virt. eigenvalues --    1.82399   1.82757   1.82966   1.83144   1.84387
 Alpha virt. eigenvalues --    1.84686   1.85233   1.85458   1.85809   1.85980
 Alpha virt. eigenvalues --    1.86329   1.86585   1.87315   1.87424   1.87756
 Alpha virt. eigenvalues --    1.88037   1.88412   1.88820   1.88924   1.89279
 Alpha virt. eigenvalues --    1.89609   1.89861   1.90003   1.90384   1.90420
 Alpha virt. eigenvalues --    1.90895   1.91087   1.91235   1.91394   1.91805
 Alpha virt. eigenvalues --    1.92127   1.92273   1.92465   1.92902   1.92931
 Alpha virt. eigenvalues --    1.93324   1.93574   1.94021   1.94368   1.94416
 Alpha virt. eigenvalues --    1.94568   1.95017   1.95411   1.95935   1.96038
 Alpha virt. eigenvalues --    1.96138   1.96648   1.96804   1.96894   1.96925
 Alpha virt. eigenvalues --    1.97138   1.97268   1.97359   1.97758   1.97806
 Alpha virt. eigenvalues --    1.98266   1.98615   1.98678   1.99155   1.99230
 Alpha virt. eigenvalues --    1.99580   1.99671   2.00308   2.00588   2.00864
 Alpha virt. eigenvalues --    2.01145   2.01449   2.01618   2.01675   2.02152
 Alpha virt. eigenvalues --    2.02464   2.02618   2.02818   2.03694   2.03913
 Alpha virt. eigenvalues --    2.04053   2.04437   2.04854   2.05170   2.05420
 Alpha virt. eigenvalues --    2.05800   2.05968   2.06226   2.06421   2.06928
 Alpha virt. eigenvalues --    2.07285   2.07534   2.07928   2.08500   2.08823
 Alpha virt. eigenvalues --    2.08939   2.09217   2.09479   2.09575   2.09849
 Alpha virt. eigenvalues --    2.09879   2.10420   2.10832   2.11125   2.11330
 Alpha virt. eigenvalues --    2.11496   2.11943   2.12486   2.12863   2.13441
 Alpha virt. eigenvalues --    2.13574   2.13705   2.13916   2.13972   2.14209
 Alpha virt. eigenvalues --    2.14532   2.15284   2.15602   2.16047   2.16488
 Alpha virt. eigenvalues --    2.16753   2.17039   2.17660   2.17687   2.17941
 Alpha virt. eigenvalues --    2.18301   2.18443   2.18753   2.19141   2.19461
 Alpha virt. eigenvalues --    2.19918   2.20477   2.20775   2.20922   2.21240
 Alpha virt. eigenvalues --    2.21736   2.22017   2.22351   2.22475   2.22821
 Alpha virt. eigenvalues --    2.23021   2.23216   2.23312   2.23589   2.24047
 Alpha virt. eigenvalues --    2.24332   2.24566   2.24600   2.24790   2.25554
 Alpha virt. eigenvalues --    2.25706   2.25861   2.25900   2.26806   2.27283
 Alpha virt. eigenvalues --    2.27606   2.27883   2.28523   2.28806   2.29046
 Alpha virt. eigenvalues --    2.29407   2.30061   2.30399   2.30869   2.31580
 Alpha virt. eigenvalues --    2.31695   2.31819   2.32382   2.32795   2.33120
 Alpha virt. eigenvalues --    2.33603   2.33788   2.33929   2.34317   2.34619
 Alpha virt. eigenvalues --    2.34854   2.35621   2.35741   2.36450   2.36736
 Alpha virt. eigenvalues --    2.36998   2.37105   2.37377   2.37447   2.38045
 Alpha virt. eigenvalues --    2.38357   2.38432   2.38786   2.38981   2.39429
 Alpha virt. eigenvalues --    2.39492   2.40020   2.40190   2.40735   2.40831
 Alpha virt. eigenvalues --    2.41140   2.41593   2.41910   2.41971   2.42097
 Alpha virt. eigenvalues --    2.42370   2.42687   2.42949   2.43648   2.44259
 Alpha virt. eigenvalues --    2.44440   2.44666   2.44676   2.45181   2.45696
 Alpha virt. eigenvalues --    2.45978   2.46178   2.46375   2.47034   2.47235
 Alpha virt. eigenvalues --    2.47429   2.47706   2.48140   2.48282   2.48900
 Alpha virt. eigenvalues --    2.49156   2.49234   2.49520   2.49721   2.49832
 Alpha virt. eigenvalues --    2.50314   2.50561   2.50963   2.51429   2.51683
 Alpha virt. eigenvalues --    2.52188   2.52524   2.52983   2.53143   2.53271
 Alpha virt. eigenvalues --    2.53478   2.54166   2.54573   2.54651   2.55073
 Alpha virt. eigenvalues --    2.55222   2.55472   2.56019   2.56473   2.56934
 Alpha virt. eigenvalues --    2.57162   2.57337   2.57807   2.57905   2.58354
 Alpha virt. eigenvalues --    2.58795   2.59262   2.59746   2.59779   2.59939
 Alpha virt. eigenvalues --    2.61395   2.61434   2.62049   2.62427   2.63230
 Alpha virt. eigenvalues --    2.63530   2.63888   2.64243   2.64810   2.64905
 Alpha virt. eigenvalues --    2.65065   2.65819   2.66007   2.66195   2.67434
 Alpha virt. eigenvalues --    2.67572   2.67979   2.68163   2.68363   2.68800
 Alpha virt. eigenvalues --    2.69170   2.69449   2.69688   2.69939   2.70205
 Alpha virt. eigenvalues --    2.70597   2.71058   2.71756   2.72076   2.72276
 Alpha virt. eigenvalues --    2.72370   2.72805   2.73021   2.73343   2.73738
 Alpha virt. eigenvalues --    2.74017   2.74398   2.74485   2.74616   2.74988
 Alpha virt. eigenvalues --    2.75524   2.75771   2.75982   2.76112   2.76832
 Alpha virt. eigenvalues --    2.76950   2.77424   2.77743   2.78135   2.78454
 Alpha virt. eigenvalues --    2.78533   2.78804   2.79000   2.79143   2.79805
 Alpha virt. eigenvalues --    2.80139   2.80321   2.81032   2.81104   2.81393
 Alpha virt. eigenvalues --    2.81939   2.82293   2.82417   2.82969   2.83053
 Alpha virt. eigenvalues --    2.83601   2.83866   2.84096   2.84405   2.84913
 Alpha virt. eigenvalues --    2.85414   2.85762   2.86080   2.86447   2.86726
 Alpha virt. eigenvalues --    2.87119   2.87328   2.87545   2.87666   2.87972
 Alpha virt. eigenvalues --    2.88664   2.88948   2.89266   2.89710   2.89991
 Alpha virt. eigenvalues --    2.90745   2.91330   2.91827   2.92118   2.92415
 Alpha virt. eigenvalues --    2.92755   2.92929   2.93238   2.93927   2.94901
 Alpha virt. eigenvalues --    2.95709   2.95918   2.96477   2.97090   2.97310
 Alpha virt. eigenvalues --    2.97514   2.97636   2.97924   2.98145   2.98745
 Alpha virt. eigenvalues --    2.99031   2.99348   2.99749   2.99946   3.00698
 Alpha virt. eigenvalues --    3.00865   3.01134   3.01549   3.01883   3.02195
 Alpha virt. eigenvalues --    3.02307   3.02487   3.03094   3.03295   3.04106
 Alpha virt. eigenvalues --    3.04921   3.05270   3.06098   3.06363   3.06970
 Alpha virt. eigenvalues --    3.07287   3.07687   3.08636   3.09103   3.09137
 Alpha virt. eigenvalues --    3.09602   3.10429   3.10627   3.11002   3.11059
 Alpha virt. eigenvalues --    3.11393   3.12611   3.13440   3.13721   3.14084
 Alpha virt. eigenvalues --    3.14763   3.14949   3.15829   3.15975   3.17263
 Alpha virt. eigenvalues --    3.17513   3.17800   3.18332   3.20266   3.20537
 Alpha virt. eigenvalues --    3.21820   3.22206   3.22816   3.23810   3.24297
 Alpha virt. eigenvalues --    3.25095   3.25122   3.26471   3.27517   3.28278
 Alpha virt. eigenvalues --    3.28736   3.29709   3.30274   3.30563   3.31162
 Alpha virt. eigenvalues --    3.31889   3.32037   3.33645   3.34649   3.35326
 Alpha virt. eigenvalues --    3.36021   3.36564   3.36628   3.37540   3.38422
 Alpha virt. eigenvalues --    3.39575   3.39918   3.40421   3.41359   3.41868
 Alpha virt. eigenvalues --    3.42114   3.43597   3.43981   3.45763   3.46043
 Alpha virt. eigenvalues --    3.46126   3.46349   3.46901   3.47147   3.48042
 Alpha virt. eigenvalues --    3.48319   3.48939   3.50689   3.51117   3.51618
 Alpha virt. eigenvalues --    3.52109   3.52516   3.53777   3.54235   3.54997
 Alpha virt. eigenvalues --    3.55893   3.56837   3.58588   3.58977   3.59150
 Alpha virt. eigenvalues --    3.59804   3.60197   3.61025   3.63206   3.63649
 Alpha virt. eigenvalues --    3.64685   3.64959   3.66522   3.67150   3.68557
 Alpha virt. eigenvalues --    3.69103   3.70555   3.71938   3.72046   3.73938
 Alpha virt. eigenvalues --    3.75148   3.75684   3.80548   3.82399   3.82725
 Alpha virt. eigenvalues --    3.83544   3.84517   3.88814   3.94407   4.07820
 Alpha virt. eigenvalues --    4.10874   4.12414   4.20902   4.22286   4.22328
 Alpha virt. eigenvalues --    4.22410   4.25590   4.26765   4.28238   4.30154
 Alpha virt. eigenvalues --    4.30616   4.31962   4.32040   4.33252   4.34966
 Alpha virt. eigenvalues --    4.35898   4.37742   4.39408   4.40978   4.41296
 Alpha virt. eigenvalues --    4.43013   4.43692   4.44615   4.45427   4.46962
 Alpha virt. eigenvalues --    4.47394   4.48510   4.49382   4.50406   4.51405
 Alpha virt. eigenvalues --    4.51802   4.52786   4.52938   4.54076   4.56242
 Alpha virt. eigenvalues --    4.58015   4.58168   4.58445   4.59687   4.60950
 Alpha virt. eigenvalues --    4.62767   4.63259   4.63833   4.64572   4.69581
 Alpha virt. eigenvalues --    4.70332   4.70734   4.71526   4.72958   4.74220
 Alpha virt. eigenvalues --    4.75353   4.75629   4.76926   4.81145   4.82542
 Alpha virt. eigenvalues --    4.85669   4.86950   4.88119   4.88869   4.90088
 Alpha virt. eigenvalues --    4.90355   4.99755   5.07499
          Condensed to atoms (all electrons):
 Mulliken charges:
               1
     1  Mg   0.812378
     2  C    0.043759
     3  C   -0.214121
     4  C   -0.165162
     5  C   -0.177976
     6  N   -0.631705
     7  C    0.309173
     8  C   -0.182177
     9  C   -0.155875
    10  C    0.323936
    11  C   -0.299641
    12  C   -0.128961
    13  C   -0.284857
    14  C    0.583794
    15  O   -0.434453
    16  O   -0.489732
    17  N   -0.695546
    18  C    0.325322
    19  C    0.073688
    20  C    0.014397
    21  C    0.269051
    22  C   -0.380360
    23  C   -0.106632
    24  C   -0.239603
    25  N   -0.671440
    26  C    0.223574
    27  C    0.026945
    28  C   -0.005358
    29  C    0.326032
    30  C   -0.331685
    31  C   -0.242619
    32  C   -0.291685
    33  N   -0.720174
    34  C    0.355795
    35  C   -0.033221
    36  C    0.077153
    37  C    0.258964
    38  C   -0.371680
    39  C    0.333848
    40  O   -0.437286
    41  C   -0.340646
    42  C    0.646783
    43  O   -0.499643
    44  O   -0.477740
    45  C   -0.071788
    46  C    0.008561
    47  C   -0.160096
    48  C    0.127444
    49  C   -0.350769
    50  C   -0.227375
    51  C   -0.199642
    52  C   -0.185190
    53  C   -0.093498
    54  C   -0.302245
    55  C   -0.153809
    56  C   -0.167926
    57  C   -0.179045
    58  C   -0.048270
    59  C   -0.308709
    60  C   -0.170337
    61  C   -0.169047
    62  C   -0.130902
    63  C   -0.078768
    64  C   -0.304540
    65  C   -0.308045
    66  H    0.078106
    67  H    0.086280
    68  H    0.089900
    69  H    0.130597
    70  H    0.101047
    71  H    0.118800
    72  H    0.114029
    73  H    0.119275
    74  H    0.116838
    75  H    0.111762
    76  H    0.127193
    77  H    0.131078
    78  H    0.102502
    79  H    0.129630
    80  H    0.073241
    81  H    0.104409
    82  H    0.104551
    83  H    0.096488
    84  H    0.137978
    85  H    0.115525
    86  H    0.107594
    87  H    0.098148
    88  H    0.085582
    89  H    0.078473
    90  H    0.118966
    91  H    0.097129
    92  H    0.134019
    93  H    0.131287
    94  H    0.136601
    95  H    0.169839
    96  H    0.125400
    97  H    0.129636
    98  H    0.124778
    99  H    0.129758
   100  H    0.141101
   101  H    0.101932
   102  H    0.130335
   103  H    0.124079
   104  H    0.109712
   105  H    0.095621
   106  H    0.107716
   107  H    0.103247
   108  H    0.100678
   109  H    0.093915
   110  H    0.095464
   111  H    0.081635
   112  H    0.105765
   113  H    0.099222
   114  H    0.108547
   115  H    0.072186
   116  H    0.090077
   117  H    0.076160
   118  H    0.102048
   119  H    0.077304
   120  H    0.073061
   121  H    0.059537
   122  H    0.110612
   123  H    0.103071
   124  H    0.089554
   125  H    0.076836
   126  H    0.089014
   127  H    0.104855
   128  H    0.060776
   129  H    0.094727
   130  H    0.059268
   131  H    0.081301
   132  H    0.101796
   133  H    0.085489
   134  H    0.121128
   135  H    0.082175
   136  H    0.102618
   137  H    0.110380
 Sum of Mulliken charges =   0.00000
 Mulliken charges with hydrogens summed into heavy atoms:
               1
     1  Mg   0.812378
     2  C    0.043759
     3  C   -0.136015
     4  C   -0.078882
     5  C   -0.088076
     6  N   -0.631705
     7  C    0.309173
     8  C   -0.051580
     9  C   -0.054828
    10  C    0.323936
    11  C    0.052462
    12  C    0.099640
    13  C   -0.026586
    14  C    0.583794
    15  O   -0.434453
    16  O   -0.489732
    17  N   -0.695546
    18  C    0.325322
    19  C    0.073688
    20  C    0.014397
    21  C    0.269051
    22  C   -0.074987
    23  C   -0.002222
    24  C   -0.038564
    25  N   -0.671440
    26  C    0.223574
    27  C    0.026945
    28  C   -0.005358
    29  C    0.326032
    30  C    0.029411
    31  C   -0.058889
    32  C    0.002883
    33  N   -0.720174
    34  C    0.355795
    35  C   -0.033221
    36  C    0.077153
    37  C    0.258964
    38  C    0.030227
    39  C    0.333848
    40  O   -0.437286
    41  C   -0.170807
    42  C    0.646783
    43  O   -0.499643
    44  O   -0.477740
    45  C    0.308027
    46  C    0.279420
    47  C   -0.058163
    48  C    0.127444
    49  C    0.013357
    50  C   -0.024038
    51  C    0.004283
    52  C    0.004190
    53  C   -0.011863
    54  C    0.011290
    55  C    0.008453
    56  C    0.010282
    57  C   -0.028680
    58  C    0.011267
    59  C   -0.005472
    60  C   -0.004487
    61  C   -0.003416
    62  C    0.023093
    63  C    0.002533
    64  C    0.003873
    65  C   -0.012872
 Electronic spatial extent (au):  <R**2>=         179171.8475
 Charge=              0.0000 electrons
 Dipole moment (field-independent basis, Debye):
    X=              2.4607    Y=              3.5060    Z=             -0.6586  Tot=              4.3337
 Quadrupole moment (field-independent basis, Debye-Ang):
   XX=           -331.7495   YY=           -393.2018   ZZ=           -395.7324
   XY=            -12.7985   XZ=              9.2749   YZ=             -6.7665
 Traceless Quadrupole moment (field-independent basis, Debye-Ang):
   XX=             41.8118   YY=            -19.6406   ZZ=            -22.1712
   XY=            -12.7985   XZ=              9.2749   YZ=             -6.7665
 Octapole moment (field-independent basis, Debye-Ang**2):
  XXX=           -582.9411  YYY=            116.4767  ZZZ=              2.9296  XYY=            -40.9331
  XXY=            166.0078  XXZ=           -267.8718  XZZ=              5.1758  YZZ=            -35.2235
  YYZ=             17.7723  XYZ=             -8.9438
 Hexadecapole moment (field-independent basis, Debye-Ang**3):
 XXXX=        -215003.1789 YYYY=         -17114.5626 ZZZZ=          -4123.9429 XXXY=            872.2462
 XXXZ=            601.7691 YYYX=           -835.8569 YYYZ=           -382.4377 ZZZX=             43.5155
 ZZZY=           -130.8442 XXYY=         -39175.4838 XXZZ=         -38942.6234 YYZZ=          -3500.0534
 XXYZ=           -196.9600 YYXZ=            160.3783 ZZXY=             41.7373
 N-N= 8.774594701641D+03 E-N=-2.437420230053D+04  KE= 2.907804545756D+03
 1\1\GINC-PEDRO-RYZENSSD\SP\RCAM-B3LYP TD-FC\6-31G(d,p)\C55H72Mg1N4O5\P
 ADAWAN\29-Jun-2019\0\\# td=(NStates=1) CAM-B3LYP/6-31G(d,p)\\TD\\0,1\M
 g,0,-7.1694886182,0.550603301,0.0978278314\C,0,-4.8518640675,-1.941616
 2729,0.4103066656\C,0,-4.8074300493,2.7715614834,1.1725207093\C,0,-9.4
 178363724,3.0865310525,-0.2436256956\C,0,-9.5028413117,-1.7373539104,-
 0.8387919942\N,0,-5.1529580774,0.3563168922,0.6972772481\C,0,-4.381545
 7599,-0.7807786983,0.802112114\C,0,-2.9394949107,-0.3704223143,1.23261
 87031\C,0,-3.0659668859,1.0780089334,1.6893317396\C,0,-4.347092796,1.4
 151418946,1.0713733985\C,0,-2.9610638974,1.1110675941,3.2053440605\C,0
 ,-1.8920734882,-0.6633403441,0.1185311789\C,0,-0.5009983538,-0.4440826
 397,0.6383124141\C,0,0.56931631,-0.7797914112,-0.5638880406\O,0,0.2567
 962293,-1.105611965,-1.6170909894\O,0,1.7500520302,-0.4299579026,-0.13
 09773178\N,0,-7.176945303,2.5353749448,0.4895541122\C,0,-6.1365407851,
 3.297520706,0.8052285069\C,0,-6.4140693966,4.6458452149,0.9108388484\C
 ,0,-7.7374143368,4.7945693436,0.4507719842\C,0,-8.2192124744,3.4245027
 416,0.2941997592\C,0,-5.5816539466,5.7295140427,1.2286693921\C,0,-8.54
 55837708,6.0340784758,0.2566756895\C,0,-8.0505342512,7.2276088452,-0.0
 600302653\N,0,-9.1193769734,0.6536718455,-0.5892006254\C,0,-9.88706036
 5,1.835894272,-0.5701021344\C,0,-11.3129160345,1.4995609465,-1.0930940
 59\C,0,-11.2159501157,0.1474186192,-1.2127505413\C,0,-9.9235222359,-0.
 3454230304,-0.8719264955\C,0,-12.4305312952,2.482210502,-1.2748080117\
 C,0,-12.329773023,-0.768407903,-1.7409792751\C,0,-12.2222385559,-0.981
 6120464,-3.2071388193\N,0,-7.2800242545,-1.3626656282,-0.2792810468\C,
 0,-8.2845436767,-2.1795438939,-0.5095087568\C,0,-7.8045381213,-3.57537
 17201,-0.5430227313\C,0,-6.4598615082,-3.5979241079,-0.1878512772\C,0,
 -6.1883936176,-2.1589020447,0.0713687583\C,0,-8.721992544,-4.755758394
 7,-0.7615156986\C,0,-5.3058171194,-4.3686628516,0.0940179017\O,0,-5.11
 82631881,-5.5542980834,0.0921552503\C,0,-4.1900324132,-3.2754504791,0.
 4521061026\C,0,-3.5282571899,-3.6386799526,1.7484660263\O,0,-3.8274263
 972,-3.0726905019,2.8469684121\O,0,-2.6016415121,-4.6956377163,1.71360
 94489\C,0,-2.0029129298,-5.0800584751,2.984909828\C,0,2.8862824048,-0.
 5217014278,-1.2310584807\C,0,4.1646097834,-0.2922430737,-0.4449870274\
 C,0,5.2698705945,0.3782111456,-0.9610560058\C,0,5.166264043,1.23173771
 01,-2.3799850896\C,0,6.4044068983,0.4717559825,-0.1244091271\C,0,7.673
 1050494,-0.0200138833,-0.9547551442\C,0,8.8499940818,-0.155935327,-0.0
 727698712\C,0,10.2277236654,-0.6045075491,-0.8597623706\C,0,10.1117683
 63,-2.0592252574,-1.3103026918\C,0,11.3612672438,-0.3218730779,0.05649
 58483\C,0,12.6878859576,-0.4383203479,-0.6564661864\C,0,13.8996456524,
 -0.1867054337,0.2048576988\C,0,15.2955749015,-0.2805406658,-0.40932398
 27\C,0,15.6245865609,-1.6763904248,-0.8291701968\C,0,16.4045437084,0.4
 303974258,0.4539745822\C,0,17.8244581501,0.5595840842,-0.0708153614\C,
 0,18.8189272922,1.3826201088,0.6689092526\C,0,20.2121488947,1.33618936
 35,0.0732569293\C,0,20.203120541,2.1669123392,-1.1657323946\C,0,21.163
 6442385,1.8830326727,1.2054172433\H,0,-4.0130615647,3.4371120929,1.617
 5962806\H,0,-10.191472899,4.0178293668,-0.3539897016\H,0,-10.280517313
 5,-2.4468547402,-0.9252260701\H,0,-2.8324319339,-0.8967893426,2.113788
 6175\H,0,-2.307590397,1.7428327719,1.105594926\H,0,-2.034297153,0.7341
 088999,3.6144616596\H,0,-3.1470694931,2.0699964562,3.3318477523\H,0,-3
 .8851494961,0.7000843761,3.7660604905\H,0,-2.2089734242,-1.6537112915,
 -0.1834733333\H,0,-2.3309672989,0.1111232036,-0.5226673683\H,0,-0.2135
 184458,0.569304854,0.9640786598\H,0,-0.1506710208,-0.92714569,1.477690
 645\H,0,-4.5751796857,5.9461297881,0.5514769299\H,0,-6.1640810784,6.53
 22330221,1.5494596352\H,0,-4.9500182306,5.4540205735,2.2409977785\H,0,
 -9.6617936783,6.0742003561,0.1633341779\H,0,-8.557836424,8.0913777273,
 -0.032542661\H,0,-7.0689819348,7.5279633655,-0.7064451151\H,0,-12.2267
 580886,2.8681241177,-2.1796842668\H,0,-13.2686120747,2.1259482329,-1.5
 136548892\H,0,-12.5221791793,3.2475578412,-0.3186233603\H,0,-12.391711
 6993,-1.8274551437,-1.3014403519\H,0,-13.3966456682,-0.3312369367,-1.5
 480921662\H,0,-13.0888493511,-1.5963008693,-3.6598689846\H,0,-12.33765
 39394,-0.2548742133,-3.8316907441\H,0,-11.1874820958,-1.3779407381,-3.
 4778669022\H,0,-8.8080817041,-4.9126541137,-1.8605736388\H,0,-8.311734
 8745,-5.7340035086,-0.3258968178\H,0,-9.5657887447,-4.7083376208,-0.23
 53117874\H,0,-3.5636264946,-3.5182034048,-0.4967363266\H,0,-1.35304639
 46,-4.3277911564,3.5689035774\H,0,-2.9401792053,-5.5013707795,3.550562
 2783\H,0,-1.3525166782,-5.9564298201,2.6925859615\H,0,2.8135460257,-1.
 6452342133,-1.5796920455\H,0,2.5870304032,0.0134942678,-1.9787698968\H
 ,0,4.2959788222,-0.6304210483,0.6012124974\H,0,4.1917901153,1.55209630
 59,-2.5059739397\H,0,5.7888821866,2.0730316934,-2.3223665913\H,0,5.737
 9191147,0.5104713773,-3.1774990492\H,0,6.6497680001,1.6159878265,0.004
 7879765\H,0,6.265369885,-0.1217654254,0.7528262897\H,0,7.5291866608,-1
 .0051615879,-1.2996940981\H,0,7.9085223832,0.5237192484,-1.8194620931\
 H,0,9.0744335406,0.7980024167,0.1536893314\H,0,8.8042182446,-0.6481531
 707,0.793874006\H,0,10.2496166732,0.0893036967,-1.6527991105\H,0,9.318
 4083372,-2.1576728116,-1.9692218834\H,0,11.0334464293,-2.4489014027,-1
 .742070393\H,0,9.9018276564,-2.5432959522,-0.4248845792\H,0,11.0956843
 306,0.7736517727,0.3937013335\H,0,11.327023112,-0.9394562837,0.9531227
 853\H,0,12.6998957253,-1.4475216136,-1.2057589108\H,0,12.6697658826,0.
 0953890179,-1.533001664\H,0,13.7578372869,0.8716304185,0.6504817087\H,
 0,13.9333194222,-0.6803204693,1.2190670764\H,0,15.0216145536,0.5328931
 497,-1.2654062001\H,0,15.4588178828,-2.3572124471,-0.0136589635\H,0,14
 .9653440662,-2.0944476384,-1.6328710075\H,0,16.6887969383,-1.642338162
 4,-1.395621671\H,0,15.9898041901,1.536862759,0.5054439654\H,0,16.37716
 94189,-0.0921356093,1.400142946\H,0,18.118501042,-0.4274097048,-0.1986
 458722\H,0,17.8846485461,1.0784291014,-1.1495184357\H,0,18.8046891517,
 2.3360755072,0.9828133822\H,0,18.7088571631,0.9448580971,1.7009964512\
 H,0,20.5407841451,0.3059070265,-0.2472869783\H,0,19.9897758109,3.22502
 1487,-1.048015071\H,0,21.3126073746,2.2403699149,-1.3007613301\H,0,19.
 7578766209,1.7619475971,-1.969237347\H,0,20.9936593812,1.0755968635,2.
 1598554271\H,0,22.106185259,1.9241909503,0.7560598722\H,0,20.980700602
 7,2.8711607923,1.5341793491\\Version=ES64L-G09RevD.01\State=1-A\HF=-29
 32.5888866\RMSD=5.744e-09\PG=C01 [X(C55H72Mg1N4O5)]\\@


 THIS CURIOUS WORLD WHICH WE INHABIT IS MORE WONDERFUL THAN IT IS CONVENIENT;
 MORE BEAUTIFUL THAN IT IS USEFUL;
 IT IS MORE TO BE ADMIRED THAN IT IS TO BE USED.

                                                                 -- THOREAU
 Job cpu time:       0 days  6 hours  9 minutes  2.1 seconds.
 File lengths (MBytes):  RWF=   2106 Int=      0 D2E=      0 Chk=    163 Scr=      1
 Normal termination of Gaussian 09 at Sat Jun 29 22:15:42 2019.
