 Entering Gaussian System, Link 0=g16
 Input=Geometria-123-.com
 Output=Geometria-123-.log
 Initial command:
 /usr/local/g09/l1.exe "/home/padawan/israel-mol/chlorophyll-a/spectra/abs/Gau-33322.inp" -scrdir="/home/padawan/israel-mol/chlorophyll-a/spectra/abs/"
 Entering Link 1 = /usr/local/g09/l1.exe PID=     33324.
  
 Copyright (c) 1988,1990,1992,1993,1995,1998,2003,2009,2013,
            Gaussian, Inc.  All Rights Reserved.
  
 This is part of the Gaussian(R) 09 program.  It is based on
 the Gaussian(R) 03 system (copyright 2003, Gaussian, Inc.),
 the Gaussian(R) 98 system (copyright 1998, Gaussian, Inc.),
 the Gaussian(R) 94 system (copyright 1995, Gaussian, Inc.),
 the Gaussian 92(TM) system (copyright 1992, Gaussian, Inc.),
 the Gaussian 90(TM) system (copyright 1990, Gaussian, Inc.),
 the Gaussian 88(TM) system (copyright 1988, Gaussian, Inc.),
 the Gaussian 86(TM) system (copyright 1986, Carnegie Mellon
 University), and the Gaussian 82(TM) system (copyright 1983,
 Carnegie Mellon University). Gaussian is a federally registered
 trademark of Gaussian, Inc.
  
 This software contains proprietary and confidential information,
 including trade secrets, belonging to Gaussian, Inc.
  
 This software is provided under written license and may be
 used, copied, transmitted, or stored only in accord with that
 written license.
  
 The following legend is applicable only to US Government
 contracts under FAR:
  
                    RESTRICTED RIGHTS LEGEND
  
 Use, reproduction and disclosure by the US Government is
 subject to restrictions as set forth in subparagraphs (a)
 and (c) of the Commercial Computer Software - Restricted
 Rights clause in FAR 52.227-19.
  
 Gaussian, Inc.
 340 Quinnipiac St., Bldg. 40, Wallingford CT 06492
  
  
 ---------------------------------------------------------------
 Warning -- This program may not be used in any manner that
 competes with the business of Gaussian, Inc. or will provide
 assistance to any competitor of Gaussian, Inc.  The licensee
 of this program is prohibited from giving any competitor of
 Gaussian, Inc. access to this program.  By using this program,
 the user acknowledges that Gaussian, Inc. is engaged in the
 business of creating and licensing software in the field of
 computational chemistry and represents and warrants to the
 licensee that it is not a competitor of Gaussian, Inc. and that
 it will not use this program in any manner prohibited above.
 ---------------------------------------------------------------
  

 Cite this work as:
 Gaussian 09, Revision D.01,
 M. J. Frisch, G. W. Trucks, H. B. Schlegel, G. E. Scuseria, 
 M. A. Robb, J. R. Cheeseman, G. Scalmani, V. Barone, B. Mennucci, 
 G. A. Petersson, H. Nakatsuji, M. Caricato, X. Li, H. P. Hratchian, 
 A. F. Izmaylov, J. Bloino, G. Zheng, J. L. Sonnenberg, M. Hada, 
 M. Ehara, K. Toyota, R. Fukuda, J. Hasegawa, M. Ishida, T. Nakajima, 
 Y. Honda, O. Kitao, H. Nakai, T. Vreven, J. A. Montgomery, Jr., 
 J. E. Peralta, F. Ogliaro, M. Bearpark, J. J. Heyd, E. Brothers, 
 K. N. Kudin, V. N. Staroverov, T. Keith, R. Kobayashi, J. Normand, 
 K. Raghavachari, A. Rendell, J. C. Burant, S. S. Iyengar, J. Tomasi, 
 M. Cossi, N. Rega, J. M. Millam, M. Klene, J. E. Knox, J. B. Cross, 
 V. Bakken, C. Adamo, J. Jaramillo, R. Gomperts, R. E. Stratmann, 
 O. Yazyev, A. J. Austin, R. Cammi, C. Pomelli, J. W. Ochterski, 
 R. L. Martin, K. Morokuma, V. G. Zakrzewski, G. A. Voth, 
 P. Salvador, J. J. Dannenberg, S. Dapprich, A. D. Daniels, 
 O. Farkas, J. B. Foresman, J. V. Ortiz, J. Cioslowski, 
 and D. J. Fox, Gaussian, Inc., Wallingford CT, 2013.
 
 ******************************************
 Gaussian 09:  ES64L-G09RevD.01 24-Apr-2013
                27-Jun-2019 
 ******************************************
 %nproc=4
 Will use up to    4 processors via shared memory.
 %Mem=2GB
 -------------------------------------
 # td=(NStates=1) CAM-B3LYP/6-31G(d,p)
 -------------------------------------
 1/38=1/1;
 2/12=2,17=6,18=5,40=1/2;
 3/5=1,6=6,7=101,11=9,16=1,25=1,30=1,74=-40/1,2,8,3;
 4//1;
 5/5=2,38=5/2;
 8/6=1,10=2,108=1/1;
 9/41=1,42=1,70=2/14;
 6/7=2,8=2,9=2,10=2/1;
 99/5=1,9=1/99;
 --
 TD
 --
 Symbolic Z-matrix:
 Charge =  0 Multiplicity = 1
 12                   -7.18403   0.48565   0.1202 
 6                    -4.85807  -2.0072    0.53597 
 6                    -4.78489   2.8429    1.3113 
 6                    -9.39682   3.27818  -0.37153 
 6                    -9.56023  -1.78873  -0.7952 
 7                    -5.09181   0.52032   0.71869 
 6                    -4.36421  -0.69295   0.79596 
 6                    -2.9224   -0.49839   1.15915 
 6                    -3.02537   1.04066   1.72534 
 6                    -4.30982   1.51374   1.2534 
 6                    -2.842     1.05614   3.26129 
 6                    -1.90524  -0.61745  -0.04337 
 6                    -0.49277  -0.60214   0.44756 
 6                     0.56295  -0.86135  -0.6449 
 8                     0.24165  -1.24334  -1.72233 
 8                     1.809    -0.38355  -0.38735 
 7                    -7.04564   2.61715   0.42485 
 6                    -6.00205   3.31379   0.91534 
 6                    -6.3924    4.72783   0.87008 
 6                    -7.69005   4.81875   0.4622 
 6                    -8.17162   3.52789   0.14182 
 6                    -5.62488   5.75291   1.34051 
 6                    -8.44953   6.04806   0.19763 
 6                    -8.04987   7.30733  -0.05273 
 7                    -9.14196   0.70307  -0.53672 
 6                    -9.89406   1.86906  -0.64818 
 6                    -11.15363   1.53571  -1.10774 
 6                    -11.19951   0.11626  -1.15317 
 6                    -9.8873   -0.36909  -0.80833 
 6                    -12.37073   2.54693  -1.39441 
 6                    -12.34475  -0.65615  -1.82402 
 6                    -12.20538  -0.93885  -3.26582 
 7                    -7.28193  -1.42495  -0.10304 
 6                    -8.33804  -2.31143  -0.41379 
 6                    -7.86437  -3.69125  -0.4641 
 6                    -6.50392  -3.61363  -0.09268 
 6                    -6.18924  -2.2472    0.15838 
 6                    -8.74657  -4.80268  -0.83561 
 6                    -5.32985  -4.35159   0.20663 
 8                    -5.08892  -5.55259   0.29697 
 6                    -4.27285  -3.31175   0.55392 
 6                    -3.50004  -3.68911   1.87997 
 8                    -3.68273  -3.18875   2.96402 
 8                    -2.64186  -4.67409   1.77472 
 6                    -2.0094   -5.20327   3.07961 
 6                     2.85989  -0.53591  -1.30091 
 6                     4.1137   -0.43672  -0.61478 
 6                     5.0608    0.41417  -1.11019 
 6                     4.95601   1.27404  -2.2405 
 6                     6.37494   0.42666  -0.38565 
 6                     7.57487  -0.18484  -1.12484 
 6                     8.87821  -0.2135   -0.20257 
 6                     10.14501  -0.61873  -0.93973 
 6                     10.06053  -2.02131  -1.51762 
 6                     11.44275  -0.19253  -0.057 
 6                     12.78594  -0.62818  -0.61253 
 6                     13.91629   0.00012   0.20349 
 6                     15.32906  -0.31962  -0.53906 
 6                     15.57089  -1.75216  -0.75032 
 6                     16.31837   0.45495   0.37844 
 6                     17.73067   0.74368  -0.26241 
 6                     18.69319   1.42376   0.6972 
 6                     20.1429   1.45063   0.31635 
 6                     20.27865   2.43589  -0.81704 
 6                     21.13336   1.74964   1.51096 
 1                    -4.10871   3.53364   1.56116 
 1                    -10.14358   4.08052  -0.42277 
 1                    -10.33391  -2.45295  -1.13088 
 1                    -2.86234  -1.1676    2.06719 
 1                    -2.32136   1.79801   1.30546 
 1                    -1.84405   0.62995   3.56842 
 1                    -2.94497   2.10564   3.76114 
 1                    -3.68304   0.35839   3.66432 
 1                    -1.92243  -1.64617  -0.63585 
 1                    -1.83498   0.25947  -0.63876 
 1                    -0.36684   0.41828   1.09384 
 1                    -0.32107  -1.45532   1.23305 
 1                    -5.01242   6.41338   0.38603 
 1                    -6.24694   6.48178   1.83402 
 1                    -4.73202   5.33222   2.10262 
 1                    -9.52385   5.9488    0.39973 
 1                    -8.7383    8.18923   0.06431 
 1                    -6.97518   7.52256  -0.21704 
 1                    -12.00952   3.11508  -2.34106 
 1                    -13.31304   2.06335  -1.57166 
 1                    -12.34228   3.34216  -0.56872 
 1                    -12.61888  -1.56367  -1.30552 
 1                    -13.26855  -0.01629  -1.60056 
 1                    -12.62803  -1.63489  -3.6275 
 1                    -12.11365   0.11277  -3.82718 
 1                    -11.10728  -1.28087  -3.33369 
 1                    -8.81743  -4.78568  -2.01584 
 1                    -8.17588  -5.87499  -0.7874 
 1                    -9.95966  -4.9219   -0.42203 
 1                    -3.34727  -3.29033  -0.32453 
 1                    -1.17737  -4.36535   3.32227 
 1                    -2.77677  -5.48651   3.72798 
 1                    -1.56854  -6.33183   2.58435 
 1                     2.747    -1.75887  -1.57437 
 1                     2.72718   0.03563  -2.21974 
 1                     4.25505  -0.99297   0.3814 
 1                     4.07162   1.2872   -3.02884 
 1                     5.05138   2.35882  -1.89683 
 1                     5.82955   1.01508  -2.93089 
 1                     6.68919   1.42654  -0.22791 
 1                     6.33023   0.00922   0.57027 
 1                     7.29156  -1.33461  -1.44922 
 1                     7.87579   0.26708  -2.07062 
 1                     8.87489   0.80505   0.24272 
 1                     8.82425  -1.11462   0.42447 
 1                     10.28746   0.00643  -1.89275 
 1                     9.18264  -2.27708  -2.22993 
 1                     10.82994  -2.43744  -1.97571 
 1                     9.96739  -2.80792  -0.85043 
 1                     11.45771   0.88871   0.32238 
 1                     11.43252  -0.69463   1.0521 
 1                     12.80654  -1.71874  -0.58353 
 1                     12.91294  -0.17774  -1.46656 
 1                     13.95478   1.09806   0.37 
 1                     13.85533  -0.4971    1.19234 
 1                     15.25494   0.05277  -1.55122 
 1                     15.70833  -2.44148   0.10004 
 1                     15.0313  -2.37873  -1.52183 
 1                     16.59842  -1.56281  -1.16824 
 1                     15.81316   1.29146   0.56261 
 1                     16.50789  -0.08801   1.31719 
 1                     18.28303  -0.22038  -0.80826 
 1                     17.51328   1.53924  -1.07984 
 1                     18.35796   2.3578    1.08012 
 1                     18.77023   0.9671    1.74833 
 1                     20.42122   0.28323  -0.03009 
 1                     20.01655   3.43828  -0.47937 
 1                     21.32985   2.51123  -1.26943 
 1                     19.54921   2.05485  -1.57777 
 1                     21.12557   0.87677   2.42782 
 1                     22.18211   1.93705   1.09411 
 1                     20.79614   2.6936    1.88641 
 
 Stoichiometry    C55H72MgN4O5
 Framework group  C1[X(C55H72MgN4O5)]
 Deg. of freedom   405
 Full point group                 C1      NOp   1
 Largest Abelian subgroup         C1      NOp   1
 Largest concise Abelian subgroup C1      NOp   1
                         Standard orientation:                         
 ---------------------------------------------------------------------
 Center     Atomic      Atomic             Coordinates (Angstroms)
 Number     Number       Type             X           Y           Z
 ---------------------------------------------------------------------
      1         12           0       -7.183635    0.489524    0.131964
      2          6           0       -4.858994   -2.009418    0.517404
      3          6           0       -4.782254    2.831349    1.348714
      4          6           0       -9.394973    3.288938   -0.326037
      5          6           0       -9.561844   -1.772631   -0.808154
      6          7           0       -5.091019    0.515972    0.729482
      7          6           0       -4.364139   -0.698567    0.792259
      8          6           0       -2.921977   -0.509115    1.156755
      9          6           0       -3.023618    1.023340    1.740760
     10          6           0       -4.308062    1.502654    1.275146
     11          6           0       -2.839271    1.020953    3.276674
     12          6           0       -1.905651   -0.614900   -0.047704
     13          6           0       -0.492856   -0.606152    0.442469
     14          6           0        0.562005   -0.853374   -0.653587
     15          8           0        0.239795   -1.222677   -1.735161
     16          8           0        1.808521   -0.379366   -0.391330
     17          7           0       -7.043708    2.617279    0.461146
     18          6           0       -5.999365    3.307549    0.958995
     19          6           0       -6.388850    4.722262    0.930339
     20          6           0       -7.686701    4.818701    0.524363
     21          6           0       -8.169286    3.531933    0.189388
     22          6           0       -5.620387    5.741348    1.412096
     23          6           0       -8.445575    6.051460    0.274503
     24          6           0       -8.045277    7.313287    0.038465
     25          7           0       -9.141839    0.715748   -0.521147
     26          6           0       -9.893274    1.883419   -0.618645
     27          6           0      -11.153343    1.556198   -1.081222
     28          6           0      -11.200146    0.137388   -1.143039
     29          6           0       -9.888027   -0.352727   -0.804665
     30          6           0      -12.369979    2.571417   -1.355411
     31          6           0      -12.346302   -0.626491   -1.822038
     32          6           0      -12.208011   -0.892591   -3.267106
     33          7           0       -7.282887   -1.418304   -0.113291
     34          6           0       -8.339747   -2.300468   -0.433593
     35          6           0       -7.866985   -3.679915   -0.500159
     36          6           0       -6.506245   -3.607437   -0.128730
     37          6           0       -6.190551   -2.244203    0.137910
     38          6           0       -8.750112   -4.786424   -0.883930
     39          6           0       -5.332457   -4.349547    0.161282
     40          8           0       -5.092230   -5.551658    0.237574
     41          6           0       -4.274583   -3.314455    0.519895
     42          6           0       -3.501181   -3.707604    1.841004
     43          8           0       -3.682870   -3.219694    2.930883
     44          8           0       -2.643681   -4.691828    1.723823
     45          6           0       -2.010742   -5.236459    3.022109
     46          6           0        2.858741   -0.521809   -1.307252
     47          6           0        4.113050   -0.431336   -0.620828
     48          6           0        5.060371    0.424635   -1.106967
     49          6           0        4.955416    1.297579   -2.227194
     50          6           0        6.374978    0.427923   -0.383162
     51          6           0        7.574047   -0.175740   -1.130144
     52          6           0        8.877951   -0.215876   -0.209097
     53          6           0       10.144029   -0.613345   -0.951697
     54          6           0       10.058307   -2.009100   -1.545713
     55          6           0       11.442593   -0.198191   -0.064920
     56          6           0       12.785158   -0.628227   -0.626311
     57          6           0       13.916420   -0.010107    0.196198
     58          6           0       15.328521   -0.322131   -0.550893
     59          6           0       15.569316   -1.752277   -0.778860
     60          6           0       16.318894    0.441166    0.374865
     61          6           0       17.730977    0.736406   -0.263505
     62          6           0       18.694536    1.404747    0.703297
     63          6           0       20.144020    1.435109    0.321859
     64          6           0       20.279675    2.433321   -0.800149
     65          6           0       21.135419    1.719668    1.519212
     66          1           0       -4.105484    3.518734    1.606109
     67          1           0      -10.141252    4.092278   -0.367521
     68          1           0      -10.336160   -2.432439   -1.150997
     69          1           0       -2.861770   -1.188818    2.056962
     70          1           0       -2.319393    1.785057    1.329226
     71          1           0       -1.841393    0.590614    3.578218
     72          1           0       -2.941260    2.064666    3.788691
     73          1           0       -3.680495    0.319114    3.672146
     74          1           0       -1.923864   -1.636695   -0.652031
     75          1           0       -1.835205    0.268795   -0.632965
     76          1           0       -0.365881    0.406647    1.100421
     77          1           0       -0.321201   -1.468463    1.217926
     78          1           0       -5.008116    6.412427    0.464926
     79          1           0       -6.241677    6.464854    1.914393
     80          1           0       -4.727312    5.311320    2.168726
     81          1           0       -9.519826    5.950539    0.476124
     82          1           0       -8.733076    8.194206    0.166128
     83          1           0       -6.970553    7.529737   -0.124027
     84          1           0      -12.009007    3.150250   -2.295660
     85          1           0      -13.312707    2.090512   -1.537641
     86          1           0      -12.340512    3.357030   -0.520599
     87          1           0      -12.620679   -1.539776   -1.313894
     88          1           0      -13.269555    0.011321   -1.590607
     89          1           0      -12.631334   -1.584145   -3.636531
     90          1           0      -12.115974    0.165392   -3.816324
     91          1           0      -11.110177   -1.234492   -3.339622
     92          1           0       -8.821712   -4.755734   -2.063836
     93          1           0       -8.180076   -5.859571   -0.848484
     94          1           0       -9.963020   -4.909656   -0.470981
     95          1           0       -3.349547   -3.283454   -0.358834
     96          1           0       -1.178025   -4.401925    3.273910
     97          1           0       -2.777882   -5.526696    3.667650
     98          1           0       -1.570902   -6.359490    2.513550
     99          1           0        2.744906   -1.741448   -1.594767
    100          1           0        2.725819    0.060398   -2.219337
    101          1           0        4.254676   -0.999155    0.368769
    102          1           0        4.070533    1.320402   -3.014761
    103          1           0        5.051683    2.378251   -1.871069
    104          1           0        5.828353    1.046072   -2.921091
    105          1           0        6.689957    1.425714   -0.214073
    106          1           0        6.330599   -0.000516    0.567889
    107          1           0        7.289815   -1.321510   -1.467611
    108          1           0        7.874661    0.286900   -2.070822
    109          1           0        8.875562    0.797463    0.247942
    110          1           0        8.823820   -1.124150    0.407517
    111          1           0       10.286279    0.022697   -1.897519
    112          1           0        9.179809   -2.256072   -2.260368
    113          1           0       10.827158   -2.420385   -2.009074
    114          1           0        9.965091   -2.803314   -0.887596
    115          1           0       11.458481    0.878584    0.326925
    116          1           0       11.432753   -0.713076    1.038305
    117          1           0       12.805088   -1.719062   -0.609929
    118          1           0       12.911910   -0.168022   -1.475150
    119          1           0       13.955708    1.085810    0.375372
    120          1           0       13.855773   -0.518694    1.179279
    121          1           0       15.253999    0.061982   -1.558640
    122          1           0       15.706857   -2.451471    0.063391
    123          1           0       15.028844   -2.369546   -1.557216
    124          1           0       16.596699   -1.558752   -1.195214
    125          1           0       15.814330    1.275804    0.569018
    126          1           0       16.508669   -0.112725    1.307161
    127          1           0       18.282382   -0.221625   -0.820808
    128          1           0       17.513577    1.541492   -1.071541
    129          1           0       18.360137    2.334500    1.097205
    130          1           0       18.771947    0.935912    1.749027
    131          1           0       20.421384    0.271623   -0.038228
    132          1           0       20.018421    3.431907   -0.450746
    133          1           0       21.330638    2.513227   -1.252308
    134          1           0       19.549513    2.061555   -1.564770
    135          1           0       21.127656    0.836258    2.425929
    136          1           0       22.184027    1.911232    1.103895
    137          1           0       20.799033    2.659438    1.905772
 ---------------------------------------------------------------------
 Rotational constants (GHZ):      0.0636005      0.0061209      0.0057625
 Standard basis: 6-31G(d,p) (6D, 7F)
 There are  1339 symmetry adapted cartesian basis functions of A   symmetry.
 There are  1339 symmetry adapted basis functions of A   symmetry.
  1339 basis functions,  2348 primitive gaussians,  1339 cartesian basis functions
   241 alpha electrons      241 beta electrons
       nuclear repulsion energy      8730.8759432546 Hartrees.
 NAtoms=  137 NActive=  137 NUniq=  137 SFac= 1.00D+00 NAtFMM=   60 NAOKFM=T Big=T
 Integral buffers will be    131072 words long.
 Raffenetti 1 integral format.
 Two-electron integral symmetry is turned on.
 One-electron integrals computed using PRISM.
 NBasis=  1339 RedAO= T EigKep=  2.92D-04  NBF=  1339
 NBsUse=  1339 1.00D-06 EigRej= -1.00D+00 NBFU=  1339
 ExpMin= 4.21D-02 ExpMax= 1.17D+04 ExpMxC= 1.76D+03 IAcc=2 IRadAn=         4 AccDes= 0.00D+00
 Harris functional with IExCor=20419 and IRadAn=       4 diagonalized for initial guess.
 HarFok:  IExCor=20419 AccDes= 0.00D+00 IRadAn=         4 IDoV= 1 UseB2=F ITyADJ=14
 ICtDFT=  3500011 ScaDFX=  1.000000  1.000000  1.000000  1.000000
 FoFCou: FMM=F IPFlag=           0 FMFlag=      100000 FMFlg1=        2001
         NFxFlg=           0 DoJE=T BraDBF=F KetDBF=T FulRan=T
         wScrn=  0.000000 ICntrl=     500 IOpCl=  0 I1Cent=   200000004 NGrid=           0
         NMat0=    1 NMatS0=      1 NMatT0=    0 NMatD0=    1 NMtDS0=    0 NMtDT0=    0
 Petite list used in FoFCou.
 Requested convergence on RMS density matrix=1.00D-08 within 128 cycles.
 Requested convergence on MAX density matrix=1.00D-06.
 Requested convergence on             energy=1.00D-06.
 No special actions if energy rises.
 SCF Done:  E(RCAM-B3LYP) =  -2932.60819544     A.U. after   17 cycles
            NFock= 17  Conv=0.82D-08     -V/T= 2.0097
 DoSCS=F DFT=T ScalE2(SS,OS)=  1.000000  1.000000
 ExpMin= 4.21D-02 ExpMax= 1.17D+04 ExpMxC= 1.76D+03 IAcc=3 IRadAn=         5 AccDes= 0.00D+00
 HarFok:  IExCor=  205 AccDes= 0.00D+00 IRadAn=         5 IDoV=-2 UseB2=F ITyADJ=14
 ICtDFT= 12500011 ScaDFX=  1.000000  1.000000  1.000000  1.000000
 Range of M.O.s used for correlation:    70  1339
 NBasis=  1339 NAE=   241 NBE=   241 NFC=    69 NFV=     0
 NROrb=   1270 NOA=   172 NOB=   172 NVA=  1098 NVB=  1098
 Would need an additional       2415464100000 words for in-memory AO integral storage.
 Orbital symmetries:
       Occupied  (A) (A) (A) (A) (A) (A) (A) (A) (A) (A) (A) (A)
                 (A) (A) (A) (A) (A) (A) (A) (A) (A) (A) (A) (A)
                 (A) (A) (A) (A) (A) (A) (A) (A) (A) (A) (A) (A)
                 (A) (A) (A) (A) (A) (A) (A) (A) (A) (A) (A) (A)
                 (A) (A) (A) (A) (A) (A) (A) (A) (A) (A) (A) (A)
                 (A) (A) (A) (A) (A) (A) (A) (A) (A) (A) (A) (A)
                 (A) (A) (A) (A) (A) (A) (A) (A) (A) (A) (A) (A)
                 (A) (A) (A) (A) (A) (A) (A) (A) (A) (A) (A) (A)
                 (A) (A) (A) (A) (A) (A) (A) (A) (A) (A) (A) (A)
                 (A) (A) (A) (A) (A) (A) (A) (A) (A) (A) (A) (A)
                 (A) (A) (A) (A) (A) (A) (A) (A) (A) (A) (A) (A)
                 (A) (A) (A) (A) (A) (A) (A) (A) (A) (A) (A) (A)
                 (A) (A) (A) (A) (A) (A) (A) (A) (A) (A) (A) (A)
                 (A) (A) (A) (A) (A) (A) (A) (A) (A) (A) (A) (A)
                 (A) (A) (A) (A) (A) (A) (A) (A) (A) (A) (A) (A)
                 (A) (A) (A) (A) (A) (A) (A) (A) (A) (A) (A) (A)
                 (A) (A) (A) (A) (A) (A) (A) (A) (A) (A) (A) (A)
                 (A) (A) (A) (A) (A) (A) (A) (A) (A) (A) (A) (A)
                 (A) (A) (A) (A) (A) (A) (A) (A) (A) (A) (A) (A)
                 (A) (A) (A) (A) (A) (A) (A) (A) (A) (A) (A) (A)
                 (A)
       Virtual   (A) (A) (A) (A) (A) (A) (A) (A) (A) (A) (A) (A)
                 (A) (A) (A) (A) (A) (A) (A) (A) (A) (A) (A) (A)
                 (A) (A) (A) (A) (A) (A) (A) (A) (A) (A) (A) (A)
                 (A) (A) (A) (A) (A) (A) (A) (A) (A) (A) (A) (A)
                 (A) (A) (A) (A) (A) (A) (A) (A) (A) (A) (A) (A)
                 (A) (A) (A) (A) (A) (A) (A) (A) (A) (A) (A) (A)
                 (A) (A) (A) (A) (A) (A) (A) (A) (A) (A) (A) (A)
                 (A) (A) (A) (A) (A) (A) (A) (A) (A) (A) (A) (A)
                 (A) (A) (A) (A) (A) (A) (A) (A) (A) (A) (A) (A)
                 (A) (A) (A) (A) (A) (A) (A) (A) (A) (A) (A) (A)
                 (A) (A) (A) (A) (A) (A) (A) (A) (A) (A) (A) (A)
                 (A) (A) (A) (A) (A) (A) (A) (A) (A) (A) (A) (A)
                 (A) (A) (A) (A) (A) (A) (A) (A) (A) (A) (A) (A)
                 (A) (A) (A) (A) (A) (A) (A) (A) (A) (A) (A) (A)
                 (A) (A) (A) (A) (A) (A) (A) (A) (A) (A) (A) (A)
                 (A) (A) (A) (A) (A) (A) (A) (A) (A) (A) (A) (A)
                 (A) (A) (A) (A) (A) (A) (A) (A) (A) (A) (A) (A)
                 (A) (A) (A) (A) (A) (A) (A) (A) (A) (A) (A) (A)
                 (A) (A) (A) (A) (A) (A) (A) (A) (A) (A) (A) (A)
                 (A) (A) (A) (A) (A) (A) (A) (A) (A) (A) (A) (A)
                 (A) (A) (A) (A) (A) (A) (A) (A) (A) (A) (A) (A)
                 (A) (A) (A) (A) (A) (A) (A) (A) (A) (A) (A) (A)
                 (A) (A) (A) (A) (A) (A) (A) (A) (A) (A) (A) (A)
                 (A) (A) (A) (A) (A) (A) (A) (A) (A) (A) (A) (A)
                 (A) (A) (A) (A) (A) (A) (A) (A) (A) (A) (A) (A)
                 (A) (A) (A) (A) (A) (A) (A) (A) (A) (A) (A) (A)
                 (A) (A) (A) (A) (A) (A) (A) (A) (A) (A) (A) (A)
                 (A) (A) (A) (A) (A) (A) (A) (A) (A) (A) (A) (A)
                 (A) (A) (A) (A) (A) (A) (A) (A) (A) (A) (A) (A)
                 (A) (A) (A) (A) (A) (A) (A) (A) (A) (A) (A) (A)
                 (A) (A) (A) (A) (A) (A) (A) (A) (A) (A) (A) (A)
                 (A) (A) (A) (A) (A) (A) (A) (A) (A) (A) (A) (A)
                 (A) (A) (A) (A) (A) (A) (A) (A) (A) (A) (A) (A)
                 (A) (A) (A) (A) (A) (A) (A) (A) (A) (A) (A) (A)
                 (A) (A) (A) (A) (A) (A) (A) (A) (A) (A) (A) (A)
                 (A) (A) (A) (A) (A) (A) (A) (A) (A) (A) (A) (A)
                 (A) (A) (A) (A) (A) (A) (A) (A) (A) (A) (A) (A)
                 (A) (A) (A) (A) (A) (A) (A) (A) (A) (A) (A) (A)
                 (A) (A) (A) (A) (A) (A) (A) (A) (A) (A) (A) (A)
                 (A) (A) (A) (A) (A) (A) (A) (A) (A) (A) (A) (A)
                 (A) (A) (A) (A) (A) (A) (A) (A) (A) (A) (A) (A)
                 (A) (A) (A) (A) (A) (A) (A) (A) (A) (A) (A) (A)
                 (A) (A) (A) (A) (A) (A) (A) (A) (A) (A) (A) (A)
                 (A) (A) (A) (A) (A) (A) (A) (A) (A) (A) (A) (A)
                 (A) (A) (A) (A) (A) (A) (A) (A) (A) (A) (A) (A)
                 (A) (A) (A) (A) (A) (A) (A) (A) (A) (A) (A) (A)
                 (A) (A) (A) (A) (A) (A) (A) (A) (A) (A) (A) (A)
                 (A) (A) (A) (A) (A) (A) (A) (A) (A) (A) (A) (A)
                 (A) (A) (A) (A) (A) (A) (A) (A) (A) (A) (A) (A)
                 (A) (A) (A) (A) (A) (A) (A) (A) (A) (A) (A) (A)
                 (A) (A) (A) (A) (A) (A) (A) (A) (A) (A) (A) (A)
                 (A) (A) (A) (A) (A) (A) (A) (A) (A) (A) (A) (A)
                 (A) (A) (A) (A) (A) (A) (A) (A) (A) (A) (A) (A)
                 (A) (A) (A) (A) (A) (A) (A) (A) (A) (A) (A) (A)
                 (A) (A) (A) (A) (A) (A) (A) (A) (A) (A) (A) (A)
                 (A) (A) (A) (A) (A) (A) (A) (A) (A) (A) (A) (A)
                 (A) (A) (A) (A) (A) (A) (A) (A) (A) (A) (A) (A)
                 (A) (A) (A) (A) (A) (A) (A) (A) (A) (A) (A) (A)
                 (A) (A) (A) (A) (A) (A) (A) (A) (A) (A) (A) (A)
                 (A) (A) (A) (A) (A) (A) (A) (A) (A) (A) (A) (A)
                 (A) (A) (A) (A) (A) (A) (A) (A) (A) (A) (A) (A)
                 (A) (A) (A) (A) (A) (A) (A) (A) (A) (A) (A) (A)
                 (A) (A) (A) (A) (A) (A) (A) (A) (A) (A) (A) (A)
                 (A) (A) (A) (A) (A) (A) (A) (A) (A) (A) (A) (A)
                 (A) (A) (A) (A) (A) (A) (A) (A) (A) (A) (A) (A)
                 (A) (A) (A) (A) (A) (A) (A) (A) (A) (A) (A) (A)
                 (A) (A) (A) (A) (A) (A) (A) (A) (A) (A) (A) (A)
                 (A) (A) (A) (A) (A) (A) (A) (A) (A) (A) (A) (A)
                 (A) (A) (A) (A) (A) (A) (A) (A) (A) (A) (A) (A)
                 (A) (A) (A) (A) (A) (A) (A) (A) (A) (A) (A) (A)
                 (A) (A) (A) (A) (A) (A) (A) (A) (A) (A) (A) (A)
                 (A) (A) (A) (A) (A) (A) (A) (A) (A) (A) (A) (A)
                 (A) (A) (A) (A) (A) (A) (A) (A) (A) (A) (A) (A)
                 (A) (A) (A) (A) (A) (A) (A) (A) (A) (A) (A) (A)
                 (A) (A) (A) (A) (A) (A) (A) (A) (A) (A) (A) (A)
                 (A) (A) (A) (A) (A) (A) (A) (A) (A) (A) (A) (A)
                 (A) (A) (A) (A) (A) (A) (A) (A) (A) (A) (A) (A)
                 (A) (A) (A) (A) (A) (A) (A) (A) (A) (A) (A) (A)
                 (A) (A) (A) (A) (A) (A) (A) (A) (A) (A) (A) (A)
                 (A) (A) (A) (A) (A) (A) (A) (A) (A) (A) (A) (A)
                 (A) (A) (A) (A) (A) (A) (A) (A) (A) (A) (A) (A)
                 (A) (A) (A) (A) (A) (A) (A) (A) (A) (A) (A) (A)
                 (A) (A) (A) (A) (A) (A) (A) (A) (A) (A) (A) (A)
                 (A) (A) (A) (A) (A) (A) (A) (A) (A) (A) (A) (A)
                 (A) (A) (A) (A) (A) (A) (A) (A) (A) (A) (A) (A)
                 (A) (A) (A) (A) (A) (A) (A) (A) (A) (A) (A) (A)
                 (A) (A) (A) (A) (A) (A) (A) (A) (A) (A) (A) (A)
                 (A) (A) (A) (A) (A) (A) (A) (A) (A) (A) (A) (A)
                 (A) (A) (A) (A) (A) (A) (A) (A) (A) (A) (A) (A)
                 (A) (A) (A) (A) (A) (A) (A) (A) (A) (A) (A) (A)
                 (A) (A) (A) (A) (A) (A) (A) (A) (A) (A) (A) (A)
                 (A) (A) (A) (A) (A) (A)
     8 initial guesses have been made.
 Convergence on wavefunction:    0.001000000000000
 Iteration     1 Dimension     8 NMult     0 NNew      8
 CISAX will form     8 AO SS matrices at one time.
 Iteration     2 Dimension    12 NMult     8 NNew      4
 Iteration     3 Dimension    16 NMult    12 NNew      4
 Iteration     4 Dimension    20 NMult    16 NNew      4
 Iteration     5 Dimension    24 NMult    20 NNew      4
 Iteration     6 Dimension    28 NMult    24 NNew      4
 ***********************************************************************
 Excited states from <AA,BB:AA,BB> singles matrix:
 ***********************************************************************
 
 Ground to excited state transition densities written to RWF  633
 Ground to excited state transition electric dipole moments (Au):
       state          X           Y           Z        Dip. S.      Osc.
         1         0.7405     -1.6870      0.0272      3.3952      0.1771
 Ground to excited state transition velocity dipole moments (Au):
       state          X           Y           Z        Dip. S.      Osc.
         1        -0.0548      0.1288     -0.0015      0.0196      0.1670
 Ground to excited state transition magnetic dipole moments (Au):
       state          X           Y           Z
         1         0.6170      0.1908     -3.7961
 Ground to excited state transition velocity quadrupole moments (Au):
       state          XX          YY          ZZ          XY          XZ          YZ
         1         1.5826     -0.1427      0.0489     -1.6418      0.1375      0.0617
 <0|del|b> * <b|rxdel|0> + <0|del|b> * <b|delr+rdel|0>
 Rotatory Strengths (R) in cgs (10**-40 erg-esu-cm/Gauss)
       state          XX          YY          ZZ    R(velocity)    E-M Angle
         1        67.9650   -153.4009     53.6759    -10.5867       90.37
 1/2[<0|r|b>*<b|rxdel|0> + (<0|rxdel|b>*<b|r|0>)*]
 Rotatory Strengths (R) in cgs (10**-40 erg-esu-cm/Gauss)
       state          XX          YY          ZZ     R(length)
         1      -323.1045    227.6523     73.1466     -7.4352
  1/2[<0|del|b>*<b|r|0> + (<0|r|b>*<b|del|0>)*] (Au)
       state          X           Y           Z        Dip. S.   Osc.(frdel)
         1        -0.0406     -0.2173      0.0000      0.2579      0.1719

 Excitation energies and oscillator strengths:
 
 Excited State   1:      Singlet-A      2.1290 eV  582.35 nm  f=0.1771  <S**2>=0.000
     240 -> 243       -0.29863
     241 -> 242        0.63252
 This state for optimization and/or second-order correction.
 Total Energy, E(TD-HF/TD-KS) =  -2932.52995544    
 Copying the excited state density for this state as the 1-particle RhoCI density.
 SavETr:  write IOETrn=   770 NScale= 10 NData=  16 NLR=1 NState=    1 LETran=      28.

 **********************************************************************

            Population analysis using the SCF density.

 **********************************************************************

 Orbital symmetries:
       Occupied  (A) (A) (A) (A) (A) (A) (A) (A) (A) (A) (A) (A)
                 (A) (A) (A) (A) (A) (A) (A) (A) (A) (A) (A) (A)
                 (A) (A) (A) (A) (A) (A) (A) (A) (A) (A) (A) (A)
                 (A) (A) (A) (A) (A) (A) (A) (A) (A) (A) (A) (A)
                 (A) (A) (A) (A) (A) (A) (A) (A) (A) (A) (A) (A)
                 (A) (A) (A) (A) (A) (A) (A) (A) (A) (A) (A) (A)
                 (A) (A) (A) (A) (A) (A) (A) (A) (A) (A) (A) (A)
                 (A) (A) (A) (A) (A) (A) (A) (A) (A) (A) (A) (A)
                 (A) (A) (A) (A) (A) (A) (A) (A) (A) (A) (A) (A)
                 (A) (A) (A) (A) (A) (A) (A) (A) (A) (A) (A) (A)
                 (A) (A) (A) (A) (A) (A) (A) (A) (A) (A) (A) (A)
                 (A) (A) (A) (A) (A) (A) (A) (A) (A) (A) (A) (A)
                 (A) (A) (A) (A) (A) (A) (A) (A) (A) (A) (A) (A)
                 (A) (A) (A) (A) (A) (A) (A) (A) (A) (A) (A) (A)
                 (A) (A) (A) (A) (A) (A) (A) (A) (A) (A) (A) (A)
                 (A) (A) (A) (A) (A) (A) (A) (A) (A) (A) (A) (A)
                 (A) (A) (A) (A) (A) (A) (A) (A) (A) (A) (A) (A)
                 (A) (A) (A) (A) (A) (A) (A) (A) (A) (A) (A) (A)
                 (A) (A) (A) (A) (A) (A) (A) (A) (A) (A) (A) (A)
                 (A) (A) (A) (A) (A) (A) (A) (A) (A) (A) (A) (A)
                 (A)
       Virtual   (A) (A) (A) (A) (A) (A) (A) (A) (A) (A) (A) (A)
                 (A) (A) (A) (A) (A) (A) (A) (A) (A) (A) (A) (A)
                 (A) (A) (A) (A) (A) (A) (A) (A) (A) (A) (A) (A)
                 (A) (A) (A) (A) (A) (A) (A) (A) (A) (A) (A) (A)
                 (A) (A) (A) (A) (A) (A) (A) (A) (A) (A) (A) (A)
                 (A) (A) (A) (A) (A) (A) (A) (A) (A) (A) (A) (A)
                 (A) (A) (A) (A) (A) (A) (A) (A) (A) (A) (A) (A)
                 (A) (A) (A) (A) (A) (A) (A) (A) (A) (A) (A) (A)
                 (A) (A) (A) (A) (A) (A) (A) (A) (A) (A) (A) (A)
                 (A) (A) (A) (A) (A) (A) (A) (A) (A) (A) (A) (A)
                 (A) (A) (A) (A) (A) (A) (A) (A) (A) (A) (A) (A)
                 (A) (A) (A) (A) (A) (A) (A) (A) (A) (A) (A) (A)
                 (A) (A) (A) (A) (A) (A) (A) (A) (A) (A) (A) (A)
                 (A) (A) (A) (A) (A) (A) (A) (A) (A) (A) (A) (A)
                 (A) (A) (A) (A) (A) (A) (A) (A) (A) (A) (A) (A)
                 (A) (A) (A) (A) (A) (A) (A) (A) (A) (A) (A) (A)
                 (A) (A) (A) (A) (A) (A) (A) (A) (A) (A) (A) (A)
                 (A) (A) (A) (A) (A) (A) (A) (A) (A) (A) (A) (A)
                 (A) (A) (A) (A) (A) (A) (A) (A) (A) (A) (A) (A)
                 (A) (A) (A) (A) (A) (A) (A) (A) (A) (A) (A) (A)
                 (A) (A) (A) (A) (A) (A) (A) (A) (A) (A) (A) (A)
                 (A) (A) (A) (A) (A) (A) (A) (A) (A) (A) (A) (A)
                 (A) (A) (A) (A) (A) (A) (A) (A) (A) (A) (A) (A)
                 (A) (A) (A) (A) (A) (A) (A) (A) (A) (A) (A) (A)
                 (A) (A) (A) (A) (A) (A) (A) (A) (A) (A) (A) (A)
                 (A) (A) (A) (A) (A) (A) (A) (A) (A) (A) (A) (A)
                 (A) (A) (A) (A) (A) (A) (A) (A) (A) (A) (A) (A)
                 (A) (A) (A) (A) (A) (A) (A) (A) (A) (A) (A) (A)
                 (A) (A) (A) (A) (A) (A) (A) (A) (A) (A) (A) (A)
                 (A) (A) (A) (A) (A) (A) (A) (A) (A) (A) (A) (A)
                 (A) (A) (A) (A) (A) (A) (A) (A) (A) (A) (A) (A)
                 (A) (A) (A) (A) (A) (A) (A) (A) (A) (A) (A) (A)
                 (A) (A) (A) (A) (A) (A) (A) (A) (A) (A) (A) (A)
                 (A) (A) (A) (A) (A) (A) (A) (A) (A) (A) (A) (A)
                 (A) (A) (A) (A) (A) (A) (A) (A) (A) (A) (A) (A)
                 (A) (A) (A) (A) (A) (A) (A) (A) (A) (A) (A) (A)
                 (A) (A) (A) (A) (A) (A) (A) (A) (A) (A) (A) (A)
                 (A) (A) (A) (A) (A) (A) (A) (A) (A) (A) (A) (A)
                 (A) (A) (A) (A) (A) (A) (A) (A) (A) (A) (A) (A)
                 (A) (A) (A) (A) (A) (A) (A) (A) (A) (A) (A) (A)
                 (A) (A) (A) (A) (A) (A) (A) (A) (A) (A) (A) (A)
                 (A) (A) (A) (A) (A) (A) (A) (A) (A) (A) (A) (A)
                 (A) (A) (A) (A) (A) (A) (A) (A) (A) (A) (A) (A)
                 (A) (A) (A) (A) (A) (A) (A) (A) (A) (A) (A) (A)
                 (A) (A) (A) (A) (A) (A) (A) (A) (A) (A) (A) (A)
                 (A) (A) (A) (A) (A) (A) (A) (A) (A) (A) (A) (A)
                 (A) (A) (A) (A) (A) (A) (A) (A) (A) (A) (A) (A)
                 (A) (A) (A) (A) (A) (A) (A) (A) (A) (A) (A) (A)
                 (A) (A) (A) (A) (A) (A) (A) (A) (A) (A) (A) (A)
                 (A) (A) (A) (A) (A) (A) (A) (A) (A) (A) (A) (A)
                 (A) (A) (A) (A) (A) (A) (A) (A) (A) (A) (A) (A)
                 (A) (A) (A) (A) (A) (A) (A) (A) (A) (A) (A) (A)
                 (A) (A) (A) (A) (A) (A) (A) (A) (A) (A) (A) (A)
                 (A) (A) (A) (A) (A) (A) (A) (A) (A) (A) (A) (A)
                 (A) (A) (A) (A) (A) (A) (A) (A) (A) (A) (A) (A)
                 (A) (A) (A) (A) (A) (A) (A) (A) (A) (A) (A) (A)
                 (A) (A) (A) (A) (A) (A) (A) (A) (A) (A) (A) (A)
                 (A) (A) (A) (A) (A) (A) (A) (A) (A) (A) (A) (A)
                 (A) (A) (A) (A) (A) (A) (A) (A) (A) (A) (A) (A)
                 (A) (A) (A) (A) (A) (A) (A) (A) (A) (A) (A) (A)
                 (A) (A) (A) (A) (A) (A) (A) (A) (A) (A) (A) (A)
                 (A) (A) (A) (A) (A) (A) (A) (A) (A) (A) (A) (A)
                 (A) (A) (A) (A) (A) (A) (A) (A) (A) (A) (A) (A)
                 (A) (A) (A) (A) (A) (A) (A) (A) (A) (A) (A) (A)
                 (A) (A) (A) (A) (A) (A) (A) (A) (A) (A) (A) (A)
                 (A) (A) (A) (A) (A) (A) (A) (A) (A) (A) (A) (A)
                 (A) (A) (A) (A) (A) (A) (A) (A) (A) (A) (A) (A)
                 (A) (A) (A) (A) (A) (A) (A) (A) (A) (A) (A) (A)
                 (A) (A) (A) (A) (A) (A) (A) (A) (A) (A) (A) (A)
                 (A) (A) (A) (A) (A) (A) (A) (A) (A) (A) (A) (A)
                 (A) (A) (A) (A) (A) (A) (A) (A) (A) (A) (A) (A)
                 (A) (A) (A) (A) (A) (A) (A) (A) (A) (A) (A) (A)
                 (A) (A) (A) (A) (A) (A) (A) (A) (A) (A) (A) (A)
                 (A) (A) (A) (A) (A) (A) (A) (A) (A) (A) (A) (A)
                 (A) (A) (A) (A) (A) (A) (A) (A) (A) (A) (A) (A)
                 (A) (A) (A) (A) (A) (A) (A) (A) (A) (A) (A) (A)
                 (A) (A) (A) (A) (A) (A) (A) (A) (A) (A) (A) (A)
                 (A) (A) (A) (A) (A) (A) (A) (A) (A) (A) (A) (A)
                 (A) (A) (A) (A) (A) (A) (A) (A) (A) (A) (A) (A)
                 (A) (A) (A) (A) (A) (A) (A) (A) (A) (A) (A) (A)
                 (A) (A) (A) (A) (A) (A) (A) (A) (A) (A) (A) (A)
                 (A) (A) (A) (A) (A) (A) (A) (A) (A) (A) (A) (A)
                 (A) (A) (A) (A) (A) (A) (A) (A) (A) (A) (A) (A)
                 (A) (A) (A) (A) (A) (A) (A) (A) (A) (A) (A) (A)
                 (A) (A) (A) (A) (A) (A) (A) (A) (A) (A) (A) (A)
                 (A) (A) (A) (A) (A) (A) (A) (A) (A) (A) (A) (A)
                 (A) (A) (A) (A) (A) (A) (A) (A) (A) (A) (A) (A)
                 (A) (A) (A) (A) (A) (A) (A) (A) (A) (A) (A) (A)
                 (A) (A) (A) (A) (A) (A) (A) (A) (A) (A) (A) (A)
                 (A) (A) (A) (A) (A) (A) (A) (A) (A) (A) (A) (A)
                 (A) (A) (A) (A) (A) (A) (A) (A) (A) (A) (A) (A)
                 (A) (A) (A) (A) (A) (A)
 The electronic state is 1-A.
 Alpha  occ. eigenvalues --  -46.83963 -19.25515 -19.25461 -19.21139 -19.19707
 Alpha  occ. eigenvalues --  -19.19665 -14.42009 -14.39791 -14.38964 -14.38435
 Alpha  occ. eigenvalues --  -10.39392 -10.38692 -10.34861 -10.34584 -10.32037
 Alpha  occ. eigenvalues --  -10.31783 -10.31559 -10.30081 -10.30042 -10.29752
 Alpha  occ. eigenvalues --  -10.29734 -10.29591 -10.29399 -10.29223 -10.29025
 Alpha  occ. eigenvalues --  -10.28902 -10.28734 -10.28692 -10.28602 -10.28190
 Alpha  occ. eigenvalues --  -10.28091 -10.27953 -10.27940 -10.27787 -10.27513
 Alpha  occ. eigenvalues --  -10.27495 -10.27261 -10.27251 -10.27205 -10.27076
 Alpha  occ. eigenvalues --  -10.27041 -10.26772 -10.26683 -10.26673 -10.26630
 Alpha  occ. eigenvalues --  -10.26456 -10.26193 -10.26016 -10.25941 -10.25914
 Alpha  occ. eigenvalues --  -10.25746 -10.25701 -10.25609 -10.25297 -10.25118
 Alpha  occ. eigenvalues --  -10.25015 -10.24837 -10.24783 -10.24719 -10.24710
 Alpha  occ. eigenvalues --  -10.24543 -10.24415 -10.23746 -10.23603 -10.23405
 Alpha  occ. eigenvalues --   -3.12952  -1.87661  -1.87197  -1.87122  -1.18745
 Alpha  occ. eigenvalues --   -1.17859  -1.10489  -1.10070  -1.07449  -1.03680
 Alpha  occ. eigenvalues --   -1.02805  -1.02277  -1.01441  -0.94011  -0.91994
 Alpha  occ. eigenvalues --   -0.90673  -0.89986  -0.89493  -0.89388  -0.88798
 Alpha  occ. eigenvalues --   -0.88480  -0.87676  -0.87297  -0.86829  -0.85980
 Alpha  occ. eigenvalues --   -0.85294  -0.84417  -0.83626  -0.83103  -0.82443
 Alpha  occ. eigenvalues --   -0.81441  -0.81036  -0.80777  -0.80284  -0.77880
 Alpha  occ. eigenvalues --   -0.77637  -0.76954  -0.76244  -0.76054  -0.75346
 Alpha  occ. eigenvalues --   -0.74982  -0.74576  -0.74080  -0.73184  -0.72618
 Alpha  occ. eigenvalues --   -0.71737  -0.69985  -0.69308  -0.68399  -0.68024
 Alpha  occ. eigenvalues --   -0.66727  -0.66281  -0.65498  -0.64922  -0.64269
 Alpha  occ. eigenvalues --   -0.63854  -0.63668  -0.62823  -0.62480  -0.61393
 Alpha  occ. eigenvalues --   -0.61087  -0.60359  -0.59825  -0.59609  -0.58990
 Alpha  occ. eigenvalues --   -0.58564  -0.58033  -0.57129  -0.56815  -0.56547
 Alpha  occ. eigenvalues --   -0.55808  -0.55526  -0.55233  -0.55002  -0.54722
 Alpha  occ. eigenvalues --   -0.54617  -0.54267  -0.53802  -0.53384  -0.53154
 Alpha  occ. eigenvalues --   -0.53057  -0.52432  -0.52262  -0.51641  -0.51515
 Alpha  occ. eigenvalues --   -0.51239  -0.51081  -0.51024  -0.50934  -0.50572
 Alpha  occ. eigenvalues --   -0.50322  -0.50075  -0.49903  -0.49697  -0.49559
 Alpha  occ. eigenvalues --   -0.48907  -0.48749  -0.48564  -0.48484  -0.48386
 Alpha  occ. eigenvalues --   -0.47927  -0.47697  -0.47604  -0.47411  -0.47021
 Alpha  occ. eigenvalues --   -0.46748  -0.46440  -0.46361  -0.46200  -0.45889
 Alpha  occ. eigenvalues --   -0.45563  -0.45265  -0.45058  -0.45052  -0.44738
 Alpha  occ. eigenvalues --   -0.44579  -0.44541  -0.43895  -0.43829  -0.43730
 Alpha  occ. eigenvalues --   -0.43678  -0.43609  -0.43461  -0.43287  -0.43169
 Alpha  occ. eigenvalues --   -0.43021  -0.42793  -0.42701  -0.42373  -0.41965
 Alpha  occ. eigenvalues --   -0.41906  -0.41834  -0.41675  -0.41590  -0.41400
 Alpha  occ. eigenvalues --   -0.40649  -0.40506  -0.40383  -0.40278  -0.39884
 Alpha  occ. eigenvalues --   -0.39805  -0.39684  -0.39374  -0.39235  -0.39041
 Alpha  occ. eigenvalues --   -0.39006  -0.38777  -0.38388  -0.37932  -0.37919
 Alpha  occ. eigenvalues --   -0.37668  -0.37415  -0.37238  -0.37043  -0.36612
 Alpha  occ. eigenvalues --   -0.36315  -0.36073  -0.35874  -0.35643  -0.35348
 Alpha  occ. eigenvalues --   -0.34867  -0.34806  -0.34775  -0.33818  -0.33108
 Alpha  occ. eigenvalues --   -0.32424  -0.31990  -0.31734  -0.30291  -0.30181
 Alpha  occ. eigenvalues --   -0.29471  -0.28533  -0.27209  -0.26669  -0.23289
 Alpha  occ. eigenvalues --   -0.21639
 Alpha virt. eigenvalues --   -0.06289  -0.04025   0.00792   0.03790   0.05513
 Alpha virt. eigenvalues --    0.05821   0.06193   0.06833   0.06976   0.07221
 Alpha virt. eigenvalues --    0.07784   0.09896   0.10686   0.11008   0.11758
 Alpha virt. eigenvalues --    0.11778   0.12030   0.12232   0.12306   0.12925
 Alpha virt. eigenvalues --    0.13137   0.13337   0.13521   0.13600   0.13830
 Alpha virt. eigenvalues --    0.14151   0.14287   0.14750   0.14854   0.14984
 Alpha virt. eigenvalues --    0.15147   0.15343   0.15606   0.15896   0.16084
 Alpha virt. eigenvalues --    0.16188   0.16330   0.16410   0.16680   0.16800
 Alpha virt. eigenvalues --    0.16957   0.17042   0.17353   0.17432   0.17960
 Alpha virt. eigenvalues --    0.18073   0.18109   0.18437   0.18523   0.18598
 Alpha virt. eigenvalues --    0.19056   0.19113   0.19258   0.19499   0.19686
 Alpha virt. eigenvalues --    0.19824   0.19952   0.20186   0.20436   0.20486
 Alpha virt. eigenvalues --    0.20560   0.20587   0.20860   0.21276   0.21569
 Alpha virt. eigenvalues --    0.21793   0.21922   0.21959   0.22059   0.22372
 Alpha virt. eigenvalues --    0.22591   0.22656   0.22839   0.22908   0.23255
 Alpha virt. eigenvalues --    0.23360   0.23618   0.23872   0.23954   0.24002
 Alpha virt. eigenvalues --    0.24334   0.24341   0.24416   0.24905   0.25046
 Alpha virt. eigenvalues --    0.25262   0.25391   0.25644   0.25797   0.26063
 Alpha virt. eigenvalues --    0.26317   0.26499   0.26697   0.26843   0.26886
 Alpha virt. eigenvalues --    0.27154   0.27653   0.27875   0.28090   0.28224
 Alpha virt. eigenvalues --    0.28310   0.28659   0.28740   0.29406   0.29785
 Alpha virt. eigenvalues --    0.29871   0.30205   0.30682   0.30795   0.31091
 Alpha virt. eigenvalues --    0.31111   0.31205   0.31792   0.32121   0.32478
 Alpha virt. eigenvalues --    0.32658   0.32925   0.32974   0.33088   0.33695
 Alpha virt. eigenvalues --    0.34014   0.34215   0.34627   0.34767   0.35129
 Alpha virt. eigenvalues --    0.35410   0.35574   0.35826   0.36299   0.36587
 Alpha virt. eigenvalues --    0.36729   0.37458   0.37661   0.37918   0.38828
 Alpha virt. eigenvalues --    0.39792   0.40346   0.40417   0.40512   0.41072
 Alpha virt. eigenvalues --    0.41353   0.41722   0.41963   0.42099   0.42678
 Alpha virt. eigenvalues --    0.43423   0.44341   0.44890   0.45360   0.45840
 Alpha virt. eigenvalues --    0.46532   0.46566   0.47703   0.48448   0.48658
 Alpha virt. eigenvalues --    0.49763   0.50229   0.50699   0.51688   0.52413
 Alpha virt. eigenvalues --    0.52800   0.53137   0.53379   0.54333   0.54677
 Alpha virt. eigenvalues --    0.55111   0.55573   0.55733   0.55788   0.55927
 Alpha virt. eigenvalues --    0.56230   0.56388   0.56434   0.56521   0.56793
 Alpha virt. eigenvalues --    0.56865   0.57244   0.57392   0.57632   0.57694
 Alpha virt. eigenvalues --    0.58239   0.58407   0.58753   0.58954   0.58975
 Alpha virt. eigenvalues --    0.59401   0.59682   0.59768   0.60027   0.60268
 Alpha virt. eigenvalues --    0.60445   0.60772   0.60904   0.61064   0.61360
 Alpha virt. eigenvalues --    0.61563   0.61783   0.61828   0.61920   0.62205
 Alpha virt. eigenvalues --    0.62326   0.63087   0.63289   0.63597   0.64077
 Alpha virt. eigenvalues --    0.64221   0.64447   0.64735   0.65142   0.65625
 Alpha virt. eigenvalues --    0.65829   0.66165   0.66382   0.66683   0.66927
 Alpha virt. eigenvalues --    0.67137   0.67264   0.67477   0.67534   0.67608
 Alpha virt. eigenvalues --    0.67932   0.68410   0.68650   0.69134   0.69268
 Alpha virt. eigenvalues --    0.69476   0.69753   0.69878   0.70015   0.70440
 Alpha virt. eigenvalues --    0.70575   0.70771   0.70997   0.71143   0.71655
 Alpha virt. eigenvalues --    0.71822   0.72118   0.72163   0.72613   0.73066
 Alpha virt. eigenvalues --    0.73252   0.73367   0.73558   0.74265   0.74489
 Alpha virt. eigenvalues --    0.74827   0.74907   0.75084   0.75511   0.75978
 Alpha virt. eigenvalues --    0.76098   0.76517   0.76559   0.76792   0.77002
 Alpha virt. eigenvalues --    0.77213   0.77268   0.77497   0.77626   0.77996
 Alpha virt. eigenvalues --    0.78101   0.78357   0.78465   0.78639   0.78687
 Alpha virt. eigenvalues --    0.79615   0.79782   0.80030   0.80411   0.80579
 Alpha virt. eigenvalues --    0.80840   0.81108   0.81345   0.81599   0.81631
 Alpha virt. eigenvalues --    0.82097   0.82235   0.82332   0.82633   0.82721
 Alpha virt. eigenvalues --    0.83012   0.83415   0.83510   0.83851   0.84202
 Alpha virt. eigenvalues --    0.84304   0.84508   0.84939   0.85089   0.85132
 Alpha virt. eigenvalues --    0.85305   0.85642   0.85897   0.85967   0.86044
 Alpha virt. eigenvalues --    0.86055   0.86694   0.87053   0.87165   0.87325
 Alpha virt. eigenvalues --    0.87454   0.87650   0.87972   0.88149   0.88320
 Alpha virt. eigenvalues --    0.88498   0.88680   0.88768   0.89024   0.89348
 Alpha virt. eigenvalues --    0.89495   0.89625   0.89666   0.89974   0.90241
 Alpha virt. eigenvalues --    0.90463   0.90565   0.90703   0.90970   0.91162
 Alpha virt. eigenvalues --    0.91383   0.91504   0.91706   0.92149   0.92246
 Alpha virt. eigenvalues --    0.92328   0.92721   0.92867   0.92916   0.93107
 Alpha virt. eigenvalues --    0.93548   0.93738   0.93768   0.93976   0.93996
 Alpha virt. eigenvalues --    0.94392   0.94692   0.94848   0.94976   0.95237
 Alpha virt. eigenvalues --    0.95391   0.95676   0.96039   0.96106   0.96175
 Alpha virt. eigenvalues --    0.96325   0.96902   0.97067   0.97366   0.97597
 Alpha virt. eigenvalues --    0.97917   0.98157   0.98283   0.98403   0.98740
 Alpha virt. eigenvalues --    0.98984   0.99218   0.99270   0.99587   0.99735
 Alpha virt. eigenvalues --    1.00011   1.00178   1.00495   1.00642   1.00793
 Alpha virt. eigenvalues --    1.01117   1.01270   1.01336   1.01413   1.01628
 Alpha virt. eigenvalues --    1.01669   1.02053   1.02548   1.02567   1.03027
 Alpha virt. eigenvalues --    1.03338   1.03515   1.03745   1.04068   1.04227
 Alpha virt. eigenvalues --    1.04335   1.04387   1.04639   1.05475   1.05906
 Alpha virt. eigenvalues --    1.06351   1.06434   1.06764   1.07068   1.07538
 Alpha virt. eigenvalues --    1.07972   1.08207   1.08288   1.08558   1.08730
 Alpha virt. eigenvalues --    1.09322   1.09561   1.09779   1.10765   1.11082
 Alpha virt. eigenvalues --    1.11123   1.11615   1.12006   1.12361   1.12593
 Alpha virt. eigenvalues --    1.13222   1.13768   1.14737   1.15159   1.15560
 Alpha virt. eigenvalues --    1.15815   1.16046   1.17113   1.17959   1.18372
 Alpha virt. eigenvalues --    1.18921   1.19769   1.19846   1.20294   1.21111
 Alpha virt. eigenvalues --    1.21438   1.21981   1.22085   1.22666   1.22952
 Alpha virt. eigenvalues --    1.23212   1.23628   1.24621   1.25267   1.25572
 Alpha virt. eigenvalues --    1.25717   1.26108   1.26987   1.27396   1.28278
 Alpha virt. eigenvalues --    1.28826   1.29352   1.29708   1.29942   1.30649
 Alpha virt. eigenvalues --    1.31353   1.31827   1.32200   1.32469   1.32901
 Alpha virt. eigenvalues --    1.33898   1.34321   1.35155   1.35520   1.35544
 Alpha virt. eigenvalues --    1.35647   1.36250   1.37325   1.37382   1.37643
 Alpha virt. eigenvalues --    1.38468   1.38552   1.39059   1.39292   1.39500
 Alpha virt. eigenvalues --    1.39857   1.40399   1.40547   1.41559   1.42503
 Alpha virt. eigenvalues --    1.42739   1.42980   1.44332   1.44547   1.44677
 Alpha virt. eigenvalues --    1.44955   1.45329   1.46037   1.46363   1.46645
 Alpha virt. eigenvalues --    1.47381   1.48031   1.48234   1.48413   1.48960
 Alpha virt. eigenvalues --    1.49385   1.49774   1.50254   1.50319   1.50604
 Alpha virt. eigenvalues --    1.51509   1.51964   1.52332   1.53507   1.54155
 Alpha virt. eigenvalues --    1.54265   1.54440   1.54904   1.55516   1.55979
 Alpha virt. eigenvalues --    1.56204   1.57340   1.57958   1.58377   1.58478
 Alpha virt. eigenvalues --    1.59371   1.59906   1.60044   1.60388   1.60899
 Alpha virt. eigenvalues --    1.61622   1.62034   1.62719   1.63351   1.63508
 Alpha virt. eigenvalues --    1.64309   1.64405   1.64900   1.65206   1.65639
 Alpha virt. eigenvalues --    1.65980   1.66159   1.66363   1.66432   1.67043
 Alpha virt. eigenvalues --    1.67204   1.67943   1.68316   1.69114   1.69401
 Alpha virt. eigenvalues --    1.69897   1.70374   1.70982   1.71451   1.71635
 Alpha virt. eigenvalues --    1.71945   1.72549   1.72934   1.73980   1.74442
 Alpha virt. eigenvalues --    1.74994   1.75062   1.75295   1.75871   1.76315
 Alpha virt. eigenvalues --    1.76325   1.76709   1.76985   1.77830   1.78308
 Alpha virt. eigenvalues --    1.78527   1.78633   1.78949   1.79790   1.80207
 Alpha virt. eigenvalues --    1.80507   1.82034   1.82203   1.82348   1.82979
 Alpha virt. eigenvalues --    1.83289   1.83381   1.83689   1.83889   1.84061
 Alpha virt. eigenvalues --    1.84247   1.84755   1.85153   1.85441   1.85905
 Alpha virt. eigenvalues --    1.86001   1.86349   1.86454   1.86483   1.86555
 Alpha virt. eigenvalues --    1.86901   1.87252   1.87774   1.87960   1.88189
 Alpha virt. eigenvalues --    1.88246   1.88423   1.88662   1.88778   1.89103
 Alpha virt. eigenvalues --    1.89583   1.89753   1.89944   1.90246   1.90311
 Alpha virt. eigenvalues --    1.90781   1.90813   1.90917   1.91239   1.91777
 Alpha virt. eigenvalues --    1.92022   1.92250   1.92606   1.92703   1.92913
 Alpha virt. eigenvalues --    1.93335   1.93494   1.93548   1.93970   1.94071
 Alpha virt. eigenvalues --    1.94392   1.94740   1.94976   1.95008   1.95392
 Alpha virt. eigenvalues --    1.95633   1.95755   1.95922   1.96203   1.96536
 Alpha virt. eigenvalues --    1.96789   1.97144   1.97724   1.97955   1.98326
 Alpha virt. eigenvalues --    1.98482   1.99038   1.99429   1.99752   1.99838
 Alpha virt. eigenvalues --    2.00121   2.00395   2.00626   2.00682   2.00745
 Alpha virt. eigenvalues --    2.01551   2.01607   2.01988   2.02131   2.02238
 Alpha virt. eigenvalues --    2.02435   2.02557   2.02800   2.03362   2.03526
 Alpha virt. eigenvalues --    2.03938   2.04033   2.04200   2.04718   2.04955
 Alpha virt. eigenvalues --    2.05160   2.05437   2.05808   2.06075   2.06507
 Alpha virt. eigenvalues --    2.06963   2.07429   2.07980   2.08219   2.08709
 Alpha virt. eigenvalues --    2.08970   2.09249   2.09416   2.09606   2.09916
 Alpha virt. eigenvalues --    2.10088   2.10832   2.10915   2.11091   2.11243
 Alpha virt. eigenvalues --    2.11368   2.11516   2.12282   2.12322   2.12388
 Alpha virt. eigenvalues --    2.12616   2.12724   2.13238   2.13453   2.13972
 Alpha virt. eigenvalues --    2.14390   2.14679   2.15295   2.15503   2.15689
 Alpha virt. eigenvalues --    2.15753   2.16215   2.16345   2.17007   2.17165
 Alpha virt. eigenvalues --    2.17289   2.17453   2.17549   2.18266   2.18651
 Alpha virt. eigenvalues --    2.18986   2.19541   2.19790   2.20001   2.20130
 Alpha virt. eigenvalues --    2.20436   2.21274   2.21424   2.21719   2.22054
 Alpha virt. eigenvalues --    2.22229   2.22355   2.22616   2.22831   2.23318
 Alpha virt. eigenvalues --    2.23631   2.23906   2.24179   2.25009   2.25222
 Alpha virt. eigenvalues --    2.25357   2.25818   2.26056   2.26451   2.27113
 Alpha virt. eigenvalues --    2.27634   2.27768   2.28427   2.28808   2.29153
 Alpha virt. eigenvalues --    2.29469   2.29911   2.30105   2.30541   2.30919
 Alpha virt. eigenvalues --    2.31296   2.31504   2.32082   2.32142   2.32585
 Alpha virt. eigenvalues --    2.33083   2.33141   2.33510   2.34080   2.34639
 Alpha virt. eigenvalues --    2.34735   2.35345   2.35569   2.35616   2.36411
 Alpha virt. eigenvalues --    2.36639   2.37037   2.37193   2.37377   2.37420
 Alpha virt. eigenvalues --    2.37757   2.38215   2.38259   2.38483   2.38975
 Alpha virt. eigenvalues --    2.39196   2.39413   2.39977   2.40276   2.40473
 Alpha virt. eigenvalues --    2.41045   2.41199   2.41317   2.41522   2.41833
 Alpha virt. eigenvalues --    2.42182   2.42275   2.42709   2.43298   2.43511
 Alpha virt. eigenvalues --    2.43871   2.44171   2.44187   2.44408   2.45218
 Alpha virt. eigenvalues --    2.45551   2.45640   2.45987   2.46148   2.46222
 Alpha virt. eigenvalues --    2.46830   2.47189   2.47529   2.47827   2.47902
 Alpha virt. eigenvalues --    2.48132   2.48727   2.48981   2.49075   2.49301
 Alpha virt. eigenvalues --    2.49449   2.49749   2.50137   2.50724   2.51090
 Alpha virt. eigenvalues --    2.51464   2.51645   2.51805   2.52263   2.52732
 Alpha virt. eigenvalues --    2.53016   2.53446   2.53957   2.54288   2.54544
 Alpha virt. eigenvalues --    2.55076   2.55272   2.55582   2.56082   2.56606
 Alpha virt. eigenvalues --    2.56784   2.57037   2.57315   2.58157   2.58842
 Alpha virt. eigenvalues --    2.59505   2.59597   2.60240   2.60910   2.61085
 Alpha virt. eigenvalues --    2.61112   2.61627   2.62483   2.62724   2.63118
 Alpha virt. eigenvalues --    2.63193   2.63599   2.64036   2.64366   2.64549
 Alpha virt. eigenvalues --    2.64760   2.64997   2.65232   2.65763   2.65982
 Alpha virt. eigenvalues --    2.66076   2.66227   2.66536   2.67287   2.67731
 Alpha virt. eigenvalues --    2.68168   2.68205   2.68297   2.68483   2.68717
 Alpha virt. eigenvalues --    2.68908   2.69607   2.70032   2.70239   2.70384
 Alpha virt. eigenvalues --    2.70663   2.70838   2.70910   2.71340   2.71641
 Alpha virt. eigenvalues --    2.72625   2.72966   2.73327   2.73373   2.73538
 Alpha virt. eigenvalues --    2.74106   2.74246   2.74556   2.74728   2.75094
 Alpha virt. eigenvalues --    2.75294   2.75529   2.76053   2.76319   2.76516
 Alpha virt. eigenvalues --    2.76849   2.76917   2.77293   2.77719   2.77972
 Alpha virt. eigenvalues --    2.78589   2.79129   2.79545   2.79993   2.80450
 Alpha virt. eigenvalues --    2.80770   2.80992   2.81045   2.81331   2.81773
 Alpha virt. eigenvalues --    2.82137   2.82348   2.82860   2.83283   2.83583
 Alpha virt. eigenvalues --    2.83638   2.84054   2.84771   2.85297   2.85467
 Alpha virt. eigenvalues --    2.85622   2.85938   2.86130   2.86435   2.86724
 Alpha virt. eigenvalues --    2.87316   2.87411   2.87530   2.87920   2.88255
 Alpha virt. eigenvalues --    2.89062   2.89271   2.89581   2.89808   2.90129
 Alpha virt. eigenvalues --    2.90484   2.91123   2.91400   2.91667   2.92354
 Alpha virt. eigenvalues --    2.92676   2.93292   2.93561   2.94001   2.94053
 Alpha virt. eigenvalues --    2.94346   2.94697   2.95024   2.95467   2.96066
 Alpha virt. eigenvalues --    2.96245   2.96665   2.97007   2.97129   2.97573
 Alpha virt. eigenvalues --    2.97958   2.98124   2.98518   2.99389   2.99542
 Alpha virt. eigenvalues --    3.00015   3.01065   3.01147   3.02473   3.02776
 Alpha virt. eigenvalues --    3.03190   3.03487   3.03689   3.04877   3.04935
 Alpha virt. eigenvalues --    3.06402   3.06491   3.06957   3.07052   3.08324
 Alpha virt. eigenvalues --    3.08729   3.08852   3.09425   3.10012   3.10201
 Alpha virt. eigenvalues --    3.10234   3.10286   3.12143   3.12240   3.12727
 Alpha virt. eigenvalues --    3.13763   3.14827   3.15001   3.15435   3.16517
 Alpha virt. eigenvalues --    3.18047   3.19537   3.20289   3.20385   3.21604
 Alpha virt. eigenvalues --    3.22082   3.22137   3.22441   3.23302   3.24200
 Alpha virt. eigenvalues --    3.24391   3.24396   3.25365   3.25914   3.26123
 Alpha virt. eigenvalues --    3.27079   3.28155   3.29631   3.29891   3.30033
 Alpha virt. eigenvalues --    3.30823   3.32688   3.32894   3.33641   3.33725
 Alpha virt. eigenvalues --    3.33832   3.35202   3.35787   3.36114   3.36722
 Alpha virt. eigenvalues --    3.36889   3.37901   3.39391   3.39503   3.40206
 Alpha virt. eigenvalues --    3.40830   3.42028   3.42808   3.43257   3.43368
 Alpha virt. eigenvalues --    3.43710   3.44573   3.45054   3.45753   3.46603
 Alpha virt. eigenvalues --    3.47515   3.48145   3.48228   3.48762   3.49736
 Alpha virt. eigenvalues --    3.50080   3.51360   3.52011   3.52406   3.52785
 Alpha virt. eigenvalues --    3.52950   3.53330   3.53665   3.54375   3.54558
 Alpha virt. eigenvalues --    3.54794   3.55844   3.56614   3.58821   3.59039
 Alpha virt. eigenvalues --    3.60477   3.61850   3.61976   3.62461   3.62839
 Alpha virt. eigenvalues --    3.65454   3.67127   3.69577   3.70485   3.76546
 Alpha virt. eigenvalues --    3.81294   3.82051   3.85038   4.07964   4.12163
 Alpha virt. eigenvalues --    4.13478   4.19600   4.20626   4.21396   4.22998
 Alpha virt. eigenvalues --    4.23647   4.23902   4.24997   4.25804   4.26973
 Alpha virt. eigenvalues --    4.28536   4.29851   4.30449   4.31668   4.32411
 Alpha virt. eigenvalues --    4.33387   4.34429   4.36463   4.38894   4.39333
 Alpha virt. eigenvalues --    4.39501   4.41330   4.42114   4.44459   4.45135
 Alpha virt. eigenvalues --    4.45944   4.46510   4.46618   4.48242   4.48650
 Alpha virt. eigenvalues --    4.49131   4.50099   4.53476   4.55034   4.56074
 Alpha virt. eigenvalues --    4.57147   4.57824   4.58826   4.59096   4.60368
 Alpha virt. eigenvalues --    4.60590   4.61663   4.62222   4.64466   4.67637
 Alpha virt. eigenvalues --    4.70537   4.71015   4.71559   4.71658   4.73973
 Alpha virt. eigenvalues --    4.75062   4.76550   4.77670   4.79853   4.81068
 Alpha virt. eigenvalues --    4.83320   4.84303   4.85313   4.87484   4.89423
 Alpha virt. eigenvalues --    4.90828   4.93186   5.08419
          Condensed to atoms (all electrons):
 Mulliken charges:
               1
     1  Mg   0.826895
     2  C    0.152398
     3  C   -0.198696
     4  C   -0.179203
     5  C   -0.147875
     6  N   -0.630854
     7  C    0.288847
     8  C   -0.174914
     9  C   -0.184017
    10  C    0.378086
    11  C   -0.301202
    12  C   -0.153120
    13  C   -0.264573
    14  C    0.592800
    15  O   -0.439549
    16  O   -0.471711
    17  N   -0.733324
    18  C    0.394192
    19  C    0.063125
    20  C    0.024229
    21  C    0.327482
    22  C   -0.405833
    23  C   -0.067532
    24  C   -0.257440
    25  N   -0.716352
    26  C    0.266822
    27  C    0.001858
    28  C   -0.041248
    29  C    0.325649
    30  C   -0.354526
    31  C   -0.241577
    32  C   -0.257310
    33  N   -0.769961
    34  C    0.271099
    35  C    0.094062
    36  C    0.025487
    37  C    0.267546
    38  C   -0.406416
    39  C    0.359752
    40  O   -0.475669
    41  C   -0.361665
    42  C    0.604170
    43  O   -0.489275
    44  O   -0.452937
    45  C   -0.069667
    46  C    0.029914
    47  C   -0.115977
    48  C    0.140585
    49  C   -0.378966
    50  C   -0.225474
    51  C   -0.182455
    52  C   -0.163377
    53  C   -0.053856
    54  C   -0.335483
    55  C   -0.186730
    56  C   -0.155949
    57  C   -0.203695
    58  C   -0.072348
    59  C   -0.307901
    60  C   -0.162372
    61  C   -0.181321
    62  C   -0.161837
    63  C   -0.045961
    64  C   -0.297094
    65  C   -0.300107
    66  H    0.058999
    67  H    0.102409
    68  H    0.102226
    69  H    0.150579
    70  H    0.107586
    71  H    0.115428
    72  H    0.103917
    73  H    0.121971
    74  H    0.125280
    75  H    0.129183
    76  H    0.110624
    77  H    0.113333
    78  H    0.074981
    79  H    0.137182
    80  H    0.086703
    81  H    0.087633
    82  H    0.107803
    83  H    0.101803
    84  H    0.112998
    85  H    0.123814
    86  H    0.109997
    87  H    0.093158
    88  H    0.082985
    89  H    0.101649
    90  H    0.094932
    91  H    0.087337
    92  H    0.129133
    93  H    0.136385
    94  H    0.116118
    95  H    0.134281
    96  H    0.137621
    97  H    0.168465
    98  H    0.110725
    99  H    0.076685
   100  H    0.118546
   101  H    0.097487
   102  H    0.108589
   103  H    0.120642
   104  H    0.119784
   105  H    0.096368
   106  H    0.110910
   107  H    0.066904
   108  H    0.097844
   109  H    0.092823
   110  H    0.104404
   111  H    0.073110
   112  H    0.097138
   113  H    0.113584
   114  H    0.102886
   115  H    0.087504
   116  H    0.050341
   117  H    0.106281
   118  H    0.102533
   119  H    0.084459
   120  H    0.087417
   121  H    0.091694
   122  H    0.099167
   123  H    0.101320
   124  H    0.092154
   125  H    0.102562
   126  H    0.100085
   127  H    0.079740
   128  H    0.087515
   129  H    0.094508
   130  H    0.072255
   131  H    0.052183
   132  H    0.101064
   133  H    0.087849
   134  H    0.105034
   135  H    0.077537
   136  H    0.099094
   137  H    0.105110
 Sum of Mulliken charges =   0.00000
 Mulliken charges with hydrogens summed into heavy atoms:
               1
     1  Mg   0.826895
     2  C    0.152398
     3  C   -0.139697
     4  C   -0.076794
     5  C   -0.045649
     6  N   -0.630854
     7  C    0.288847
     8  C   -0.024335
     9  C   -0.076430
    10  C    0.378086
    11  C    0.040113
    12  C    0.101343
    13  C   -0.040616
    14  C    0.592800
    15  O   -0.439549
    16  O   -0.471711
    17  N   -0.733324
    18  C    0.394192
    19  C    0.063125
    20  C    0.024229
    21  C    0.327482
    22  C   -0.106966
    23  C    0.020101
    24  C   -0.047833
    25  N   -0.716352
    26  C    0.266822
    27  C    0.001858
    28  C   -0.041248
    29  C    0.325649
    30  C   -0.007717
    31  C   -0.065433
    32  C    0.026609
    33  N   -0.769961
    34  C    0.271099
    35  C    0.094062
    36  C    0.025487
    37  C    0.267546
    38  C   -0.024779
    39  C    0.359752
    40  O   -0.475669
    41  C   -0.227385
    42  C    0.604170
    43  O   -0.489275
    44  O   -0.452937
    45  C    0.347144
    46  C    0.225144
    47  C   -0.018490
    48  C    0.140585
    49  C   -0.029951
    50  C   -0.018195
    51  C   -0.017706
    52  C    0.033850
    53  C    0.019254
    54  C   -0.021875
    55  C   -0.048885
    56  C    0.052865
    57  C   -0.031818
    58  C    0.019346
    59  C   -0.015260
    60  C    0.040275
    61  C   -0.014066
    62  C    0.004925
    63  C    0.006222
    64  C   -0.003146
    65  C   -0.018365
 Electronic spatial extent (au):  <R**2>=         179004.5507
 Charge=              0.0000 electrons
 Dipole moment (field-independent basis, Debye):
    X=              3.1043    Y=              3.5786    Z=              0.8116  Tot=              4.8064
 Quadrupole moment (field-independent basis, Debye-Ang):
   XX=           -365.4592   YY=           -387.9106   ZZ=           -398.8312
   XY=             -6.1249   XZ=              5.8342   YZ=             -0.3425
 Traceless Quadrupole moment (field-independent basis, Debye-Ang):
   XX=             18.6078   YY=             -3.8436   ZZ=            -14.7642
   XY=             -6.1249   XZ=              5.8342   YZ=             -0.3425
 Octapole moment (field-independent basis, Debye-Ang**2):
  XXX=           -520.2231  YYY=             91.2452  ZZZ=             16.1299  XYY=            -48.6546
  XXY=             93.9194  XXZ=           -140.0399  XZZ=             12.5637  YZZ=            -45.3630
  YYZ=             47.0914  XYZ=            -61.3329
 Hexadecapole moment (field-independent basis, Debye-Ang**3):
 XXXX=        -227073.2765 YYYY=         -17540.2051 ZZZZ=          -4405.4341 XXXY=           2339.3914
 XXXZ=            945.1592 YYYX=           -981.2266 YYYZ=           -206.5023 ZZZX=            -96.2653
 ZZZY=           -148.8368 XXYY=         -39091.1823 XXZZ=         -39305.0468 YYZZ=          -3558.7163
 XXYZ=            695.0507 YYXZ=             34.0899 ZZXY=            147.9007
 N-N= 8.730875943255D+03 E-N=-2.428387947535D+04  KE= 2.904426374215D+03
 1\1\GINC-PEDRO-RYZENSSD\SP\RCAM-B3LYP TD-FC\6-31G(d,p)\C55H72Mg1N4O5\P
 ADAWAN\27-Jun-2019\0\\# td=(NStates=1) CAM-B3LYP/6-31G(d,p)\\TD\\0,1\M
 g,0,-7.1840300723,0.4856468054,0.1202000686\C,0,-4.8580746886,-2.00720
 28316,0.5359692318\C,0,-4.7848877951,2.8428986172,1.3113045877\C,0,-9.
 3968242712,3.2781802174,-0.3715284858\C,0,-9.5602270503,-1.7887290479,
 -0.7951976348\N,0,-5.0918119628,0.5203232928,0.7186893893\C,0,-4.36421
 40267,-0.6929499154,0.7959614989\C,0,-2.9224032015,-0.4983851106,1.159
 1513563\C,0,-3.0253728265,1.040655198,1.7253353399\C,0,-4.3098190686,1
 .5137417546,1.2534016014\C,0,-2.8420019912,1.0561421015,3.2612896551\C
 ,0,-1.9052448054,-0.6174457547,-0.0433650107\C,0,-0.4927675308,-0.6021
 384452,0.4475633392\C,0,0.562945673,-0.8613495671,-0.6448961414\O,0,0.
 2416547152,-1.2433357374,-1.7223315135\O,0,1.8089979248,-0.3835532621,
 -0.3873529554\N,0,-7.0456421727,2.6171531226,0.4248476416\C,0,-6.00204
 73357,3.3137923331,0.915339518\C,0,-6.3923972294,4.7278334137,0.870084
 773\C,0,-7.6900496004,4.8187517619,0.4622031273\C,0,-8.171617715,3.527
 8930806,0.1418245217\C,0,-5.624878269,5.7529063819,1.3405105763\C,0,-8
 .4495341658,6.048059874,0.1976297849\C,0,-8.0498741852,7.307326817,-0.
 0527295353\N,0,-9.1419592316,0.703066785,-0.5367153768\C,0,-9.89406106
 51,1.8690575884,-0.6481799422\C,0,-11.1536301059,1.5357145619,-1.10773
 55232\C,0,-11.1995084715,0.1162555029,-1.1531745837\C,0,-9.8872986136,
 -0.3690853966,-0.8083301359\C,0,-12.3707253146,2.5469269736,-1.3944099
 719\C,0,-12.3447545212,-0.6561466769,-1.824017579\C,0,-12.2053768697,-
 0.93884777,-3.2658246879\N,0,-7.2819344455,-1.4249518568,-0.103043423\
 C,0,-8.3380390262,-2.3114270822,-0.4137891848\C,0,-7.8643741049,-3.691
 2533082,-0.4641048395\C,0,-6.5039159136,-3.6136256781,-0.0926817603\C,
 0,-6.1892437026,-2.2472008746,0.1583774591\C,0,-8.7465650012,-4.802683
 0872,-0.8356131083\C,0,-5.3298495227,-4.3515911444,0.2066291628\O,0,-5
 .0889202538,-5.5525879124,0.2969657314\C,0,-4.2728506951,-3.3117541095
 ,0.5539162836\C,0,-3.5000443686,-3.6891149961,1.8799691766\O,0,-3.6827
 319278,-3.188752108,2.9640201173\O,0,-2.6418555335,-4.6740855611,1.774
 7155596\C,0,-2.0094035789,-5.2032707964,3.0796092979\C,0,2.8598897656,
 -0.535912849,-1.3009054654\C,0,4.1137046929,-0.4367175212,-0.614784007
 1\C,0,5.0607996874,0.414174742,-1.1101909193\C,0,4.9560130179,1.274041
 9405,-2.2405011412\C,0,6.374943952,0.426661473,-0.3856452507\C,0,7.574
 8652254,-0.1848403659,-1.1248421529\C,0,8.8782069031,-0.2135010836,-0.
 2025728515\C,0,10.1450053935,-0.6187289712,-0.9397303674\C,0,10.060533
 2395,-2.021311466,-1.5176234238\C,0,11.4427453916,-0.1925301436,-0.056
 9955009\C,0,12.7859357626,-0.6281793338,-0.612531793\C,0,13.9162873165
 ,0.0001232491,0.2034875618\C,0,15.3290582498,-0.3196245742,-0.53905695
 6\C,0,15.5708911913,-1.7521580016,-0.750322312\C,0,16.3183650905,0.454
 9498811,0.3784370284\C,0,17.7306687712,0.743682494,-0.2624145214\C,0,1
 8.693194719,1.4237642232,0.6972020819\C,0,20.14290197,1.4506308077,0.3
 163512387\C,0,20.2786480937,2.4358892369,-0.8170375252\C,0,21.13336121
 02,1.7496393333,1.5109577974\H,0,-4.1087111296,3.5336417459,1.56116063
 71\H,0,-10.1435781095,4.0805156355,-0.4227665793\H,0,-10.3339126531,-2
 .4529453492,-1.1308766352\H,0,-2.8623449252,-1.1675964233,2.067193958\
 H,0,-2.3213617742,1.7980082894,1.305464913\H,0,-1.8440481281,0.6299484
 838,3.5684170551\H,0,-2.9449692831,2.1056400206,3.7611406816\H,0,-3.68
 30392851,0.3583902067,3.6643203165\H,0,-1.9224347704,-1.6461705375,-0.
 6358485709\H,0,-1.8349777,0.2594680381,-0.6387589775\H,0,-0.3668437784
 ,0.4182797515,1.0938416361\H,0,-0.3210680605,-1.4553185073,1.233046180
 5\H,0,-5.01242341,6.4133765128,0.3860303852\H,0,-6.2469393642,6.481777
 9766,1.834018091\H,0,-4.7320164304,5.3322183932,2.1026239411\H,0,-9.52
 38498839,5.9487978159,0.3997278173\H,0,-8.7383044708,8.1892275123,0.06
 4307024\H,0,-6.9751825549,7.5225628255,-0.2170361742\H,0,-12.009516364
 4,3.1150788132,-2.3410604044\H,0,-13.3130365172,2.0633519733,-1.571660
 6898\H,0,-12.3422811895,3.3421573011,-0.5687183698\H,0,-12.6188844165,
 -1.5636687651,-1.30552076\H,0,-13.2685528589,-0.0162854415,-1.60055741
 27\H,0,-12.6280332695,-1.6348947287,-3.6274957473\H,0,-12.1136515392,0
 .1127725514,-3.827180293\H,0,-11.107284076,-1.2808710311,-3.3336924847
 \H,0,-8.8174326392,-4.7856814164,-2.0158391653\H,0,-8.1758812891,-5.87
 4987607,-0.7874029684\H,0,-9.9596581316,-4.9218989769,-0.4220304592\H,
 0,-3.3472748595,-3.2903306176,-0.3245291059\H,0,-1.1773688269,-4.36535
 49128,3.3222689139\H,0,-2.7767728647,-5.4865092933,3.7279800201\H,0,-1
 .5685382803,-6.3318273598,2.5843451374\H,0,2.746999371,-1.7588655765,-
 1.5743715135\H,0,2.7271844186,0.035626481,-2.2197439942\H,0,4.25505472
 98,-0.9929673029,0.3814005163\H,0,4.0716180981,1.2871998163,-3.0288362
 259\H,0,5.0513784362,2.3588202722,-1.896834038\H,0,5.8295482776,1.0150
 818384,-2.9308943887\H,0,6.6891919425,1.4265388816,-0.2279052928\H,0,6
 .3302263706,0.0092176729,0.5702680339\H,0,7.2915628984,-1.3346145332,-
 1.4492190506\H,0,7.8757891099,0.2670835849,-2.0706172086\H,0,8.8748935
 866,0.8050531218,0.2427182343\H,0,8.8242502478,-1.1146198174,0.4244670
 653\H,0,10.2874604575,0.0064254088,-1.8927531059\H,0,9.1826447609,-2.2
 770847528,-2.229927954\H,0,10.8299360783,-2.4374402566,-1.9757137574\H
 ,0,9.967394213,-2.8079224148,-0.8504271334\H,0,11.4577105333,0.8887132
 788,0.3223842018\H,0,11.4325236621,-0.6946318013,1.0521026833\H,0,12.8
 065363893,-1.7187387353,-0.5835266876\H,0,12.9129402,-0.1777382948,-1.
 4665550193\H,0,13.9547769809,1.0980630618,0.3700036609\H,0,13.85533162
 35,-0.4971021475,1.1923444041\H,0,15.2549378859,0.0527651369,-1.551224
 782\H,0,15.7083328343,-2.441480874,0.1000424066\H,0,15.0313006619,-2.3
 787260662,-1.5218299034\H,0,16.5984179004,-1.5628102096,-1.1682389327\
 H,0,15.8131565254,1.2914582185,0.562609682\H,0,16.5078924912,-0.088005
 1962,1.3171946512\H,0,18.2830274946,-0.2203790017,-0.8082568333\H,0,17
 .5132814093,1.539235182,-1.079841468\H,0,18.3579644792,2.3577976794,1.
 0801231132\H,0,18.7702333007,0.9671003213,1.7483311847\H,0,20.42122218
 89,0.2832347593,-0.0300852581\H,0,20.0165484881,3.4382828132,-0.479368
 2063\H,0,21.3298490988,2.5112270006,-1.2694281968\H,0,19.5492057538,2.
 054846887,-1.5777682001\H,0,21.1255725726,0.8767669805,2.4278222238\H,
 0,22.1821128518,1.9370522364,1.0941136776\H,0,20.7961421468,2.69360303
 65,1.8864145727\\Version=ES64L-G09RevD.01\State=1-A\HF=-2932.6081954\R
 MSD=8.246e-09\PG=C01 [X(C55H72Mg1N4O5)]\\@


 CONFIDENCE: THAT QUIET ASSURED FEELING YOU HAVE
 JUST BEFORE YOU FALL FLAT ON YOUR FACE.
 Job cpu time:       0 days  6 hours  7 minutes 52.9 seconds.
 File lengths (MBytes):  RWF=   2106 Int=      0 D2E=      0 Chk=    163 Scr=      1
 Normal termination of Gaussian 09 at Thu Jun 27 23:07:02 2019.
