 Entering Gaussian System, Link 0=g16
 Input=Geometria-27-.com
 Output=Geometria-27-.log
 Initial command:
 /usr/local/g09/l1.exe "/home/padawan/israel-mol/chlorophyll-a/spectra/abs/Gau-23692.inp" -scrdir="/home/padawan/israel-mol/chlorophyll-a/spectra/abs/"
 Entering Link 1 = /usr/local/g09/l1.exe PID=     23694.
  
 Copyright (c) 1988,1990,1992,1993,1995,1998,2003,2009,2013,
            Gaussian, Inc.  All Rights Reserved.
  
 This is part of the Gaussian(R) 09 program.  It is based on
 the Gaussian(R) 03 system (copyright 2003, Gaussian, Inc.),
 the Gaussian(R) 98 system (copyright 1998, Gaussian, Inc.),
 the Gaussian(R) 94 system (copyright 1995, Gaussian, Inc.),
 the Gaussian 92(TM) system (copyright 1992, Gaussian, Inc.),
 the Gaussian 90(TM) system (copyright 1990, Gaussian, Inc.),
 the Gaussian 88(TM) system (copyright 1988, Gaussian, Inc.),
 the Gaussian 86(TM) system (copyright 1986, Carnegie Mellon
 University), and the Gaussian 82(TM) system (copyright 1983,
 Carnegie Mellon University). Gaussian is a federally registered
 trademark of Gaussian, Inc.
  
 This software contains proprietary and confidential information,
 including trade secrets, belonging to Gaussian, Inc.
  
 This software is provided under written license and may be
 used, copied, transmitted, or stored only in accord with that
 written license.
  
 The following legend is applicable only to US Government
 contracts under FAR:
  
                    RESTRICTED RIGHTS LEGEND
  
 Use, reproduction and disclosure by the US Government is
 subject to restrictions as set forth in subparagraphs (a)
 and (c) of the Commercial Computer Software - Restricted
 Rights clause in FAR 52.227-19.
  
 Gaussian, Inc.
 340 Quinnipiac St., Bldg. 40, Wallingford CT 06492
  
  
 ---------------------------------------------------------------
 Warning -- This program may not be used in any manner that
 competes with the business of Gaussian, Inc. or will provide
 assistance to any competitor of Gaussian, Inc.  The licensee
 of this program is prohibited from giving any competitor of
 Gaussian, Inc. access to this program.  By using this program,
 the user acknowledges that Gaussian, Inc. is engaged in the
 business of creating and licensing software in the field of
 computational chemistry and represents and warrants to the
 licensee that it is not a competitor of Gaussian, Inc. and that
 it will not use this program in any manner prohibited above.
 ---------------------------------------------------------------
  

 Cite this work as:
 Gaussian 09, Revision D.01,
 M. J. Frisch, G. W. Trucks, H. B. Schlegel, G. E. Scuseria, 
 M. A. Robb, J. R. Cheeseman, G. Scalmani, V. Barone, B. Mennucci, 
 G. A. Petersson, H. Nakatsuji, M. Caricato, X. Li, H. P. Hratchian, 
 A. F. Izmaylov, J. Bloino, G. Zheng, J. L. Sonnenberg, M. Hada, 
 M. Ehara, K. Toyota, R. Fukuda, J. Hasegawa, M. Ishida, T. Nakajima, 
 Y. Honda, O. Kitao, H. Nakai, T. Vreven, J. A. Montgomery, Jr., 
 J. E. Peralta, F. Ogliaro, M. Bearpark, J. J. Heyd, E. Brothers, 
 K. N. Kudin, V. N. Staroverov, T. Keith, R. Kobayashi, J. Normand, 
 K. Raghavachari, A. Rendell, J. C. Burant, S. S. Iyengar, J. Tomasi, 
 M. Cossi, N. Rega, J. M. Millam, M. Klene, J. E. Knox, J. B. Cross, 
 V. Bakken, C. Adamo, J. Jaramillo, R. Gomperts, R. E. Stratmann, 
 O. Yazyev, A. J. Austin, R. Cammi, C. Pomelli, J. W. Ochterski, 
 R. L. Martin, K. Morokuma, V. G. Zakrzewski, G. A. Voth, 
 P. Salvador, J. J. Dannenberg, S. Dapprich, A. D. Daniels, 
 O. Farkas, J. B. Foresman, J. V. Ortiz, J. Cioslowski, 
 and D. J. Fox, Gaussian, Inc., Wallingford CT, 2013.
 
 ******************************************
 Gaussian 09:  ES64L-G09RevD.01 24-Apr-2013
                27-Jun-2019 
 ******************************************
 %nproc=4
 Will use up to    4 processors via shared memory.
 %Mem=2GB
 -------------------------------------
 # td=(NStates=1) CAM-B3LYP/6-31G(d,p)
 -------------------------------------
 1/38=1/1;
 2/12=2,17=6,18=5,40=1/2;
 3/5=1,6=6,7=101,11=9,16=1,25=1,30=1,74=-40/1,2,8,3;
 4//1;
 5/5=2,38=5/2;
 8/6=1,10=2,108=1/1;
 9/41=1,42=1,70=2/14;
 6/7=2,8=2,9=2,10=2/1;
 99/5=1,9=1/99;
 --
 TD
 --
 Symbolic Z-matrix:
 Charge =  0 Multiplicity = 1
 12                   -7.14941   0.53695   0.06778 
 6                    -4.79887  -1.9208    0.43787 
 6                    -4.81269   2.95091   1.20515 
 6                    -9.50061   3.09374  -0.23292 
 6                    -9.48951  -1.7686   -0.885 
 7                    -5.11497   0.41892   0.86134 
 6                    -4.35653  -0.68277   0.89731 
 6                    -2.93274  -0.30177   1.28163 
 6                    -2.9631    1.08753   1.74965 
 6                    -4.36027   1.56846   1.19918 
 6                    -3.03729   1.20308   3.31209 
 6                    -2.01755  -0.58917   0.04466 
 6                    -0.49788  -0.22126   0.43582 
 6                     0.5696   -0.51106  -0.57444 
 8                     0.24618  -0.8004   -1.78834 
 8                     1.82962  -0.45449  -0.15809 
 7                    -7.11633   2.5279    0.395 
 6                    -6.13645   3.31066   0.81058 
 6                    -6.53602   4.78151   0.86442 
 6                    -7.79334   4.77678   0.35571 
 6                    -8.25271   3.40797   0.16658 
 6                    -5.64878   5.8126    1.32273 
 6                    -8.76763   5.92021   0.39988 
 6                    -8.38892   7.2171    0.11499 
 7                    -9.13873   0.65827  -0.46684 
 6                    -9.83571   1.79585  -0.53185 
 6                    -11.25739   1.46276  -1.13053 
 6                    -11.1969   0.02504  -1.38142 
 6                    -9.83863  -0.51755  -0.96079 
 6                    -12.44523   2.44655  -1.34798 
 6                    -12.32228  -0.81333  -1.79945 
 6                    -12.22341  -1.19328  -3.29866 
 7                    -7.22     -1.35612  -0.02905 
 6                    -8.21733  -2.25047  -0.49796 
 6                    -7.78442  -3.55009  -0.59321 
 6                    -6.40081  -3.57241  -0.15485 
 6                    -6.18026  -2.20869   0.09177 
 6                    -8.56274  -4.79546  -0.84757 
 6                    -5.2554   -4.33346   0.28234 
 8                    -4.96204  -5.49533   0.23618 
 6                    -4.17337  -3.26656   0.55844 
 6                    -3.53104  -3.66577   1.85881 
 8                    -3.88939  -3.24728   2.98798 
 8                    -2.61714  -4.58792   1.67242 
 6                    -1.92694  -5.09811   2.84213 
 6                     2.7975   -0.53146  -1.21964 
 6                     4.13269  -0.36775  -0.58254 
 6                     5.13887   0.43147  -1.05146 
 6                     4.98707   1.29511  -2.28431 
 6                     6.40743   0.53796  -0.36997 
 6                     7.6827    0.00143  -1.11492 
 6                     8.97305  -0.1505   -0.23264 
 6                     10.29249  -0.54409  -1.01398 
 6                     10.08496  -2.08343  -1.35222 
 6                     11.38135  -0.2594   -0.14973 
 6                     12.82692  -0.70635  -0.63171 
 6                     13.94575  -0.25672   0.21261 
 6                     15.3862  -0.33107  -0.45295 
 6                     15.75298  -1.72123  -0.81678 
 6                     16.45193   0.33703   0.59975 
 6                     17.67834   0.50478  -0.07244 
 6                     18.82261   1.19795   0.81512 
 6                     20.16363   1.27398   0.21584 
 6                     20.30027   2.00681  -1.17921 
 6                     21.14444   1.94493   1.33524 
 1                    -4.23418   3.75163   1.30737 
 1                    -10.20814   3.97607  -0.0857 
 1                    -10.4002  -2.43879  -1.08905 
 1                    -2.67865  -0.92517   2.15147 
 1                    -2.27029   1.81487   1.1875 
 1                    -2.00548   1.02595   3.60204 
 1                    -3.25095   2.19804   3.73373 
 1                    -3.78049   0.74327   3.80889 
 1                    -2.18713  -1.63691  -0.11829 
 1                    -2.2508   -0.02905  -0.95035 
 1                    -0.36714   0.82383   0.64593 
 1                    -0.24261  -0.73501   1.56263 
 1                    -4.9907    6.1009    0.46927 
 1                    -6.1864    6.78678   1.49536 
 1                    -4.9305    5.54922   2.23956 
 1                    -9.82421   5.76591   0.58235 
 1                    -9.04449   8.02359   0.04931 
 1                    -7.3082    7.64784  -0.02065 
 1                    -12.04011   3.09705  -2.23522 
 1                    -13.2194   1.82245  -1.73464 
 1                    -12.87866   3.10758  -0.5436 
 1                    -12.35884  -1.86218  -1.14254 
 1                    -13.34586  -0.49201  -1.37351 
 1                    -13.24286  -1.60386  -3.77156 
 1                    -11.85751  -0.39982  -3.92767 
 1                    -11.39792  -1.88434  -3.53884 
 1                    -8.84114  -4.80249  -2.00179 
 1                    -8.01341  -5.66846  -0.40663 
 1                    -9.75976  -4.82033  -0.40494 
 1                    -3.31106  -3.41364  -0.44356 
 1                    -1.18959  -4.52266   3.54136 
 1                    -2.68117  -5.44935   3.78187 
 1                    -1.35787  -5.89792   2.41767 
 1                     2.26029  -1.56046  -1.77294 
 1                     2.66762   0.37781  -2.0082 
 1                     4.45032  -0.96146   0.3184 
 1                     3.89936   1.64048  -2.38986 
 1                     5.76344   2.13909  -2.13546 
 1                     5.3935    0.62047  -3.30643 
 1                     6.77895   1.43273   0.04961 
 1                     6.35062  -0.00198   0.62768 
 1                     7.36617  -1.09561  -1.23446 
 1                     7.77799   0.56493  -1.97237 
 1                     9.00435   0.89845   0.30676 
 1                     8.78777  -0.84616   0.58741 
 1                     10.31167   0.11827  -1.83117 
 1                     9.26208  -2.33413  -2.0177 
 1                     10.99633  -2.31143  -1.78499 
 1                     9.60238  -2.54686  -0.27748 
 1                     11.51726   0.74      0.12098 
 1                     11.34887  -0.71741   0.78399 
 1                     13.02135  -1.78074  -0.87412 
 1                     12.9803  -0.06285  -1.61364 
 1                     13.79322   0.71663   0.48122 
 1                     14.02442  -1.10085   1.21956 
 1                     15.22472   0.38219  -1.26618 
 1                     15.71447  -2.14918   0.03583 
 1                     15.18143  -2.09507  -1.62926 
 1                     16.80663  -1.80858  -1.42975 
 1                     15.85028   1.28731   0.88426 
 1                     16.37836  -0.38487   1.54666 
 1                     18.08943  -0.37545  -0.4123 
 1                     17.50785   0.95718  -0.98378 
 1                     18.48638   2.12844   1.18611 
 1                     18.84135   0.6752    1.82584 
 1                     20.58993   0.31452   0.17559 
 1                     19.80972   2.9194   -1.27455 
 1                     21.41294   2.16552  -1.45412 
 1                     19.75238   1.38582  -1.96052 
 1                     21.1039   1.47974   2.47023 
 1                     22.22631   1.70778   0.81856 
 1                     21.10249   3.11413   1.42413 
 
 Stoichiometry    C55H72MgN4O5
 Framework group  C1[X(C55H72MgN4O5)]
 Deg. of freedom   405
 Full point group                 C1      NOp   1
 Largest Abelian subgroup         C1      NOp   1
 Largest concise Abelian subgroup C1      NOp   1
                         Standard orientation:                         
 ---------------------------------------------------------------------
 Center     Atomic      Atomic             Coordinates (Angstroms)
 Number     Number       Type             X           Y           Z
 ---------------------------------------------------------------------
      1         12           0       -7.150123    0.516104    0.066042
      2          6           0       -4.792293   -1.933363    0.444603
      3          6           0       -4.820742    2.940840    1.195502
      4          6           0       -9.508926    3.064834   -0.243477
      5          6           0       -9.483234   -1.799614   -0.879196
      6          7           0       -5.115428    0.406820    0.860179
      7          6           0       -4.353703   -0.692474    0.899920
      8          6           0       -2.931098   -0.305930    1.283089
      9          6           0       -2.965646    1.084834    1.746427
     10          6           0       -4.364198    1.559733    1.194214
     11          6           0       -3.040344    1.205411    3.308470
     12          6           0       -2.014920   -0.594760    0.047176
     13          6           0       -0.496397   -0.220997    0.437234
     14          6           0        0.572041   -0.511007   -0.571949
     15          8           0        0.249608   -0.805388   -1.784898
     16          8           0        1.831847   -0.449270   -0.155678
     17          7           0       -7.123025    2.508235    0.386569
     18          6           0       -6.145530    3.295308    0.799599
     19          6           0       -6.549497    4.765128    0.848462
     20          6           0       -7.806744    4.754931    0.339654
     21          6           0       -8.262001    3.384131    0.155080
     22          6           0       -5.665386    5.800402    1.303378
     23          6           0       -8.784445    5.895588    0.379888
     24          6           0       -8.409583    7.192639    0.090671
     25          7           0       -9.139744    0.629684   -0.469168
     26          6           0       -9.840108    1.764950   -0.538066
     27          6           0      -11.260732    1.425602   -1.135752
     28          6           0      -11.195921   -0.012768   -1.381800
     29          6           0       -9.836085   -0.549878   -0.959222
     30          6           0      -12.451485    2.405102   -1.356614
     31          6           0      -12.318754   -0.855894   -1.797110
     32          6           0      -12.218594   -1.240586   -3.295028
     33          7           0       -7.215051   -1.377490   -0.024430
     34          6           0       -8.209657   -2.276383   -0.490423
     35          6           0       -7.772857   -3.575015   -0.581263
     36          6           0       -6.389230   -3.591731   -0.142704
     37          6           0       -6.172786   -2.226532    0.099348
     38          6           0       -8.547429   -4.823555   -0.831512
     39          6           0       -5.241603   -4.347880    0.297141
     40          8           0       -4.944766   -5.509020    0.254918
     41          6           0       -4.162791   -3.276831    0.569751
     42          6           0       -3.519400   -3.669750    1.871515
     43          8           0       -3.879118   -3.248534    2.999244
     44          8           0       -2.602737   -4.589782    1.688308
     45          6           0       -1.911128   -5.093976    2.859790
     46          6           0        2.800064   -0.526919   -1.216872
     47          6           0        4.134688   -0.357079   -0.580207
     48          6           0        5.138525    0.443558   -1.051714
     49          6           0        4.984270    1.302599   -2.287475
     50          6           0        6.406692    0.556133   -0.370479
     51          6           0        7.683633    0.020909   -1.113502
     52          6           0        8.974342   -0.124203   -0.230593
     53          6           0       10.295034   -0.516471   -1.010487
     54          6           0       10.092132   -2.057549   -1.343567
     55          6           0       11.382951   -0.225622   -0.147106
     56          6           0       12.829898   -0.669870   -0.627448
     57          6           0       13.947295   -0.214070    0.215460
     58          6           0       15.388032   -0.286348   -0.449711
     59          6           0       15.758994   -1.676631   -0.808832
     60          6           0       16.451650    0.388461    0.600831
     61          6           0       17.677627    0.557613   -0.071801
     62          6           0       18.819726    1.257181    0.813527
     63          6           0       20.160580    1.335202    0.214114
     64          6           0       20.295168    2.063736   -1.183384
     65          6           0       21.139266    2.012834    1.331341
     66          1           0       -4.244639    3.743627    1.295074
     67          1           0      -10.219102    3.945530   -0.099287
     68          1           0      -10.391897   -2.473211   -1.081080
     69          1           0       -2.675227   -0.925648    2.155042
     70          1           0       -2.274955    1.812346    1.181903
     71          1           0       -2.008042    1.032340    3.599104
     72          1           0       -3.257016    2.201142    3.726736
     73          1           0       -3.782216    0.745058    3.806745
     74          1           0       -2.181359   -1.643540   -0.112266
     75          1           0       -2.249744   -0.038685   -0.949737
     76          1           0       -0.368806    0.825180    0.643836
     77          1           0       -0.239710   -0.730188    1.565785
     78          1           0       -5.008084    6.087788    0.449014
     79          1           0       -6.205933    6.773543    1.472688
     80          1           0       -4.946411    5.542250    2.221153
     81          1           0       -9.840582    5.738749    0.562775
     82          1           0       -9.067549    7.996945    0.022218
     83          1           0       -7.330138    7.626144   -0.046311
     84          1           0      -12.048216    3.053823   -2.246004
     85          1           0      -13.223743    1.777398   -1.741246
     86          1           0      -12.886970    3.067542   -0.554501
     87          1           0      -12.352244   -1.902631   -1.136690
     88          1           0      -13.343330   -0.536204   -1.372356
     89          1           0      -13.236771   -1.655795   -3.766640
     90          1           0      -11.854999   -0.448152   -3.926671
     91          1           0      -11.391024   -1.929980   -3.532812
     92          1           0       -8.825688   -4.835298   -1.985721
     93          1           0       -7.995537   -5.693418   -0.387590
     94          1           0       -9.744416   -4.850509   -0.388905
     95          1           0       -3.299945   -3.424706   -0.431667
     96          1           0       -1.175575   -4.513980    3.557154
     97          1           0       -2.664408   -5.444301    3.800637
     98          1           0       -1.339630   -5.893509    2.438077
     99          1           0        2.265983   -1.559367   -1.766762
    100          1           0        2.667544    0.379306   -2.008502
    101          1           0        4.454006   -0.946809    0.322758
    102          1           0        3.895549    1.644353   -2.394292
    103          1           0        5.758104    2.149384   -2.141395
    104          1           0        5.392825    0.625742   -3.307291
    105          1           0        6.775499    1.453411    0.046130
    106          1           0        6.351395    0.019377    0.628983
    107          1           0        7.370397   -1.077466   -1.229378
    108          1           0        7.777330    0.581810   -1.972829
    109          1           0        9.002454    0.926651    0.305281
    110          1           0        8.791057   -0.817650    0.591774
    111          1           0       10.312322    0.143190   -1.829896
    112          1           0        9.270079   -2.312944   -2.008275
    113          1           0       11.004230   -2.284279   -1.775493
    114          1           0        9.610831   -2.518801   -0.267322
    115          1           0       11.515845    0.775079    0.120263
    116          1           0       11.351740   -0.680592    0.788146
    117          1           0       13.027559   -1.744492   -0.866218
    118          1           0       12.981453   -0.029220   -1.611518
    119          1           0       13.791833    0.759725    0.480789
    120          1           0       14.028382   -1.054571    1.225249
    121          1           0       15.224506    0.423682   -1.265347
    122          1           0       15.721680   -2.101822    0.045203
    123          1           0       15.188642   -2.054898   -1.620105
    124          1           0       16.812962   -1.762894   -1.421405
    125          1           0       15.847138    1.337891    0.882092
    126          1           0       16.380141   -0.330471    1.550155
    127          1           0       18.091373   -0.322526   -0.408664
    128          1           0       17.505876    1.006434   -0.984679
    129          1           0       18.480680    2.187907    1.181355
    130          1           0       18.839927    0.737889    1.825995
    131          1           0       20.589742    0.376884    0.177124
    132          1           0       19.801902    2.974536   -1.281831
    133          1           0       21.407384    2.224849   -1.458717
    134          1           0       19.749210    1.438493   -1.962645
    135          1           0       21.099999    1.551341    2.467881
    136          1           0       22.221887    1.777181    0.815556
    137          1           0       21.093816    3.182192    1.416294
 ---------------------------------------------------------------------
 Rotational constants (GHZ):      0.0651001      0.0060817      0.0057397
 Standard basis: 6-31G(d,p) (6D, 7F)
 There are  1339 symmetry adapted cartesian basis functions of A   symmetry.
 There are  1339 symmetry adapted basis functions of A   symmetry.
  1339 basis functions,  2348 primitive gaussians,  1339 cartesian basis functions
   241 alpha electrons      241 beta electrons
       nuclear repulsion energy      8736.9005113572 Hartrees.
 NAtoms=  137 NActive=  137 NUniq=  137 SFac= 1.00D+00 NAtFMM=   60 NAOKFM=T Big=T
 Integral buffers will be    131072 words long.
 Raffenetti 1 integral format.
 Two-electron integral symmetry is turned on.
 One-electron integrals computed using PRISM.
 NBasis=  1339 RedAO= T EigKep=  3.33D-04  NBF=  1339
 NBsUse=  1339 1.00D-06 EigRej= -1.00D+00 NBFU=  1339
 ExpMin= 4.21D-02 ExpMax= 1.17D+04 ExpMxC= 1.76D+03 IAcc=2 IRadAn=         4 AccDes= 0.00D+00
 Harris functional with IExCor=20419 and IRadAn=       4 diagonalized for initial guess.
 HarFok:  IExCor=20419 AccDes= 0.00D+00 IRadAn=         4 IDoV= 1 UseB2=F ITyADJ=14
 ICtDFT=  3500011 ScaDFX=  1.000000  1.000000  1.000000  1.000000
 FoFCou: FMM=F IPFlag=           0 FMFlag=      100000 FMFlg1=        2001
         NFxFlg=           0 DoJE=T BraDBF=F KetDBF=T FulRan=T
         wScrn=  0.000000 ICntrl=     500 IOpCl=  0 I1Cent=   200000004 NGrid=           0
         NMat0=    1 NMatS0=      1 NMatT0=    0 NMatD0=    1 NMtDS0=    0 NMtDT0=    0
 Petite list used in FoFCou.
 Requested convergence on RMS density matrix=1.00D-08 within 128 cycles.
 Requested convergence on MAX density matrix=1.00D-06.
 Requested convergence on             energy=1.00D-06.
 No special actions if energy rises.
 SCF Done:  E(RCAM-B3LYP) =  -2932.56093955     A.U. after   17 cycles
            NFock= 17  Conv=0.77D-08     -V/T= 2.0099
 DoSCS=F DFT=T ScalE2(SS,OS)=  1.000000  1.000000
 ExpMin= 4.21D-02 ExpMax= 1.17D+04 ExpMxC= 1.76D+03 IAcc=3 IRadAn=         5 AccDes= 0.00D+00
 HarFok:  IExCor=  205 AccDes= 0.00D+00 IRadAn=         5 IDoV=-2 UseB2=F ITyADJ=14
 ICtDFT= 12500011 ScaDFX=  1.000000  1.000000  1.000000  1.000000
 Range of M.O.s used for correlation:    70  1339
 NBasis=  1339 NAE=   241 NBE=   241 NFC=    69 NFV=     0
 NROrb=   1270 NOA=   172 NOB=   172 NVA=  1098 NVB=  1098
 Would need an additional       2415464100000 words for in-memory AO integral storage.
 Orbital symmetries:
       Occupied  (A) (A) (A) (A) (A) (A) (A) (A) (A) (A) (A) (A)
                 (A) (A) (A) (A) (A) (A) (A) (A) (A) (A) (A) (A)
                 (A) (A) (A) (A) (A) (A) (A) (A) (A) (A) (A) (A)
                 (A) (A) (A) (A) (A) (A) (A) (A) (A) (A) (A) (A)
                 (A) (A) (A) (A) (A) (A) (A) (A) (A) (A) (A) (A)
                 (A) (A) (A) (A) (A) (A) (A) (A) (A) (A) (A) (A)
                 (A) (A) (A) (A) (A) (A) (A) (A) (A) (A) (A) (A)
                 (A) (A) (A) (A) (A) (A) (A) (A) (A) (A) (A) (A)
                 (A) (A) (A) (A) (A) (A) (A) (A) (A) (A) (A) (A)
                 (A) (A) (A) (A) (A) (A) (A) (A) (A) (A) (A) (A)
                 (A) (A) (A) (A) (A) (A) (A) (A) (A) (A) (A) (A)
                 (A) (A) (A) (A) (A) (A) (A) (A) (A) (A) (A) (A)
                 (A) (A) (A) (A) (A) (A) (A) (A) (A) (A) (A) (A)
                 (A) (A) (A) (A) (A) (A) (A) (A) (A) (A) (A) (A)
                 (A) (A) (A) (A) (A) (A) (A) (A) (A) (A) (A) (A)
                 (A) (A) (A) (A) (A) (A) (A) (A) (A) (A) (A) (A)
                 (A) (A) (A) (A) (A) (A) (A) (A) (A) (A) (A) (A)
                 (A) (A) (A) (A) (A) (A) (A) (A) (A) (A) (A) (A)
                 (A) (A) (A) (A) (A) (A) (A) (A) (A) (A) (A) (A)
                 (A) (A) (A) (A) (A) (A) (A) (A) (A) (A) (A) (A)
                 (A)
       Virtual   (A) (A) (A) (A) (A) (A) (A) (A) (A) (A) (A) (A)
                 (A) (A) (A) (A) (A) (A) (A) (A) (A) (A) (A) (A)
                 (A) (A) (A) (A) (A) (A) (A) (A) (A) (A) (A) (A)
                 (A) (A) (A) (A) (A) (A) (A) (A) (A) (A) (A) (A)
                 (A) (A) (A) (A) (A) (A) (A) (A) (A) (A) (A) (A)
                 (A) (A) (A) (A) (A) (A) (A) (A) (A) (A) (A) (A)
                 (A) (A) (A) (A) (A) (A) (A) (A) (A) (A) (A) (A)
                 (A) (A) (A) (A) (A) (A) (A) (A) (A) (A) (A) (A)
                 (A) (A) (A) (A) (A) (A) (A) (A) (A) (A) (A) (A)
                 (A) (A) (A) (A) (A) (A) (A) (A) (A) (A) (A) (A)
                 (A) (A) (A) (A) (A) (A) (A) (A) (A) (A) (A) (A)
                 (A) (A) (A) (A) (A) (A) (A) (A) (A) (A) (A) (A)
                 (A) (A) (A) (A) (A) (A) (A) (A) (A) (A) (A) (A)
                 (A) (A) (A) (A) (A) (A) (A) (A) (A) (A) (A) (A)
                 (A) (A) (A) (A) (A) (A) (A) (A) (A) (A) (A) (A)
                 (A) (A) (A) (A) (A) (A) (A) (A) (A) (A) (A) (A)
                 (A) (A) (A) (A) (A) (A) (A) (A) (A) (A) (A) (A)
                 (A) (A) (A) (A) (A) (A) (A) (A) (A) (A) (A) (A)
                 (A) (A) (A) (A) (A) (A) (A) (A) (A) (A) (A) (A)
                 (A) (A) (A) (A) (A) (A) (A) (A) (A) (A) (A) (A)
                 (A) (A) (A) (A) (A) (A) (A) (A) (A) (A) (A) (A)
                 (A) (A) (A) (A) (A) (A) (A) (A) (A) (A) (A) (A)
                 (A) (A) (A) (A) (A) (A) (A) (A) (A) (A) (A) (A)
                 (A) (A) (A) (A) (A) (A) (A) (A) (A) (A) (A) (A)
                 (A) (A) (A) (A) (A) (A) (A) (A) (A) (A) (A) (A)
                 (A) (A) (A) (A) (A) (A) (A) (A) (A) (A) (A) (A)
                 (A) (A) (A) (A) (A) (A) (A) (A) (A) (A) (A) (A)
                 (A) (A) (A) (A) (A) (A) (A) (A) (A) (A) (A) (A)
                 (A) (A) (A) (A) (A) (A) (A) (A) (A) (A) (A) (A)
                 (A) (A) (A) (A) (A) (A) (A) (A) (A) (A) (A) (A)
                 (A) (A) (A) (A) (A) (A) (A) (A) (A) (A) (A) (A)
                 (A) (A) (A) (A) (A) (A) (A) (A) (A) (A) (A) (A)
                 (A) (A) (A) (A) (A) (A) (A) (A) (A) (A) (A) (A)
                 (A) (A) (A) (A) (A) (A) (A) (A) (A) (A) (A) (A)
                 (A) (A) (A) (A) (A) (A) (A) (A) (A) (A) (A) (A)
                 (A) (A) (A) (A) (A) (A) (A) (A) (A) (A) (A) (A)
                 (A) (A) (A) (A) (A) (A) (A) (A) (A) (A) (A) (A)
                 (A) (A) (A) (A) (A) (A) (A) (A) (A) (A) (A) (A)
                 (A) (A) (A) (A) (A) (A) (A) (A) (A) (A) (A) (A)
                 (A) (A) (A) (A) (A) (A) (A) (A) (A) (A) (A) (A)
                 (A) (A) (A) (A) (A) (A) (A) (A) (A) (A) (A) (A)
                 (A) (A) (A) (A) (A) (A) (A) (A) (A) (A) (A) (A)
                 (A) (A) (A) (A) (A) (A) (A) (A) (A) (A) (A) (A)
                 (A) (A) (A) (A) (A) (A) (A) (A) (A) (A) (A) (A)
                 (A) (A) (A) (A) (A) (A) (A) (A) (A) (A) (A) (A)
                 (A) (A) (A) (A) (A) (A) (A) (A) (A) (A) (A) (A)
                 (A) (A) (A) (A) (A) (A) (A) (A) (A) (A) (A) (A)
                 (A) (A) (A) (A) (A) (A) (A) (A) (A) (A) (A) (A)
                 (A) (A) (A) (A) (A) (A) (A) (A) (A) (A) (A) (A)
                 (A) (A) (A) (A) (A) (A) (A) (A) (A) (A) (A) (A)
                 (A) (A) (A) (A) (A) (A) (A) (A) (A) (A) (A) (A)
                 (A) (A) (A) (A) (A) (A) (A) (A) (A) (A) (A) (A)
                 (A) (A) (A) (A) (A) (A) (A) (A) (A) (A) (A) (A)
                 (A) (A) (A) (A) (A) (A) (A) (A) (A) (A) (A) (A)
                 (A) (A) (A) (A) (A) (A) (A) (A) (A) (A) (A) (A)
                 (A) (A) (A) (A) (A) (A) (A) (A) (A) (A) (A) (A)
                 (A) (A) (A) (A) (A) (A) (A) (A) (A) (A) (A) (A)
                 (A) (A) (A) (A) (A) (A) (A) (A) (A) (A) (A) (A)
                 (A) (A) (A) (A) (A) (A) (A) (A) (A) (A) (A) (A)
                 (A) (A) (A) (A) (A) (A) (A) (A) (A) (A) (A) (A)
                 (A) (A) (A) (A) (A) (A) (A) (A) (A) (A) (A) (A)
                 (A) (A) (A) (A) (A) (A) (A) (A) (A) (A) (A) (A)
                 (A) (A) (A) (A) (A) (A) (A) (A) (A) (A) (A) (A)
                 (A) (A) (A) (A) (A) (A) (A) (A) (A) (A) (A) (A)
                 (A) (A) (A) (A) (A) (A) (A) (A) (A) (A) (A) (A)
                 (A) (A) (A) (A) (A) (A) (A) (A) (A) (A) (A) (A)
                 (A) (A) (A) (A) (A) (A) (A) (A) (A) (A) (A) (A)
                 (A) (A) (A) (A) (A) (A) (A) (A) (A) (A) (A) (A)
                 (A) (A) (A) (A) (A) (A) (A) (A) (A) (A) (A) (A)
                 (A) (A) (A) (A) (A) (A) (A) (A) (A) (A) (A) (A)
                 (A) (A) (A) (A) (A) (A) (A) (A) (A) (A) (A) (A)
                 (A) (A) (A) (A) (A) (A) (A) (A) (A) (A) (A) (A)
                 (A) (A) (A) (A) (A) (A) (A) (A) (A) (A) (A) (A)
                 (A) (A) (A) (A) (A) (A) (A) (A) (A) (A) (A) (A)
                 (A) (A) (A) (A) (A) (A) (A) (A) (A) (A) (A) (A)
                 (A) (A) (A) (A) (A) (A) (A) (A) (A) (A) (A) (A)
                 (A) (A) (A) (A) (A) (A) (A) (A) (A) (A) (A) (A)
                 (A) (A) (A) (A) (A) (A) (A) (A) (A) (A) (A) (A)
                 (A) (A) (A) (A) (A) (A) (A) (A) (A) (A) (A) (A)
                 (A) (A) (A) (A) (A) (A) (A) (A) (A) (A) (A) (A)
                 (A) (A) (A) (A) (A) (A) (A) (A) (A) (A) (A) (A)
                 (A) (A) (A) (A) (A) (A) (A) (A) (A) (A) (A) (A)
                 (A) (A) (A) (A) (A) (A) (A) (A) (A) (A) (A) (A)
                 (A) (A) (A) (A) (A) (A) (A) (A) (A) (A) (A) (A)
                 (A) (A) (A) (A) (A) (A) (A) (A) (A) (A) (A) (A)
                 (A) (A) (A) (A) (A) (A) (A) (A) (A) (A) (A) (A)
                 (A) (A) (A) (A) (A) (A) (A) (A) (A) (A) (A) (A)
                 (A) (A) (A) (A) (A) (A) (A) (A) (A) (A) (A) (A)
                 (A) (A) (A) (A) (A) (A) (A) (A) (A) (A) (A) (A)
                 (A) (A) (A) (A) (A) (A) (A) (A) (A) (A) (A) (A)
                 (A) (A) (A) (A) (A) (A) (A) (A) (A) (A) (A) (A)
                 (A) (A) (A) (A) (A) (A)
     8 initial guesses have been made.
 Convergence on wavefunction:    0.001000000000000
 Iteration     1 Dimension     8 NMult     0 NNew      8
 CISAX will form     8 AO SS matrices at one time.
 Iteration     2 Dimension    12 NMult     8 NNew      4
 Iteration     3 Dimension    16 NMult    12 NNew      4
 Iteration     4 Dimension    20 NMult    16 NNew      4
 Iteration     5 Dimension    24 NMult    20 NNew      4
 Iteration     6 Dimension    28 NMult    24 NNew      4
 ***********************************************************************
 Excited states from <AA,BB:AA,BB> singles matrix:
 ***********************************************************************
 
 Ground to excited state transition densities written to RWF  633
 Ground to excited state transition electric dipole moments (Au):
       state          X           Y           Z        Dip. S.      Osc.
         1        -0.6139      2.2784      0.0569      5.5713      0.2999
 Ground to excited state transition velocity dipole moments (Au):
       state          X           Y           Z        Dip. S.      Osc.
         1         0.0470     -0.1797     -0.0054      0.0345      0.2849
 Ground to excited state transition magnetic dipole moments (Au):
       state          X           Y           Z
         1        -0.4065     -0.2225      3.7992
 Ground to excited state transition velocity quadrupole moments (Au):
       state          XX          YY          ZZ          XY          XZ          YZ
         1        -1.1964     -0.0957     -0.0259      2.3104      0.0237     -0.1195
 <0|del|b> * <b|rxdel|0> + <0|del|b> * <b|delr+rdel|0>
 Rotatory Strengths (R) in cgs (10**-40 erg-esu-cm/Gauss)
       state          XX          YY          ZZ    R(velocity)    E-M Angle
         1        48.3190   -143.5717     97.3669      0.7048       89.98
 1/2[<0|r|b>*<b|rxdel|0> + (<0|rxdel|b>*<b|r|0>)*]
 Rotatory Strengths (R) in cgs (10**-40 erg-esu-cm/Gauss)
       state          XX          YY          ZZ     R(length)
         1      -176.4786    358.4388   -152.8680      9.6974
  1/2[<0|del|b>*<b|r|0> + (<0|r|b>*<b|del|0>)*] (Au)
       state          X           Y           Z        Dip. S.   Osc.(frdel)
         1        -0.0288     -0.4093     -0.0003      0.4385      0.2923

 Excitation energies and oscillator strengths:
 
 Excited State   1:      Singlet-A      2.1972 eV  564.29 nm  f=0.2999  <S**2>=0.000
     240 -> 242       -0.18661
     240 -> 243       -0.16617
     241 -> 242        0.64299
     241 -> 243       -0.13287
 This state for optimization and/or second-order correction.
 Total Energy, E(TD-HF/TD-KS) =  -2932.48019509    
 Copying the excited state density for this state as the 1-particle RhoCI density.
 SavETr:  write IOETrn=   770 NScale= 10 NData=  16 NLR=1 NState=    1 LETran=      28.

 **********************************************************************

            Population analysis using the SCF density.

 **********************************************************************

 Orbital symmetries:
       Occupied  (A) (A) (A) (A) (A) (A) (A) (A) (A) (A) (A) (A)
                 (A) (A) (A) (A) (A) (A) (A) (A) (A) (A) (A) (A)
                 (A) (A) (A) (A) (A) (A) (A) (A) (A) (A) (A) (A)
                 (A) (A) (A) (A) (A) (A) (A) (A) (A) (A) (A) (A)
                 (A) (A) (A) (A) (A) (A) (A) (A) (A) (A) (A) (A)
                 (A) (A) (A) (A) (A) (A) (A) (A) (A) (A) (A) (A)
                 (A) (A) (A) (A) (A) (A) (A) (A) (A) (A) (A) (A)
                 (A) (A) (A) (A) (A) (A) (A) (A) (A) (A) (A) (A)
                 (A) (A) (A) (A) (A) (A) (A) (A) (A) (A) (A) (A)
                 (A) (A) (A) (A) (A) (A) (A) (A) (A) (A) (A) (A)
                 (A) (A) (A) (A) (A) (A) (A) (A) (A) (A) (A) (A)
                 (A) (A) (A) (A) (A) (A) (A) (A) (A) (A) (A) (A)
                 (A) (A) (A) (A) (A) (A) (A) (A) (A) (A) (A) (A)
                 (A) (A) (A) (A) (A) (A) (A) (A) (A) (A) (A) (A)
                 (A) (A) (A) (A) (A) (A) (A) (A) (A) (A) (A) (A)
                 (A) (A) (A) (A) (A) (A) (A) (A) (A) (A) (A) (A)
                 (A) (A) (A) (A) (A) (A) (A) (A) (A) (A) (A) (A)
                 (A) (A) (A) (A) (A) (A) (A) (A) (A) (A) (A) (A)
                 (A) (A) (A) (A) (A) (A) (A) (A) (A) (A) (A) (A)
                 (A) (A) (A) (A) (A) (A) (A) (A) (A) (A) (A) (A)
                 (A)
       Virtual   (A) (A) (A) (A) (A) (A) (A) (A) (A) (A) (A) (A)
                 (A) (A) (A) (A) (A) (A) (A) (A) (A) (A) (A) (A)
                 (A) (A) (A) (A) (A) (A) (A) (A) (A) (A) (A) (A)
                 (A) (A) (A) (A) (A) (A) (A) (A) (A) (A) (A) (A)
                 (A) (A) (A) (A) (A) (A) (A) (A) (A) (A) (A) (A)
                 (A) (A) (A) (A) (A) (A) (A) (A) (A) (A) (A) (A)
                 (A) (A) (A) (A) (A) (A) (A) (A) (A) (A) (A) (A)
                 (A) (A) (A) (A) (A) (A) (A) (A) (A) (A) (A) (A)
                 (A) (A) (A) (A) (A) (A) (A) (A) (A) (A) (A) (A)
                 (A) (A) (A) (A) (A) (A) (A) (A) (A) (A) (A) (A)
                 (A) (A) (A) (A) (A) (A) (A) (A) (A) (A) (A) (A)
                 (A) (A) (A) (A) (A) (A) (A) (A) (A) (A) (A) (A)
                 (A) (A) (A) (A) (A) (A) (A) (A) (A) (A) (A) (A)
                 (A) (A) (A) (A) (A) (A) (A) (A) (A) (A) (A) (A)
                 (A) (A) (A) (A) (A) (A) (A) (A) (A) (A) (A) (A)
                 (A) (A) (A) (A) (A) (A) (A) (A) (A) (A) (A) (A)
                 (A) (A) (A) (A) (A) (A) (A) (A) (A) (A) (A) (A)
                 (A) (A) (A) (A) (A) (A) (A) (A) (A) (A) (A) (A)
                 (A) (A) (A) (A) (A) (A) (A) (A) (A) (A) (A) (A)
                 (A) (A) (A) (A) (A) (A) (A) (A) (A) (A) (A) (A)
                 (A) (A) (A) (A) (A) (A) (A) (A) (A) (A) (A) (A)
                 (A) (A) (A) (A) (A) (A) (A) (A) (A) (A) (A) (A)
                 (A) (A) (A) (A) (A) (A) (A) (A) (A) (A) (A) (A)
                 (A) (A) (A) (A) (A) (A) (A) (A) (A) (A) (A) (A)
                 (A) (A) (A) (A) (A) (A) (A) (A) (A) (A) (A) (A)
                 (A) (A) (A) (A) (A) (A) (A) (A) (A) (A) (A) (A)
                 (A) (A) (A) (A) (A) (A) (A) (A) (A) (A) (A) (A)
                 (A) (A) (A) (A) (A) (A) (A) (A) (A) (A) (A) (A)
                 (A) (A) (A) (A) (A) (A) (A) (A) (A) (A) (A) (A)
                 (A) (A) (A) (A) (A) (A) (A) (A) (A) (A) (A) (A)
                 (A) (A) (A) (A) (A) (A) (A) (A) (A) (A) (A) (A)
                 (A) (A) (A) (A) (A) (A) (A) (A) (A) (A) (A) (A)
                 (A) (A) (A) (A) (A) (A) (A) (A) (A) (A) (A) (A)
                 (A) (A) (A) (A) (A) (A) (A) (A) (A) (A) (A) (A)
                 (A) (A) (A) (A) (A) (A) (A) (A) (A) (A) (A) (A)
                 (A) (A) (A) (A) (A) (A) (A) (A) (A) (A) (A) (A)
                 (A) (A) (A) (A) (A) (A) (A) (A) (A) (A) (A) (A)
                 (A) (A) (A) (A) (A) (A) (A) (A) (A) (A) (A) (A)
                 (A) (A) (A) (A) (A) (A) (A) (A) (A) (A) (A) (A)
                 (A) (A) (A) (A) (A) (A) (A) (A) (A) (A) (A) (A)
                 (A) (A) (A) (A) (A) (A) (A) (A) (A) (A) (A) (A)
                 (A) (A) (A) (A) (A) (A) (A) (A) (A) (A) (A) (A)
                 (A) (A) (A) (A) (A) (A) (A) (A) (A) (A) (A) (A)
                 (A) (A) (A) (A) (A) (A) (A) (A) (A) (A) (A) (A)
                 (A) (A) (A) (A) (A) (A) (A) (A) (A) (A) (A) (A)
                 (A) (A) (A) (A) (A) (A) (A) (A) (A) (A) (A) (A)
                 (A) (A) (A) (A) (A) (A) (A) (A) (A) (A) (A) (A)
                 (A) (A) (A) (A) (A) (A) (A) (A) (A) (A) (A) (A)
                 (A) (A) (A) (A) (A) (A) (A) (A) (A) (A) (A) (A)
                 (A) (A) (A) (A) (A) (A) (A) (A) (A) (A) (A) (A)
                 (A) (A) (A) (A) (A) (A) (A) (A) (A) (A) (A) (A)
                 (A) (A) (A) (A) (A) (A) (A) (A) (A) (A) (A) (A)
                 (A) (A) (A) (A) (A) (A) (A) (A) (A) (A) (A) (A)
                 (A) (A) (A) (A) (A) (A) (A) (A) (A) (A) (A) (A)
                 (A) (A) (A) (A) (A) (A) (A) (A) (A) (A) (A) (A)
                 (A) (A) (A) (A) (A) (A) (A) (A) (A) (A) (A) (A)
                 (A) (A) (A) (A) (A) (A) (A) (A) (A) (A) (A) (A)
                 (A) (A) (A) (A) (A) (A) (A) (A) (A) (A) (A) (A)
                 (A) (A) (A) (A) (A) (A) (A) (A) (A) (A) (A) (A)
                 (A) (A) (A) (A) (A) (A) (A) (A) (A) (A) (A) (A)
                 (A) (A) (A) (A) (A) (A) (A) (A) (A) (A) (A) (A)
                 (A) (A) (A) (A) (A) (A) (A) (A) (A) (A) (A) (A)
                 (A) (A) (A) (A) (A) (A) (A) (A) (A) (A) (A) (A)
                 (A) (A) (A) (A) (A) (A) (A) (A) (A) (A) (A) (A)
                 (A) (A) (A) (A) (A) (A) (A) (A) (A) (A) (A) (A)
                 (A) (A) (A) (A) (A) (A) (A) (A) (A) (A) (A) (A)
                 (A) (A) (A) (A) (A) (A) (A) (A) (A) (A) (A) (A)
                 (A) (A) (A) (A) (A) (A) (A) (A) (A) (A) (A) (A)
                 (A) (A) (A) (A) (A) (A) (A) (A) (A) (A) (A) (A)
                 (A) (A) (A) (A) (A) (A) (A) (A) (A) (A) (A) (A)
                 (A) (A) (A) (A) (A) (A) (A) (A) (A) (A) (A) (A)
                 (A) (A) (A) (A) (A) (A) (A) (A) (A) (A) (A) (A)
                 (A) (A) (A) (A) (A) (A) (A) (A) (A) (A) (A) (A)
                 (A) (A) (A) (A) (A) (A) (A) (A) (A) (A) (A) (A)
                 (A) (A) (A) (A) (A) (A) (A) (A) (A) (A) (A) (A)
                 (A) (A) (A) (A) (A) (A) (A) (A) (A) (A) (A) (A)
                 (A) (A) (A) (A) (A) (A) (A) (A) (A) (A) (A) (A)
                 (A) (A) (A) (A) (A) (A) (A) (A) (A) (A) (A) (A)
                 (A) (A) (A) (A) (A) (A) (A) (A) (A) (A) (A) (A)
                 (A) (A) (A) (A) (A) (A) (A) (A) (A) (A) (A) (A)
                 (A) (A) (A) (A) (A) (A) (A) (A) (A) (A) (A) (A)
                 (A) (A) (A) (A) (A) (A) (A) (A) (A) (A) (A) (A)
                 (A) (A) (A) (A) (A) (A) (A) (A) (A) (A) (A) (A)
                 (A) (A) (A) (A) (A) (A) (A) (A) (A) (A) (A) (A)
                 (A) (A) (A) (A) (A) (A) (A) (A) (A) (A) (A) (A)
                 (A) (A) (A) (A) (A) (A) (A) (A) (A) (A) (A) (A)
                 (A) (A) (A) (A) (A) (A) (A) (A) (A) (A) (A) (A)
                 (A) (A) (A) (A) (A) (A) (A) (A) (A) (A) (A) (A)
                 (A) (A) (A) (A) (A) (A) (A) (A) (A) (A) (A) (A)
                 (A) (A) (A) (A) (A) (A) (A) (A) (A) (A) (A) (A)
                 (A) (A) (A) (A) (A) (A) (A) (A) (A) (A) (A) (A)
                 (A) (A) (A) (A) (A) (A)
 The electronic state is 1-A.
 Alpha  occ. eigenvalues --  -46.83324 -19.27224 -19.27143 -19.19987 -19.19253
 Alpha  occ. eigenvalues --  -19.18639 -14.41455 -14.40515 -14.40354 -14.38772
 Alpha  occ. eigenvalues --  -10.39511 -10.38515 -10.34025 -10.33606 -10.32702
 Alpha  occ. eigenvalues --  -10.32653 -10.31305 -10.31184 -10.30831 -10.29780
 Alpha  occ. eigenvalues --  -10.29301 -10.29225 -10.29112 -10.28829 -10.28638
 Alpha  occ. eigenvalues --  -10.28560 -10.28482 -10.28437 -10.28369 -10.28259
 Alpha  occ. eigenvalues --  -10.28122 -10.28086 -10.27916 -10.27911 -10.27903
 Alpha  occ. eigenvalues --  -10.27774 -10.27731 -10.27702 -10.27643 -10.27580
 Alpha  occ. eigenvalues --  -10.27495 -10.27433 -10.26869 -10.26777 -10.26677
 Alpha  occ. eigenvalues --  -10.26402 -10.26310 -10.26206 -10.26014 -10.25978
 Alpha  occ. eigenvalues --  -10.25955 -10.25879 -10.25872 -10.25818 -10.25789
 Alpha  occ. eigenvalues --  -10.25785 -10.25692 -10.25613 -10.25523 -10.25257
 Alpha  occ. eigenvalues --  -10.24362 -10.23849 -10.23827 -10.23800 -10.23086
 Alpha  occ. eigenvalues --   -3.12665  -1.87340  -1.86921  -1.86863  -1.18582
 Alpha  occ. eigenvalues --   -1.18207  -1.10631  -1.06316  -1.05835  -1.04125
 Alpha  occ. eigenvalues --   -1.03341  -1.02558  -1.00968  -0.91899  -0.91813
 Alpha  occ. eigenvalues --   -0.91128  -0.90395  -0.90109  -0.89946  -0.89456
 Alpha  occ. eigenvalues --   -0.87981  -0.87937  -0.86947  -0.86674  -0.85806
 Alpha  occ. eigenvalues --   -0.84919  -0.84228  -0.83933  -0.83240  -0.82302
 Alpha  occ. eigenvalues --   -0.81594  -0.81400  -0.80712  -0.79625  -0.78537
 Alpha  occ. eigenvalues --   -0.77757  -0.76604  -0.76120  -0.75486  -0.75407
 Alpha  occ. eigenvalues --   -0.75226  -0.74391  -0.73562  -0.73122  -0.72117
 Alpha  occ. eigenvalues --   -0.71560  -0.70400  -0.69669  -0.69357  -0.68293
 Alpha  occ. eigenvalues --   -0.67344  -0.66775  -0.65135  -0.64770  -0.64382
 Alpha  occ. eigenvalues --   -0.63892  -0.63809  -0.63373  -0.62182  -0.62118
 Alpha  occ. eigenvalues --   -0.61798  -0.60612  -0.60289  -0.59655  -0.59179
 Alpha  occ. eigenvalues --   -0.58488  -0.57652  -0.57332  -0.56314  -0.55972
 Alpha  occ. eigenvalues --   -0.55936  -0.55399  -0.54813  -0.54555  -0.54433
 Alpha  occ. eigenvalues --   -0.54411  -0.53926  -0.53624  -0.53420  -0.52807
 Alpha  occ. eigenvalues --   -0.52621  -0.52521  -0.52109  -0.51579  -0.51480
 Alpha  occ. eigenvalues --   -0.51359  -0.50903  -0.50712  -0.50472  -0.50351
 Alpha  occ. eigenvalues --   -0.50343  -0.49784  -0.49714  -0.49573  -0.49496
 Alpha  occ. eigenvalues --   -0.49006  -0.48836  -0.48780  -0.48682  -0.48264
 Alpha  occ. eigenvalues --   -0.48015  -0.47670  -0.47494  -0.47255  -0.47022
 Alpha  occ. eigenvalues --   -0.46805  -0.46383  -0.46375  -0.46185  -0.46061
 Alpha  occ. eigenvalues --   -0.45898  -0.45816  -0.45507  -0.45442  -0.45331
 Alpha  occ. eigenvalues --   -0.44894  -0.44787  -0.44503  -0.44115  -0.43819
 Alpha  occ. eigenvalues --   -0.43790  -0.43375  -0.43230  -0.42892  -0.42780
 Alpha  occ. eigenvalues --   -0.42524  -0.42400  -0.42258  -0.42039  -0.41871
 Alpha  occ. eigenvalues --   -0.41840  -0.41573  -0.41437  -0.41096  -0.40803
 Alpha  occ. eigenvalues --   -0.40710  -0.40522  -0.40472  -0.40318  -0.40217
 Alpha  occ. eigenvalues --   -0.39954  -0.39896  -0.39436  -0.39236  -0.38897
 Alpha  occ. eigenvalues --   -0.38782  -0.38512  -0.38228  -0.38126  -0.37899
 Alpha  occ. eigenvalues --   -0.37634  -0.37447  -0.37433  -0.36985  -0.36500
 Alpha  occ. eigenvalues --   -0.36421  -0.36179  -0.35891  -0.35537  -0.35158
 Alpha  occ. eigenvalues --   -0.34772  -0.34550  -0.33906  -0.32925  -0.32763
 Alpha  occ. eigenvalues --   -0.32299  -0.31966  -0.31922  -0.30447  -0.29099
 Alpha  occ. eigenvalues --   -0.28929  -0.28850  -0.28401  -0.27563  -0.23702
 Alpha  occ. eigenvalues --   -0.21223
 Alpha virt. eigenvalues --   -0.06571  -0.02378   0.01577   0.03537   0.03879
 Alpha virt. eigenvalues --    0.05226   0.05272   0.05538   0.06831   0.07713
 Alpha virt. eigenvalues --    0.08184   0.10223   0.10466   0.10874   0.11429
 Alpha virt. eigenvalues --    0.11859   0.12029   0.12126   0.12145   0.12225
 Alpha virt. eigenvalues --    0.12717   0.13179   0.13580   0.13698   0.14100
 Alpha virt. eigenvalues --    0.14254   0.14634   0.14761   0.14976   0.15300
 Alpha virt. eigenvalues --    0.15420   0.15605   0.15906   0.16188   0.16258
 Alpha virt. eigenvalues --    0.16386   0.16521   0.16736   0.17004   0.17019
 Alpha virt. eigenvalues --    0.17053   0.17134   0.17325   0.17548   0.17634
 Alpha virt. eigenvalues --    0.17753   0.18024   0.18125   0.18343   0.18592
 Alpha virt. eigenvalues --    0.18824   0.19016   0.19403   0.19584   0.19708
 Alpha virt. eigenvalues --    0.19822   0.20089   0.20316   0.20471   0.20521
 Alpha virt. eigenvalues --    0.20625   0.20849   0.21011   0.21065   0.21479
 Alpha virt. eigenvalues --    0.21627   0.21702   0.21795   0.22004   0.22116
 Alpha virt. eigenvalues --    0.22328   0.22393   0.22485   0.22729   0.22975
 Alpha virt. eigenvalues --    0.23145   0.23306   0.23452   0.23725   0.23784
 Alpha virt. eigenvalues --    0.24031   0.24267   0.24580   0.24764   0.25089
 Alpha virt. eigenvalues --    0.25182   0.25412   0.25471   0.25783   0.25978
 Alpha virt. eigenvalues --    0.26319   0.26453   0.26511   0.26680   0.26913
 Alpha virt. eigenvalues --    0.27026   0.27401   0.27770   0.27924   0.28245
 Alpha virt. eigenvalues --    0.28292   0.28440   0.28587   0.28815   0.29013
 Alpha virt. eigenvalues --    0.29227   0.29540   0.29843   0.30241   0.30380
 Alpha virt. eigenvalues --    0.30588   0.30647   0.30859   0.30949   0.31159
 Alpha virt. eigenvalues --    0.31588   0.31849   0.32476   0.32848   0.33004
 Alpha virt. eigenvalues --    0.33321   0.33374   0.33571   0.34085   0.34400
 Alpha virt. eigenvalues --    0.34725   0.34843   0.35192   0.36100   0.36664
 Alpha virt. eigenvalues --    0.36855   0.37286   0.37414   0.37785   0.38224
 Alpha virt. eigenvalues --    0.38698   0.39635   0.40394   0.40632   0.40876
 Alpha virt. eigenvalues --    0.41186   0.42280   0.42705   0.42903   0.43053
 Alpha virt. eigenvalues --    0.43534   0.43789   0.44617   0.44919   0.45512
 Alpha virt. eigenvalues --    0.46446   0.47157   0.47595   0.48502   0.48834
 Alpha virt. eigenvalues --    0.49214   0.49817   0.50687   0.50914   0.51405
 Alpha virt. eigenvalues --    0.52381   0.52512   0.53270   0.53335   0.54097
 Alpha virt. eigenvalues --    0.54470   0.55247   0.55672   0.55768   0.56034
 Alpha virt. eigenvalues --    0.56115   0.56340   0.56429   0.56716   0.56846
 Alpha virt. eigenvalues --    0.57354   0.57556   0.57912   0.57979   0.58172
 Alpha virt. eigenvalues --    0.58571   0.58848   0.59103   0.59162   0.59296
 Alpha virt. eigenvalues --    0.59558   0.59723   0.60088   0.60117   0.60439
 Alpha virt. eigenvalues --    0.60511   0.60884   0.61038   0.61164   0.61465
 Alpha virt. eigenvalues --    0.61747   0.62231   0.62270   0.62594   0.62772
 Alpha virt. eigenvalues --    0.63056   0.63527   0.63689   0.63735   0.64026
 Alpha virt. eigenvalues --    0.64521   0.64701   0.64781   0.65030   0.65232
 Alpha virt. eigenvalues --    0.65467   0.65668   0.66134   0.66155   0.66627
 Alpha virt. eigenvalues --    0.66772   0.66872   0.67051   0.67158   0.67374
 Alpha virt. eigenvalues --    0.67902   0.68230   0.68299   0.68575   0.68915
 Alpha virt. eigenvalues --    0.69096   0.69214   0.69712   0.69928   0.70208
 Alpha virt. eigenvalues --    0.70396   0.70712   0.70814   0.71764   0.71965
 Alpha virt. eigenvalues --    0.72115   0.72392   0.72633   0.72904   0.73003
 Alpha virt. eigenvalues --    0.73020   0.73268   0.73624   0.73683   0.74214
 Alpha virt. eigenvalues --    0.74578   0.74857   0.75131   0.75365   0.75678
 Alpha virt. eigenvalues --    0.76006   0.76165   0.76352   0.76647   0.76908
 Alpha virt. eigenvalues --    0.77023   0.77206   0.77309   0.77720   0.77914
 Alpha virt. eigenvalues --    0.77954   0.78307   0.78365   0.78487   0.78838
 Alpha virt. eigenvalues --    0.78967   0.79109   0.79688   0.79765   0.79936
 Alpha virt. eigenvalues --    0.80047   0.80445   0.80558   0.80720   0.81367
 Alpha virt. eigenvalues --    0.81491   0.81998   0.82330   0.82608   0.82864
 Alpha virt. eigenvalues --    0.82963   0.83098   0.83555   0.83645   0.83893
 Alpha virt. eigenvalues --    0.84103   0.84234   0.84540   0.84677   0.84805
 Alpha virt. eigenvalues --    0.84978   0.85098   0.85481   0.85719   0.86074
 Alpha virt. eigenvalues --    0.86326   0.86536   0.86914   0.86953   0.86974
 Alpha virt. eigenvalues --    0.87020   0.87259   0.87599   0.87848   0.88149
 Alpha virt. eigenvalues --    0.88342   0.88567   0.89024   0.89279   0.89410
 Alpha virt. eigenvalues --    0.89495   0.89778   0.89832   0.90082   0.90446
 Alpha virt. eigenvalues --    0.90505   0.90776   0.90804   0.91081   0.91386
 Alpha virt. eigenvalues --    0.91397   0.91471   0.91915   0.92030   0.92202
 Alpha virt. eigenvalues --    0.92356   0.92581   0.92728   0.92976   0.93420
 Alpha virt. eigenvalues --    0.93524   0.93671   0.93755   0.94058   0.94226
 Alpha virt. eigenvalues --    0.94288   0.94479   0.94818   0.94836   0.95240
 Alpha virt. eigenvalues --    0.95398   0.95604   0.95859   0.95953   0.96045
 Alpha virt. eigenvalues --    0.96343   0.96433   0.96986   0.97007   0.97490
 Alpha virt. eigenvalues --    0.97776   0.98215   0.98276   0.98562   0.98601
 Alpha virt. eigenvalues --    0.98786   0.98918   0.99223   0.99733   0.99866
 Alpha virt. eigenvalues --    0.99947   1.00293   1.00344   1.00655   1.00948
 Alpha virt. eigenvalues --    1.01275   1.01532   1.01661   1.01890   1.02191
 Alpha virt. eigenvalues --    1.02307   1.02551   1.02673   1.02828   1.02979
 Alpha virt. eigenvalues --    1.03307   1.03598   1.03861   1.04008   1.04101
 Alpha virt. eigenvalues --    1.04395   1.04694   1.04899   1.05060   1.05601
 Alpha virt. eigenvalues --    1.05801   1.05921   1.06451   1.06590   1.06739
 Alpha virt. eigenvalues --    1.06933   1.07307   1.08335   1.08917   1.09102
 Alpha virt. eigenvalues --    1.09431   1.09777   1.10038   1.10265   1.10583
 Alpha virt. eigenvalues --    1.11195   1.11813   1.11973   1.12096   1.12567
 Alpha virt. eigenvalues --    1.13155   1.13391   1.13792   1.14231   1.14399
 Alpha virt. eigenvalues --    1.14887   1.15742   1.16123   1.16291   1.16892
 Alpha virt. eigenvalues --    1.17245   1.17613   1.17798   1.18585   1.19531
 Alpha virt. eigenvalues --    1.19799   1.20814   1.21401   1.21814   1.22158
 Alpha virt. eigenvalues --    1.22516   1.23740   1.24640   1.24823   1.25167
 Alpha virt. eigenvalues --    1.25716   1.26692   1.26829   1.27336   1.27980
 Alpha virt. eigenvalues --    1.28422   1.29144   1.29353   1.29485   1.29813
 Alpha virt. eigenvalues --    1.30101   1.30715   1.30846   1.31193   1.32250
 Alpha virt. eigenvalues --    1.32421   1.33797   1.34115   1.34448   1.34735
 Alpha virt. eigenvalues --    1.35030   1.35602   1.35816   1.36561   1.36708
 Alpha virt. eigenvalues --    1.37214   1.37867   1.38115   1.38406   1.39402
 Alpha virt. eigenvalues --    1.39871   1.40573   1.40873   1.41434   1.42083
 Alpha virt. eigenvalues --    1.42295   1.43180   1.43555   1.43768   1.44150
 Alpha virt. eigenvalues --    1.45160   1.45437   1.45682   1.46597   1.46768
 Alpha virt. eigenvalues --    1.48076   1.48225   1.49644   1.49681   1.49857
 Alpha virt. eigenvalues --    1.50654   1.51024   1.51544   1.52130   1.52603
 Alpha virt. eigenvalues --    1.52983   1.53776   1.54210   1.54360   1.54550
 Alpha virt. eigenvalues --    1.54967   1.55396   1.55934   1.56261   1.56548
 Alpha virt. eigenvalues --    1.56823   1.57265   1.57559   1.57888   1.58061
 Alpha virt. eigenvalues --    1.58522   1.59040   1.59368   1.59636   1.60487
 Alpha virt. eigenvalues --    1.60867   1.61278   1.61802   1.62245   1.62413
 Alpha virt. eigenvalues --    1.63202   1.63337   1.63759   1.63927   1.65147
 Alpha virt. eigenvalues --    1.65170   1.65907   1.66121   1.66345   1.66717
 Alpha virt. eigenvalues --    1.67544   1.67851   1.68537   1.68642   1.69006
 Alpha virt. eigenvalues --    1.69292   1.69963   1.70511   1.70947   1.71026
 Alpha virt. eigenvalues --    1.71768   1.72111   1.72415   1.72676   1.73317
 Alpha virt. eigenvalues --    1.73531   1.73956   1.74695   1.75104   1.75509
 Alpha virt. eigenvalues --    1.76464   1.76627   1.76814   1.77002   1.77229
 Alpha virt. eigenvalues --    1.78340   1.78753   1.79298   1.79365   1.79676
 Alpha virt. eigenvalues --    1.80160   1.80851   1.80975   1.81220   1.81350
 Alpha virt. eigenvalues --    1.81682   1.82320   1.82649   1.82969   1.83096
 Alpha virt. eigenvalues --    1.83315   1.83727   1.83844   1.84243   1.84497
 Alpha virt. eigenvalues --    1.84585   1.84851   1.85100   1.85205   1.85718
 Alpha virt. eigenvalues --    1.85804   1.86411   1.86616   1.86772   1.86950
 Alpha virt. eigenvalues --    1.87432   1.87891   1.88026   1.88555   1.88847
 Alpha virt. eigenvalues --    1.89040   1.89367   1.89409   1.89800   1.90306
 Alpha virt. eigenvalues --    1.90530   1.90742   1.91076   1.91254   1.91475
 Alpha virt. eigenvalues --    1.91879   1.92129   1.92424   1.92500   1.92859
 Alpha virt. eigenvalues --    1.93101   1.93188   1.93332   1.93418   1.93667
 Alpha virt. eigenvalues --    1.94053   1.94341   1.94677   1.95076   1.95269
 Alpha virt. eigenvalues --    1.95535   1.96031   1.96259   1.96586   1.96626
 Alpha virt. eigenvalues --    1.96711   1.96839   1.97320   1.97647   1.98009
 Alpha virt. eigenvalues --    1.98327   1.98723   1.99004   1.99024   1.99565
 Alpha virt. eigenvalues --    2.00039   2.00405   2.00695   2.00958   2.01153
 Alpha virt. eigenvalues --    2.01417   2.01689   2.01994   2.02161   2.02553
 Alpha virt. eigenvalues --    2.02901   2.02930   2.03117   2.03344   2.03905
 Alpha virt. eigenvalues --    2.04122   2.04232   2.04554   2.05154   2.05342
 Alpha virt. eigenvalues --    2.05673   2.06163   2.06498   2.06751   2.07004
 Alpha virt. eigenvalues --    2.07090   2.07579   2.07790   2.08238   2.08732
 Alpha virt. eigenvalues --    2.08858   2.09043   2.09441   2.09621   2.09635
 Alpha virt. eigenvalues --    2.10019   2.10251   2.10446   2.10673   2.11182
 Alpha virt. eigenvalues --    2.11190   2.11524   2.11723   2.11881   2.12124
 Alpha virt. eigenvalues --    2.12483   2.12669   2.13338   2.14091   2.14272
 Alpha virt. eigenvalues --    2.14678   2.15056   2.15182   2.15525   2.15726
 Alpha virt. eigenvalues --    2.15972   2.16073   2.16754   2.16801   2.17305
 Alpha virt. eigenvalues --    2.17503   2.17737   2.18009   2.18363   2.18849
 Alpha virt. eigenvalues --    2.19224   2.19397   2.19674   2.19862   2.20299
 Alpha virt. eigenvalues --    2.20595   2.20667   2.21141   2.21285   2.21580
 Alpha virt. eigenvalues --    2.21819   2.21901   2.22481   2.22907   2.23298
 Alpha virt. eigenvalues --    2.23707   2.23947   2.24182   2.24529   2.24804
 Alpha virt. eigenvalues --    2.25425   2.26052   2.26128   2.26185   2.27218
 Alpha virt. eigenvalues --    2.27545   2.27732   2.28031   2.28639   2.28892
 Alpha virt. eigenvalues --    2.29027   2.29489   2.30023   2.30357   2.30531
 Alpha virt. eigenvalues --    2.30693   2.31300   2.31703   2.32137   2.32670
 Alpha virt. eigenvalues --    2.32679   2.32996   2.33404   2.33464   2.33909
 Alpha virt. eigenvalues --    2.33976   2.34709   2.35061   2.35227   2.35515
 Alpha virt. eigenvalues --    2.35699   2.36356   2.36598   2.36828   2.37610
 Alpha virt. eigenvalues --    2.37830   2.38027   2.38561   2.38840   2.39164
 Alpha virt. eigenvalues --    2.39257   2.39450   2.39641   2.39747   2.40097
 Alpha virt. eigenvalues --    2.40444   2.40649   2.41342   2.41455   2.41707
 Alpha virt. eigenvalues --    2.42099   2.42149   2.42731   2.43164   2.43192
 Alpha virt. eigenvalues --    2.43456   2.43677   2.44114   2.44205   2.44677
 Alpha virt. eigenvalues --    2.45147   2.45928   2.46067   2.46532   2.46778
 Alpha virt. eigenvalues --    2.47205   2.47536   2.47746   2.47821   2.48008
 Alpha virt. eigenvalues --    2.48222   2.48291   2.49186   2.49439   2.49564
 Alpha virt. eigenvalues --    2.49640   2.49728   2.49922   2.50162   2.50456
 Alpha virt. eigenvalues --    2.50894   2.51583   2.51770   2.52240   2.52393
 Alpha virt. eigenvalues --    2.52687   2.53086   2.53713   2.53885   2.54274
 Alpha virt. eigenvalues --    2.54844   2.54965   2.55258   2.55716   2.56077
 Alpha virt. eigenvalues --    2.56204   2.56699   2.57441   2.57922   2.58071
 Alpha virt. eigenvalues --    2.58213   2.58693   2.58954   2.59563   2.59805
 Alpha virt. eigenvalues --    2.60994   2.61130   2.61360   2.61680   2.61856
 Alpha virt. eigenvalues --    2.62286   2.62674   2.62892   2.63284   2.63556
 Alpha virt. eigenvalues --    2.63748   2.64549   2.64779   2.65513   2.65970
 Alpha virt. eigenvalues --    2.66073   2.66307   2.66528   2.66648   2.67371
 Alpha virt. eigenvalues --    2.67675   2.67821   2.68036   2.68156   2.68429
 Alpha virt. eigenvalues --    2.68619   2.69030   2.69487   2.69716   2.70055
 Alpha virt. eigenvalues --    2.70451   2.71059   2.71531   2.71885   2.72294
 Alpha virt. eigenvalues --    2.72537   2.72647   2.72937   2.73278   2.73308
 Alpha virt. eigenvalues --    2.73996   2.74324   2.74435   2.74673   2.74716
 Alpha virt. eigenvalues --    2.75255   2.75363   2.75681   2.75787   2.76198
 Alpha virt. eigenvalues --    2.76241   2.76442   2.77144   2.77154   2.77458
 Alpha virt. eigenvalues --    2.77610   2.77749   2.77933   2.78484   2.78983
 Alpha virt. eigenvalues --    2.79746   2.80044   2.80704   2.81677   2.81831
 Alpha virt. eigenvalues --    2.82114   2.82367   2.82468   2.82680   2.83073
 Alpha virt. eigenvalues --    2.83417   2.83604   2.84015   2.84087   2.84201
 Alpha virt. eigenvalues --    2.85180   2.86020   2.86238   2.86385   2.86705
 Alpha virt. eigenvalues --    2.86946   2.87297   2.87734   2.88078   2.88272
 Alpha virt. eigenvalues --    2.88536   2.89132   2.89629   2.89880   2.90145
 Alpha virt. eigenvalues --    2.90209   2.90641   2.90762   2.91993   2.92588
 Alpha virt. eigenvalues --    2.92898   2.93215   2.93777   2.94213   2.94605
 Alpha virt. eigenvalues --    2.95181   2.95413   2.96063   2.96218   2.96671
 Alpha virt. eigenvalues --    2.96759   2.97265   2.97488   2.98011   2.98591
 Alpha virt. eigenvalues --    2.98889   2.99696   2.99973   3.00216   3.00449
 Alpha virt. eigenvalues --    3.00934   3.01076   3.01796   3.01942   3.02739
 Alpha virt. eigenvalues --    3.02883   3.02943   3.03388   3.03707   3.04366
 Alpha virt. eigenvalues --    3.04745   3.04887   3.05711   3.06163   3.06218
 Alpha virt. eigenvalues --    3.06675   3.07433   3.08349   3.08662   3.09270
 Alpha virt. eigenvalues --    3.09738   3.10214   3.10906   3.11111   3.11190
 Alpha virt. eigenvalues --    3.11823   3.12383   3.13496   3.14048   3.14437
 Alpha virt. eigenvalues --    3.15534   3.16159   3.16780   3.17149   3.19540
 Alpha virt. eigenvalues --    3.19974   3.20199   3.20618   3.21618   3.23564
 Alpha virt. eigenvalues --    3.25029   3.25509   3.25858   3.26785   3.27068
 Alpha virt. eigenvalues --    3.27153   3.28041   3.29254   3.31105   3.31207
 Alpha virt. eigenvalues --    3.32538   3.32664   3.32961   3.33637   3.34373
 Alpha virt. eigenvalues --    3.34954   3.35240   3.36167   3.36195   3.36585
 Alpha virt. eigenvalues --    3.36848   3.37987   3.39950   3.40275   3.40390
 Alpha virt. eigenvalues --    3.40491   3.40898   3.41774   3.41804   3.43000
 Alpha virt. eigenvalues --    3.43402   3.43413   3.44122   3.45750   3.47531
 Alpha virt. eigenvalues --    3.47787   3.48636   3.49183   3.49516   3.49888
 Alpha virt. eigenvalues --    3.51108   3.51978   3.52193   3.54170   3.55092
 Alpha virt. eigenvalues --    3.55748   3.55804   3.56565   3.56667   3.57186
 Alpha virt. eigenvalues --    3.57964   3.58939   3.60331   3.60765   3.61332
 Alpha virt. eigenvalues --    3.62014   3.62630   3.63347   3.63818   3.67133
 Alpha virt. eigenvalues --    3.67386   3.69791   3.70852   3.71596   3.75785
 Alpha virt. eigenvalues --    3.76610   3.76816   3.79319   3.87771   4.07383
 Alpha virt. eigenvalues --    4.10705   4.16069   4.19614   4.19802   4.21081
 Alpha virt. eigenvalues --    4.22622   4.23944   4.25680   4.26537   4.27165
 Alpha virt. eigenvalues --    4.28918   4.29632   4.30392   4.31626   4.32042
 Alpha virt. eigenvalues --    4.34641   4.35210   4.37226   4.38050   4.39873
 Alpha virt. eigenvalues --    4.40204   4.41384   4.42482   4.43001   4.45075
 Alpha virt. eigenvalues --    4.45905   4.47680   4.49477   4.49702   4.51133
 Alpha virt. eigenvalues --    4.51733   4.52642   4.52737   4.53231   4.53808
 Alpha virt. eigenvalues --    4.55957   4.56442   4.58204   4.59924   4.60549
 Alpha virt. eigenvalues --    4.61270   4.62138   4.63295   4.65331   4.67734
 Alpha virt. eigenvalues --    4.68094   4.68803   4.70589   4.71385   4.72951
 Alpha virt. eigenvalues --    4.73074   4.75936   4.76667   4.78266   4.79596
 Alpha virt. eigenvalues --    4.81041   4.84651   4.85724   4.86810   4.89043
 Alpha virt. eigenvalues --    4.90020   4.94228   5.02794
          Condensed to atoms (all electrons):
 Mulliken charges:
               1
     1  Mg   0.830445
     2  C    0.060024
     3  C   -0.174403
     4  C   -0.156012
     5  C   -0.162411
     6  N   -0.608559
     7  C    0.325421
     8  C   -0.162440
     9  C   -0.141609
    10  C    0.283034
    11  C   -0.313184
    12  C   -0.156330
    13  C   -0.263588
    14  C    0.610883
    15  O   -0.520054
    16  O   -0.446334
    17  N   -0.708789
    18  C    0.337135
    19  C    0.085459
    20  C   -0.010307
    21  C    0.295346
    22  C   -0.411139
    23  C   -0.093202
    24  C   -0.244422
    25  N   -0.709217
    26  C    0.325617
    27  C   -0.025635
    28  C    0.024508
    29  C    0.304897
    30  C   -0.361670
    31  C   -0.255454
    32  C   -0.310748
    33  N   -0.737688
    34  C    0.252945
    35  C    0.025728
    36  C   -0.002250
    37  C    0.270435
    38  C   -0.362361
    39  C    0.372915
    40  O   -0.462320
    41  C   -0.313302
    42  C    0.625884
    43  O   -0.520037
    44  O   -0.410254
    45  C   -0.085575
    46  C    0.011534
    47  C   -0.122495
    48  C    0.150913
    49  C   -0.348180
    50  C   -0.267462
    51  C   -0.173733
    52  C   -0.187240
    53  C   -0.059850
    54  C   -0.298623
    55  C   -0.152568
    56  C   -0.189496
    57  C   -0.149919
    58  C   -0.092475
    59  C   -0.277626
    60  C   -0.162248
    61  C   -0.165759
    62  C   -0.172616
    63  C   -0.046320
    64  C   -0.316858
    65  C   -0.305216
    66  H    0.069563
    67  H    0.104144
    68  H    0.110557
    69  H    0.130945
    70  H    0.104502
    71  H    0.114043
    72  H    0.103548
    73  H    0.145657
    74  H    0.126843
    75  H    0.122876
    76  H    0.139832
    77  H    0.102451
    78  H    0.135785
    79  H    0.122033
    80  H    0.120186
    81  H    0.110261
    82  H    0.110620
    83  H    0.096489
    84  H    0.116976
    85  H    0.126279
    86  H    0.121777
    87  H    0.079280
    88  H    0.111935
    89  H    0.092213
    90  H    0.120257
    91  H    0.115611
    92  H    0.113019
    93  H    0.148950
    94  H    0.080061
    95  H    0.125091
    96  H    0.117303
    97  H    0.116622
    98  H    0.133521
    99  H    0.132369
   100  H    0.101023
   101  H    0.092511
   102  H    0.118149
   103  H    0.108306
   104  H    0.098912
   105  H    0.110371
   106  H    0.085412
   107  H    0.092259
   108  H    0.102925
   109  H    0.057542
   110  H    0.096783
   111  H    0.092070
   112  H    0.116407
   113  H    0.117897
   114  H    0.075117
   115  H    0.098465
   116  H    0.099843
   117  H    0.099759
   118  H    0.056569
   119  H    0.092224
   120  H    0.025487
   121  H    0.079192
   122  H    0.114564
   123  H    0.111100
   124  H    0.071117
   125  H    0.078062
   126  H    0.072390
   127  H    0.103898
   128  H    0.097234
   129  H    0.093849
   130  H    0.079637
   131  H    0.104333
   132  H    0.117475
   133  H    0.096014
   134  H    0.095129
   135  H    0.085803
   136  H    0.070943
   137  H    0.094490
 Sum of Mulliken charges =   0.00000
 Mulliken charges with hydrogens summed into heavy atoms:
               1
     1  Mg   0.830445
     2  C    0.060024
     3  C   -0.104840
     4  C   -0.051868
     5  C   -0.051854
     6  N   -0.608559
     7  C    0.325421
     8  C   -0.031495
     9  C   -0.037107
    10  C    0.283034
    11  C    0.050063
    12  C    0.093389
    13  C   -0.021306
    14  C    0.610883
    15  O   -0.520054
    16  O   -0.446334
    17  N   -0.708789
    18  C    0.337135
    19  C    0.085459
    20  C   -0.010307
    21  C    0.295346
    22  C   -0.033136
    23  C    0.017059
    24  C   -0.037313
    25  N   -0.709217
    26  C    0.325617
    27  C   -0.025635
    28  C    0.024508
    29  C    0.304897
    30  C    0.003362
    31  C   -0.064240
    32  C    0.017332
    33  N   -0.737688
    34  C    0.252945
    35  C    0.025728
    36  C   -0.002250
    37  C    0.270435
    38  C   -0.020332
    39  C    0.372915
    40  O   -0.462320
    41  C   -0.188211
    42  C    0.625884
    43  O   -0.520037
    44  O   -0.410254
    45  C    0.281870
    46  C    0.244926
    47  C   -0.029984
    48  C    0.150913
    49  C   -0.022813
    50  C   -0.071678
    51  C    0.021451
    52  C   -0.032916
    53  C    0.032220
    54  C    0.010798
    55  C    0.045740
    56  C   -0.033168
    57  C   -0.032208
    58  C   -0.013283
    59  C    0.019155
    60  C   -0.011796
    61  C    0.035372
    62  C    0.000870
    63  C    0.058013
    64  C   -0.008241
    65  C   -0.053980
 Electronic spatial extent (au):  <R**2>=         179728.9229
 Charge=              0.0000 electrons
 Dipole moment (field-independent basis, Debye):
    X=              0.7429    Y=              8.3740    Z=             -0.1562  Tot=              8.4083
 Quadrupole moment (field-independent basis, Debye-Ang):
   XX=           -339.6116   YY=           -391.3089   ZZ=           -400.9716
   XY=            -42.5786   XZ=              2.5571   YZ=              0.9580
 Traceless Quadrupole moment (field-independent basis, Debye-Ang):
   XX=             37.6857   YY=            -14.0115   ZZ=            -23.6742
   XY=            -42.5786   XZ=              2.5571   YZ=              0.9580
 Octapole moment (field-independent basis, Debye-Ang**2):
  XXX=          -1023.4349  YYY=            244.4024  ZZZ=             19.9831  XYY=            -83.2498
  XXY=            251.9441  XXZ=           -342.8512  XZZ=             24.3019  YZZ=            -27.9541
  YYZ=             37.6833  XYZ=            -78.1822
 Hexadecapole moment (field-independent basis, Debye-Ang**3):
 XXXX=        -224659.8691 YYYY=         -16936.8601 ZZZZ=          -4365.6628 XXXY=          -2532.4601
 XXXZ=          -2112.7135 YYYX=          -1800.1862 YYYZ=           -201.7906 ZZZX=            -11.4875
 ZZZY=            -86.3134 XXYY=         -40086.8325 XXZZ=         -39171.3849 YYZZ=          -3591.6976
 XXYZ=            133.8690 YYXZ=            -48.9248 ZZXY=             48.8623
 N-N= 8.736900511357D+03 E-N=-2.429524129505D+04  KE= 2.903751513037D+03
 1\1\GINC-PEDRO-RYZENSSD\SP\RCAM-B3LYP TD-FC\6-31G(d,p)\C55H72Mg1N4O5\P
 ADAWAN\27-Jun-2019\0\\# td=(NStates=1) CAM-B3LYP/6-31G(d,p)\\TD\\0,1\M
 g,0,-7.14940661,0.5369519359,0.0677848271\C,0,-4.798868768,-1.92080419
 17,0.4378694218\C,0,-4.8126905754,2.9509094182,1.2051539726\C,0,-9.500
 6146503,3.0937417736,-0.2329246255\C,0,-9.4895099786,-1.7685970347,-0.
 8849966147\N,0,-5.114974279,0.4189231528,0.8613436548\C,0,-4.356533258
 6,-0.6827688973,0.897311634\C,0,-2.9327442356,-0.3017654486,1.28163360
 46\C,0,-2.9630965989,1.0875298855,1.7496477712\C,0,-4.3602741141,1.568
 4572261,1.1991761788\C,0,-3.0372915202,1.203076795,3.3120947356\C,0,-2
 .0175460355,-0.5891729274,0.0446637922\C,0,-0.4978780418,-0.2212603574
 ,0.4358221651\C,0,0.569596338,-0.5110645386,-0.5744390957\O,0,0.246175
 1672,-0.8004014439,-1.7883381141\O,0,1.829619987,-0.4544903558,-0.1580
 900291\N,0,-7.1163292414,2.5279041977,0.3950046573\C,0,-6.1364507761,3
 .3106620201,0.8105790419\C,0,-6.5360215919,4.7815087813,0.8644242069\C
 ,0,-7.7933399294,4.7767775645,0.3557124782\C,0,-8.2527058238,3.4079710
 884,0.1665769969\C,0,-5.6487806593,5.8126023515,1.3227287981\C,0,-8.76
 7625975,5.9202070887,0.3998800099\C,0,-8.3889180896,7.2170977941,0.114
 9872364\N,0,-9.1387289086,0.6582723055,-0.4668383891\C,0,-9.8357052295
 ,1.7958502676,-0.531848309\C,0,-11.2573904819,1.4627572661,-1.13052780
 24\C,0,-11.1968982105,0.0250363809,-1.3814174079\C,0,-9.8386337471,-0.
 5175502431,-0.9607853814\C,0,-12.4452327654,2.4465469356,-1.3479753284
 \C,0,-12.3222822739,-0.8133323954,-1.7994451217\C,0,-12.2234086729,-1.
 1932832135,-3.2986579712\N,0,-7.2199982519,-1.3561249741,-0.0290460233
 \C,0,-8.217326955,-2.2504709866,-0.4979576017\C,0,-7.7844161091,-3.550
 0891918,-0.5932077498\C,0,-6.4008056026,-3.5724115567,-0.1548479769\C,
 0,-6.1802628045,-2.2086870232,0.0917707985\C,0,-8.5627366184,-4.795462
 3651,-0.8475743044\C,0,-5.2554020779,-4.3334593312,0.2823367336\O,0,-4
 .9620375656,-5.4953321868,0.2361796528\C,0,-4.1733707471,-3.2665595901
 ,0.5584367357\C,0,-3.5310374679,-3.6657726619,1.8588070604\O,0,-3.8893
 925939,-3.2472779606,2.9879825136\O,0,-2.6171430622,-4.5879169442,1.67
 24153295\C,0,-1.926935332,-5.0981102803,2.8421255496\C,0,2.797503527,-
 0.5314624039,-1.2196373386\C,0,4.1326865911,-0.3677506245,-0.582540782
 8\C,0,5.1388674941,0.4314664711,-1.0514550457\C,0,4.9870661232,1.29511
 40477,-2.2843055217\C,0,6.4074272003,0.5379626032,-0.3699736836\C,0,7.
 6826960085,0.0014282609,-1.1149211608\C,0,8.973046387,-0.150504784,-0.
 2326358578\C,0,10.292490142,-0.5440915075,-1.0139777922\C,0,10.0849556
 818,-2.0834276777,-1.3522168832\C,0,11.381349252,-0.2593968303,-0.1497
 347748\C,0,12.826919861,-0.7063471506,-0.6317137112\C,0,13.9457502628,
 -0.2567224354,0.2126084738\C,0,15.3862039644,-0.3310657183,-0.45294834
 51\C,0,15.7529794001,-1.7212349093,-0.8167789577\C,0,16.4519284468,0.3
 370280889,0.5997491596\C,0,17.6783435387,0.5047786037,-0.0724355235\C,
 0,18.8226076603,1.197951642,0.8151238741\C,0,20.1636340432,1.273983142
 9,0.2158411877\C,0,20.3002702559,2.0068063286,-1.1792137428\C,0,21.144
 4423183,1.9449288623,1.3352402256\H,0,-4.2341836769,3.7516335451,1.307
 3652575\H,0,-10.2081445662,3.9760651904,-0.0857028729\H,0,-10.40019928
 17,-2.4387939341,-1.0890524527\H,0,-2.6786465554,-0.9251721809,2.15147
 23858\H,0,-2.2702866667,1.8148699756,1.1875031168\H,0,-2.0054842717,1.
 0259480838,3.6020404174\H,0,-3.2509498812,2.1980392605,3.7337279403\H,
 0,-3.7804890301,0.7432686946,3.808894774\H,0,-2.18713124,-1.6369096114
 ,-0.1182868147\H,0,-2.2507992821,-0.0290508138,-0.9503501366\H,0,-0.36
 71438084,0.8238303065,0.6459268446\H,0,-0.2426102147,-0.735006476,1.56
 26291388\H,0,-4.9907012378,6.1008952646,0.4692687091\H,0,-6.1864033106
 ,6.7867784766,1.4953642256\H,0,-4.9304962784,5.5492200934,2.2395576345
 \H,0,-9.8242099199,5.7659095271,0.5823460791\H,0,-9.0444850889,8.02359
 09486,0.0493055239\H,0,-7.3081958562,7.6478353527,-0.0206465353\H,0,-1
 2.0401094237,3.09704701,-2.2352198204\H,0,-13.2193971532,1.8224478829,
 -1.7346369874\H,0,-12.8786648279,3.1075838438,-0.5435958576\H,0,-12.35
 88384119,-1.8621786161,-1.1425444623\H,0,-13.3458605897,-0.4920130143,
 -1.3735147085\H,0,-13.2428647527,-1.6038616254,-3.7715601537\H,0,-11.8
 575059246,-0.3998187078,-3.927670342\H,0,-11.3979231399,-1.8843413781,
 -3.5388429998\H,0,-8.8411350094,-4.8024930976,-2.0017877602\H,0,-8.013
 4050415,-5.6684569539,-0.4066348916\H,0,-9.7597581416,-4.8203288199,-0
 .4049387501\H,0,-3.3110612381,-3.4136429488,-0.4435610091\H,0,-1.18959
 0049,-4.5226606434,3.5413608231\H,0,-2.6811733047,-5.449345577,3.78186
 54086\H,0,-1.3578672132,-5.8979239695,2.4176684697\H,0,2.2602907002,-1
 .5604557355,-1.7729413704\H,0,2.667618462,0.3778106995,-2.0082028401\H
 ,0,4.4503242567,-0.9614641526,0.3184042166\H,0,3.8993608724,1.64047514
 38,-2.3898623285\H,0,5.7634396424,2.139088299,-2.1354579004\H,0,5.3935
 046733,0.6204723774,-3.3064319425\H,0,6.7789509184,1.4327295007,0.0496
 124589\H,0,6.3506184098,-0.0019834472,0.6276837755\H,0,7.3661703591,-1
 .0956106328,-1.2344575745\H,0,7.7779893299,0.5649333698,-1.9723673836\
 H,0,9.0043465319,0.8984524617,0.306764639\H,0,8.7877665995,-0.84616297
 17,0.5874133599\H,0,10.3116728788,0.118266593,-1.8311669473\H,0,9.2620
 827047,-2.3341304573,-2.0176967309\H,0,10.996332718,-2.3114276554,-1.7
 849946855\H,0,9.6023777114,-2.5468563082,-0.2774798387\H,0,11.51725648
 78,0.7399984073,0.1209840618\H,0,11.3488652962,-0.7174140795,0.7839858
 716\H,0,13.0213478705,-1.7807449359,-0.8741157465\H,0,12.9802969357,-0
 .0628468057,-1.6136397278\H,0,13.7932208253,0.716634919,0.481224783\H,
 0,14.0244185322,-1.1008525226,1.2195571254\H,0,15.2247248646,0.3821880
 792,-1.2661762771\H,0,15.7144734483,-2.1491816441,0.035825985\H,0,15.1
 814256744,-2.0950677004,-1.6292606465\H,0,16.8066287215,-1.8085847871,
 -1.4297450833\H,0,15.8502802377,1.2873078035,0.8842618472\H,0,16.37835
 9538,-0.3848748832,1.5466575975\H,0,18.0894281347,-0.3754545093,-0.412
 2972373\H,0,17.5078508663,0.9571769762,-0.9837818621\H,0,18.4863773205
 ,2.1284447441,1.1861137123\H,0,18.8413504124,0.6752011314,1.8258389355
 \H,0,20.5899290596,0.3145178876,0.1755853089\H,0,19.8097178051,2.91940
 0925,-1.2745477243\H,0,21.4129374076,2.1655224301,-1.4541166657\H,0,19
 .7523760708,1.3858199843,-1.9605164749\H,0,21.1039004053,1.4797372775,
 2.4702264642\H,0,22.2263072712,1.7077793091,0.8185561218\H,0,21.102492
 7819,3.1141250887,1.424128344\\Version=ES64L-G09RevD.01\State=1-A\HF=-
 2932.5609395\RMSD=7.726e-09\PG=C01 [X(C55H72Mg1N4O5)]\\@


 IT IS THE GODS' CUSTOM TO BRING LOW ALL THINGS OF SURPASSING GREATNESS.
     -- HERODOTUS
 IT IS THE LOFTY PINE THAT BY THE STORM IS OFTENER TOSSED;
 TOWERS FALL WITH HEAVIER CRASH WHICH HIGHER SOAR.
     -- HORACE
 THE BIGGER THEY COME, THE HARDER THEY FALL.
     -- BOB FITZSIMONS HEAVYWEIGHT CHAMPION, 1897-1899
 Job cpu time:       0 days  6 hours 10 minutes 58.1 seconds.
 File lengths (MBytes):  RWF=   2106 Int=      0 D2E=      0 Chk=    163 Scr=      1
 Normal termination of Gaussian 09 at Thu Jun 27 02:17:55 2019.
