 Entering Gaussian System, Link 0=g16
 Input=Geometria-133-.com
 Output=Geometria-133-.log
 Initial command:
 /usr/local/g09/l1.exe "/home/padawan/israel-mol/chlorophyll-a/spectra/abs/Gau-34119.inp" -scrdir="/home/padawan/israel-mol/chlorophyll-a/spectra/abs/"
 Entering Link 1 = /usr/local/g09/l1.exe PID=     34121.
  
 Copyright (c) 1988,1990,1992,1993,1995,1998,2003,2009,2013,
            Gaussian, Inc.  All Rights Reserved.
  
 This is part of the Gaussian(R) 09 program.  It is based on
 the Gaussian(R) 03 system (copyright 2003, Gaussian, Inc.),
 the Gaussian(R) 98 system (copyright 1998, Gaussian, Inc.),
 the Gaussian(R) 94 system (copyright 1995, Gaussian, Inc.),
 the Gaussian 92(TM) system (copyright 1992, Gaussian, Inc.),
 the Gaussian 90(TM) system (copyright 1990, Gaussian, Inc.),
 the Gaussian 88(TM) system (copyright 1988, Gaussian, Inc.),
 the Gaussian 86(TM) system (copyright 1986, Carnegie Mellon
 University), and the Gaussian 82(TM) system (copyright 1983,
 Carnegie Mellon University). Gaussian is a federally registered
 trademark of Gaussian, Inc.
  
 This software contains proprietary and confidential information,
 including trade secrets, belonging to Gaussian, Inc.
  
 This software is provided under written license and may be
 used, copied, transmitted, or stored only in accord with that
 written license.
  
 The following legend is applicable only to US Government
 contracts under FAR:
  
                    RESTRICTED RIGHTS LEGEND
  
 Use, reproduction and disclosure by the US Government is
 subject to restrictions as set forth in subparagraphs (a)
 and (c) of the Commercial Computer Software - Restricted
 Rights clause in FAR 52.227-19.
  
 Gaussian, Inc.
 340 Quinnipiac St., Bldg. 40, Wallingford CT 06492
  
  
 ---------------------------------------------------------------
 Warning -- This program may not be used in any manner that
 competes with the business of Gaussian, Inc. or will provide
 assistance to any competitor of Gaussian, Inc.  The licensee
 of this program is prohibited from giving any competitor of
 Gaussian, Inc. access to this program.  By using this program,
 the user acknowledges that Gaussian, Inc. is engaged in the
 business of creating and licensing software in the field of
 computational chemistry and represents and warrants to the
 licensee that it is not a competitor of Gaussian, Inc. and that
 it will not use this program in any manner prohibited above.
 ---------------------------------------------------------------
  

 Cite this work as:
 Gaussian 09, Revision D.01,
 M. J. Frisch, G. W. Trucks, H. B. Schlegel, G. E. Scuseria, 
 M. A. Robb, J. R. Cheeseman, G. Scalmani, V. Barone, B. Mennucci, 
 G. A. Petersson, H. Nakatsuji, M. Caricato, X. Li, H. P. Hratchian, 
 A. F. Izmaylov, J. Bloino, G. Zheng, J. L. Sonnenberg, M. Hada, 
 M. Ehara, K. Toyota, R. Fukuda, J. Hasegawa, M. Ishida, T. Nakajima, 
 Y. Honda, O. Kitao, H. Nakai, T. Vreven, J. A. Montgomery, Jr., 
 J. E. Peralta, F. Ogliaro, M. Bearpark, J. J. Heyd, E. Brothers, 
 K. N. Kudin, V. N. Staroverov, T. Keith, R. Kobayashi, J. Normand, 
 K. Raghavachari, A. Rendell, J. C. Burant, S. S. Iyengar, J. Tomasi, 
 M. Cossi, N. Rega, J. M. Millam, M. Klene, J. E. Knox, J. B. Cross, 
 V. Bakken, C. Adamo, J. Jaramillo, R. Gomperts, R. E. Stratmann, 
 O. Yazyev, A. J. Austin, R. Cammi, C. Pomelli, J. W. Ochterski, 
 R. L. Martin, K. Morokuma, V. G. Zakrzewski, G. A. Voth, 
 P. Salvador, J. J. Dannenberg, S. Dapprich, A. D. Daniels, 
 O. Farkas, J. B. Foresman, J. V. Ortiz, J. Cioslowski, 
 and D. J. Fox, Gaussian, Inc., Wallingford CT, 2013.
 
 ******************************************
 Gaussian 09:  ES64L-G09RevD.01 24-Apr-2013
                27-Jun-2019 
 ******************************************
 %nproc=4
 Will use up to    4 processors via shared memory.
 %Mem=2GB
 -------------------------------------
 # td=(NStates=1) CAM-B3LYP/6-31G(d,p)
 -------------------------------------
 1/38=1/1;
 2/12=2,17=6,18=5,40=1/2;
 3/5=1,6=6,7=101,11=9,16=1,25=1,30=1,74=-40/1,2,8,3;
 4//1;
 5/5=2,38=5/2;
 8/6=1,10=2,108=1/1;
 9/41=1,42=1,70=2/14;
 6/7=2,8=2,9=2,10=2/1;
 99/5=1,9=1/99;
 --
 TD
 --
 Symbolic Z-matrix:
 Charge =  0 Multiplicity = 1
 12                   -7.11433   0.65052   0.11558 
 6                    -4.85945  -1.96039   0.46565 
 6                    -4.66441   2.86597   1.16288 
 6                    -9.45809   3.10684  -0.41576 
 6                    -9.61917  -1.77286  -0.77754 
 7                    -5.0387    0.40611   0.78196 
 6                    -4.27657  -0.79114   0.80406 
 6                    -2.86418  -0.43901   1.26477 
 6                    -2.9962    1.04305   1.77594 
 6                    -4.30849   1.51394   1.18824 
 6                    -2.91621   1.22302   3.27052 
 6                    -1.81137  -0.61156   0.10545 
 6                    -0.44017  -0.48691   0.59179 
 6                     0.44882  -0.58143  -0.59288 
 8                     0.16297  -1.00878  -1.68343 
 8                     1.80026  -0.4156   -0.24015 
 7                    -7.00765   2.61015   0.39099 
 6                    -5.98055   3.33611   0.79041 
 6                    -6.37379   4.68777   0.84636 
 6                    -7.72036   4.78488   0.52447 
 6                    -8.13057   3.4321    0.15739 
 6                    -5.48252   5.99985   1.13014 
 6                    -8.56672   6.00396   0.31074 
 6                    -8.26178   7.26988   0.02643 
 7                    -9.14806   0.58836  -0.41633 
 6                    -9.85762   1.72338  -0.62868 
 6                    -11.17401   1.49399  -1.14883 
 6                    -11.26044   0.10337  -1.10646 
 6                    -9.97397  -0.40018  -0.72839 
 6                    -12.32262   2.39489  -1.48964 
 6                    -12.38286  -0.71048  -1.69415 
 6                    -12.2862  -0.93851  -3.19654 
 7                    -7.27137  -1.37839  -0.1949 
 6                    -8.32568  -2.26901  -0.41004 
 6                    -7.85431  -3.56954  -0.39966 
 6                    -6.5363   -3.4753   -0.09422 
 6                    -6.20703  -2.12646  -0.00379 
 6                    -8.5495   -4.99067  -0.69332 
 6                    -5.39995  -4.36173   0.18045 
 8                    -5.26512  -5.46166  -0.00046 
 6                    -4.19924  -3.39929   0.5047 
 6                    -3.59289  -3.67482   1.84846 
 8                    -3.68814  -3.12509   2.87713 
 8                    -2.76703  -4.8038    1.73514 
 6                    -2.16388  -5.28741   2.91019 
 6                     2.86288  -0.63284  -1.27469 
 6                     4.0781   -0.5323   -0.66881 
 6                     5.14778   0.31204  -1.08352 
 6                     4.94597   1.22129  -2.29777 
 6                     6.45159   0.4236   -0.2911 
 6                     7.64236  -0.09167  -1.01024 
 6                     8.84632  -0.0907   -0.10254 
 6                     10.14254  -0.44903  -0.89936 
 6                     10.09574  -1.87966  -1.46297 
 6                     11.37102  -0.28506  -0.00933 
 6                     12.75278  -0.4477   -0.73989 
 6                     13.91382  -0.17676   0.17955 
 6                     15.31165  -0.2394   -0.418 
 6                     15.80789  -1.55633  -0.89916 
 6                     16.42699   0.38615   0.43865 
 6                     17.78907   0.59518  -0.20185 
 6                     18.7961   1.20503   0.75114 
 6                     20.3321   1.28569   0.31863 
 6                     20.35032   2.13764  -0.94598 
 6                     21.07625   1.96808   1.43743 
 1                    -3.97544   3.66856   1.48136 
 1                    -10.20875   3.85764  -0.4831 
 1                    -10.45946  -2.49561  -1.10274 
 1                    -2.69061  -1.03252   2.31456 
 1                    -2.04923   1.64103   1.403 
 1                    -1.96571   0.99219   3.70507 
 1                    -3.05422   2.21804   3.33193 
 1                    -3.67398   0.38836   3.95176 
 1                    -2.07398  -1.64388  -0.35588 
 1                    -2.33542  -0.01299  -0.65019 
 1                    -0.50403   0.59354   1.07808 
 1                    -0.10978  -1.24152   1.47875 
 1                    -5.07687   6.2496    0.3301 
 1                    -6.19205   6.63051   1.50659 
 1                    -4.79146   5.91548   2.08297 
 1                    -9.63868   5.66155   0.06008 
 1                    -9.13125   8.00016  -0.14507 
 1                    -7.27722   7.67398  -0.19552 
 1                    -12.32676   2.52367  -2.90758 
 1                    -13.31387   1.70253  -1.37842 
 1                    -12.36853   3.34131  -0.83779 
 1                    -12.57871  -1.78263  -1.23931 
 1                    -13.35309  -0.17207  -1.48299 
 1                    -13.06564  -1.61253  -3.43178 
 1                    -12.22318   0.0067   -3.79448 
 1                    -11.29288  -1.44534  -3.54172 
 1                    -8.69383  -4.8352   -1.65459 
 1                    -7.91847  -5.94571  -0.50412 
 1                    -9.47591  -5.20966  -0.24859 
 1                    -3.54895  -3.71779  -0.3269 
 1                    -1.14983  -4.72921   3.23672 
 1                    -3.01235  -5.29396   3.57409 
 1                    -1.7977   -6.27125   2.54215 
 1                     2.7189   -1.66902  -1.83693 
 1                     2.50773  -0.11259  -2.04521 
 1                     4.0479   -1.03139   0.15338 
 1                     3.88733   1.15457  -2.60815 
 1                     5.10368   2.21685  -1.72641 
 1                     5.87792   0.95811  -3.20582 
 1                     6.65227   1.43097  -0.01075 
 1                     6.41578  -0.10887   0.61935 
 1                     7.46115  -0.9924   -1.47268 
 1                     7.94914   0.58943  -1.78537 
 1                     8.99113   1.03636   0.33845 
 1                     8.81657  -0.73531   0.76863 
 1                     10.2498   0.23906  -1.71244 
 1                     9.10534  -1.97115  -1.85 
 1                     10.82882  -2.11178  -2.19259 
 1                     9.84462  -2.62524  -0.55207 
 1                     11.38413   1.0017    0.31491 
 1                     11.27167  -1.00679   0.72808 
 1                     12.83226  -1.4945   -1.27584 
 1                     12.80636   0.33405  -1.44294 
 1                     13.85842   0.85415   0.69118 
 1                     13.91533  -0.96486   1.09145 
 1                     15.28606   0.27874  -1.19601 
 1                     15.73143  -2.32485   0.02696 
 1                     15.12095  -2.11515  -1.72822 
 1                     16.75525  -1.65403  -1.41965 
 1                     16.1823   1.26025   0.99938 
 1                     16.6426  -0.37611   1.11751 
 1                     18.08252  -0.42829  -0.49945 
 1                     17.73784   1.2706   -1.07554 
 1                     18.34917   2.26865   0.61399 
 1                     18.8128   0.9159    1.95209 
 1                     20.71321   0.3352    0.13034 
 1                     20.02102   3.1487   -0.77342 
 1                     21.24391   2.15558  -1.32339 
 1                     19.7298   1.81669  -1.77551 
 1                     20.89691   1.31441   2.27572 
 1                     22.24483   2.17427   1.07738 
 1                     20.77394   3.10871   1.61889 
 
 Stoichiometry    C55H72MgN4O5
 Framework group  C1[X(C55H72MgN4O5)]
 Deg. of freedom   405
 Full point group                 C1      NOp   1
 Largest Abelian subgroup         C1      NOp   1
 Largest concise Abelian subgroup C1      NOp   1
                         Standard orientation:                         
 ---------------------------------------------------------------------
 Center     Atomic      Atomic             Coordinates (Angstroms)
 Number     Number       Type             X           Y           Z
 ---------------------------------------------------------------------
      1         12           0       -7.112214    0.659016    0.126754
      2          6           0       -4.860916   -1.958060    0.453029
      3          6           0       -4.658436    2.861856    1.191487
      4          6           0       -9.452726    3.123189   -0.382054
      5          6           0       -9.621113   -1.752992   -0.785549
      6          7           0       -5.036530    0.405898    0.789721
      7          6           0       -4.276124   -0.792601    0.801089
      8          6           0       -2.862946   -0.446477    1.263923
      9          6           0       -2.992506    1.031330    1.787861
     10          6           0       -4.304467    1.509146    1.205029
     11          6           0       -2.911344    1.198366    3.283879
     12          6           0       -1.811092   -0.610599    0.102510
     13          6           0       -0.439423   -0.492109    0.589047
     14          6           0        0.448714   -0.577758   -0.596940
     15          8           0        0.161572   -0.995328   -1.690933
     16          8           0        1.800600   -0.416908   -0.243638
     17          7           0       -7.002517    2.616055    0.418893
     18          6           0       -5.974118    3.337080    0.823877
     19          6           0       -6.365362    4.688772    0.891663
     20          6           0       -7.711992    4.790585    0.571450
     21          6           0       -8.124390    3.441602    0.193038
     22          6           0       -5.472024    5.997082    1.186125
     23          6           0       -8.556705    6.012673    0.368707
     24          6           0       -8.250100    7.280550    0.095069
     25          7           0       -9.146353    0.604353   -0.404409
     26          6           0       -9.854391    1.742185   -0.606574
     27          6           0      -11.171434    1.519165   -1.127856
     28          6           0      -11.259859    0.128363   -1.097356
     29          6           0       -9.973884   -0.380273   -0.724418
     30          6           0      -12.318940    2.424616   -1.460216
     31          6           0      -12.383811   -0.678800   -1.691309
     32          6           0      -12.288403   -0.894075   -3.195652
     33          7           0       -7.272389   -1.366929   -0.201014
     34          6           0       -8.328116   -2.254151   -0.423123
     35          6           0       -7.858634   -3.555401   -0.424185
     36          6           0       -6.540299   -3.465690   -0.118771
     37          6           0       -6.209012   -2.118150   -0.016982
     38          6           0       -8.556057   -4.972954   -0.729587
     39          6           0       -5.405067   -4.356086    0.147582
     40          8           0       -5.271946   -5.454615   -0.042836
     41          6           0       -4.202771   -3.398200    0.479330
     42          6           0       -3.596004   -3.686119    1.820296
     43          8           0       -3.689828   -3.145085    2.853706
     44          8           0       -2.771847   -4.815275    1.696794
     45          6           0       -2.168686   -5.309815    2.867281
     46          6           0        2.862277   -0.626813   -1.280667
     47          6           0        4.078011   -0.533224   -0.674699
     48          6           0        5.148661    0.313094   -1.082818
     49          6           0        4.947435    1.233005   -2.289101
     50          6           0        6.453116    0.415966   -0.290278
     51          6           0        7.642700   -0.094843   -1.014554
     52          6           0        8.847214   -0.103395   -0.107629
     53          6           0       10.142418   -0.456757   -0.908290
     54          6           0       10.093200   -1.882428   -1.484117
     55          6           0       11.371680   -0.302199   -0.017655
     56          6           0       12.752761   -0.460570   -0.750444
     57          6           0       13.914748   -0.199206    0.170563
     58          6           0       15.312121   -0.258734   -0.428370
     59          6           0       15.806164   -1.572209   -0.921103
     60          6           0       16.428888    0.357833    0.432926
     61          6           0       17.790889    0.570371   -0.206605
     62          6           0       18.799373    1.170575    0.750948
     63          6           0       20.335231    1.252721    0.318196
     64          6           0       20.353913    2.115451   -0.939077
     65          6           0       21.081047    1.924413    1.442342
     66          1           0       -3.968110    3.660683    1.516412
     67          1           0      -10.202341    3.875624   -0.442488
     68          1           0      -10.462641   -2.471713   -1.116420
     69          1           0       -2.689599   -1.049220    2.308475
     70          1           0       -2.044901    1.631122    1.419477
     71          1           0       -1.960917    0.962450    3.715844
     72          1           0       -3.047873    2.193024    3.353900
     73          1           0       -3.669909    0.358997    3.958407
     74          1           0       -2.075485   -1.638549   -0.367490
     75          1           0       -2.334734   -0.004818   -0.647644
     76          1           0       -0.501414    0.584218    1.084624
     77          1           0       -0.109584   -1.254773    1.469303
     78          1           0       -5.066495    6.253095    0.388009
     79          1           0       -6.180408    6.625519    1.568404
     80          1           0       -4.780506    5.903541    2.137769
     81          1           0       -9.629319    5.673980    0.115790
     82          1           0       -9.118621    8.013526   -0.069626
     83          1           0       -7.265097    7.685108   -0.124022
     84          1           0      -12.323754    2.565552   -2.876994
     85          1           0      -13.311122    1.732756   -1.354322
     86          1           0      -12.363083    3.365473   -0.800243
     87          1           0      -12.580942   -1.754525   -1.245556
     88          1           0      -13.353132   -0.140817   -1.474929
     89          1           0      -13.068956   -1.564930   -3.436176
     90          1           0      -12.224372    0.056135   -3.785505
     91          1           0      -11.296028   -1.399363   -3.545787
     92          1           0       -8.700751   -4.809034   -1.689403
     93          1           0       -7.926299   -5.930496   -0.548980
     94          1           0       -9.482517   -5.194405   -0.286180
     95          1           0       -3.553442   -3.710499   -0.355374
     96          1           0       -1.153625   -4.755904    3.197952
     97          1           0       -3.016758   -5.320830    3.531629
     98          1           0       -1.804161   -6.290993    2.490590
     99          1           0        2.716447   -1.657919   -1.851675
    100          1           0        2.507416   -0.099458   -2.046471
    101          1           0        4.047590   -1.039305    0.143198
    102          1           0        3.888508    1.170480   -2.599391
    103          1           0        5.106940    2.223400   -1.709325
    104          1           0        5.878450    0.976272   -3.199958
    105          1           0        6.655426    1.420602   -0.001435
    106          1           0        6.417091   -0.124243    0.615594
    107          1           0        7.459899   -0.991311   -1.484587
    108          1           0        7.949991    0.592431   -1.784004
    109          1           0        8.993920    1.019627    0.342918
    110          1           0        8.817054   -0.755410    0.758005
    111          1           0       10.250184    0.238124   -1.715506
    112          1           0        9.102433   -1.969171   -1.871304
    113          1           0       10.825497   -2.109344   -2.216153
    114          1           0        9.841558   -2.635434   -0.579486
    115          1           0       11.386860    0.981717    0.317601
    116          1           0       11.271730   -1.030085    0.713603
    117          1           0       12.830392   -1.502845   -1.295390
    118          1           0       12.807045    0.327106   -1.446797
    119          1           0       13.861156    0.827361    0.691048
    120          1           0       13.915669   -0.995092    1.075681
    121          1           0       15.286814    0.266088   -1.201888
    122          1           0       15.729142   -2.348530   -0.001567
    123          1           0       15.117903   -2.122906   -1.754500
    124          1           0       16.753062   -1.666813   -1.443007
    125          1           0       16.185816    1.227438    1.001282
    126          1           0       16.643805   -0.410538    1.105094
    127          1           0       18.082664   -0.450930   -0.513149
    128          1           0       17.740107    1.253332   -1.074443
    129          1           0       18.353913    2.235974    0.623199
    130          1           0       18.816387    0.871128    1.949369
    131          1           0       20.714847    0.303326    0.121526
    132          1           0       20.026190    3.125473   -0.757648
    133          1           0       21.247303    2.135335   -1.316877
    134          1           0       19.732431    1.802526   -1.770940
    135          1           0       20.901272    1.263839    2.275104
    136          1           0       22.249709    2.131986    1.083348
    137          1           0       20.780508    3.063884    1.633759
 ---------------------------------------------------------------------
 Rotational constants (GHZ):      0.0646265      0.0060935      0.0057393
 Standard basis: 6-31G(d,p) (6D, 7F)
 There are  1339 symmetry adapted cartesian basis functions of A   symmetry.
 There are  1339 symmetry adapted basis functions of A   symmetry.
  1339 basis functions,  2348 primitive gaussians,  1339 cartesian basis functions
   241 alpha electrons      241 beta electrons
       nuclear repulsion energy      8744.3812080577 Hartrees.
 NAtoms=  137 NActive=  137 NUniq=  137 SFac= 1.00D+00 NAtFMM=   60 NAOKFM=T Big=T
 Integral buffers will be    131072 words long.
 Raffenetti 1 integral format.
 Two-electron integral symmetry is turned on.
 One-electron integrals computed using PRISM.
 NBasis=  1339 RedAO= T EigKep=  3.16D-04  NBF=  1339
 NBsUse=  1339 1.00D-06 EigRej= -1.00D+00 NBFU=  1339
 ExpMin= 4.21D-02 ExpMax= 1.17D+04 ExpMxC= 1.76D+03 IAcc=2 IRadAn=         4 AccDes= 0.00D+00
 Harris functional with IExCor=20419 and IRadAn=       4 diagonalized for initial guess.
 HarFok:  IExCor=20419 AccDes= 0.00D+00 IRadAn=         4 IDoV= 1 UseB2=F ITyADJ=14
 ICtDFT=  3500011 ScaDFX=  1.000000  1.000000  1.000000  1.000000
 FoFCou: FMM=F IPFlag=           0 FMFlag=      100000 FMFlg1=        2001
         NFxFlg=           0 DoJE=T BraDBF=F KetDBF=T FulRan=T
         wScrn=  0.000000 ICntrl=     500 IOpCl=  0 I1Cent=   200000004 NGrid=           0
         NMat0=    1 NMatS0=      1 NMatT0=    0 NMatD0=    1 NMtDS0=    0 NMtDT0=    0
 Petite list used in FoFCou.
 Requested convergence on RMS density matrix=1.00D-08 within 128 cycles.
 Requested convergence on MAX density matrix=1.00D-06.
 Requested convergence on             energy=1.00D-06.
 No special actions if energy rises.
 SCF Done:  E(RCAM-B3LYP) =  -2932.55829718     A.U. after   18 cycles
            NFock= 18  Conv=0.46D-08     -V/T= 2.0091
 DoSCS=F DFT=T ScalE2(SS,OS)=  1.000000  1.000000
 ExpMin= 4.21D-02 ExpMax= 1.17D+04 ExpMxC= 1.76D+03 IAcc=3 IRadAn=         5 AccDes= 0.00D+00
 HarFok:  IExCor=  205 AccDes= 0.00D+00 IRadAn=         5 IDoV=-2 UseB2=F ITyADJ=14
 ICtDFT= 12500011 ScaDFX=  1.000000  1.000000  1.000000  1.000000
 Range of M.O.s used for correlation:    70  1339
 NBasis=  1339 NAE=   241 NBE=   241 NFC=    69 NFV=     0
 NROrb=   1270 NOA=   172 NOB=   172 NVA=  1098 NVB=  1098
 Would need an additional       2415464100000 words for in-memory AO integral storage.
 Orbital symmetries:
       Occupied  (A) (A) (A) (A) (A) (A) (A) (A) (A) (A) (A) (A)
                 (A) (A) (A) (A) (A) (A) (A) (A) (A) (A) (A) (A)
                 (A) (A) (A) (A) (A) (A) (A) (A) (A) (A) (A) (A)
                 (A) (A) (A) (A) (A) (A) (A) (A) (A) (A) (A) (A)
                 (A) (A) (A) (A) (A) (A) (A) (A) (A) (A) (A) (A)
                 (A) (A) (A) (A) (A) (A) (A) (A) (A) (A) (A) (A)
                 (A) (A) (A) (A) (A) (A) (A) (A) (A) (A) (A) (A)
                 (A) (A) (A) (A) (A) (A) (A) (A) (A) (A) (A) (A)
                 (A) (A) (A) (A) (A) (A) (A) (A) (A) (A) (A) (A)
                 (A) (A) (A) (A) (A) (A) (A) (A) (A) (A) (A) (A)
                 (A) (A) (A) (A) (A) (A) (A) (A) (A) (A) (A) (A)
                 (A) (A) (A) (A) (A) (A) (A) (A) (A) (A) (A) (A)
                 (A) (A) (A) (A) (A) (A) (A) (A) (A) (A) (A) (A)
                 (A) (A) (A) (A) (A) (A) (A) (A) (A) (A) (A) (A)
                 (A) (A) (A) (A) (A) (A) (A) (A) (A) (A) (A) (A)
                 (A) (A) (A) (A) (A) (A) (A) (A) (A) (A) (A) (A)
                 (A) (A) (A) (A) (A) (A) (A) (A) (A) (A) (A) (A)
                 (A) (A) (A) (A) (A) (A) (A) (A) (A) (A) (A) (A)
                 (A) (A) (A) (A) (A) (A) (A) (A) (A) (A) (A) (A)
                 (A) (A) (A) (A) (A) (A) (A) (A) (A) (A) (A) (A)
                 (A)
       Virtual   (A) (A) (A) (A) (A) (A) (A) (A) (A) (A) (A) (A)
                 (A) (A) (A) (A) (A) (A) (A) (A) (A) (A) (A) (A)
                 (A) (A) (A) (A) (A) (A) (A) (A) (A) (A) (A) (A)
                 (A) (A) (A) (A) (A) (A) (A) (A) (A) (A) (A) (A)
                 (A) (A) (A) (A) (A) (A) (A) (A) (A) (A) (A) (A)
                 (A) (A) (A) (A) (A) (A) (A) (A) (A) (A) (A) (A)
                 (A) (A) (A) (A) (A) (A) (A) (A) (A) (A) (A) (A)
                 (A) (A) (A) (A) (A) (A) (A) (A) (A) (A) (A) (A)
                 (A) (A) (A) (A) (A) (A) (A) (A) (A) (A) (A) (A)
                 (A) (A) (A) (A) (A) (A) (A) (A) (A) (A) (A) (A)
                 (A) (A) (A) (A) (A) (A) (A) (A) (A) (A) (A) (A)
                 (A) (A) (A) (A) (A) (A) (A) (A) (A) (A) (A) (A)
                 (A) (A) (A) (A) (A) (A) (A) (A) (A) (A) (A) (A)
                 (A) (A) (A) (A) (A) (A) (A) (A) (A) (A) (A) (A)
                 (A) (A) (A) (A) (A) (A) (A) (A) (A) (A) (A) (A)
                 (A) (A) (A) (A) (A) (A) (A) (A) (A) (A) (A) (A)
                 (A) (A) (A) (A) (A) (A) (A) (A) (A) (A) (A) (A)
                 (A) (A) (A) (A) (A) (A) (A) (A) (A) (A) (A) (A)
                 (A) (A) (A) (A) (A) (A) (A) (A) (A) (A) (A) (A)
                 (A) (A) (A) (A) (A) (A) (A) (A) (A) (A) (A) (A)
                 (A) (A) (A) (A) (A) (A) (A) (A) (A) (A) (A) (A)
                 (A) (A) (A) (A) (A) (A) (A) (A) (A) (A) (A) (A)
                 (A) (A) (A) (A) (A) (A) (A) (A) (A) (A) (A) (A)
                 (A) (A) (A) (A) (A) (A) (A) (A) (A) (A) (A) (A)
                 (A) (A) (A) (A) (A) (A) (A) (A) (A) (A) (A) (A)
                 (A) (A) (A) (A) (A) (A) (A) (A) (A) (A) (A) (A)
                 (A) (A) (A) (A) (A) (A) (A) (A) (A) (A) (A) (A)
                 (A) (A) (A) (A) (A) (A) (A) (A) (A) (A) (A) (A)
                 (A) (A) (A) (A) (A) (A) (A) (A) (A) (A) (A) (A)
                 (A) (A) (A) (A) (A) (A) (A) (A) (A) (A) (A) (A)
                 (A) (A) (A) (A) (A) (A) (A) (A) (A) (A) (A) (A)
                 (A) (A) (A) (A) (A) (A) (A) (A) (A) (A) (A) (A)
                 (A) (A) (A) (A) (A) (A) (A) (A) (A) (A) (A) (A)
                 (A) (A) (A) (A) (A) (A) (A) (A) (A) (A) (A) (A)
                 (A) (A) (A) (A) (A) (A) (A) (A) (A) (A) (A) (A)
                 (A) (A) (A) (A) (A) (A) (A) (A) (A) (A) (A) (A)
                 (A) (A) (A) (A) (A) (A) (A) (A) (A) (A) (A) (A)
                 (A) (A) (A) (A) (A) (A) (A) (A) (A) (A) (A) (A)
                 (A) (A) (A) (A) (A) (A) (A) (A) (A) (A) (A) (A)
                 (A) (A) (A) (A) (A) (A) (A) (A) (A) (A) (A) (A)
                 (A) (A) (A) (A) (A) (A) (A) (A) (A) (A) (A) (A)
                 (A) (A) (A) (A) (A) (A) (A) (A) (A) (A) (A) (A)
                 (A) (A) (A) (A) (A) (A) (A) (A) (A) (A) (A) (A)
                 (A) (A) (A) (A) (A) (A) (A) (A) (A) (A) (A) (A)
                 (A) (A) (A) (A) (A) (A) (A) (A) (A) (A) (A) (A)
                 (A) (A) (A) (A) (A) (A) (A) (A) (A) (A) (A) (A)
                 (A) (A) (A) (A) (A) (A) (A) (A) (A) (A) (A) (A)
                 (A) (A) (A) (A) (A) (A) (A) (A) (A) (A) (A) (A)
                 (A) (A) (A) (A) (A) (A) (A) (A) (A) (A) (A) (A)
                 (A) (A) (A) (A) (A) (A) (A) (A) (A) (A) (A) (A)
                 (A) (A) (A) (A) (A) (A) (A) (A) (A) (A) (A) (A)
                 (A) (A) (A) (A) (A) (A) (A) (A) (A) (A) (A) (A)
                 (A) (A) (A) (A) (A) (A) (A) (A) (A) (A) (A) (A)
                 (A) (A) (A) (A) (A) (A) (A) (A) (A) (A) (A) (A)
                 (A) (A) (A) (A) (A) (A) (A) (A) (A) (A) (A) (A)
                 (A) (A) (A) (A) (A) (A) (A) (A) (A) (A) (A) (A)
                 (A) (A) (A) (A) (A) (A) (A) (A) (A) (A) (A) (A)
                 (A) (A) (A) (A) (A) (A) (A) (A) (A) (A) (A) (A)
                 (A) (A) (A) (A) (A) (A) (A) (A) (A) (A) (A) (A)
                 (A) (A) (A) (A) (A) (A) (A) (A) (A) (A) (A) (A)
                 (A) (A) (A) (A) (A) (A) (A) (A) (A) (A) (A) (A)
                 (A) (A) (A) (A) (A) (A) (A) (A) (A) (A) (A) (A)
                 (A) (A) (A) (A) (A) (A) (A) (A) (A) (A) (A) (A)
                 (A) (A) (A) (A) (A) (A) (A) (A) (A) (A) (A) (A)
                 (A) (A) (A) (A) (A) (A) (A) (A) (A) (A) (A) (A)
                 (A) (A) (A) (A) (A) (A) (A) (A) (A) (A) (A) (A)
                 (A) (A) (A) (A) (A) (A) (A) (A) (A) (A) (A) (A)
                 (A) (A) (A) (A) (A) (A) (A) (A) (A) (A) (A) (A)
                 (A) (A) (A) (A) (A) (A) (A) (A) (A) (A) (A) (A)
                 (A) (A) (A) (A) (A) (A) (A) (A) (A) (A) (A) (A)
                 (A) (A) (A) (A) (A) (A) (A) (A) (A) (A) (A) (A)
                 (A) (A) (A) (A) (A) (A) (A) (A) (A) (A) (A) (A)
                 (A) (A) (A) (A) (A) (A) (A) (A) (A) (A) (A) (A)
                 (A) (A) (A) (A) (A) (A) (A) (A) (A) (A) (A) (A)
                 (A) (A) (A) (A) (A) (A) (A) (A) (A) (A) (A) (A)
                 (A) (A) (A) (A) (A) (A) (A) (A) (A) (A) (A) (A)
                 (A) (A) (A) (A) (A) (A) (A) (A) (A) (A) (A) (A)
                 (A) (A) (A) (A) (A) (A) (A) (A) (A) (A) (A) (A)
                 (A) (A) (A) (A) (A) (A) (A) (A) (A) (A) (A) (A)
                 (A) (A) (A) (A) (A) (A) (A) (A) (A) (A) (A) (A)
                 (A) (A) (A) (A) (A) (A) (A) (A) (A) (A) (A) (A)
                 (A) (A) (A) (A) (A) (A) (A) (A) (A) (A) (A) (A)
                 (A) (A) (A) (A) (A) (A) (A) (A) (A) (A) (A) (A)
                 (A) (A) (A) (A) (A) (A) (A) (A) (A) (A) (A) (A)
                 (A) (A) (A) (A) (A) (A) (A) (A) (A) (A) (A) (A)
                 (A) (A) (A) (A) (A) (A) (A) (A) (A) (A) (A) (A)
                 (A) (A) (A) (A) (A) (A) (A) (A) (A) (A) (A) (A)
                 (A) (A) (A) (A) (A) (A) (A) (A) (A) (A) (A) (A)
                 (A) (A) (A) (A) (A) (A) (A) (A) (A) (A) (A) (A)
                 (A) (A) (A) (A) (A) (A) (A) (A) (A) (A) (A) (A)
                 (A) (A) (A) (A) (A) (A) (A) (A) (A) (A) (A) (A)
                 (A) (A) (A) (A) (A) (A)
     8 initial guesses have been made.
 Convergence on wavefunction:    0.001000000000000
 Iteration     1 Dimension     8 NMult     0 NNew      8
 CISAX will form     8 AO SS matrices at one time.
 Iteration     2 Dimension    12 NMult     8 NNew      4
 Iteration     3 Dimension    16 NMult    12 NNew      4
 Iteration     4 Dimension    20 NMult    16 NNew      4
 Iteration     5 Dimension    24 NMult    20 NNew      4
 Iteration     6 Dimension    28 NMult    24 NNew      4
 ***********************************************************************
 Excited states from <AA,BB:AA,BB> singles matrix:
 ***********************************************************************
 
 Ground to excited state transition densities written to RWF  633
 Ground to excited state transition electric dipole moments (Au):
       state          X           Y           Z        Dip. S.      Osc.
         1         0.1122      2.0292      0.2851      4.2115      0.2140
 Ground to excited state transition velocity dipole moments (Au):
       state          X           Y           Z        Dip. S.      Osc.
         1        -0.0073     -0.1499     -0.0200      0.0229      0.2006
 Ground to excited state transition magnetic dipole moments (Au):
       state          X           Y           Z
         1        -0.5205     -0.4548      3.8168
 Ground to excited state transition velocity quadrupole moments (Au):
       state          XX          YY          ZZ          XY          XZ          YZ
         1         0.2465     -0.3216     -0.0423      1.8533      0.2349     -0.1486
 <0|del|b> * <b|rxdel|0> + <0|del|b> * <b|delr+rdel|0>
 Rotatory Strengths (R) in cgs (10**-40 erg-esu-cm/Gauss)
       state          XX          YY          ZZ    R(velocity)    E-M Angle
         1       -45.7346   -159.4238    165.5275    -13.2103       90.42
 1/2[<0|r|b>*<b|rxdel|0> + (<0|rxdel|b>*<b|r|0>)*]
 Rotatory Strengths (R) in cgs (10**-40 erg-esu-cm/Gauss)
       state          XX          YY          ZZ     R(length)
         1        41.2840    652.6684   -769.5730    -25.2069
  1/2[<0|del|b>*<b|r|0> + (<0|r|b>*<b|del|0>)*] (Au)
       state          X           Y           Z        Dip. S.   Osc.(frdel)
         1        -0.0008     -0.3042     -0.0057      0.3107      0.2072

 Excitation energies and oscillator strengths:
 
 Excited State   1:      Singlet-A      2.0738 eV  597.85 nm  f=0.2140  <S**2>=0.000
     240 -> 243        0.25220
     241 -> 242        0.65494
 This state for optimization and/or second-order correction.
 Total Energy, E(TD-HF/TD-KS) =  -2932.48208498    
 Copying the excited state density for this state as the 1-particle RhoCI density.
 SavETr:  write IOETrn=   770 NScale= 10 NData=  16 NLR=1 NState=    1 LETran=      28.

 **********************************************************************

            Population analysis using the SCF density.

 **********************************************************************

 Orbital symmetries:
       Occupied  (A) (A) (A) (A) (A) (A) (A) (A) (A) (A) (A) (A)
                 (A) (A) (A) (A) (A) (A) (A) (A) (A) (A) (A) (A)
                 (A) (A) (A) (A) (A) (A) (A) (A) (A) (A) (A) (A)
                 (A) (A) (A) (A) (A) (A) (A) (A) (A) (A) (A) (A)
                 (A) (A) (A) (A) (A) (A) (A) (A) (A) (A) (A) (A)
                 (A) (A) (A) (A) (A) (A) (A) (A) (A) (A) (A) (A)
                 (A) (A) (A) (A) (A) (A) (A) (A) (A) (A) (A) (A)
                 (A) (A) (A) (A) (A) (A) (A) (A) (A) (A) (A) (A)
                 (A) (A) (A) (A) (A) (A) (A) (A) (A) (A) (A) (A)
                 (A) (A) (A) (A) (A) (A) (A) (A) (A) (A) (A) (A)
                 (A) (A) (A) (A) (A) (A) (A) (A) (A) (A) (A) (A)
                 (A) (A) (A) (A) (A) (A) (A) (A) (A) (A) (A) (A)
                 (A) (A) (A) (A) (A) (A) (A) (A) (A) (A) (A) (A)
                 (A) (A) (A) (A) (A) (A) (A) (A) (A) (A) (A) (A)
                 (A) (A) (A) (A) (A) (A) (A) (A) (A) (A) (A) (A)
                 (A) (A) (A) (A) (A) (A) (A) (A) (A) (A) (A) (A)
                 (A) (A) (A) (A) (A) (A) (A) (A) (A) (A) (A) (A)
                 (A) (A) (A) (A) (A) (A) (A) (A) (A) (A) (A) (A)
                 (A) (A) (A) (A) (A) (A) (A) (A) (A) (A) (A) (A)
                 (A) (A) (A) (A) (A) (A) (A) (A) (A) (A) (A) (A)
                 (A)
       Virtual   (A) (A) (A) (A) (A) (A) (A) (A) (A) (A) (A) (A)
                 (A) (A) (A) (A) (A) (A) (A) (A) (A) (A) (A) (A)
                 (A) (A) (A) (A) (A) (A) (A) (A) (A) (A) (A) (A)
                 (A) (A) (A) (A) (A) (A) (A) (A) (A) (A) (A) (A)
                 (A) (A) (A) (A) (A) (A) (A) (A) (A) (A) (A) (A)
                 (A) (A) (A) (A) (A) (A) (A) (A) (A) (A) (A) (A)
                 (A) (A) (A) (A) (A) (A) (A) (A) (A) (A) (A) (A)
                 (A) (A) (A) (A) (A) (A) (A) (A) (A) (A) (A) (A)
                 (A) (A) (A) (A) (A) (A) (A) (A) (A) (A) (A) (A)
                 (A) (A) (A) (A) (A) (A) (A) (A) (A) (A) (A) (A)
                 (A) (A) (A) (A) (A) (A) (A) (A) (A) (A) (A) (A)
                 (A) (A) (A) (A) (A) (A) (A) (A) (A) (A) (A) (A)
                 (A) (A) (A) (A) (A) (A) (A) (A) (A) (A) (A) (A)
                 (A) (A) (A) (A) (A) (A) (A) (A) (A) (A) (A) (A)
                 (A) (A) (A) (A) (A) (A) (A) (A) (A) (A) (A) (A)
                 (A) (A) (A) (A) (A) (A) (A) (A) (A) (A) (A) (A)
                 (A) (A) (A) (A) (A) (A) (A) (A) (A) (A) (A) (A)
                 (A) (A) (A) (A) (A) (A) (A) (A) (A) (A) (A) (A)
                 (A) (A) (A) (A) (A) (A) (A) (A) (A) (A) (A) (A)
                 (A) (A) (A) (A) (A) (A) (A) (A) (A) (A) (A) (A)
                 (A) (A) (A) (A) (A) (A) (A) (A) (A) (A) (A) (A)
                 (A) (A) (A) (A) (A) (A) (A) (A) (A) (A) (A) (A)
                 (A) (A) (A) (A) (A) (A) (A) (A) (A) (A) (A) (A)
                 (A) (A) (A) (A) (A) (A) (A) (A) (A) (A) (A) (A)
                 (A) (A) (A) (A) (A) (A) (A) (A) (A) (A) (A) (A)
                 (A) (A) (A) (A) (A) (A) (A) (A) (A) (A) (A) (A)
                 (A) (A) (A) (A) (A) (A) (A) (A) (A) (A) (A) (A)
                 (A) (A) (A) (A) (A) (A) (A) (A) (A) (A) (A) (A)
                 (A) (A) (A) (A) (A) (A) (A) (A) (A) (A) (A) (A)
                 (A) (A) (A) (A) (A) (A) (A) (A) (A) (A) (A) (A)
                 (A) (A) (A) (A) (A) (A) (A) (A) (A) (A) (A) (A)
                 (A) (A) (A) (A) (A) (A) (A) (A) (A) (A) (A) (A)
                 (A) (A) (A) (A) (A) (A) (A) (A) (A) (A) (A) (A)
                 (A) (A) (A) (A) (A) (A) (A) (A) (A) (A) (A) (A)
                 (A) (A) (A) (A) (A) (A) (A) (A) (A) (A) (A) (A)
                 (A) (A) (A) (A) (A) (A) (A) (A) (A) (A) (A) (A)
                 (A) (A) (A) (A) (A) (A) (A) (A) (A) (A) (A) (A)
                 (A) (A) (A) (A) (A) (A) (A) (A) (A) (A) (A) (A)
                 (A) (A) (A) (A) (A) (A) (A) (A) (A) (A) (A) (A)
                 (A) (A) (A) (A) (A) (A) (A) (A) (A) (A) (A) (A)
                 (A) (A) (A) (A) (A) (A) (A) (A) (A) (A) (A) (A)
                 (A) (A) (A) (A) (A) (A) (A) (A) (A) (A) (A) (A)
                 (A) (A) (A) (A) (A) (A) (A) (A) (A) (A) (A) (A)
                 (A) (A) (A) (A) (A) (A) (A) (A) (A) (A) (A) (A)
                 (A) (A) (A) (A) (A) (A) (A) (A) (A) (A) (A) (A)
                 (A) (A) (A) (A) (A) (A) (A) (A) (A) (A) (A) (A)
                 (A) (A) (A) (A) (A) (A) (A) (A) (A) (A) (A) (A)
                 (A) (A) (A) (A) (A) (A) (A) (A) (A) (A) (A) (A)
                 (A) (A) (A) (A) (A) (A) (A) (A) (A) (A) (A) (A)
                 (A) (A) (A) (A) (A) (A) (A) (A) (A) (A) (A) (A)
                 (A) (A) (A) (A) (A) (A) (A) (A) (A) (A) (A) (A)
                 (A) (A) (A) (A) (A) (A) (A) (A) (A) (A) (A) (A)
                 (A) (A) (A) (A) (A) (A) (A) (A) (A) (A) (A) (A)
                 (A) (A) (A) (A) (A) (A) (A) (A) (A) (A) (A) (A)
                 (A) (A) (A) (A) (A) (A) (A) (A) (A) (A) (A) (A)
                 (A) (A) (A) (A) (A) (A) (A) (A) (A) (A) (A) (A)
                 (A) (A) (A) (A) (A) (A) (A) (A) (A) (A) (A) (A)
                 (A) (A) (A) (A) (A) (A) (A) (A) (A) (A) (A) (A)
                 (A) (A) (A) (A) (A) (A) (A) (A) (A) (A) (A) (A)
                 (A) (A) (A) (A) (A) (A) (A) (A) (A) (A) (A) (A)
                 (A) (A) (A) (A) (A) (A) (A) (A) (A) (A) (A) (A)
                 (A) (A) (A) (A) (A) (A) (A) (A) (A) (A) (A) (A)
                 (A) (A) (A) (A) (A) (A) (A) (A) (A) (A) (A) (A)
                 (A) (A) (A) (A) (A) (A) (A) (A) (A) (A) (A) (A)
                 (A) (A) (A) (A) (A) (A) (A) (A) (A) (A) (A) (A)
                 (A) (A) (A) (A) (A) (A) (A) (A) (A) (A) (A) (A)
                 (A) (A) (A) (A) (A) (A) (A) (A) (A) (A) (A) (A)
                 (A) (A) (A) (A) (A) (A) (A) (A) (A) (A) (A) (A)
                 (A) (A) (A) (A) (A) (A) (A) (A) (A) (A) (A) (A)
                 (A) (A) (A) (A) (A) (A) (A) (A) (A) (A) (A) (A)
                 (A) (A) (A) (A) (A) (A) (A) (A) (A) (A) (A) (A)
                 (A) (A) (A) (A) (A) (A) (A) (A) (A) (A) (A) (A)
                 (A) (A) (A) (A) (A) (A) (A) (A) (A) (A) (A) (A)
                 (A) (A) (A) (A) (A) (A) (A) (A) (A) (A) (A) (A)
                 (A) (A) (A) (A) (A) (A) (A) (A) (A) (A) (A) (A)
                 (A) (A) (A) (A) (A) (A) (A) (A) (A) (A) (A) (A)
                 (A) (A) (A) (A) (A) (A) (A) (A) (A) (A) (A) (A)
                 (A) (A) (A) (A) (A) (A) (A) (A) (A) (A) (A) (A)
                 (A) (A) (A) (A) (A) (A) (A) (A) (A) (A) (A) (A)
                 (A) (A) (A) (A) (A) (A) (A) (A) (A) (A) (A) (A)
                 (A) (A) (A) (A) (A) (A) (A) (A) (A) (A) (A) (A)
                 (A) (A) (A) (A) (A) (A) (A) (A) (A) (A) (A) (A)
                 (A) (A) (A) (A) (A) (A) (A) (A) (A) (A) (A) (A)
                 (A) (A) (A) (A) (A) (A) (A) (A) (A) (A) (A) (A)
                 (A) (A) (A) (A) (A) (A) (A) (A) (A) (A) (A) (A)
                 (A) (A) (A) (A) (A) (A) (A) (A) (A) (A) (A) (A)
                 (A) (A) (A) (A) (A) (A) (A) (A) (A) (A) (A) (A)
                 (A) (A) (A) (A) (A) (A) (A) (A) (A) (A) (A) (A)
                 (A) (A) (A) (A) (A) (A) (A) (A) (A) (A) (A) (A)
                 (A) (A) (A) (A) (A) (A) (A) (A) (A) (A) (A) (A)
                 (A) (A) (A) (A) (A) (A) (A) (A) (A) (A) (A) (A)
                 (A) (A) (A) (A) (A) (A)
 The electronic state is 1-A.
 Alpha  occ. eigenvalues --  -46.84840 -19.24182 -19.23841 -19.21448 -19.21283
 Alpha  occ. eigenvalues --  -19.20980 -14.41274 -14.39917 -14.39607 -14.39247
 Alpha  occ. eigenvalues --  -10.39124 -10.38746 -10.34419 -10.31127 -10.30922
 Alpha  occ. eigenvalues --  -10.30919 -10.30830 -10.30318 -10.30132 -10.29938
 Alpha  occ. eigenvalues --  -10.29649 -10.29583 -10.29329 -10.29103 -10.28995
 Alpha  occ. eigenvalues --  -10.28716 -10.28549 -10.28547 -10.28416 -10.28324
 Alpha  occ. eigenvalues --  -10.28080 -10.27865 -10.27787 -10.27682 -10.27532
 Alpha  occ. eigenvalues --  -10.27219 -10.27064 -10.27058 -10.26991 -10.26677
 Alpha  occ. eigenvalues --  -10.26420 -10.26382 -10.26342 -10.26303 -10.26297
 Alpha  occ. eigenvalues --  -10.26219 -10.26119 -10.26053 -10.26008 -10.25841
 Alpha  occ. eigenvalues --  -10.25815 -10.25538 -10.25494 -10.25448 -10.25380
 Alpha  occ. eigenvalues --  -10.25116 -10.25029 -10.24991 -10.24743 -10.24329
 Alpha  occ. eigenvalues --  -10.24290 -10.23613 -10.23545 -10.23339 -10.22274
 Alpha  occ. eigenvalues --   -3.13758  -1.88476  -1.88028  -1.87898  -1.18195
 Alpha  occ. eigenvalues --   -1.17090  -1.16011  -1.09579  -1.07692  -1.05376
 Alpha  occ. eigenvalues --   -1.04511  -1.04040  -1.01462  -0.91845  -0.91780
 Alpha  occ. eigenvalues --   -0.91118  -0.90205  -0.89469  -0.88810  -0.88714
 Alpha  occ. eigenvalues --   -0.88645  -0.87848  -0.87463  -0.86766  -0.86529
 Alpha  occ. eigenvalues --   -0.85376  -0.84211  -0.83559  -0.83345  -0.82427
 Alpha  occ. eigenvalues --   -0.81734  -0.80723  -0.80370  -0.80138  -0.78284
 Alpha  occ. eigenvalues --   -0.78092  -0.76720  -0.76270  -0.75942  -0.75529
 Alpha  occ. eigenvalues --   -0.74900  -0.74707  -0.73667  -0.73423  -0.72237
 Alpha  occ. eigenvalues --   -0.71075  -0.70142  -0.69319  -0.68880  -0.67832
 Alpha  occ. eigenvalues --   -0.67003  -0.66662  -0.64782  -0.64696  -0.64258
 Alpha  occ. eigenvalues --   -0.63558  -0.63506  -0.63076  -0.62625  -0.62427
 Alpha  occ. eigenvalues --   -0.61495  -0.61328  -0.60143  -0.59653  -0.59203
 Alpha  occ. eigenvalues --   -0.58641  -0.58105  -0.57744  -0.57240  -0.56438
 Alpha  occ. eigenvalues --   -0.55528  -0.55377  -0.55158  -0.54715  -0.54505
 Alpha  occ. eigenvalues --   -0.54358  -0.54020  -0.53582  -0.53359  -0.53212
 Alpha  occ. eigenvalues --   -0.53089  -0.52874  -0.52804  -0.51978  -0.51842
 Alpha  occ. eigenvalues --   -0.51501  -0.51291  -0.51031  -0.50967  -0.50842
 Alpha  occ. eigenvalues --   -0.50676  -0.50455  -0.50274  -0.50046  -0.49890
 Alpha  occ. eigenvalues --   -0.49722  -0.49626  -0.49286  -0.49014  -0.48500
 Alpha  occ. eigenvalues --   -0.48323  -0.48037  -0.47664  -0.47500  -0.47375
 Alpha  occ. eigenvalues --   -0.47080  -0.46870  -0.46672  -0.46266  -0.46223
 Alpha  occ. eigenvalues --   -0.46060  -0.45825  -0.45571  -0.45466  -0.45042
 Alpha  occ. eigenvalues --   -0.44811  -0.44757  -0.44474  -0.44420  -0.44136
 Alpha  occ. eigenvalues --   -0.44108  -0.43922  -0.43608  -0.43380  -0.43000
 Alpha  occ. eigenvalues --   -0.42633  -0.42487  -0.42328  -0.42062  -0.41755
 Alpha  occ. eigenvalues --   -0.41566  -0.41504  -0.41099  -0.41024  -0.40876
 Alpha  occ. eigenvalues --   -0.40518  -0.40442  -0.40342  -0.40105  -0.39756
 Alpha  occ. eigenvalues --   -0.39667  -0.39503  -0.39428  -0.39293  -0.39192
 Alpha  occ. eigenvalues --   -0.38958  -0.38473  -0.38195  -0.38047  -0.37997
 Alpha  occ. eigenvalues --   -0.37803  -0.37098  -0.36856  -0.36783  -0.36204
 Alpha  occ. eigenvalues --   -0.35964  -0.35812  -0.35784  -0.35624  -0.35606
 Alpha  occ. eigenvalues --   -0.35127  -0.34922  -0.34544  -0.33954  -0.33825
 Alpha  occ. eigenvalues --   -0.33687  -0.33220  -0.31949  -0.31324  -0.29985
 Alpha  occ. eigenvalues --   -0.29768  -0.28362  -0.27848  -0.27820  -0.23001
 Alpha  occ. eigenvalues --   -0.21933
 Alpha virt. eigenvalues --   -0.06923  -0.03133   0.02735   0.04385   0.04499
 Alpha virt. eigenvalues --    0.05011   0.05815   0.06049   0.06710   0.07066
 Alpha virt. eigenvalues --    0.08266   0.09137   0.10845   0.10917   0.11482
 Alpha virt. eigenvalues --    0.11603   0.11824   0.12284   0.13020   0.13093
 Alpha virt. eigenvalues --    0.13165   0.13466   0.13541   0.13792   0.13826
 Alpha virt. eigenvalues --    0.14785   0.14842   0.15001   0.15156   0.15265
 Alpha virt. eigenvalues --    0.15602   0.15865   0.16401   0.16451   0.16780
 Alpha virt. eigenvalues --    0.16822   0.17054   0.17090   0.17194   0.17416
 Alpha virt. eigenvalues --    0.17974   0.18066   0.18130   0.18200   0.18323
 Alpha virt. eigenvalues --    0.18378   0.18602   0.18686   0.19024   0.19213
 Alpha virt. eigenvalues --    0.19270   0.19499   0.19857   0.19924   0.20224
 Alpha virt. eigenvalues --    0.20469   0.20593   0.20647   0.20738   0.21106
 Alpha virt. eigenvalues --    0.21152   0.21369   0.21475   0.21510   0.21840
 Alpha virt. eigenvalues --    0.22067   0.22146   0.22170   0.22297   0.22560
 Alpha virt. eigenvalues --    0.22616   0.22723   0.23008   0.23017   0.23580
 Alpha virt. eigenvalues --    0.23849   0.23922   0.24226   0.24282   0.24618
 Alpha virt. eigenvalues --    0.24660   0.25012   0.25243   0.25543   0.25621
 Alpha virt. eigenvalues --    0.25807   0.26036   0.26195   0.26303   0.26621
 Alpha virt. eigenvalues --    0.26835   0.26869   0.27005   0.27411   0.27469
 Alpha virt. eigenvalues --    0.27522   0.27827   0.27985   0.28312   0.28457
 Alpha virt. eigenvalues --    0.28599   0.28986   0.29247   0.29416   0.29758
 Alpha virt. eigenvalues --    0.29995   0.30060   0.30272   0.30699   0.30737
 Alpha virt. eigenvalues --    0.30861   0.30948   0.31294   0.31732   0.32078
 Alpha virt. eigenvalues --    0.32232   0.32604   0.32754   0.33219   0.33447
 Alpha virt. eigenvalues --    0.33503   0.33951   0.34452   0.34746   0.35050
 Alpha virt. eigenvalues --    0.35345   0.35430   0.35703   0.35900   0.36307
 Alpha virt. eigenvalues --    0.36502   0.37149   0.37620   0.37775   0.38581
 Alpha virt. eigenvalues --    0.39074   0.39950   0.40674   0.40764   0.41122
 Alpha virt. eigenvalues --    0.41400   0.41630   0.42281   0.42471   0.42692
 Alpha virt. eigenvalues --    0.42731   0.43230   0.43541   0.45034   0.45767
 Alpha virt. eigenvalues --    0.46637   0.46809   0.47782   0.48224   0.48285
 Alpha virt. eigenvalues --    0.48973   0.50794   0.51029   0.52184   0.52752
 Alpha virt. eigenvalues --    0.53232   0.53353   0.53752   0.53846   0.54202
 Alpha virt. eigenvalues --    0.54294   0.55138   0.55517   0.55581   0.55978
 Alpha virt. eigenvalues --    0.56214   0.56345   0.56543   0.56725   0.57198
 Alpha virt. eigenvalues --    0.57429   0.57568   0.57771   0.57887   0.57989
 Alpha virt. eigenvalues --    0.58128   0.58424   0.58492   0.58687   0.59366
 Alpha virt. eigenvalues --    0.59450   0.59609   0.59930   0.60388   0.60468
 Alpha virt. eigenvalues --    0.60578   0.60718   0.60943   0.61359   0.61409
 Alpha virt. eigenvalues --    0.61510   0.61800   0.62229   0.62307   0.62381
 Alpha virt. eigenvalues --    0.63095   0.63339   0.63636   0.63798   0.64151
 Alpha virt. eigenvalues --    0.64254   0.64428   0.64881   0.65127   0.65217
 Alpha virt. eigenvalues --    0.65353   0.65649   0.65796   0.66087   0.66418
 Alpha virt. eigenvalues --    0.66626   0.67308   0.67485   0.67846   0.68042
 Alpha virt. eigenvalues --    0.68347   0.68428   0.68748   0.69142   0.69207
 Alpha virt. eigenvalues --    0.69379   0.69825   0.69861   0.70130   0.70513
 Alpha virt. eigenvalues --    0.71183   0.71315   0.71370   0.71746   0.71972
 Alpha virt. eigenvalues --    0.72261   0.72434   0.72812   0.72941   0.73407
 Alpha virt. eigenvalues --    0.73531   0.73625   0.73958   0.74057   0.74371
 Alpha virt. eigenvalues --    0.74486   0.74671   0.74899   0.75360   0.75630
 Alpha virt. eigenvalues --    0.75741   0.76109   0.76235   0.76681   0.77099
 Alpha virt. eigenvalues --    0.77306   0.77407   0.77755   0.77882   0.78251
 Alpha virt. eigenvalues --    0.78426   0.78816   0.78851   0.79105   0.79194
 Alpha virt. eigenvalues --    0.79267   0.79703   0.79917   0.80073   0.80256
 Alpha virt. eigenvalues --    0.80668   0.80786   0.80950   0.81165   0.81781
 Alpha virt. eigenvalues --    0.81897   0.82378   0.82587   0.82817   0.83286
 Alpha virt. eigenvalues --    0.83491   0.83672   0.83782   0.84100   0.84263
 Alpha virt. eigenvalues --    0.84589   0.84927   0.85066   0.85341   0.85636
 Alpha virt. eigenvalues --    0.85815   0.86122   0.86299   0.86359   0.86567
 Alpha virt. eigenvalues --    0.86627   0.86842   0.86940   0.87085   0.87324
 Alpha virt. eigenvalues --    0.87382   0.87679   0.87729   0.88142   0.88738
 Alpha virt. eigenvalues --    0.88890   0.88968   0.89172   0.89641   0.89877
 Alpha virt. eigenvalues --    0.89973   0.90259   0.90543   0.90765   0.90968
 Alpha virt. eigenvalues --    0.91139   0.91249   0.91388   0.91722   0.91926
 Alpha virt. eigenvalues --    0.92178   0.92398   0.92514   0.92527   0.92942
 Alpha virt. eigenvalues --    0.93200   0.93380   0.93593   0.93779   0.93931
 Alpha virt. eigenvalues --    0.94421   0.94499   0.94832   0.94894   0.95012
 Alpha virt. eigenvalues --    0.95302   0.95480   0.95538   0.95889   0.96152
 Alpha virt. eigenvalues --    0.96417   0.96662   0.96754   0.96975   0.97235
 Alpha virt. eigenvalues --    0.97291   0.97575   0.97789   0.98065   0.98405
 Alpha virt. eigenvalues --    0.98669   0.98796   0.98964   0.99154   0.99378
 Alpha virt. eigenvalues --    0.99610   0.99674   0.99895   1.00474   1.00706
 Alpha virt. eigenvalues --    1.00792   1.01275   1.01387   1.01579   1.01764
 Alpha virt. eigenvalues --    1.01886   1.01940   1.02471   1.02663   1.02906
 Alpha virt. eigenvalues --    1.03095   1.03169   1.03481   1.03683   1.03871
 Alpha virt. eigenvalues --    1.04116   1.04322   1.04783   1.04830   1.05125
 Alpha virt. eigenvalues --    1.05156   1.05531   1.05581   1.06002   1.06203
 Alpha virt. eigenvalues --    1.06779   1.06965   1.07081   1.07383   1.07792
 Alpha virt. eigenvalues --    1.08113   1.08199   1.08428   1.09089   1.09553
 Alpha virt. eigenvalues --    1.09627   1.09881   1.10499   1.10722   1.10784
 Alpha virt. eigenvalues --    1.11391   1.11929   1.12507   1.12782   1.13081
 Alpha virt. eigenvalues --    1.13500   1.13823   1.14640   1.14756   1.15037
 Alpha virt. eigenvalues --    1.15576   1.16010   1.16079   1.16506   1.17066
 Alpha virt. eigenvalues --    1.17843   1.18154   1.18926   1.19225   1.19606
 Alpha virt. eigenvalues --    1.20037   1.21115   1.21584   1.22304   1.22854
 Alpha virt. eigenvalues --    1.22975   1.23682   1.24202   1.24891   1.25132
 Alpha virt. eigenvalues --    1.25644   1.26508   1.26595   1.26875   1.27309
 Alpha virt. eigenvalues --    1.27611   1.28320   1.28842   1.29629   1.29964
 Alpha virt. eigenvalues --    1.30060   1.30552   1.31577   1.32138   1.32553
 Alpha virt. eigenvalues --    1.33492   1.34435   1.35077   1.35307   1.35811
 Alpha virt. eigenvalues --    1.35921   1.36996   1.37571   1.37927   1.38305
 Alpha virt. eigenvalues --    1.38533   1.38970   1.39292   1.40101   1.40228
 Alpha virt. eigenvalues --    1.40805   1.40944   1.41388   1.42257   1.42689
 Alpha virt. eigenvalues --    1.43482   1.43618   1.43693   1.44519   1.44961
 Alpha virt. eigenvalues --    1.45342   1.45951   1.46598   1.46905   1.47004
 Alpha virt. eigenvalues --    1.47899   1.48743   1.48858   1.49141   1.49855
 Alpha virt. eigenvalues --    1.49994   1.50702   1.50889   1.51460   1.51811
 Alpha virt. eigenvalues --    1.52547   1.53219   1.53714   1.53957   1.54060
 Alpha virt. eigenvalues --    1.54370   1.54924   1.55233   1.56095   1.56129
 Alpha virt. eigenvalues --    1.56441   1.57321   1.57878   1.58543   1.59015
 Alpha virt. eigenvalues --    1.59260   1.59483   1.60405   1.60762   1.61189
 Alpha virt. eigenvalues --    1.62008   1.62624   1.63146   1.63280   1.63693
 Alpha virt. eigenvalues --    1.64459   1.64478   1.65043   1.65297   1.66256
 Alpha virt. eigenvalues --    1.66340   1.66529   1.67481   1.67626   1.67930
 Alpha virt. eigenvalues --    1.68359   1.68525   1.68655   1.68895   1.69232
 Alpha virt. eigenvalues --    1.69511   1.69956   1.71021   1.71403   1.71900
 Alpha virt. eigenvalues --    1.71988   1.72859   1.73094   1.73558   1.74083
 Alpha virt. eigenvalues --    1.74126   1.74597   1.74793   1.75365   1.76044
 Alpha virt. eigenvalues --    1.76585   1.76931   1.77317   1.78237   1.78322
 Alpha virt. eigenvalues --    1.78532   1.78949   1.79303   1.79462   1.80102
 Alpha virt. eigenvalues --    1.80149   1.80801   1.80918   1.81328   1.81725
 Alpha virt. eigenvalues --    1.81868   1.82353   1.82633   1.82952   1.83483
 Alpha virt. eigenvalues --    1.84199   1.84334   1.85102   1.85455   1.85560
 Alpha virt. eigenvalues --    1.85615   1.86200   1.86643   1.86729   1.87331
 Alpha virt. eigenvalues --    1.87511   1.87929   1.88266   1.88725   1.88958
 Alpha virt. eigenvalues --    1.88962   1.89144   1.89481   1.89518   1.89913
 Alpha virt. eigenvalues --    1.90152   1.90259   1.90684   1.90887   1.90983
 Alpha virt. eigenvalues --    1.91134   1.91685   1.91866   1.91963   1.92093
 Alpha virt. eigenvalues --    1.92239   1.92462   1.92917   1.93408   1.93484
 Alpha virt. eigenvalues --    1.93904   1.94153   1.94261   1.94339   1.94577
 Alpha virt. eigenvalues --    1.95116   1.95221   1.95533   1.96004   1.96138
 Alpha virt. eigenvalues --    1.96199   1.96224   1.96854   1.96880   1.97059
 Alpha virt. eigenvalues --    1.97599   1.98013   1.98075   1.98590   1.98735
 Alpha virt. eigenvalues --    1.98921   1.99045   1.99395   1.99675   1.99836
 Alpha virt. eigenvalues --    2.00048   2.00117   2.00315   2.00515   2.00688
 Alpha virt. eigenvalues --    2.01466   2.01802   2.01910   2.01976   2.02217
 Alpha virt. eigenvalues --    2.02372   2.02688   2.03518   2.03804   2.04409
 Alpha virt. eigenvalues --    2.04664   2.05303   2.05397   2.05717   2.06012
 Alpha virt. eigenvalues --    2.06332   2.06937   2.07131   2.07514   2.07946
 Alpha virt. eigenvalues --    2.08501   2.08624   2.08702   2.09375   2.09832
 Alpha virt. eigenvalues --    2.09915   2.10268   2.10700   2.11043   2.11118
 Alpha virt. eigenvalues --    2.11321   2.11402   2.11614   2.12212   2.12678
 Alpha virt. eigenvalues --    2.12965   2.13404   2.13974   2.14073   2.14186
 Alpha virt. eigenvalues --    2.14435   2.14614   2.14996   2.15393   2.15912
 Alpha virt. eigenvalues --    2.16024   2.16194   2.16322   2.16525   2.17001
 Alpha virt. eigenvalues --    2.17475   2.17668   2.17838   2.18154   2.18280
 Alpha virt. eigenvalues --    2.18362   2.18514   2.18856   2.19342   2.19440
 Alpha virt. eigenvalues --    2.19533   2.19678   2.19991   2.20237   2.20595
 Alpha virt. eigenvalues --    2.20835   2.21445   2.21853   2.22156   2.22759
 Alpha virt. eigenvalues --    2.22917   2.22988   2.23493   2.24008   2.24290
 Alpha virt. eigenvalues --    2.24674   2.24866   2.24926   2.25376   2.25786
 Alpha virt. eigenvalues --    2.26323   2.27120   2.27455   2.27760   2.27947
 Alpha virt. eigenvalues --    2.28260   2.28555   2.29234   2.29430   2.29611
 Alpha virt. eigenvalues --    2.29758   2.30245   2.31020   2.31336   2.31480
 Alpha virt. eigenvalues --    2.31663   2.32107   2.32154   2.32564   2.33071
 Alpha virt. eigenvalues --    2.33433   2.33703   2.33878   2.34113   2.34357
 Alpha virt. eigenvalues --    2.34624   2.35143   2.35595   2.36077   2.36387
 Alpha virt. eigenvalues --    2.36751   2.37021   2.37292   2.37607   2.37896
 Alpha virt. eigenvalues --    2.38244   2.38665   2.38882   2.39110   2.39725
 Alpha virt. eigenvalues --    2.39771   2.39992   2.40459   2.40512   2.40589
 Alpha virt. eigenvalues --    2.41169   2.41206   2.41730   2.41858   2.42447
 Alpha virt. eigenvalues --    2.42967   2.43183   2.43537   2.43987   2.44153
 Alpha virt. eigenvalues --    2.44544   2.44984   2.45309   2.45516   2.45646
 Alpha virt. eigenvalues --    2.46079   2.46140   2.46371   2.46866   2.46980
 Alpha virt. eigenvalues --    2.47275   2.47485   2.47775   2.48072   2.48439
 Alpha virt. eigenvalues --    2.48514   2.48722   2.49200   2.49813   2.50052
 Alpha virt. eigenvalues --    2.50410   2.50546   2.51225   2.51418   2.51843
 Alpha virt. eigenvalues --    2.51950   2.52297   2.52419   2.52829   2.53318
 Alpha virt. eigenvalues --    2.54092   2.54191   2.54346   2.54576   2.54742
 Alpha virt. eigenvalues --    2.55132   2.55501   2.55807   2.56743   2.57045
 Alpha virt. eigenvalues --    2.57433   2.57946   2.58100   2.58796   2.59387
 Alpha virt. eigenvalues --    2.59589   2.60200   2.60450   2.60999   2.61252
 Alpha virt. eigenvalues --    2.61538   2.62043   2.62392   2.62527   2.62833
 Alpha virt. eigenvalues --    2.62930   2.63064   2.63592   2.64150   2.64450
 Alpha virt. eigenvalues --    2.64617   2.65598   2.65669   2.66086   2.66501
 Alpha virt. eigenvalues --    2.66813   2.67134   2.67279   2.67714   2.67931
 Alpha virt. eigenvalues --    2.68317   2.68499   2.69354   2.69829   2.70294
 Alpha virt. eigenvalues --    2.70414   2.70519   2.70622   2.70834   2.71444
 Alpha virt. eigenvalues --    2.71721   2.71835   2.72075   2.72458   2.72540
 Alpha virt. eigenvalues --    2.72618   2.72853   2.73248   2.73696   2.74314
 Alpha virt. eigenvalues --    2.74450   2.74655   2.75190   2.75717   2.75924
 Alpha virt. eigenvalues --    2.76421   2.76740   2.76876   2.77096   2.77538
 Alpha virt. eigenvalues --    2.77724   2.78218   2.78517   2.78994   2.79230
 Alpha virt. eigenvalues --    2.79463   2.79515   2.79786   2.80077   2.80859
 Alpha virt. eigenvalues --    2.81265   2.81744   2.81969   2.82083   2.82398
 Alpha virt. eigenvalues --    2.82969   2.83077   2.83973   2.84269   2.84870
 Alpha virt. eigenvalues --    2.85388   2.85672   2.86030   2.86228   2.86352
 Alpha virt. eigenvalues --    2.86593   2.87624   2.87687   2.88257   2.88474
 Alpha virt. eigenvalues --    2.88778   2.89129   2.89451   2.90144   2.90512
 Alpha virt. eigenvalues --    2.90759   2.91555   2.91756   2.91864   2.91983
 Alpha virt. eigenvalues --    2.92829   2.93562   2.93926   2.94033   2.94492
 Alpha virt. eigenvalues --    2.95337   2.95405   2.96116   2.96340   2.96689
 Alpha virt. eigenvalues --    2.97231   2.97854   2.98119   2.98319   2.99609
 Alpha virt. eigenvalues --    2.99906   3.00149   3.00660   3.00720   3.00749
 Alpha virt. eigenvalues --    3.01312   3.01636   3.02237   3.02510   3.02965
 Alpha virt. eigenvalues --    3.03662   3.04683   3.04894   3.05023   3.05498
 Alpha virt. eigenvalues --    3.05964   3.06266   3.06920   3.07132   3.07587
 Alpha virt. eigenvalues --    3.07776   3.08484   3.08843   3.09422   3.09506
 Alpha virt. eigenvalues --    3.09759   3.09990   3.11070   3.11894   3.11919
 Alpha virt. eigenvalues --    3.12730   3.13214   3.14698   3.15182   3.15935
 Alpha virt. eigenvalues --    3.16445   3.17069   3.17241   3.17503   3.17852
 Alpha virt. eigenvalues --    3.18572   3.19206   3.19318   3.20311   3.21240
 Alpha virt. eigenvalues --    3.22832   3.23042   3.24021   3.24111   3.24392
 Alpha virt. eigenvalues --    3.24898   3.25968   3.26825   3.26933   3.28737
 Alpha virt. eigenvalues --    3.29187   3.29581   3.30488   3.30740   3.31354
 Alpha virt. eigenvalues --    3.31676   3.32290   3.32332   3.33537   3.34584
 Alpha virt. eigenvalues --    3.35077   3.35513   3.35794   3.37173   3.38427
 Alpha virt. eigenvalues --    3.39709   3.40192   3.40435   3.41028   3.41636
 Alpha virt. eigenvalues --    3.41781   3.41835   3.43001   3.43646   3.43821
 Alpha virt. eigenvalues --    3.45060   3.45146   3.46071   3.47698   3.48317
 Alpha virt. eigenvalues --    3.49560   3.50369   3.51545   3.51792   3.52521
 Alpha virt. eigenvalues --    3.53511   3.53632   3.54322   3.55370   3.56579
 Alpha virt. eigenvalues --    3.56755   3.57562   3.58403   3.59626   3.59880
 Alpha virt. eigenvalues --    3.60190   3.60700   3.61742   3.63006   3.63732
 Alpha virt. eigenvalues --    3.65455   3.66654   3.67940   3.70198   3.70850
 Alpha virt. eigenvalues --    3.70902   3.72423   3.76180   3.76420   3.84759
 Alpha virt. eigenvalues --    3.85122   3.88537   3.94989   4.03636   4.12031
 Alpha virt. eigenvalues --    4.12887   4.15310   4.18308   4.21300   4.22239
 Alpha virt. eigenvalues --    4.23011   4.23622   4.23744   4.27332   4.27839
 Alpha virt. eigenvalues --    4.28851   4.29921   4.31473   4.32344   4.32853
 Alpha virt. eigenvalues --    4.33764   4.35337   4.37474   4.38315   4.40619
 Alpha virt. eigenvalues --    4.41554   4.41829   4.44406   4.44968   4.46230
 Alpha virt. eigenvalues --    4.48050   4.48324   4.49332   4.50863   4.51395
 Alpha virt. eigenvalues --    4.52235   4.54652   4.54879   4.55069   4.55374
 Alpha virt. eigenvalues --    4.57782   4.58957   4.59164   4.59580   4.60634
 Alpha virt. eigenvalues --    4.61212   4.61433   4.62376   4.62687   4.66400
 Alpha virt. eigenvalues --    4.68921   4.69744   4.70617   4.71770   4.73323
 Alpha virt. eigenvalues --    4.74289   4.75706   4.78809   4.80130   4.80636
 Alpha virt. eigenvalues --    4.83632   4.84393   4.86635   4.87467   4.88186
 Alpha virt. eigenvalues --    4.90452   4.93077   5.04996
          Condensed to atoms (all electrons):
 Mulliken charges:
               1
     1  Mg   0.826977
     2  C    0.027999
     3  C   -0.193966
     4  C   -0.145174
     5  C   -0.156472
     6  N   -0.653832
     7  C    0.290065
     8  C   -0.180616
     9  C   -0.157938
    10  C    0.366733
    11  C   -0.277619
    12  C   -0.164520
    13  C   -0.260354
    14  C    0.628389
    15  O   -0.454077
    16  O   -0.537352
    17  N   -0.753253
    18  C    0.358421
    19  C   -0.073465
    20  C    0.018893
    21  C    0.272948
    22  C   -0.342442
    23  C   -0.061218
    24  C   -0.251983
    25  N   -0.676638
    26  C    0.275672
    27  C    0.064212
    28  C    0.004457
    29  C    0.303687
    30  C   -0.344453
    31  C   -0.249643
    32  C   -0.291963
    33  N   -0.724587
    34  C    0.225699
    35  C   -0.007012
    36  C   -0.031990
    37  C    0.347280
    38  C   -0.361688
    39  C    0.354849
    40  O   -0.371075
    41  C   -0.318336
    42  C    0.623654
    43  O   -0.441973
    44  O   -0.485614
    45  C   -0.064052
    46  C    0.025201
    47  C   -0.093135
    48  C    0.077975
    49  C   -0.328522
    50  C   -0.218364
    51  C   -0.169965
    52  C   -0.177992
    53  C   -0.066067
    54  C   -0.314866
    55  C   -0.133138
    56  C   -0.176460
    57  C   -0.162996
    58  C   -0.025742
    59  C   -0.316583
    60  C   -0.182510
    61  C   -0.188393
    62  C   -0.159095
    63  C   -0.051577
    64  C   -0.315426
    65  C   -0.281344
    66  H    0.091365
    67  H    0.098490
    68  H    0.108515
    69  H    0.117573
    70  H    0.084000
    71  H    0.113333
    72  H    0.115338
    73  H    0.087024
    74  H    0.114346
    75  H    0.133114
    76  H    0.122985
    77  H    0.151031
    78  H    0.137864
    79  H    0.134489
    80  H    0.093652
    81  H    0.078040
    82  H    0.100454
    83  H    0.114478
    84  H    0.064394
    85  H    0.110800
    86  H    0.119511
    87  H    0.088284
    88  H    0.096804
    89  H    0.113004
    90  H    0.107789
    91  H    0.095290
    92  H    0.142289
    93  H    0.139191
    94  H    0.121110
    95  H    0.172367
    96  H    0.090622
    97  H    0.130827
    98  H    0.124326
    99  H    0.100881
   100  H    0.122627
   101  H    0.086368
   102  H    0.119851
   103  H    0.114922
   104  H    0.087810
   105  H    0.103715
   106  H    0.108340
   107  H    0.112612
   108  H    0.099274
   109  H    0.068112
   110  H    0.093003
   111  H    0.083081
   112  H    0.104733
   113  H    0.118940
   114  H    0.078252
   115  H    0.035211
   116  H    0.097752
   117  H    0.088354
   118  H    0.099582
   119  H    0.085160
   120  H    0.058926
   121  H    0.092302
   122  H    0.076681
   123  H    0.068421
   124  H    0.118635
   125  H    0.083545
   126  H    0.100786
   127  H    0.086121
   128  H    0.092081
   129  H    0.078522
   130  H    0.056344
   131  H    0.098456
   132  H    0.100361
   133  H    0.104221
   134  H    0.097076
   135  H    0.107282
   136  H    0.069445
   137  H    0.091886
 Sum of Mulliken charges =   0.00000
 Mulliken charges with hydrogens summed into heavy atoms:
               1
     1  Mg   0.826977
     2  C    0.027999
     3  C   -0.102601
     4  C   -0.046684
     5  C   -0.047958
     6  N   -0.653832
     7  C    0.290065
     8  C   -0.063043
     9  C   -0.073938
    10  C    0.366733
    11  C    0.038076
    12  C    0.082939
    13  C    0.013663
    14  C    0.628389
    15  O   -0.454077
    16  O   -0.537352
    17  N   -0.753253
    18  C    0.358421
    19  C   -0.073465
    20  C    0.018893
    21  C    0.272948
    22  C    0.023563
    23  C    0.016822
    24  C   -0.037052
    25  N   -0.676638
    26  C    0.275672
    27  C    0.064212
    28  C    0.004457
    29  C    0.303687
    30  C   -0.049748
    31  C   -0.064556
    32  C    0.024120
    33  N   -0.724587
    34  C    0.225699
    35  C   -0.007012
    36  C   -0.031990
    37  C    0.347280
    38  C    0.040902
    39  C    0.354849
    40  O   -0.371075
    41  C   -0.145969
    42  C    0.623654
    43  O   -0.441973
    44  O   -0.485614
    45  C    0.281723
    46  C    0.248709
    47  C   -0.006767
    48  C    0.077975
    49  C   -0.005940
    50  C   -0.006310
    51  C    0.041921
    52  C   -0.016877
    53  C    0.017014
    54  C   -0.012940
    55  C   -0.000176
    56  C    0.011477
    57  C   -0.018909
    58  C    0.066559
    59  C   -0.052847
    60  C    0.001821
    61  C   -0.010190
    62  C   -0.024229
    63  C    0.046879
    64  C   -0.013768
    65  C   -0.012731
 Electronic spatial extent (au):  <R**2>=         179617.5863
 Charge=              0.0000 electrons
 Dipole moment (field-independent basis, Debye):
    X=              0.1807    Y=              3.8063    Z=             -0.8497  Tot=              3.9041
 Quadrupole moment (field-independent basis, Debye-Ang):
   XX=           -343.1674   YY=           -389.6079   ZZ=           -400.7875
   XY=            -12.8345   XZ=              1.1753   YZ=             -3.1487
 Traceless Quadrupole moment (field-independent basis, Debye-Ang):
   XX=             34.6869   YY=            -11.7536   ZZ=            -22.9332
   XY=            -12.8345   XZ=              1.1753   YZ=             -3.1487
 Octapole moment (field-independent basis, Debye-Ang**2):
  XXX=           -750.8057  YYY=             96.8689  ZZZ=              1.5352  XYY=            -79.4337
  XXY=             24.3195  XXZ=           -389.2008  XZZ=             16.8150  YZZ=            -40.5319
  YYZ=             24.6911  XYZ=            -34.2461
 Hexadecapole moment (field-independent basis, Debye-Ang**3):
 XXXX=        -220053.4942 YYYY=         -17206.5899 ZZZZ=          -4303.0247 XXXY=            146.6745
 XXXZ=          -2190.6760 YYYX=           -632.0453 YYYZ=           -307.7133 ZZZX=           -113.9296
 ZZZY=            -82.4816 XXYY=         -40054.1394 XXZZ=         -39329.3922 YYZZ=          -3624.0108
 XXYZ=           -208.5630 YYXZ=             49.8480 ZZXY=            126.2333
 N-N= 8.744381208058D+03 E-N=-2.431182200592D+04  KE= 2.905976302761D+03
 1\1\GINC-PEDRO-RYZENSSD\SP\RCAM-B3LYP TD-FC\6-31G(d,p)\C55H72Mg1N4O5\P
 ADAWAN\28-Jun-2019\0\\# td=(NStates=1) CAM-B3LYP/6-31G(d,p)\\TD\\0,1\M
 g,0,-7.1143331026,0.650523293,0.1155796066\C,0,-4.8594548266,-1.960388
 1501,0.4656522001\C,0,-4.6644057469,2.8659709244,1.1628797452\C,0,-9.4
 580903978,3.1068430837,-0.4157629093\C,0,-9.6191729449,-1.7728574607,-
 0.7775358686\N,0,-5.0386966513,0.4061118717,0.781955716\C,0,-4.2765652
 618,-0.7911397344,0.804062309\C,0,-2.8641773789,-0.439009173,1.2647719
 184\C,0,-2.9961999092,1.043045437,1.7759404004\C,0,-4.3084889356,1.513
 9417746,1.1882350847\C,0,-2.9162094119,1.2230187892,3.2705205782\C,0,-
 1.8113654174,-0.6115551656,0.1054498708\C,0,-0.4401722712,-0.486906922
 1,0.5917877617\C,0,0.4488242608,-0.5814315753,-0.5928809399\O,0,0.1629
 668464,-1.008782282,-1.6834276231\O,0,1.8002570507,-0.4155964664,-0.24
 01482349\N,0,-7.0076483733,2.6101524225,0.3909942562\C,0,-5.9805451855
 ,3.3361145654,0.7904070247\C,0,-6.3737853682,4.6877694073,0.8463624007
 \C,0,-7.7203626317,4.7848783745,0.5244693539\C,0,-8.1305736106,3.43210
 35017,0.1573860778\C,0,-5.4825240336,5.9998510764,1.1301395392\C,0,-8.
 566715884,6.0039554635,0.310741096\C,0,-8.2617753753,7.2698830726,0.02
 64283805\N,0,-9.1480598417,0.5883553138,-0.4163333386\C,0,-9.857617420
 7,1.7233830209,-0.628677992\C,0,-11.1740121441,1.4939903894,-1.1488296
 326\C,0,-11.2604445652,0.1033742147,-1.1064599122\C,0,-9.9739672804,-0
 .400178506,-0.7283921421\C,0,-12.3226205042,2.3948917701,-1.4896394948
 \C,0,-12.3828583315,-0.7104821104,-1.6941545927\C,0,-12.2862049525,-0.
 938507736,-3.1965377592\N,0,-7.2713733894,-1.3783872003,-0.194902609\C
 ,0,-8.3256777901,-2.2690128408,-0.4100388098\C,0,-7.8543130988,-3.5695
 41137,-0.3996583948\C,0,-6.5362991519,-3.4753018457,-0.0942219143\C,0,
 -6.2070254807,-2.1264588004,-0.0037887575\C,0,-8.5494952942,-4.9906718
 861,-0.6933188789\C,0,-5.3999465324,-4.3617321585,0.1804465446\O,0,-5.
 2651178736,-5.4616588195,-0.0004640116\C,0,-4.1992433343,-3.3992928634
 ,0.5047013621\C,0,-3.5928936536,-3.674823567,1.8484560253\O,0,-3.68814
 24688,-3.1250857414,2.8771314284\O,0,-2.7670280507,-4.8037985324,1.735
 1416022\C,0,-2.1638790264,-5.2874092102,2.9101923562\C,0,2.8628800646,
 -0.632842542,-1.2746928442\C,0,4.0781011325,-0.5322970791,-0.668809409
 6\C,0,5.1477783852,0.312044529,-1.083518252\C,0,4.9459720138,1.2212866
 65,-2.2977668678\C,0,6.4515916168,0.423601167,-0.2910957958\C,0,7.6423
 619751,-0.091671049,-1.0102406928\C,0,8.8463237148,-0.0906988034,-0.10
 25428485\C,0,10.1425351465,-0.4490320015,-0.89935633\C,0,10.0957367599
 ,-1.8796573006,-1.4629679583\C,0,11.3710182189,-0.2850593965,-0.009330
 7344\C,0,12.7527824472,-0.447701286,-0.7398945293\C,0,13.9138170695,-0
 .1767644396,0.1795451675\C,0,15.3116465087,-0.2393965514,-0.4180048508
 \C,0,15.8078948917,-1.5563284186,-0.8991571955\C,0,16.4269859526,0.386
 1530014,0.43865305\C,0,17.7890746118,0.5951776436,-0.2018484647\C,0,18
 .796095009,1.20503235,0.7511374754\C,0,20.3321008899,1.285694314,0.318
 6314667\C,0,20.3503152604,2.1376394119,-0.9459804194\C,0,21.0762454986
 ,1.9680811775,1.4374304446\H,0,-3.9754378023,3.6685552372,1.4813626573
 \H,0,-10.2087546272,3.8576433482,-0.4831026129\H,0,-10.4594552073,-2.4
 956096157,-1.1027438219\H,0,-2.6906077515,-1.032522916,2.3145586945\H,
 0,-2.0492345615,1.6410325919,1.403004667\H,0,-1.9657102943,0.992194708
 5,3.7050707205\H,0,-3.0542202082,2.2180412607,3.3319277603\H,0,-3.6739
 78379,0.388363204,3.9517590604\H,0,-2.0739799249,-1.6438803084,-0.3558
 805741\H,0,-2.335417744,-0.0129892076,-0.6501901206\H,0,-0.5040274967,
 0.5935372772,1.0780800599\H,0,-0.1097769314,-1.2415171271,1.478750751\
 H,0,-5.0768698547,6.2496001351,0.3301047927\H,0,-6.1920538757,6.630512
 8501,1.5065853477\H,0,-4.791462375,5.9154767191,2.0829719759\H,0,-9.63
 8681367,5.661549091,0.0600838529\H,0,-9.1312537658,8.0001586054,-0.145
 0739141\H,0,-7.2772227589,7.673977967,-0.195524023\H,0,-12.3267580886,
 2.5236696723,-2.9075770561\H,0,-13.3138666002,1.7025258907,-1.37842136
 58\H,0,-12.3685338148,3.3413072161,-0.8377852765\H,0,-12.5787103991,-1
 .7826306613,-1.2393141393\H,0,-13.3530913127,-0.1720710201,-1.48298565
 56\H,0,-13.0656370299,-1.6125324924,-3.4317761753\H,0,-12.2231824922,0
 .0067019443,-3.7944770227\H,0,-11.2928826359,-1.4453374777,-3.54172328
 78\H,0,-8.6938302789,-4.8351963679,-1.6545930407\H,0,-7.9184655476,-5.
 9457146797,-0.5041246406\H,0,-9.4759097568,-5.2096577528,-0.2485931155
 \H,0,-3.5489450265,-3.7177933638,-0.3268993429\H,0,-1.1498260726,-4.72
 92112984,3.236720359\H,0,-3.012346422,-5.2939600384,3.5740946316\H,0,-
 1.7977011966,-6.2712513022,2.542150918\H,0,2.7188965608,-1.6690165916,
 -1.8369277691\H,0,2.5077324734,-0.1125883404,-2.0452065405\H,0,4.04790
 40147,-1.0313911453,0.153377714\H,0,3.8873296693,1.154566553,-2.608154
 1577\H,0,5.1036836668,2.2168460748,-1.7264069953\H,0,5.8779231151,0.95
 81061408,-3.2058218815\H,0,6.6522682501,1.4309693246,-0.0107535777\H,0
 ,6.4157849265,-0.1088741363,0.6193529424\H,0,7.4611498571,-0.992400311
 7,-1.4726813968\H,0,7.9491364446,0.5894258191,-1.7853686838\H,0,8.9911
 252097,1.0363562521,0.3384478073\H,0,8.8165694797,-0.7353118866,0.7686
 314817\H,0,10.2497966912,0.2390586722,-1.7124350741\H,0,9.1053370301,-
 1.9711541597,-1.8499999612\H,0,10.8288159663,-2.1117776904,-2.19258544
 45\H,0,9.8446219358,-2.625244147,-0.5520672974\H,0,11.3841331755,1.001
 704578,0.3149134547\H,0,11.2716675765,-1.0067930174,0.728080281\H,0,12
 .8322589616,-1.494496311,-1.2758359185\H,0,12.806359542,0.3340528843,-
 1.4429426581\H,0,13.8584173449,0.8541486704,0.6911757781\H,0,13.915327
 6231,-0.9648589232,1.0914543151\H,0,15.2860609982,0.2787377342,-1.1960
 092604\H,0,15.7314251435,-2.3248492108,0.0269550979\H,0,15.1209496268,
 -2.1151497086,-1.7282205425\H,0,16.755253584,-1.6540293315,-1.41965407
 42\H,0,16.18230344,1.2602450972,0.9993833593\H,0,16.6425959616,-0.3761
 140071,1.1175146832\H,0,18.0825174436,-0.4282897928,-0.4994459522\H,0,
 17.7378438656,1.2705983183,-1.075541038\H,0,18.3491736002,2.2686487645
 ,0.6139864995\H,0,18.8127975572,0.9158952008,1.9520915608\H,0,20.71321
 13878,0.3351999558,0.1303407845\H,0,20.0210189352,3.1487038553,-0.7734
 176113\H,0,21.243910505,2.155581436,-1.3233935934\H,0,19.7298038136,1.
 8166930716,-1.7755079741\H,0,20.8969097063,1.3144107449,2.2757170133\H
 ,0,22.2448291234,2.1742659578,1.0773820044\H,0,20.7739399266,3.1087145
 477,1.61888782\\Version=ES64L-G09RevD.01\State=1-A\HF=-2932.5582972\RM
 SD=4.635e-09\PG=C01 [X(C55H72Mg1N4O5)]\\@


 Happiness is a conscious choice, not an automatic response.
 -- Mildred Barthel
 Job cpu time:       0 days  6 hours 30 minutes 58.1 seconds.
 File lengths (MBytes):  RWF=   2106 Int=      0 D2E=      0 Chk=    163 Scr=      1
 Normal termination of Gaussian 09 at Fri Jun 28 00:56:17 2019.
