 Entering Gaussian System, Link 0=g16
 Input=Geometria-374-.com
 Output=Geometria-374-.log
 Initial command:
 /usr/local/g09/l1.exe "/home/padawan/israel-mol/chlorophyll-a/spectra/abs/Gau-76163.inp" -scrdir="/home/padawan/israel-mol/chlorophyll-a/spectra/abs/"
 Entering Link 1 = /usr/local/g09/l1.exe PID=     76165.
  
 Copyright (c) 1988,1990,1992,1993,1995,1998,2003,2009,2013,
            Gaussian, Inc.  All Rights Reserved.
  
 This is part of the Gaussian(R) 09 program.  It is based on
 the Gaussian(R) 03 system (copyright 2003, Gaussian, Inc.),
 the Gaussian(R) 98 system (copyright 1998, Gaussian, Inc.),
 the Gaussian(R) 94 system (copyright 1995, Gaussian, Inc.),
 the Gaussian 92(TM) system (copyright 1992, Gaussian, Inc.),
 the Gaussian 90(TM) system (copyright 1990, Gaussian, Inc.),
 the Gaussian 88(TM) system (copyright 1988, Gaussian, Inc.),
 the Gaussian 86(TM) system (copyright 1986, Carnegie Mellon
 University), and the Gaussian 82(TM) system (copyright 1983,
 Carnegie Mellon University). Gaussian is a federally registered
 trademark of Gaussian, Inc.
  
 This software contains proprietary and confidential information,
 including trade secrets, belonging to Gaussian, Inc.
  
 This software is provided under written license and may be
 used, copied, transmitted, or stored only in accord with that
 written license.
  
 The following legend is applicable only to US Government
 contracts under FAR:
  
                    RESTRICTED RIGHTS LEGEND
  
 Use, reproduction and disclosure by the US Government is
 subject to restrictions as set forth in subparagraphs (a)
 and (c) of the Commercial Computer Software - Restricted
 Rights clause in FAR 52.227-19.
  
 Gaussian, Inc.
 340 Quinnipiac St., Bldg. 40, Wallingford CT 06492
  
  
 ---------------------------------------------------------------
 Warning -- This program may not be used in any manner that
 competes with the business of Gaussian, Inc. or will provide
 assistance to any competitor of Gaussian, Inc.  The licensee
 of this program is prohibited from giving any competitor of
 Gaussian, Inc. access to this program.  By using this program,
 the user acknowledges that Gaussian, Inc. is engaged in the
 business of creating and licensing software in the field of
 computational chemistry and represents and warrants to the
 licensee that it is not a competitor of Gaussian, Inc. and that
 it will not use this program in any manner prohibited above.
 ---------------------------------------------------------------
  

 Cite this work as:
 Gaussian 09, Revision D.01,
 M. J. Frisch, G. W. Trucks, H. B. Schlegel, G. E. Scuseria, 
 M. A. Robb, J. R. Cheeseman, G. Scalmani, V. Barone, B. Mennucci, 
 G. A. Petersson, H. Nakatsuji, M. Caricato, X. Li, H. P. Hratchian, 
 A. F. Izmaylov, J. Bloino, G. Zheng, J. L. Sonnenberg, M. Hada, 
 M. Ehara, K. Toyota, R. Fukuda, J. Hasegawa, M. Ishida, T. Nakajima, 
 Y. Honda, O. Kitao, H. Nakai, T. Vreven, J. A. Montgomery, Jr., 
 J. E. Peralta, F. Ogliaro, M. Bearpark, J. J. Heyd, E. Brothers, 
 K. N. Kudin, V. N. Staroverov, T. Keith, R. Kobayashi, J. Normand, 
 K. Raghavachari, A. Rendell, J. C. Burant, S. S. Iyengar, J. Tomasi, 
 M. Cossi, N. Rega, J. M. Millam, M. Klene, J. E. Knox, J. B. Cross, 
 V. Bakken, C. Adamo, J. Jaramillo, R. Gomperts, R. E. Stratmann, 
 O. Yazyev, A. J. Austin, R. Cammi, C. Pomelli, J. W. Ochterski, 
 R. L. Martin, K. Morokuma, V. G. Zakrzewski, G. A. Voth, 
 P. Salvador, J. J. Dannenberg, S. Dapprich, A. D. Daniels, 
 O. Farkas, J. B. Foresman, J. V. Ortiz, J. Cioslowski, 
 and D. J. Fox, Gaussian, Inc., Wallingford CT, 2013.
 
 ******************************************
 Gaussian 09:  ES64L-G09RevD.01 24-Apr-2013
                30-Jun-2019 
 ******************************************
 %nproc=4
 Will use up to    4 processors via shared memory.
 %Mem=2GB
 -------------------------------------
 # td=(NStates=1) CAM-B3LYP/6-31G(d,p)
 -------------------------------------
 1/38=1/1;
 2/12=2,17=6,18=5,40=1/2;
 3/5=1,6=6,7=101,11=9,16=1,25=1,30=1,74=-40/1,2,8,3;
 4//1;
 5/5=2,38=5/2;
 8/6=1,10=2,108=1/1;
 9/41=1,42=1,70=2/14;
 6/7=2,8=2,9=2,10=2/1;
 99/5=1,9=1/99;
 --
 TD
 --
 Symbolic Z-matrix:
 Charge =  0 Multiplicity = 1
 12                   -7.11897   0.58973   0.0668 
 6                    -4.87043  -1.94196   0.55167 
 6                    -4.8215    2.76428   1.14919 
 6                    -9.43267   3.11256  -0.40037 
 6                    -9.47967  -1.73578  -0.92802 
 7                    -5.12252   0.41176   0.76141 
 6                    -4.37237  -0.62317   0.82315 
 6                    -2.93986  -0.34996   1.31024 
 6                    -2.98892   1.09112   1.77976 
 6                    -4.34448   1.54641   1.23468 
 6                    -2.92302   1.16274   3.29741 
 6                    -1.84969  -0.63016   0.16442 
 6                    -0.35976  -0.51948   0.54629 
 6                     0.57365  -0.72564  -0.62067 
 8                     0.15307  -1.03104  -1.71574 
 8                     1.808    -0.4045   -0.2018 
 7                    -7.07179   2.63655   0.32481 
 6                    -6.12877   3.34839   0.80313 
 6                    -6.38623   4.77018   0.82732 
 6                    -7.71668   4.87643   0.3997 
 6                    -8.1363    3.48007   0.05296 
 6                    -5.51604   5.8588    1.36696 
 6                    -8.61202   6.08577   0.17012 
 6                    -8.1418    7.29548   0.02449 
 7                    -9.15328   0.67139  -0.55298 
 6                    -9.93055   1.82111  -0.74009 
 6                    -11.19423   1.40102  -1.15553 
 6                    -11.23247   0.06786  -1.24177 
 6                    -9.95561  -0.3726   -0.82446 
 6                    -12.37173   2.37878  -1.28857 
 6                    -12.4008  -0.75003  -1.67285 
 6                    -12.39072  -1.0694   -3.18543 
 7                    -7.2786   -1.42621  -0.09531 
 6                    -8.30164  -2.29141  -0.57952 
 6                    -7.79469  -3.60502  -0.4842 
 6                    -6.49454  -3.55184  -0.11716 
 6                    -6.27142  -2.24583   0.13401 
 6                    -8.63201  -4.82264  -0.85825 
 6                    -5.30085  -4.31256   0.02168 
 8                    -5.12226  -5.57473   0.03181 
 6                    -4.1361   -3.26272   0.50834 
 6                    -3.52083  -3.6668    1.85372 
 8                    -3.70795  -3.12772   2.92313 
 8                    -2.74389  -4.81204   1.751 
 6                    -2.2323   -5.40721   2.95257 
 6                     2.93205  -0.67554  -1.2364 
 6                     4.12971  -0.35478  -0.49849 
 6                     5.15037   0.54165  -0.87835 
 6                     5.11173   1.44383  -2.04214 
 6                     6.41711   0.55614  -0.16345 
 6                     7.52179  -0.28933  -0.81668 
 6                     8.87823  -0.14321  -0.03958 
 6                     10.13575  -0.59826  -0.84268 
 6                     10.06099  -2.03497  -1.42253 
 6                     11.48733  -0.34276   0.07366 
 6                     12.72058  -0.51659  -0.60943 
 6                     13.90499  -0.10829   0.23125 
 6                     15.26409  -0.26647  -0.57327 
 6                     15.60038  -1.68231  -0.92621 
 6                     16.43724   0.33475   0.33268 
 6                     17.82701   0.55427  -0.31345 
 6                     18.78004   1.41378   0.66941 
 6                     20.24655   1.38576   0.24576 
 6                     20.31892   2.16484  -1.15347 
 6                     21.18242   2.0167    1.24646 
 1                    -3.98036   3.51786   1.50239 
 1                    -9.98509   3.90106  -0.31352 
 1                    -10.37525  -2.58382  -1.23739 
 1                    -2.81871  -0.99748   2.17123 
 1                    -2.25732   1.89437   1.44042 
 1                    -2.00234   1.04289   3.6798 
 1                    -3.21374   2.24308   3.77379 
 1                    -3.53042   0.59505   3.82934 
 1                    -1.8452   -1.56158  -0.3887 
 1                    -1.76688   0.17585  -0.61109 
 1                    -0.31469   0.36517   1.06599 
 1                    -0.24669  -1.2643    1.32726 
 1                    -4.87095   6.40045   0.60084 
 1                    -6.15593   6.58315   1.92046 
 1                    -4.73737   5.4575    2.19945 
 1                    -9.68306   5.83611   0.30745 
 1                    -8.93959   7.87985  -0.18062 
 1                    -7.13533   7.60859  -0.15371 
 1                    -12.34158   2.93655  -2.15885 
 1                    -13.27774   1.66631  -1.37967 
 1                    -12.4897   3.05842  -0.39287 
 1                    -12.43791  -1.58173  -1.16257 
 1                    -13.18451  -0.02109  -1.54916 
 1                    -13.40848  -1.91925  -3.25862 
 1                    -12.21537  -0.06598  -3.74874 
 1                    -11.30401  -1.59713  -3.44017 
 1                    -8.88062  -4.60041  -1.82401 
 1                    -7.96909  -5.58312  -0.85113 
 1                    -9.63446  -4.90859  -0.3701 
 1                    -3.40548  -3.36066  -0.37924 
 1                    -1.87721  -4.49907   3.72246 
 1                    -3.00957  -5.98674   3.43673 
 1                    -1.5889   -6.16469   2.65782 
 1                     2.95247  -1.77231  -1.54695 
 1                     2.70707  -0.11924  -2.28083 
 1                     4.35341  -1.00742   0.37984 
 1                     4.22523   1.38431  -2.64394 
 1                     5.23965   2.49974  -1.67068 
 1                     5.96721   1.22142  -2.78349 
 1                     6.97219   1.55155  -0.05492 
 1                     6.10961   0.01561   0.75086 
 1                     7.0631   -1.41393  -0.84856 
 1                     7.76966  -0.05004  -1.93869 
 1                     8.97054   1.01688   0.21887 
 1                     8.78276  -0.88913   0.76097 
 1                     10.37997   0.19568  -1.57719 
 1                     9.28643  -2.00589  -2.22079 
 1                     11.14693  -2.18427  -1.82694 
 1                     10.06096  -2.80326  -0.6096 
 1                     11.25605   0.54415   0.72817 
 1                     11.49864  -1.08465   0.79865 
 1                     12.79952  -1.53295  -1.03337 
 1                     12.6197  -0.03173  -1.59464 
 1                     13.80571   0.888     0.78165 
 1                     13.90535  -1.08432   0.87657 
 1                     15.09869   0.45039  -1.42583 
 1                     15.56794  -2.35225   0.27278 
 1                     15.17723  -2.27124  -1.68751 
 1                     16.60491  -1.64149  -1.16719 
 1                     16.21213   1.40291   0.6658 
 1                     16.76509  -0.3554    1.12733 
 1                     18.30971  -0.5988   -0.21785 
 1                     17.70737   0.80778  -1.43343 
 1                     18.37997   2.46015   0.99567 
 1                     18.41775   0.81572   1.7979 
 1                     20.76395   0.4979   -0.02895 
 1                     20.0493   3.31887  -0.90822 
 1                     21.50352   2.32944  -1.54038 
 1                     19.82416   1.52857  -1.83157 
 1                     21.33648   1.50879   2.27895 
 1                     22.2182   2.13252   0.80249 
 1                     20.7075   3.05934   1.5449 
 
 Stoichiometry    C55H72MgN4O5
 Framework group  C1[X(C55H72MgN4O5)]
 Deg. of freedom   405
 Full point group                 C1      NOp   1
 Largest Abelian subgroup         C1      NOp   1
 Largest concise Abelian subgroup C1      NOp   1
                         Standard orientation:                         
 ---------------------------------------------------------------------
 Center     Atomic      Atomic             Coordinates (Angstroms)
 Number     Number       Type             X           Y           Z
 ---------------------------------------------------------------------
      1         12           0       -7.118215    0.596746    0.066787
      2          6           0       -4.872210   -1.939483    0.539531
      3          6           0       -4.818617    2.763772    1.159701
      4          6           0       -9.429377    3.124108   -0.388311
      5          6           0       -9.481191   -1.721594   -0.939298
      6          7           0       -5.121961    0.413449    0.760595
      7          6           0       -4.372855   -0.622519    0.817376
      8          6           0       -2.940091   -0.353082    1.305814
      9          6           0       -2.987726    1.085769    1.782269
     10          6           0       -4.342815    1.545024    1.239343
     11          6           0       -2.921811    1.150018    3.300251
     12          6           0       -1.850153   -0.628846    0.158693
     13          6           0       -0.360132   -0.521495    0.541146
     14          6           0        0.573115   -0.722960   -0.626770
     15          8           0        0.152271   -1.022674   -1.723308
     16          8           0        1.807771   -0.405071   -0.206320
     17          7           0       -7.069006    2.642250    0.334643
     18          6           0       -6.125290    3.350839    0.816415
     19          6           0       -6.381330    4.772754    0.847444
     20          6           0       -7.711663    4.882388    0.420295
     21          6           0       -8.132664    3.488133    0.066821
     22          6           0       -5.510076    5.857895    1.392350
     23          6           0       -8.605787    6.093717    0.196511
     24          6           0       -8.134359    7.303637    0.056723
     25          7           0       -9.152417    0.683423   -0.552659
     26          6           0       -9.928538    1.834804   -0.734259
     27          6           0      -11.192620    1.417978   -1.151758
     28          6           0      -11.232183    0.085287   -1.244420
     29          6           0       -9.955772   -0.358446   -0.829192
     30          6           0      -12.369131    2.397539   -1.280126
     31          6           0      -12.401311   -0.729350   -1.679469
     32          6           0      -12.391489   -1.041449   -3.193562
     33          7           0       -7.279849   -1.418229   -0.105039
     34          6           0       -8.303724   -2.280061   -0.593434
     35          6           0       -7.798089   -3.594629   -0.504425
     36          6           0       -6.497908   -3.544507   -0.137099
     37          6           0       -6.273493   -2.239946    0.120362
     38          6           0       -8.636615   -4.809589   -0.884358
     39          6           0       -5.304974   -4.307074   -0.001880
     40          8           0       -5.127649   -5.569459    0.002178
     41          6           0       -4.139196   -3.260753    0.489867
     42          6           0       -3.524378   -3.671922    1.833301
     43          8           0       -3.711008   -3.137804    2.905287
     44          8           0       -2.748576   -4.817425    1.725100
     45          6           0       -2.237623   -5.418884    2.923800
     46          6           0        2.931587   -0.672248   -1.242172
     47          6           0        4.129538   -0.356241   -0.502691
     48          6           0        5.151108    0.540986   -0.878194
     49          6           0        5.113410    1.448798   -2.037631
     50          6           0        6.417835    0.550778   -0.163197
     51          6           0        7.521697   -0.292643   -0.820453
     52          6           0        8.878251   -0.151622   -0.042610
     53          6           0       10.135354   -0.604046   -0.847856
     54          6           0       10.059182   -2.037879   -1.434622
     55          6           0       11.487149   -0.354307    0.069745
     56          6           0       12.720250   -0.526078   -0.614133
     57          6           0       13.905032   -0.123011    0.228542
     58          6           0       15.264009   -0.278672   -0.576687
     59          6           0       15.598903   -1.693133   -0.936428
     60          6           0       16.437720    0.317007    0.332187
     61          6           0       17.827733    0.538255   -0.312836
     62          6           0       18.781588    1.392072    0.674180
     63          6           0       20.248084    1.364631    0.250452
     64          6           0       20.321282    2.150364   -1.145014
     65          6           0       21.184539    1.989805    1.254205
     66          1           0       -3.976736    3.514803    1.516558
     67          1           0       -9.981018    3.912725   -0.297678
     68          1           0      -10.377602   -2.567236   -1.252772
     69          1           0       -2.819614   -1.004860    2.163689
     70          1           0       -2.255310    1.889911    1.446822
     71          1           0       -2.001269    1.027408    3.682084
     72          1           0       -3.211468    2.228343    3.781816
     73          1           0       -3.529800    0.580381    3.829416
     74          1           0       -1.846569   -1.557602   -0.398905
     75          1           0       -1.766513    0.180802   -0.612917
     76          1           0       -0.314194    0.360602    1.065096
     77          1           0       -0.247830   -1.270177    1.318517
     78          1           0       -4.864420    6.402582    0.628865
     79          1           0       -6.149267    6.580210    1.949304
     80          1           0       -4.731836    5.451819    2.222923
     81          1           0       -9.677076    5.844460    0.332605
     82          1           0       -8.931560    7.889784   -0.145592
     83          1           0       -7.127566    7.616603   -0.119933
     84          1           0      -12.338398    2.959463   -2.147712
     85          1           0      -13.275855    1.686422   -1.374686
     86          1           0      -12.486457    3.072975   -0.381169
     87          1           0      -12.439264   -1.563464   -1.173194
     88          1           0      -13.184303   -0.000233   -1.552295
     89          1           0      -13.410098   -1.889924   -3.270878
     90          1           0      -12.215124   -0.035498   -3.752035
     91          1           0      -11.305304   -1.569031   -3.450812
     92          1           0       -8.884963   -4.582472   -1.849049
     93          1           0       -7.974451   -5.570758   -0.880882
     94          1           0       -9.639160   -4.896891   -0.396659
     95          1           0       -3.408645   -3.355145   -0.398157
     96          1           0       -1.881660   -4.514813    3.698067
     97          1           0       -3.015489   -5.999962    3.405144
     98          1           0       -1.594972   -6.175577    2.625433
     99          1           0        2.950928   -1.767530   -1.557997
    100          1           0        2.707206   -0.110705   -2.283920
    101          1           0        4.352564   -1.013324    0.372497
    102          1           0        4.226878    1.393060   -2.639736
    103          1           0        5.242367    2.502785   -1.661088
    104          1           0        5.968698    1.229111   -2.780015
    105          1           0        6.973905    1.545097   -0.049853
    106          1           0        6.109769    0.006153    0.748489
    107          1           0        7.061888   -1.416620   -0.857759
    108          1           0        7.769845   -0.048199   -1.941293
    109          1           0        8.971714    1.007126    0.221417
    110          1           0        8.782007   -0.901285    0.754334
    111          1           0       10.380387    0.193178   -1.578528
    112          1           0        9.284672   -2.004178   -2.232750
    113          1           0       11.144982   -2.186315   -1.839706
    114          1           0       10.058356   -2.810072   -0.625399
    115          1           0       11.256730    0.529666    0.728517
    116          1           0       11.497694   -1.099695    0.791155
    117          1           0       12.798189   -1.540466   -1.042959
    118          1           0       12.619891   -0.036386   -1.596997
    119          1           0       13.806731    0.870716    0.783734
    120          1           0       13.904396   -1.102139    0.869158
    121          1           0       15.099356    0.442453   -1.425793
    122          1           0       15.565746   -2.368806    0.259321
    123          1           0       15.175185   -2.277963   -1.700565
    124          1           0       16.603477   -1.652152   -1.177176
    125          1           0       16.213662    1.383776    0.670436
    126          1           0       16.764854   -0.377287    1.123509
    127          1           0       18.309282   -0.615743   -0.222771
    128          1           0       17.708389    0.797272   -1.431584
    129          1           0       18.382543    2.437252    1.005466
    130          1           0       18.418655    0.788940    1.799763
    131          1           0       20.764603    0.477581   -0.028513
    132          1           0       20.052803    3.303467   -0.894220
    133          1           0       21.506054    2.315641   -1.531084
    134          1           0       19.825914    1.517862   -1.826188
    135          1           0       21.338063    1.476781    2.284238
    136          1           0       22.220451    2.106734    0.810834
    137          1           0       20.710655    3.031472    1.557645
 ---------------------------------------------------------------------
 Rotational constants (GHZ):      0.0640728      0.0060920      0.0057329
 Standard basis: 6-31G(d,p) (6D, 7F)
 There are  1339 symmetry adapted cartesian basis functions of A   symmetry.
 There are  1339 symmetry adapted basis functions of A   symmetry.
  1339 basis functions,  2348 primitive gaussians,  1339 cartesian basis functions
   241 alpha electrons      241 beta electrons
       nuclear repulsion energy      8719.7060041117 Hartrees.
 NAtoms=  137 NActive=  137 NUniq=  137 SFac= 1.00D+00 NAtFMM=   60 NAOKFM=T Big=T
 Integral buffers will be    131072 words long.
 Raffenetti 1 integral format.
 Two-electron integral symmetry is turned on.
 One-electron integrals computed using PRISM.
 NBasis=  1339 RedAO= T EigKep=  2.50D-04  NBF=  1339
 NBsUse=  1339 1.00D-06 EigRej= -1.00D+00 NBFU=  1339
 ExpMin= 4.21D-02 ExpMax= 1.17D+04 ExpMxC= 1.76D+03 IAcc=2 IRadAn=         4 AccDes= 0.00D+00
 Harris functional with IExCor=20419 and IRadAn=       4 diagonalized for initial guess.
 HarFok:  IExCor=20419 AccDes= 0.00D+00 IRadAn=         4 IDoV= 1 UseB2=F ITyADJ=14
 ICtDFT=  3500011 ScaDFX=  1.000000  1.000000  1.000000  1.000000
 FoFCou: FMM=F IPFlag=           0 FMFlag=      100000 FMFlg1=        2001
         NFxFlg=           0 DoJE=T BraDBF=F KetDBF=T FulRan=T
         wScrn=  0.000000 ICntrl=     500 IOpCl=  0 I1Cent=   200000004 NGrid=           0
         NMat0=    1 NMatS0=      1 NMatT0=    0 NMatD0=    1 NMtDS0=    0 NMtDT0=    0
 Petite list used in FoFCou.
 Requested convergence on RMS density matrix=1.00D-08 within 128 cycles.
 Requested convergence on MAX density matrix=1.00D-06.
 Requested convergence on             energy=1.00D-06.
 No special actions if energy rises.
 SCF Done:  E(RCAM-B3LYP) =  -2932.59868332     A.U. after   17 cycles
            NFock= 17  Conv=0.73D-08     -V/T= 2.0096
 DoSCS=F DFT=T ScalE2(SS,OS)=  1.000000  1.000000
 ExpMin= 4.21D-02 ExpMax= 1.17D+04 ExpMxC= 1.76D+03 IAcc=3 IRadAn=         5 AccDes= 0.00D+00
 HarFok:  IExCor=  205 AccDes= 0.00D+00 IRadAn=         5 IDoV=-2 UseB2=F ITyADJ=14
 ICtDFT= 12500011 ScaDFX=  1.000000  1.000000  1.000000  1.000000
 Range of M.O.s used for correlation:    70  1339
 NBasis=  1339 NAE=   241 NBE=   241 NFC=    69 NFV=     0
 NROrb=   1270 NOA=   172 NOB=   172 NVA=  1098 NVB=  1098
 Would need an additional       2415464100000 words for in-memory AO integral storage.
 Orbital symmetries:
       Occupied  (A) (A) (A) (A) (A) (A) (A) (A) (A) (A) (A) (A)
                 (A) (A) (A) (A) (A) (A) (A) (A) (A) (A) (A) (A)
                 (A) (A) (A) (A) (A) (A) (A) (A) (A) (A) (A) (A)
                 (A) (A) (A) (A) (A) (A) (A) (A) (A) (A) (A) (A)
                 (A) (A) (A) (A) (A) (A) (A) (A) (A) (A) (A) (A)
                 (A) (A) (A) (A) (A) (A) (A) (A) (A) (A) (A) (A)
                 (A) (A) (A) (A) (A) (A) (A) (A) (A) (A) (A) (A)
                 (A) (A) (A) (A) (A) (A) (A) (A) (A) (A) (A) (A)
                 (A) (A) (A) (A) (A) (A) (A) (A) (A) (A) (A) (A)
                 (A) (A) (A) (A) (A) (A) (A) (A) (A) (A) (A) (A)
                 (A) (A) (A) (A) (A) (A) (A) (A) (A) (A) (A) (A)
                 (A) (A) (A) (A) (A) (A) (A) (A) (A) (A) (A) (A)
                 (A) (A) (A) (A) (A) (A) (A) (A) (A) (A) (A) (A)
                 (A) (A) (A) (A) (A) (A) (A) (A) (A) (A) (A) (A)
                 (A) (A) (A) (A) (A) (A) (A) (A) (A) (A) (A) (A)
                 (A) (A) (A) (A) (A) (A) (A) (A) (A) (A) (A) (A)
                 (A) (A) (A) (A) (A) (A) (A) (A) (A) (A) (A) (A)
                 (A) (A) (A) (A) (A) (A) (A) (A) (A) (A) (A) (A)
                 (A) (A) (A) (A) (A) (A) (A) (A) (A) (A) (A) (A)
                 (A) (A) (A) (A) (A) (A) (A) (A) (A) (A) (A) (A)
                 (A)
       Virtual   (A) (A) (A) (A) (A) (A) (A) (A) (A) (A) (A) (A)
                 (A) (A) (A) (A) (A) (A) (A) (A) (A) (A) (A) (A)
                 (A) (A) (A) (A) (A) (A) (A) (A) (A) (A) (A) (A)
                 (A) (A) (A) (A) (A) (A) (A) (A) (A) (A) (A) (A)
                 (A) (A) (A) (A) (A) (A) (A) (A) (A) (A) (A) (A)
                 (A) (A) (A) (A) (A) (A) (A) (A) (A) (A) (A) (A)
                 (A) (A) (A) (A) (A) (A) (A) (A) (A) (A) (A) (A)
                 (A) (A) (A) (A) (A) (A) (A) (A) (A) (A) (A) (A)
                 (A) (A) (A) (A) (A) (A) (A) (A) (A) (A) (A) (A)
                 (A) (A) (A) (A) (A) (A) (A) (A) (A) (A) (A) (A)
                 (A) (A) (A) (A) (A) (A) (A) (A) (A) (A) (A) (A)
                 (A) (A) (A) (A) (A) (A) (A) (A) (A) (A) (A) (A)
                 (A) (A) (A) (A) (A) (A) (A) (A) (A) (A) (A) (A)
                 (A) (A) (A) (A) (A) (A) (A) (A) (A) (A) (A) (A)
                 (A) (A) (A) (A) (A) (A) (A) (A) (A) (A) (A) (A)
                 (A) (A) (A) (A) (A) (A) (A) (A) (A) (A) (A) (A)
                 (A) (A) (A) (A) (A) (A) (A) (A) (A) (A) (A) (A)
                 (A) (A) (A) (A) (A) (A) (A) (A) (A) (A) (A) (A)
                 (A) (A) (A) (A) (A) (A) (A) (A) (A) (A) (A) (A)
                 (A) (A) (A) (A) (A) (A) (A) (A) (A) (A) (A) (A)
                 (A) (A) (A) (A) (A) (A) (A) (A) (A) (A) (A) (A)
                 (A) (A) (A) (A) (A) (A) (A) (A) (A) (A) (A) (A)
                 (A) (A) (A) (A) (A) (A) (A) (A) (A) (A) (A) (A)
                 (A) (A) (A) (A) (A) (A) (A) (A) (A) (A) (A) (A)
                 (A) (A) (A) (A) (A) (A) (A) (A) (A) (A) (A) (A)
                 (A) (A) (A) (A) (A) (A) (A) (A) (A) (A) (A) (A)
                 (A) (A) (A) (A) (A) (A) (A) (A) (A) (A) (A) (A)
                 (A) (A) (A) (A) (A) (A) (A) (A) (A) (A) (A) (A)
                 (A) (A) (A) (A) (A) (A) (A) (A) (A) (A) (A) (A)
                 (A) (A) (A) (A) (A) (A) (A) (A) (A) (A) (A) (A)
                 (A) (A) (A) (A) (A) (A) (A) (A) (A) (A) (A) (A)
                 (A) (A) (A) (A) (A) (A) (A) (A) (A) (A) (A) (A)
                 (A) (A) (A) (A) (A) (A) (A) (A) (A) (A) (A) (A)
                 (A) (A) (A) (A) (A) (A) (A) (A) (A) (A) (A) (A)
                 (A) (A) (A) (A) (A) (A) (A) (A) (A) (A) (A) (A)
                 (A) (A) (A) (A) (A) (A) (A) (A) (A) (A) (A) (A)
                 (A) (A) (A) (A) (A) (A) (A) (A) (A) (A) (A) (A)
                 (A) (A) (A) (A) (A) (A) (A) (A) (A) (A) (A) (A)
                 (A) (A) (A) (A) (A) (A) (A) (A) (A) (A) (A) (A)
                 (A) (A) (A) (A) (A) (A) (A) (A) (A) (A) (A) (A)
                 (A) (A) (A) (A) (A) (A) (A) (A) (A) (A) (A) (A)
                 (A) (A) (A) (A) (A) (A) (A) (A) (A) (A) (A) (A)
                 (A) (A) (A) (A) (A) (A) (A) (A) (A) (A) (A) (A)
                 (A) (A) (A) (A) (A) (A) (A) (A) (A) (A) (A) (A)
                 (A) (A) (A) (A) (A) (A) (A) (A) (A) (A) (A) (A)
                 (A) (A) (A) (A) (A) (A) (A) (A) (A) (A) (A) (A)
                 (A) (A) (A) (A) (A) (A) (A) (A) (A) (A) (A) (A)
                 (A) (A) (A) (A) (A) (A) (A) (A) (A) (A) (A) (A)
                 (A) (A) (A) (A) (A) (A) (A) (A) (A) (A) (A) (A)
                 (A) (A) (A) (A) (A) (A) (A) (A) (A) (A) (A) (A)
                 (A) (A) (A) (A) (A) (A) (A) (A) (A) (A) (A) (A)
                 (A) (A) (A) (A) (A) (A) (A) (A) (A) (A) (A) (A)
                 (A) (A) (A) (A) (A) (A) (A) (A) (A) (A) (A) (A)
                 (A) (A) (A) (A) (A) (A) (A) (A) (A) (A) (A) (A)
                 (A) (A) (A) (A) (A) (A) (A) (A) (A) (A) (A) (A)
                 (A) (A) (A) (A) (A) (A) (A) (A) (A) (A) (A) (A)
                 (A) (A) (A) (A) (A) (A) (A) (A) (A) (A) (A) (A)
                 (A) (A) (A) (A) (A) (A) (A) (A) (A) (A) (A) (A)
                 (A) (A) (A) (A) (A) (A) (A) (A) (A) (A) (A) (A)
                 (A) (A) (A) (A) (A) (A) (A) (A) (A) (A) (A) (A)
                 (A) (A) (A) (A) (A) (A) (A) (A) (A) (A) (A) (A)
                 (A) (A) (A) (A) (A) (A) (A) (A) (A) (A) (A) (A)
                 (A) (A) (A) (A) (A) (A) (A) (A) (A) (A) (A) (A)
                 (A) (A) (A) (A) (A) (A) (A) (A) (A) (A) (A) (A)
                 (A) (A) (A) (A) (A) (A) (A) (A) (A) (A) (A) (A)
                 (A) (A) (A) (A) (A) (A) (A) (A) (A) (A) (A) (A)
                 (A) (A) (A) (A) (A) (A) (A) (A) (A) (A) (A) (A)
                 (A) (A) (A) (A) (A) (A) (A) (A) (A) (A) (A) (A)
                 (A) (A) (A) (A) (A) (A) (A) (A) (A) (A) (A) (A)
                 (A) (A) (A) (A) (A) (A) (A) (A) (A) (A) (A) (A)
                 (A) (A) (A) (A) (A) (A) (A) (A) (A) (A) (A) (A)
                 (A) (A) (A) (A) (A) (A) (A) (A) (A) (A) (A) (A)
                 (A) (A) (A) (A) (A) (A) (A) (A) (A) (A) (A) (A)
                 (A) (A) (A) (A) (A) (A) (A) (A) (A) (A) (A) (A)
                 (A) (A) (A) (A) (A) (A) (A) (A) (A) (A) (A) (A)
                 (A) (A) (A) (A) (A) (A) (A) (A) (A) (A) (A) (A)
                 (A) (A) (A) (A) (A) (A) (A) (A) (A) (A) (A) (A)
                 (A) (A) (A) (A) (A) (A) (A) (A) (A) (A) (A) (A)
                 (A) (A) (A) (A) (A) (A) (A) (A) (A) (A) (A) (A)
                 (A) (A) (A) (A) (A) (A) (A) (A) (A) (A) (A) (A)
                 (A) (A) (A) (A) (A) (A) (A) (A) (A) (A) (A) (A)
                 (A) (A) (A) (A) (A) (A) (A) (A) (A) (A) (A) (A)
                 (A) (A) (A) (A) (A) (A) (A) (A) (A) (A) (A) (A)
                 (A) (A) (A) (A) (A) (A) (A) (A) (A) (A) (A) (A)
                 (A) (A) (A) (A) (A) (A) (A) (A) (A) (A) (A) (A)
                 (A) (A) (A) (A) (A) (A) (A) (A) (A) (A) (A) (A)
                 (A) (A) (A) (A) (A) (A) (A) (A) (A) (A) (A) (A)
                 (A) (A) (A) (A) (A) (A) (A) (A) (A) (A) (A) (A)
                 (A) (A) (A) (A) (A) (A) (A) (A) (A) (A) (A) (A)
                 (A) (A) (A) (A) (A) (A) (A) (A) (A) (A) (A) (A)
                 (A) (A) (A) (A) (A) (A) (A) (A) (A) (A) (A) (A)
                 (A) (A) (A) (A) (A) (A)
     8 initial guesses have been made.
 Convergence on wavefunction:    0.001000000000000
 Iteration     1 Dimension     8 NMult     0 NNew      8
 CISAX will form     8 AO SS matrices at one time.
 Iteration     2 Dimension    12 NMult     8 NNew      4
 Iteration     3 Dimension    16 NMult    12 NNew      4
 Iteration     4 Dimension    20 NMult    16 NNew      4
 Iteration     5 Dimension    24 NMult    20 NNew      4
 Iteration     6 Dimension    28 NMult    24 NNew      4
 ***********************************************************************
 Excited states from <AA,BB:AA,BB> singles matrix:
 ***********************************************************************
 
 Ground to excited state transition densities written to RWF  633
 Ground to excited state transition electric dipole moments (Au):
       state          X           Y           Z        Dip. S.      Osc.
         1        -0.8273      1.9320     -0.0471      4.4193      0.2256
 Ground to excited state transition velocity dipole moments (Au):
       state          X           Y           Z        Dip. S.      Osc.
         1         0.0578     -0.1452      0.0015      0.0244      0.2126
 Ground to excited state transition magnetic dipole moments (Au):
       state          X           Y           Z
         1        -0.5711     -0.1606      3.7504
 Ground to excited state transition velocity quadrupole moments (Au):
       state          XX          YY          ZZ          XY          XZ          YZ
         1        -1.2015     -0.4562     -0.0061      1.7672     -0.0341     -0.1487
 <0|del|b> * <b|rxdel|0> + <0|del|b> * <b|delr+rdel|0>
 Rotatory Strengths (R) in cgs (10**-40 erg-esu-cm/Gauss)
       state          XX          YY          ZZ    R(velocity)    E-M Angle
         1       122.4787   -178.6296     17.7263    -12.8082       90.40
 1/2[<0|r|b>*<b|rxdel|0> + (<0|rxdel|b>*<b|r|0>)*]
 Rotatory Strengths (R) in cgs (10**-40 erg-esu-cm/Gauss)
       state          XX          YY          ZZ     R(length)
         1      -334.1054    219.3832    124.9653      3.4144
  1/2[<0|del|b>*<b|r|0> + (<0|r|b>*<b|del|0>)*] (Au)
       state          X           Y           Z        Dip. S.   Osc.(frdel)
         1        -0.0478     -0.2805     -0.0001      0.3284      0.2189

 Excitation energies and oscillator strengths:
 
 Excited State   1:      Singlet-A      2.0839 eV  594.96 nm  f=0.2256  <S**2>=0.000
     240 -> 243        0.24868
     241 -> 242        0.64561
 This state for optimization and/or second-order correction.
 Total Energy, E(TD-HF/TD-KS) =  -2932.52210111    
 Copying the excited state density for this state as the 1-particle RhoCI density.
 SavETr:  write IOETrn=   770 NScale= 10 NData=  16 NLR=1 NState=    1 LETran=      28.

 **********************************************************************

            Population analysis using the SCF density.

 **********************************************************************

 Orbital symmetries:
       Occupied  (A) (A) (A) (A) (A) (A) (A) (A) (A) (A) (A) (A)
                 (A) (A) (A) (A) (A) (A) (A) (A) (A) (A) (A) (A)
                 (A) (A) (A) (A) (A) (A) (A) (A) (A) (A) (A) (A)
                 (A) (A) (A) (A) (A) (A) (A) (A) (A) (A) (A) (A)
                 (A) (A) (A) (A) (A) (A) (A) (A) (A) (A) (A) (A)
                 (A) (A) (A) (A) (A) (A) (A) (A) (A) (A) (A) (A)
                 (A) (A) (A) (A) (A) (A) (A) (A) (A) (A) (A) (A)
                 (A) (A) (A) (A) (A) (A) (A) (A) (A) (A) (A) (A)
                 (A) (A) (A) (A) (A) (A) (A) (A) (A) (A) (A) (A)
                 (A) (A) (A) (A) (A) (A) (A) (A) (A) (A) (A) (A)
                 (A) (A) (A) (A) (A) (A) (A) (A) (A) (A) (A) (A)
                 (A) (A) (A) (A) (A) (A) (A) (A) (A) (A) (A) (A)
                 (A) (A) (A) (A) (A) (A) (A) (A) (A) (A) (A) (A)
                 (A) (A) (A) (A) (A) (A) (A) (A) (A) (A) (A) (A)
                 (A) (A) (A) (A) (A) (A) (A) (A) (A) (A) (A) (A)
                 (A) (A) (A) (A) (A) (A) (A) (A) (A) (A) (A) (A)
                 (A) (A) (A) (A) (A) (A) (A) (A) (A) (A) (A) (A)
                 (A) (A) (A) (A) (A) (A) (A) (A) (A) (A) (A) (A)
                 (A) (A) (A) (A) (A) (A) (A) (A) (A) (A) (A) (A)
                 (A) (A) (A) (A) (A) (A) (A) (A) (A) (A) (A) (A)
                 (A)
       Virtual   (A) (A) (A) (A) (A) (A) (A) (A) (A) (A) (A) (A)
                 (A) (A) (A) (A) (A) (A) (A) (A) (A) (A) (A) (A)
                 (A) (A) (A) (A) (A) (A) (A) (A) (A) (A) (A) (A)
                 (A) (A) (A) (A) (A) (A) (A) (A) (A) (A) (A) (A)
                 (A) (A) (A) (A) (A) (A) (A) (A) (A) (A) (A) (A)
                 (A) (A) (A) (A) (A) (A) (A) (A) (A) (A) (A) (A)
                 (A) (A) (A) (A) (A) (A) (A) (A) (A) (A) (A) (A)
                 (A) (A) (A) (A) (A) (A) (A) (A) (A) (A) (A) (A)
                 (A) (A) (A) (A) (A) (A) (A) (A) (A) (A) (A) (A)
                 (A) (A) (A) (A) (A) (A) (A) (A) (A) (A) (A) (A)
                 (A) (A) (A) (A) (A) (A) (A) (A) (A) (A) (A) (A)
                 (A) (A) (A) (A) (A) (A) (A) (A) (A) (A) (A) (A)
                 (A) (A) (A) (A) (A) (A) (A) (A) (A) (A) (A) (A)
                 (A) (A) (A) (A) (A) (A) (A) (A) (A) (A) (A) (A)
                 (A) (A) (A) (A) (A) (A) (A) (A) (A) (A) (A) (A)
                 (A) (A) (A) (A) (A) (A) (A) (A) (A) (A) (A) (A)
                 (A) (A) (A) (A) (A) (A) (A) (A) (A) (A) (A) (A)
                 (A) (A) (A) (A) (A) (A) (A) (A) (A) (A) (A) (A)
                 (A) (A) (A) (A) (A) (A) (A) (A) (A) (A) (A) (A)
                 (A) (A) (A) (A) (A) (A) (A) (A) (A) (A) (A) (A)
                 (A) (A) (A) (A) (A) (A) (A) (A) (A) (A) (A) (A)
                 (A) (A) (A) (A) (A) (A) (A) (A) (A) (A) (A) (A)
                 (A) (A) (A) (A) (A) (A) (A) (A) (A) (A) (A) (A)
                 (A) (A) (A) (A) (A) (A) (A) (A) (A) (A) (A) (A)
                 (A) (A) (A) (A) (A) (A) (A) (A) (A) (A) (A) (A)
                 (A) (A) (A) (A) (A) (A) (A) (A) (A) (A) (A) (A)
                 (A) (A) (A) (A) (A) (A) (A) (A) (A) (A) (A) (A)
                 (A) (A) (A) (A) (A) (A) (A) (A) (A) (A) (A) (A)
                 (A) (A) (A) (A) (A) (A) (A) (A) (A) (A) (A) (A)
                 (A) (A) (A) (A) (A) (A) (A) (A) (A) (A) (A) (A)
                 (A) (A) (A) (A) (A) (A) (A) (A) (A) (A) (A) (A)
                 (A) (A) (A) (A) (A) (A) (A) (A) (A) (A) (A) (A)
                 (A) (A) (A) (A) (A) (A) (A) (A) (A) (A) (A) (A)
                 (A) (A) (A) (A) (A) (A) (A) (A) (A) (A) (A) (A)
                 (A) (A) (A) (A) (A) (A) (A) (A) (A) (A) (A) (A)
                 (A) (A) (A) (A) (A) (A) (A) (A) (A) (A) (A) (A)
                 (A) (A) (A) (A) (A) (A) (A) (A) (A) (A) (A) (A)
                 (A) (A) (A) (A) (A) (A) (A) (A) (A) (A) (A) (A)
                 (A) (A) (A) (A) (A) (A) (A) (A) (A) (A) (A) (A)
                 (A) (A) (A) (A) (A) (A) (A) (A) (A) (A) (A) (A)
                 (A) (A) (A) (A) (A) (A) (A) (A) (A) (A) (A) (A)
                 (A) (A) (A) (A) (A) (A) (A) (A) (A) (A) (A) (A)
                 (A) (A) (A) (A) (A) (A) (A) (A) (A) (A) (A) (A)
                 (A) (A) (A) (A) (A) (A) (A) (A) (A) (A) (A) (A)
                 (A) (A) (A) (A) (A) (A) (A) (A) (A) (A) (A) (A)
                 (A) (A) (A) (A) (A) (A) (A) (A) (A) (A) (A) (A)
                 (A) (A) (A) (A) (A) (A) (A) (A) (A) (A) (A) (A)
                 (A) (A) (A) (A) (A) (A) (A) (A) (A) (A) (A) (A)
                 (A) (A) (A) (A) (A) (A) (A) (A) (A) (A) (A) (A)
                 (A) (A) (A) (A) (A) (A) (A) (A) (A) (A) (A) (A)
                 (A) (A) (A) (A) (A) (A) (A) (A) (A) (A) (A) (A)
                 (A) (A) (A) (A) (A) (A) (A) (A) (A) (A) (A) (A)
                 (A) (A) (A) (A) (A) (A) (A) (A) (A) (A) (A) (A)
                 (A) (A) (A) (A) (A) (A) (A) (A) (A) (A) (A) (A)
                 (A) (A) (A) (A) (A) (A) (A) (A) (A) (A) (A) (A)
                 (A) (A) (A) (A) (A) (A) (A) (A) (A) (A) (A) (A)
                 (A) (A) (A) (A) (A) (A) (A) (A) (A) (A) (A) (A)
                 (A) (A) (A) (A) (A) (A) (A) (A) (A) (A) (A) (A)
                 (A) (A) (A) (A) (A) (A) (A) (A) (A) (A) (A) (A)
                 (A) (A) (A) (A) (A) (A) (A) (A) (A) (A) (A) (A)
                 (A) (A) (A) (A) (A) (A) (A) (A) (A) (A) (A) (A)
                 (A) (A) (A) (A) (A) (A) (A) (A) (A) (A) (A) (A)
                 (A) (A) (A) (A) (A) (A) (A) (A) (A) (A) (A) (A)
                 (A) (A) (A) (A) (A) (A) (A) (A) (A) (A) (A) (A)
                 (A) (A) (A) (A) (A) (A) (A) (A) (A) (A) (A) (A)
                 (A) (A) (A) (A) (A) (A) (A) (A) (A) (A) (A) (A)
                 (A) (A) (A) (A) (A) (A) (A) (A) (A) (A) (A) (A)
                 (A) (A) (A) (A) (A) (A) (A) (A) (A) (A) (A) (A)
                 (A) (A) (A) (A) (A) (A) (A) (A) (A) (A) (A) (A)
                 (A) (A) (A) (A) (A) (A) (A) (A) (A) (A) (A) (A)
                 (A) (A) (A) (A) (A) (A) (A) (A) (A) (A) (A) (A)
                 (A) (A) (A) (A) (A) (A) (A) (A) (A) (A) (A) (A)
                 (A) (A) (A) (A) (A) (A) (A) (A) (A) (A) (A) (A)
                 (A) (A) (A) (A) (A) (A) (A) (A) (A) (A) (A) (A)
                 (A) (A) (A) (A) (A) (A) (A) (A) (A) (A) (A) (A)
                 (A) (A) (A) (A) (A) (A) (A) (A) (A) (A) (A) (A)
                 (A) (A) (A) (A) (A) (A) (A) (A) (A) (A) (A) (A)
                 (A) (A) (A) (A) (A) (A) (A) (A) (A) (A) (A) (A)
                 (A) (A) (A) (A) (A) (A) (A) (A) (A) (A) (A) (A)
                 (A) (A) (A) (A) (A) (A) (A) (A) (A) (A) (A) (A)
                 (A) (A) (A) (A) (A) (A) (A) (A) (A) (A) (A) (A)
                 (A) (A) (A) (A) (A) (A) (A) (A) (A) (A) (A) (A)
                 (A) (A) (A) (A) (A) (A) (A) (A) (A) (A) (A) (A)
                 (A) (A) (A) (A) (A) (A) (A) (A) (A) (A) (A) (A)
                 (A) (A) (A) (A) (A) (A) (A) (A) (A) (A) (A) (A)
                 (A) (A) (A) (A) (A) (A) (A) (A) (A) (A) (A) (A)
                 (A) (A) (A) (A) (A) (A) (A) (A) (A) (A) (A) (A)
                 (A) (A) (A) (A) (A) (A) (A) (A) (A) (A) (A) (A)
                 (A) (A) (A) (A) (A) (A) (A) (A) (A) (A) (A) (A)
                 (A) (A) (A) (A) (A) (A) (A) (A) (A) (A) (A) (A)
                 (A) (A) (A) (A) (A) (A) (A) (A) (A) (A) (A) (A)
                 (A) (A) (A) (A) (A) (A)
 The electronic state is 1-A.
 Alpha  occ. eigenvalues --  -46.85027 -19.26670 -19.24766 -19.21026 -19.20821
 Alpha  occ. eigenvalues --  -19.20568 -14.40609 -14.40038 -14.39079 -14.38550
 Alpha  occ. eigenvalues --  -10.39104 -10.39012 -10.35802 -10.33998 -10.30810
 Alpha  occ. eigenvalues --  -10.30518 -10.30113 -10.29734 -10.29327 -10.29311
 Alpha  occ. eigenvalues --  -10.29126 -10.29014 -10.28950 -10.28909 -10.28728
 Alpha  occ. eigenvalues --  -10.28657 -10.28528 -10.28422 -10.28242 -10.27964
 Alpha  occ. eigenvalues --  -10.27915 -10.27805 -10.27797 -10.27621 -10.27601
 Alpha  occ. eigenvalues --  -10.27588 -10.27579 -10.27209 -10.27036 -10.27031
 Alpha  occ. eigenvalues --  -10.26805 -10.26732 -10.26634 -10.26568 -10.26501
 Alpha  occ. eigenvalues --  -10.26482 -10.26313 -10.26270 -10.26165 -10.26076
 Alpha  occ. eigenvalues --  -10.26005 -10.25831 -10.25830 -10.25804 -10.25631
 Alpha  occ. eigenvalues --  -10.25149 -10.25128 -10.25017 -10.24943 -10.24771
 Alpha  occ. eigenvalues --  -10.24527 -10.24388 -10.24344 -10.24341 -10.23992
 Alpha  occ. eigenvalues --   -3.13878  -1.88603  -1.88099  -1.88055  -1.16838
 Alpha  occ. eigenvalues --   -1.16239  -1.09175  -1.08157  -1.07955  -1.05486
 Alpha  occ. eigenvalues --   -1.04983  -1.03623  -1.03045  -0.92032  -0.91513
 Alpha  occ. eigenvalues --   -0.90740  -0.89726  -0.89455  -0.89022  -0.88995
 Alpha  occ. eigenvalues --   -0.88436  -0.87834  -0.87812  -0.87422  -0.86219
 Alpha  occ. eigenvalues --   -0.85353  -0.84532  -0.83939  -0.83414  -0.82962
 Alpha  occ. eigenvalues --   -0.81542  -0.80903  -0.80360  -0.79609  -0.78566
 Alpha  occ. eigenvalues --   -0.78009  -0.76537  -0.76237  -0.75437  -0.75122
 Alpha  occ. eigenvalues --   -0.75099  -0.74367  -0.73199  -0.72941  -0.72517
 Alpha  occ. eigenvalues --   -0.71553  -0.69993  -0.68714  -0.68443  -0.67841
 Alpha  occ. eigenvalues --   -0.67449  -0.65874  -0.65331  -0.64752  -0.64312
 Alpha  occ. eigenvalues --   -0.63112  -0.62632  -0.62470  -0.62233  -0.61577
 Alpha  occ. eigenvalues --   -0.61498  -0.60404  -0.60062  -0.59913  -0.59472
 Alpha  occ. eigenvalues --   -0.58781  -0.58059  -0.57556  -0.56977  -0.56555
 Alpha  occ. eigenvalues --   -0.56105  -0.55888  -0.55172  -0.54967  -0.54919
 Alpha  occ. eigenvalues --   -0.54235  -0.53647  -0.53421  -0.53340  -0.53091
 Alpha  occ. eigenvalues --   -0.52986  -0.52686  -0.52562  -0.51675  -0.51379
 Alpha  occ. eigenvalues --   -0.51332  -0.51297  -0.50836  -0.50594  -0.50523
 Alpha  occ. eigenvalues --   -0.50438  -0.50115  -0.49815  -0.49732  -0.49444
 Alpha  occ. eigenvalues --   -0.49355  -0.49091  -0.48911  -0.48793  -0.48611
 Alpha  occ. eigenvalues --   -0.48261  -0.47814  -0.47605  -0.47372  -0.47287
 Alpha  occ. eigenvalues --   -0.46925  -0.46661  -0.46551  -0.46097  -0.45783
 Alpha  occ. eigenvalues --   -0.45704  -0.45559  -0.45367  -0.45033  -0.44887
 Alpha  occ. eigenvalues --   -0.44660  -0.44513  -0.44325  -0.44234  -0.43739
 Alpha  occ. eigenvalues --   -0.43283  -0.43123  -0.42939  -0.42858  -0.42716
 Alpha  occ. eigenvalues --   -0.42575  -0.42483  -0.42100  -0.42034  -0.41865
 Alpha  occ. eigenvalues --   -0.41815  -0.41723  -0.41370  -0.41157  -0.41149
 Alpha  occ. eigenvalues --   -0.41051  -0.40361  -0.40305  -0.40232  -0.40105
 Alpha  occ. eigenvalues --   -0.39927  -0.39710  -0.39434  -0.39182  -0.38908
 Alpha  occ. eigenvalues --   -0.38746  -0.38630  -0.37956  -0.37874  -0.37432
 Alpha  occ. eigenvalues --   -0.37389  -0.37294  -0.37047  -0.36727  -0.36607
 Alpha  occ. eigenvalues --   -0.36363  -0.36196  -0.35931  -0.35720  -0.35706
 Alpha  occ. eigenvalues --   -0.34636  -0.34568  -0.34495  -0.34005  -0.33711
 Alpha  occ. eigenvalues --   -0.33272  -0.33091  -0.32415  -0.30854  -0.30242
 Alpha  occ. eigenvalues --   -0.29751  -0.29046  -0.28464  -0.28016  -0.22755
 Alpha  occ. eigenvalues --   -0.21423
 Alpha virt. eigenvalues --   -0.06503  -0.03070   0.02173   0.03693   0.04403
 Alpha virt. eigenvalues --    0.05649   0.05938   0.06870   0.07014   0.07695
 Alpha virt. eigenvalues --    0.08976   0.09937   0.10479   0.11164   0.11440
 Alpha virt. eigenvalues --    0.11557   0.11791   0.12215   0.12730   0.12758
 Alpha virt. eigenvalues --    0.12932   0.12980   0.13429   0.13898   0.14007
 Alpha virt. eigenvalues --    0.14309   0.14368   0.14592   0.14644   0.14721
 Alpha virt. eigenvalues --    0.14836   0.15641   0.15835   0.15906   0.16004
 Alpha virt. eigenvalues --    0.16247   0.16389   0.16562   0.16880   0.17223
 Alpha virt. eigenvalues --    0.17266   0.17611   0.17774   0.17820   0.18115
 Alpha virt. eigenvalues --    0.18264   0.18325   0.18773   0.18971   0.19004
 Alpha virt. eigenvalues --    0.19265   0.19293   0.19635   0.19682   0.19879
 Alpha virt. eigenvalues --    0.20001   0.20199   0.20537   0.20627   0.20746
 Alpha virt. eigenvalues --    0.21025   0.21099   0.21247   0.21271   0.21639
 Alpha virt. eigenvalues --    0.21685   0.21896   0.21990   0.22105   0.22388
 Alpha virt. eigenvalues --    0.22771   0.22891   0.23192   0.23253   0.23432
 Alpha virt. eigenvalues --    0.23595   0.23878   0.24210   0.24420   0.24539
 Alpha virt. eigenvalues --    0.24627   0.24719   0.24997   0.25137   0.25174
 Alpha virt. eigenvalues --    0.25295   0.25443   0.25721   0.26057   0.26210
 Alpha virt. eigenvalues --    0.26249   0.26491   0.26796   0.26950   0.27486
 Alpha virt. eigenvalues --    0.27634   0.27736   0.27852   0.28064   0.28166
 Alpha virt. eigenvalues --    0.28313   0.28350   0.28781   0.28902   0.29151
 Alpha virt. eigenvalues --    0.29404   0.29584   0.29881   0.30160   0.30597
 Alpha virt. eigenvalues --    0.30816   0.30979   0.31045   0.31151   0.31488
 Alpha virt. eigenvalues --    0.31689   0.31844   0.32213   0.32564   0.32928
 Alpha virt. eigenvalues --    0.33206   0.33505   0.33634   0.33982   0.34463
 Alpha virt. eigenvalues --    0.34758   0.35075   0.35163   0.35448   0.35619
 Alpha virt. eigenvalues --    0.36394   0.36472   0.36800   0.38125   0.38513
 Alpha virt. eigenvalues --    0.38636   0.39439   0.40166   0.40870   0.41100
 Alpha virt. eigenvalues --    0.41722   0.41816   0.41865   0.42082   0.42244
 Alpha virt. eigenvalues --    0.42526   0.43072   0.44761   0.44857   0.46037
 Alpha virt. eigenvalues --    0.47380   0.47509   0.48016   0.48928   0.49549
 Alpha virt. eigenvalues --    0.50683   0.50977   0.51513   0.51655   0.52839
 Alpha virt. eigenvalues --    0.53066   0.53860   0.53942   0.54392   0.54436
 Alpha virt. eigenvalues --    0.54534   0.55297   0.55551   0.55654   0.55975
 Alpha virt. eigenvalues --    0.56125   0.56575   0.56903   0.56947   0.57009
 Alpha virt. eigenvalues --    0.57316   0.57382   0.57511   0.57722   0.58101
 Alpha virt. eigenvalues --    0.58574   0.58640   0.58928   0.59094   0.59237
 Alpha virt. eigenvalues --    0.59502   0.59569   0.59689   0.59857   0.60057
 Alpha virt. eigenvalues --    0.60300   0.60642   0.60948   0.61228   0.61422
 Alpha virt. eigenvalues --    0.61608   0.61692   0.61971   0.62195   0.62711
 Alpha virt. eigenvalues --    0.62989   0.63037   0.63241   0.63334   0.63633
 Alpha virt. eigenvalues --    0.63776   0.64090   0.64339   0.64664   0.64840
 Alpha virt. eigenvalues --    0.65156   0.65387   0.65493   0.65948   0.66338
 Alpha virt. eigenvalues --    0.66982   0.67248   0.67548   0.67874   0.67953
 Alpha virt. eigenvalues --    0.68411   0.68684   0.68819   0.68939   0.69314
 Alpha virt. eigenvalues --    0.69449   0.69664   0.69823   0.70090   0.70226
 Alpha virt. eigenvalues --    0.70440   0.70764   0.70849   0.71210   0.71533
 Alpha virt. eigenvalues --    0.71636   0.71821   0.72224   0.72476   0.72832
 Alpha virt. eigenvalues --    0.72967   0.73332   0.73605   0.73843   0.73993
 Alpha virt. eigenvalues --    0.74234   0.74410   0.74909   0.74987   0.75141
 Alpha virt. eigenvalues --    0.75444   0.75680   0.76486   0.76621   0.76748
 Alpha virt. eigenvalues --    0.77086   0.77236   0.77407   0.77453   0.77760
 Alpha virt. eigenvalues --    0.77978   0.78235   0.78372   0.79011   0.79598
 Alpha virt. eigenvalues --    0.79736   0.79907   0.80112   0.80401   0.80456
 Alpha virt. eigenvalues --    0.80645   0.80747   0.80932   0.81442   0.81716
 Alpha virt. eigenvalues --    0.81895   0.82116   0.82409   0.82642   0.82751
 Alpha virt. eigenvalues --    0.83179   0.83517   0.83786   0.83977   0.84106
 Alpha virt. eigenvalues --    0.84303   0.84425   0.84498   0.84898   0.85168
 Alpha virt. eigenvalues --    0.85346   0.85363   0.85812   0.85834   0.86060
 Alpha virt. eigenvalues --    0.86468   0.86672   0.86866   0.87151   0.87815
 Alpha virt. eigenvalues --    0.87973   0.88153   0.88224   0.88285   0.88488
 Alpha virt. eigenvalues --    0.88743   0.88943   0.89189   0.89444   0.89689
 Alpha virt. eigenvalues --    0.89848   0.89917   0.90319   0.90413   0.90718
 Alpha virt. eigenvalues --    0.90769   0.90829   0.90938   0.91126   0.91419
 Alpha virt. eigenvalues --    0.91806   0.91879   0.91982   0.92106   0.92349
 Alpha virt. eigenvalues --    0.92741   0.92778   0.92968   0.93093   0.93514
 Alpha virt. eigenvalues --    0.93757   0.93977   0.94008   0.94091   0.94388
 Alpha virt. eigenvalues --    0.94567   0.94735   0.94900   0.95232   0.95394
 Alpha virt. eigenvalues --    0.95886   0.96062   0.96262   0.96451   0.96702
 Alpha virt. eigenvalues --    0.96961   0.97020   0.97111   0.97357   0.97536
 Alpha virt. eigenvalues --    0.97632   0.97758   0.98060   0.98365   0.98463
 Alpha virt. eigenvalues --    0.98887   0.99124   0.99191   0.99288   0.99766
 Alpha virt. eigenvalues --    1.00010   1.00405   1.00444   1.00919   1.01197
 Alpha virt. eigenvalues --    1.01408   1.01641   1.01735   1.01929   1.02054
 Alpha virt. eigenvalues --    1.02597   1.02756   1.02878   1.02980   1.03234
 Alpha virt. eigenvalues --    1.03981   1.04085   1.04176   1.04385   1.04406
 Alpha virt. eigenvalues --    1.04873   1.04924   1.05260   1.05358   1.05599
 Alpha virt. eigenvalues --    1.06227   1.06308   1.06381   1.06900   1.06976
 Alpha virt. eigenvalues --    1.07649   1.07871   1.08420   1.08971   1.09159
 Alpha virt. eigenvalues --    1.09571   1.09835   1.10075   1.10685   1.10945
 Alpha virt. eigenvalues --    1.11077   1.11505   1.11890   1.12204   1.12328
 Alpha virt. eigenvalues --    1.13158   1.13453   1.13799   1.14533   1.15060
 Alpha virt. eigenvalues --    1.15593   1.16370   1.17010   1.17419   1.18237
 Alpha virt. eigenvalues --    1.18682   1.19317   1.19497   1.19918   1.20179
 Alpha virt. eigenvalues --    1.20612   1.21159   1.21783   1.22250   1.23580
 Alpha virt. eigenvalues --    1.23813   1.24074   1.24318   1.24391   1.24959
 Alpha virt. eigenvalues --    1.25518   1.26128   1.26577   1.26854   1.27502
 Alpha virt. eigenvalues --    1.28069   1.28528   1.29147   1.29981   1.30658
 Alpha virt. eigenvalues --    1.31101   1.31696   1.31777   1.32519   1.33065
 Alpha virt. eigenvalues --    1.33542   1.33987   1.34252   1.34823   1.35219
 Alpha virt. eigenvalues --    1.36062   1.36193   1.36664   1.37096   1.37423
 Alpha virt. eigenvalues --    1.37656   1.38076   1.38395   1.38475   1.39445
 Alpha virt. eigenvalues --    1.39773   1.40218   1.41252   1.41747   1.42019
 Alpha virt. eigenvalues --    1.42196   1.43417   1.43794   1.44337   1.44775
 Alpha virt. eigenvalues --    1.45898   1.46792   1.46836   1.47346   1.47694
 Alpha virt. eigenvalues --    1.47830   1.48529   1.48760   1.49477   1.49722
 Alpha virt. eigenvalues --    1.50046   1.50246   1.51823   1.52508   1.52702
 Alpha virt. eigenvalues --    1.53354   1.53642   1.54061   1.54919   1.55220
 Alpha virt. eigenvalues --    1.55539   1.55969   1.56507   1.56665   1.56842
 Alpha virt. eigenvalues --    1.57658   1.58150   1.58835   1.59198   1.59346
 Alpha virt. eigenvalues --    1.60135   1.60245   1.60363   1.60728   1.61204
 Alpha virt. eigenvalues --    1.61614   1.62314   1.62498   1.63408   1.63484
 Alpha virt. eigenvalues --    1.63855   1.64066   1.64911   1.65071   1.65659
 Alpha virt. eigenvalues --    1.65789   1.66097   1.66265   1.66602   1.67098
 Alpha virt. eigenvalues --    1.67443   1.67624   1.68606   1.68956   1.69553
 Alpha virt. eigenvalues --    1.69762   1.69934   1.70022   1.70423   1.71009
 Alpha virt. eigenvalues --    1.71296   1.71406   1.71987   1.73666   1.73739
 Alpha virt. eigenvalues --    1.73992   1.74492   1.75162   1.75429   1.75510
 Alpha virt. eigenvalues --    1.75841   1.76580   1.77273   1.77702   1.78078
 Alpha virt. eigenvalues --    1.78367   1.78998   1.79167   1.79555   1.80159
 Alpha virt. eigenvalues --    1.80417   1.81009   1.81157   1.81832   1.82129
 Alpha virt. eigenvalues --    1.82157   1.82920   1.83380   1.83503   1.83708
 Alpha virt. eigenvalues --    1.83802   1.84627   1.84728   1.84839   1.85176
 Alpha virt. eigenvalues --    1.85351   1.85755   1.86167   1.86283   1.86562
 Alpha virt. eigenvalues --    1.86697   1.86801   1.87384   1.87604   1.87891
 Alpha virt. eigenvalues --    1.87975   1.88022   1.88289   1.88556   1.88642
 Alpha virt. eigenvalues --    1.89116   1.89227   1.89448   1.89779   1.90068
 Alpha virt. eigenvalues --    1.90459   1.90591   1.90811   1.91252   1.91553
 Alpha virt. eigenvalues --    1.91625   1.92200   1.92740   1.92829   1.93101
 Alpha virt. eigenvalues --    1.93499   1.93941   1.93973   1.94036   1.94192
 Alpha virt. eigenvalues --    1.94217   1.94502   1.94745   1.95064   1.95281
 Alpha virt. eigenvalues --    1.95581   1.95770   1.96201   1.96318   1.96576
 Alpha virt. eigenvalues --    1.96909   1.97444   1.97795   1.98023   1.98268
 Alpha virt. eigenvalues --    1.98496   1.98674   1.98820   1.98993   1.99222
 Alpha virt. eigenvalues --    1.99337   1.99746   1.99932   2.00861   2.01175
 Alpha virt. eigenvalues --    2.01505   2.01793   2.01950   2.02076   2.02525
 Alpha virt. eigenvalues --    2.02585   2.03166   2.03541   2.03734   2.04426
 Alpha virt. eigenvalues --    2.04485   2.04720   2.04944   2.05365   2.05617
 Alpha virt. eigenvalues --    2.05776   2.06014   2.06052   2.06694   2.07174
 Alpha virt. eigenvalues --    2.07452   2.07525   2.07998   2.08308   2.08399
 Alpha virt. eigenvalues --    2.08698   2.08739   2.08996   2.09235   2.09615
 Alpha virt. eigenvalues --    2.09929   2.10315   2.10803   2.10932   2.11056
 Alpha virt. eigenvalues --    2.11404   2.11740   2.11964   2.12114   2.12451
 Alpha virt. eigenvalues --    2.12477   2.13060   2.13280   2.13430   2.14070
 Alpha virt. eigenvalues --    2.14295   2.14367   2.14842   2.15163   2.15252
 Alpha virt. eigenvalues --    2.15470   2.15968   2.16773   2.16970   2.17031
 Alpha virt. eigenvalues --    2.17396   2.17618   2.17828   2.18317   2.18500
 Alpha virt. eigenvalues --    2.19051   2.19151   2.19511   2.19880   2.20469
 Alpha virt. eigenvalues --    2.21282   2.21312   2.21965   2.22083   2.22328
 Alpha virt. eigenvalues --    2.22611   2.22729   2.23237   2.23390   2.23524
 Alpha virt. eigenvalues --    2.24208   2.24452   2.24670   2.24840   2.25759
 Alpha virt. eigenvalues --    2.26579   2.26862   2.26929   2.27249   2.27637
 Alpha virt. eigenvalues --    2.28082   2.28522   2.28911   2.29232   2.29434
 Alpha virt. eigenvalues --    2.29844   2.30071   2.30165   2.30392   2.31065
 Alpha virt. eigenvalues --    2.31436   2.31574   2.32072   2.32312   2.32968
 Alpha virt. eigenvalues --    2.33006   2.33421   2.33840   2.33961   2.34311
 Alpha virt. eigenvalues --    2.35259   2.35544   2.35736   2.35920   2.36204
 Alpha virt. eigenvalues --    2.36309   2.36898   2.37177   2.37549   2.37861
 Alpha virt. eigenvalues --    2.37971   2.38276   2.39043   2.39252   2.39639
 Alpha virt. eigenvalues --    2.39671   2.40037   2.40090   2.40171   2.40436
 Alpha virt. eigenvalues --    2.40729   2.41293   2.41467   2.41895   2.42390
 Alpha virt. eigenvalues --    2.42619   2.42633   2.43083   2.43209   2.43716
 Alpha virt. eigenvalues --    2.43812   2.43988   2.44557   2.44978   2.45107
 Alpha virt. eigenvalues --    2.45236   2.45491   2.45788   2.46163   2.46347
 Alpha virt. eigenvalues --    2.46589   2.47154   2.47518   2.47978   2.48214
 Alpha virt. eigenvalues --    2.48451   2.48839   2.48934   2.49071   2.49837
 Alpha virt. eigenvalues --    2.50213   2.50700   2.51136   2.51154   2.51233
 Alpha virt. eigenvalues --    2.51843   2.52042   2.52351   2.52770   2.53346
 Alpha virt. eigenvalues --    2.53926   2.54373   2.54730   2.55075   2.55828
 Alpha virt. eigenvalues --    2.56128   2.56290   2.56551   2.56927   2.57307
 Alpha virt. eigenvalues --    2.57425   2.57909   2.58151   2.58376   2.58701
 Alpha virt. eigenvalues --    2.59029   2.59375   2.59571   2.60062   2.60642
 Alpha virt. eigenvalues --    2.61180   2.61242   2.61516   2.61751   2.62003
 Alpha virt. eigenvalues --    2.62388   2.62626   2.63539   2.63797   2.64009
 Alpha virt. eigenvalues --    2.64338   2.64639   2.65153   2.65205   2.65331
 Alpha virt. eigenvalues --    2.65917   2.66209   2.66459   2.66893   2.67196
 Alpha virt. eigenvalues --    2.67473   2.68207   2.68271   2.68540   2.69001
 Alpha virt. eigenvalues --    2.69089   2.69368   2.69576   2.69706   2.70132
 Alpha virt. eigenvalues --    2.70672   2.71135   2.71565   2.71682   2.71957
 Alpha virt. eigenvalues --    2.72150   2.72393   2.72596   2.72985   2.73256
 Alpha virt. eigenvalues --    2.73813   2.74109   2.74461   2.74812   2.74845
 Alpha virt. eigenvalues --    2.75279   2.75724   2.75944   2.76294   2.76404
 Alpha virt. eigenvalues --    2.76597   2.77042   2.77347   2.77883   2.78209
 Alpha virt. eigenvalues --    2.78369   2.78687   2.79170   2.79215   2.79572
 Alpha virt. eigenvalues --    2.79960   2.80061   2.80228   2.80756   2.80999
 Alpha virt. eigenvalues --    2.81268   2.81448   2.81880   2.82116   2.82814
 Alpha virt. eigenvalues --    2.83048   2.83338   2.83642   2.83734   2.84207
 Alpha virt. eigenvalues --    2.84383   2.84548   2.85049   2.85492   2.85757
 Alpha virt. eigenvalues --    2.86090   2.86686   2.87005   2.87989   2.88057
 Alpha virt. eigenvalues --    2.88872   2.89672   2.89922   2.90017   2.90474
 Alpha virt. eigenvalues --    2.91095   2.91172   2.91808   2.91886   2.92262
 Alpha virt. eigenvalues --    2.92498   2.92997   2.93470   2.93796   2.94222
 Alpha virt. eigenvalues --    2.94549   2.95047   2.95308   2.95637   2.95963
 Alpha virt. eigenvalues --    2.96889   2.97328   2.97853   2.98363   2.98630
 Alpha virt. eigenvalues --    2.98911   2.99308   2.99928   3.00691   3.00742
 Alpha virt. eigenvalues --    3.01082   3.01848   3.02346   3.03186   3.03670
 Alpha virt. eigenvalues --    3.03767   3.04343   3.05066   3.05219   3.05450
 Alpha virt. eigenvalues --    3.06367   3.06700   3.07480   3.07611   3.08216
 Alpha virt. eigenvalues --    3.08622   3.09072   3.09577   3.10019   3.10638
 Alpha virt. eigenvalues --    3.10667   3.11356   3.11987   3.12469   3.13144
 Alpha virt. eigenvalues --    3.13439   3.13964   3.16118   3.16163   3.16734
 Alpha virt. eigenvalues --    3.17208   3.17439   3.18367   3.18674   3.18811
 Alpha virt. eigenvalues --    3.19278   3.19916   3.22099   3.23452   3.23816
 Alpha virt. eigenvalues --    3.25551   3.26373   3.26638   3.27834   3.27907
 Alpha virt. eigenvalues --    3.29088   3.29746   3.31399   3.31437   3.31577
 Alpha virt. eigenvalues --    3.33301   3.33867   3.34452   3.34594   3.36154
 Alpha virt. eigenvalues --    3.37363   3.37683   3.37911   3.38710   3.39715
 Alpha virt. eigenvalues --    3.39771   3.40418   3.41185   3.41662   3.41933
 Alpha virt. eigenvalues --    3.42446   3.42784   3.43419   3.43833   3.43839
 Alpha virt. eigenvalues --    3.44316   3.44649   3.45197   3.45206   3.47265
 Alpha virt. eigenvalues --    3.47356   3.47459   3.49238   3.49481   3.50360
 Alpha virt. eigenvalues --    3.51210   3.51759   3.52614   3.52814   3.53437
 Alpha virt. eigenvalues --    3.54704   3.55731   3.55921   3.56175   3.57422
 Alpha virt. eigenvalues --    3.57854   3.58490   3.59332   3.59701   3.60437
 Alpha virt. eigenvalues --    3.61003   3.61151   3.61509   3.63251   3.66922
 Alpha virt. eigenvalues --    3.69270   3.69908   3.72412   3.72723   3.73821
 Alpha virt. eigenvalues --    3.78819   3.81202   3.81293   3.89672   4.04528
 Alpha virt. eigenvalues --    4.07524   4.14030   4.18934   4.21684   4.23303
 Alpha virt. eigenvalues --    4.23810   4.24461   4.25027   4.27064   4.28935
 Alpha virt. eigenvalues --    4.29401   4.30508   4.31288   4.32198   4.32460
 Alpha virt. eigenvalues --    4.33090   4.36439   4.36841   4.38853   4.39164
 Alpha virt. eigenvalues --    4.40120   4.40970   4.41871   4.43277   4.45505
 Alpha virt. eigenvalues --    4.46361   4.46919   4.48272   4.48638   4.50277
 Alpha virt. eigenvalues --    4.51102   4.52326   4.53460   4.54475   4.54511
 Alpha virt. eigenvalues --    4.56185   4.56344   4.58714   4.58928   4.61271
 Alpha virt. eigenvalues --    4.61794   4.62525   4.64189   4.64260   4.68549
 Alpha virt. eigenvalues --    4.69618   4.70169   4.70682   4.72127   4.73656
 Alpha virt. eigenvalues --    4.75475   4.75524   4.77715   4.78818   4.81729
 Alpha virt. eigenvalues --    4.82543   4.85166   4.85702   4.88875   4.89143
 Alpha virt. eigenvalues --    4.90128   4.94423   4.95910
          Condensed to atoms (all electrons):
 Mulliken charges:
               1
     1  Mg   0.826835
     2  C    0.005405
     3  C   -0.231778
     4  C   -0.095632
     5  C   -0.212527
     6  N   -0.643227
     7  C    0.368874
     8  C   -0.166536
     9  C   -0.139465
    10  C    0.332584
    11  C   -0.309275
    12  C   -0.185449
    13  C   -0.288081
    14  C    0.632186
    15  O   -0.474314
    16  O   -0.477908
    17  N   -0.675415
    18  C    0.329417
    19  C    0.026230
    20  C   -0.009045
    21  C    0.228931
    22  C   -0.382938
    23  C   -0.078258
    24  C   -0.219911
    25  N   -0.674631
    26  C    0.265496
    27  C    0.008704
    28  C    0.010266
    29  C    0.287410
    30  C   -0.361612
    31  C   -0.197182
    32  C   -0.278123
    33  N   -0.746345
    34  C    0.315564
    35  C   -0.033771
    36  C    0.115457
    37  C    0.314784
    38  C   -0.355430
    39  C    0.317692
    40  O   -0.475618
    41  C   -0.326978
    42  C    0.639273
    43  O   -0.466928
    44  O   -0.469454
    45  C   -0.075023
    46  C   -0.017441
    47  C   -0.129456
    48  C    0.140119
    49  C   -0.362797
    50  C   -0.222731
    51  C   -0.176696
    52  C   -0.157201
    53  C   -0.079348
    54  C   -0.308090
    55  C   -0.179801
    56  C   -0.183660
    57  C   -0.161230
    58  C   -0.057805
    59  C   -0.289050
    60  C   -0.177877
    61  C   -0.185491
    62  C   -0.139788
    63  C   -0.057142
    64  C   -0.292909
    65  C   -0.294451
    66  H    0.065789
    67  H    0.051767
    68  H    0.074348
    69  H    0.143913
    70  H    0.109855
    71  H    0.122006
    72  H    0.072477
    73  H    0.138187
    74  H    0.124790
    75  H    0.108315
    76  H    0.130998
    77  H    0.127552
    78  H    0.117629
    79  H    0.128221
    80  H    0.098860
    81  H    0.103587
    82  H    0.098504
    83  H    0.117983
    84  H    0.132017
    85  H    0.096531
    86  H    0.114891
    87  H    0.107835
    88  H    0.100264
    89  H    0.075991
    90  H    0.110694
    91  H    0.083095
    92  H    0.138172
    93  H    0.148088
    94  H    0.127557
    95  H    0.157299
    96  H    0.112214
    97  H    0.126119
    98  H    0.129537
    99  H    0.135855
   100  H    0.128943
   101  H    0.096338
   102  H    0.110665
   103  H    0.120008
   104  H    0.114091
   105  H    0.094498
   106  H    0.107681
   107  H    0.075169
   108  H    0.079740
   109  H    0.079078
   110  H    0.102294
   111  H    0.083887
   112  H    0.115442
   113  H    0.089282
   114  H    0.109368
   115  H    0.082536
   116  H    0.092913
   117  H    0.097931
   118  H    0.072453
   119  H    0.093808
   120  H    0.082903
   121  H    0.086994
   122  H    0.042123
   123  H    0.115428
   124  H    0.119430
   125  H    0.084066
   126  H    0.103451
   127  H    0.065697
   128  H    0.091425
   129  H    0.095773
   130  H    0.041880
   131  H    0.105947
   132  H    0.091021
   133  H    0.064233
   134  H    0.124495
   135  H    0.094019
   136  H    0.096406
   137  H    0.076235
 Sum of Mulliken charges =   0.00000
 Mulliken charges with hydrogens summed into heavy atoms:
               1
     1  Mg   0.826835
     2  C    0.005405
     3  C   -0.165989
     4  C   -0.043866
     5  C   -0.138179
     6  N   -0.643227
     7  C    0.368874
     8  C   -0.022623
     9  C   -0.029610
    10  C    0.332584
    11  C    0.023394
    12  C    0.047656
    13  C   -0.029531
    14  C    0.632186
    15  O   -0.474314
    16  O   -0.477908
    17  N   -0.675415
    18  C    0.329417
    19  C    0.026230
    20  C   -0.009045
    21  C    0.228931
    22  C   -0.038229
    23  C    0.025329
    24  C   -0.003424
    25  N   -0.674631
    26  C    0.265496
    27  C    0.008704
    28  C    0.010266
    29  C    0.287410
    30  C   -0.018173
    31  C    0.010917
    32  C   -0.008343
    33  N   -0.746345
    34  C    0.315564
    35  C   -0.033771
    36  C    0.115457
    37  C    0.314784
    38  C    0.058387
    39  C    0.317692
    40  O   -0.475618
    41  C   -0.169679
    42  C    0.639273
    43  O   -0.466928
    44  O   -0.469454
    45  C    0.292848
    46  C    0.247358
    47  C   -0.033117
    48  C    0.140119
    49  C   -0.018033
    50  C   -0.020553
    51  C   -0.021788
    52  C    0.024171
    53  C    0.004539
    54  C    0.006002
    55  C   -0.004352
    56  C   -0.013276
    57  C    0.015481
    58  C    0.029189
    59  C   -0.012068
    60  C    0.009640
    61  C   -0.028369
    62  C   -0.002134
    63  C    0.048805
    64  C   -0.013159
    65  C   -0.027791
 Electronic spatial extent (au):  <R**2>=         179821.2891
 Charge=              0.0000 electrons
 Dipole moment (field-independent basis, Debye):
    X=              3.0226    Y=              4.5241    Z=             -0.2172  Tot=              5.4452
 Quadrupole moment (field-independent basis, Debye-Ang):
   XX=           -338.3997   YY=           -391.9244   ZZ=           -400.9792
   XY=            -26.7790   XZ=             -2.3762   YZ=             -1.4703
 Traceless Quadrupole moment (field-independent basis, Debye-Ang):
   XX=             38.7014   YY=            -14.8233   ZZ=            -23.8780
   XY=            -26.7790   XZ=             -2.3762   YZ=             -1.4703
 Octapole moment (field-independent basis, Debye-Ang**2):
  XXX=           -356.1436  YYY=            129.7363  ZZZ=             26.1637  XYY=            -86.1226
  XXY=             32.3443  XXZ=           -211.0518  XZZ=             11.0206  YZZ=            -32.1948
  YYZ=             38.5286  XYZ=            -10.8936
 Hexadecapole moment (field-independent basis, Debye-Ang**3):
 XXXX=        -219679.1536 YYYY=         -17561.4691 ZZZZ=          -4272.7756 XXXY=          -2131.1983
 XXXZ=          -1415.7478 YYYX=          -1172.3178 YYYZ=           -391.7224 ZZZX=           -262.3798
 ZZZY=           -135.6816 XXYY=         -40430.0718 XXZZ=         -39912.2277 YYZZ=          -3583.8306
 XXYZ=            324.0010 YYXZ=             91.0321 ZZXY=            -11.0082
 N-N= 8.719706004112D+03 E-N=-2.426171677434D+04  KE= 2.904692076235D+03
 1\1\GINC-PEDRO-RYZENSSD\SP\RCAM-B3LYP TD-FC\6-31G(d,p)\C55H72Mg1N4O5\P
 ADAWAN\30-Jun-2019\0\\# td=(NStates=1) CAM-B3LYP/6-31G(d,p)\\TD\\0,1\M
 g,0,-7.1189735667,0.5897272134,0.0668047291\C,0,-4.8704259237,-1.94195
 63069,0.551670802\C,0,-4.8215014564,2.7642807554,1.149188376\C,0,-9.43
 26678556,3.1125636558,-0.4003713701\C,0,-9.4796689945,-1.7357837534,-0
 .9280209171\N,0,-5.1225150331,0.4117624367,0.7614136618\C,0,-4.3723748
 428,-0.6231729377,0.8231542182\C,0,-2.9398649477,-0.3499602681,1.31023
 64648\C,0,-2.9889191811,1.0911202445,1.7797607825\C,0,-4.344482535,1.5
 464050209,1.2346797292\C,0,-2.923020093,1.1627427616,3.2974132674\C,0,
 -1.8496892498,-0.6301570258,0.1644157674\C,0,-0.3597642304,-0.51948017
 94,0.5462932122\C,0,0.5736467431,-0.7256359957,-0.6206737192\O,0,0.153
 0658563,-1.0310445083,-1.7157408544\O,0,1.8079978248,-0.4044953563,-0.
 2018044005\N,0,-7.071794788,2.6365450618,0.3248076376\C,0,-6.128770008
 ,3.3483857925,0.8031282968\C,0,-6.3862266124,4.7701776482,0.8273204965
 \C,0,-7.7166822636,4.8764275295,0.3996968767\C,0,-8.1363041836,3.48006
 82981,0.0529556348\C,0,-5.5160373849,5.858796971,1.3669632215\C,0,-8.6
 120204144,6.0857736454,0.1701170336\C,0,-8.1418033781,7.2954756319,0.0
 244881865\N,0,-9.1532803637,0.6713936177,-0.552977003\C,0,-9.930554714
 5,1.8211127939,-0.7400891331\C,0,-11.1942341663,1.4010210925,-1.155530
 3026\C,0,-11.2324717679,0.0678606634,-1.2417734435\C,0,-9.9556054442,-
 0.3725957477,-0.8244617491\C,0,-12.3717254146,2.3787801589,-1.28856938
 78\C,0,-12.4008001257,-0.7500260648,-1.6728524624\C,0,-12.3907154035,-
 1.0694008253,-3.1854266481\N,0,-7.2786041125,-1.4262119828,-0.09531265
 \C,0,-8.3016353858,-2.29140508,-0.5795157575\C,0,-7.7946871362,-3.6050
 246854,-0.4841968487\C,0,-6.4945449765,-3.5518394994,-0.1171642085\C,0
 ,-6.2714219204,-2.2458307376,0.1340050219\C,0,-8.6320135461,-4.8226350
 824,-0.8582453715\C,0,-5.3008466224,-4.312557241,0.021680668\O,0,-5.12
 22635882,-5.5747301266,0.0318092157\C,0,-4.1360970197,-3.262719206,0.5
 083417262\C,0,-3.5208264468,-3.6668027649,1.8537165514\O,0,-3.70795445
 ,-3.1277160044,2.9231260279\O,0,-2.7438857365,-4.8120393564,1.75100318
 83\C,0,-2.2322958681,-5.4072111904,2.9525665937\C,0,2.9320469813,-0.67
 55368114,-1.2363990148\C,0,4.129706293,-0.3547793273,-0.4984923779\C,0
 ,5.1503686443,0.5416474892,-0.878347735\C,0,5.1117285895,1.4438289192,
 -2.0421413052\C,0,6.4171081684,0.5561444213,-0.1634530315\C,0,7.521789
 9179,-0.289330815,-0.8166813368\C,0,8.8782269051,-0.1432140549,-0.0395
 765519\C,0,10.1357544684,-0.598256924,-0.8426806625\C,0,10.0609932855,
 -2.0349728322,-1.4225339149\C,0,11.4873298501,-0.3427551661,0.07365756
 45\C,0,12.7205792269,-0.5165881747,-0.6094314829\C,0,13.9049861864,-0.
 108287592,0.231250338\C,0,15.2640917532,-0.2664692586,-0.5732703773\C,
 0,15.6003841406,-1.6823110169,-0.9262099008\C,0,16.4372369777,0.334747
 8609,0.3326824529\C,0,17.8270084051,0.5542735532,-0.3134496249\C,0,18.
 7800434038,1.4137832251,0.6694093026\C,0,20.246552335,1.385764321,0.24
 576418\C,0,20.3189221211,2.1648421322,-1.1534711685\C,0,21.1824161157,
 2.016696039,1.2464613477\H,0,-3.9803582943,3.5178601677,1.5023947605\H
 ,0,-9.9850922609,3.9010576897,-0.3135156542\H,0,-10.3752467865,-2.5838
 184365,-1.2373872862\H,0,-2.8187105618,-0.9974794116,2.171234362\H,0,-
 2.2573153695,1.8943679254,1.4404184083\H,0,-2.0023439577,1.042889778,3
 .6797981932\H,0,-3.2137361598,2.243083765,3.7737919467\H,0,-3.53042402
 36,0.5950538731,3.8293368182\H,0,-1.8451970466,-1.5615820786,-0.388703
 8564\H,0,-1.7668808903,0.1758496763,-0.6110862102\H,0,-0.3146885629,0.
 3651744409,1.0659888508\H,0,-0.2466906228,-1.2642994053,1.3272556015\H
 ,0,-4.8709492626,6.4004452196,0.6008418664\H,0,-6.1559302633,6.5831481
 136,1.9204567349\H,0,-4.7373669655,5.4575009215,2.1994536241\H,0,-9.68
 30558045,5.8361065468,0.3074485894\H,0,-8.9395945999,7.8798465742,-0.1
 806174684\H,0,-7.1353285695,7.6085914283,-0.1537098416\H,0,-12.3415795
 708,2.9365509604,-2.1588521836\H,0,-13.2777429878,1.6663122693,-1.3796
 714908\H,0,-12.489695931,3.0584189273,-0.3928707851\H,0,-12.4379063187
 ,-1.5817305713,-1.1625664645\H,0,-13.184514455,-0.0210859216,-1.549162
 2732\H,0,-13.4084813143,-1.9192531645,-3.2586188596\H,0,-12.2153717112
 ,-0.0659753234,-3.7487424492\H,0,-11.304013749,-1.5971326573,-3.440173
 1328\H,0,-8.8806189578,-4.6004128896,-1.8240099824\H,0,-7.9690906101,-
 5.58311842,-0.851129341\H,0,-9.6344556114,-4.9085876458,-0.3700952657\
 H,0,-3.4054806801,-3.3606576503,-0.3792445775\H,0,-1.8772088109,-4.499
 0682841,3.7224589329\H,0,-3.009566144,-5.9867393163,3.4367308952\H,0,-
 1.5889003165,-6.1646906462,2.6578224851\H,0,2.9524699181,-1.7723069206
 ,-1.5469487712\H,0,2.7070724074,-0.1192390055,-2.2808301028\H,0,4.3534
 145658,-1.0074187481,0.3798403602\H,0,4.2252334596,1.3843095273,-2.643
 9377361\H,0,5.2396472631,2.4997443646,-1.6706814227\H,0,5.967212044,1.
 2214224724,-2.7834896483\H,0,6.9721902423,1.5515513828,-0.0549179941\H
 ,0,6.1096143094,0.0156083119,0.7508560927\H,0,7.0631000521,-1.41393246
 49,-0.8485589846\H,0,7.7696584968,-0.0500381273,-1.9386940163\H,0,8.97
 05431515,1.0168843049,0.2188658491\H,0,8.7827560984,-0.8891272681,0.76
 09707157\H,0,10.3799697085,0.1956843347,-1.5771915498\H,0,9.2864251389
 ,-2.0058876331,-2.2207870399\H,0,11.1469277775,-2.1842749401,-1.826938
 8799\H,0,10.06096357,-2.8032619488,-0.609603051\H,0,11.2560503672,0.54
 41488224,0.7281747809\H,0,11.4986402737,-1.0846508032,0.7986473377\H,0
 ,12.7995156873,-1.5329501564,-1.0333716721\H,0,12.6197008761,-0.031733
 6944,-1.5946378276\H,0,13.8057120744,0.8880020557,0.781654826\H,0,13.9
 05346625,-1.0843208694,0.876572827\H,0,15.0986922613,0.4503948999,-1.4
 258322427\H,0,15.5679387949,-2.3522519511,0.2727796804\H,0,15.17722525
 43,-2.2712353171,-1.687506471\H,0,16.6049085495,-1.6414880774,-1.16718
 88277\H,0,16.2121264223,1.4029093636,0.665800001\H,0,16.7650882108,-0.
 3554019359,1.1273256643\H,0,18.3097101629,-0.5987968435,-0.2178477924\
 H,0,17.7073708183,0.8077820367,-1.4334268266\H,0,18.3799666795,2.46014
 79144,0.9956746684\H,0,18.4177480522,0.8157151828,1.7978961412\H,0,20.
 7639464613,0.4978962254,-0.0289451441\H,0,20.0493017635,3.318870872,-0
 .9082210916\H,0,21.5035164655,2.3294388218,-1.5403752915\H,0,19.824163
 2495,1.5285742597,-1.8315735807\H,0,21.3364836637,1.5087901828,2.27894
 73363\H,0,22.2181964601,2.1325217834,0.8024945157\H,0,20.7075032829,3.
 0593396102,1.5449004212\\Version=ES64L-G09RevD.01\State=1-A\HF=-2932.5
 986833\RMSD=7.277e-09\PG=C01 [X(C55H72Mg1N4O5)]\\@


 A COMPLEXITY IS MERELY A DISARRANGEMENT OF SIMPLICITIES.

                                    -- G. O. ABELL IN "EXPLORATION OF THE UNIVERSE"
 Job cpu time:       0 days  6 hours 25 minutes 56.2 seconds.
 File lengths (MBytes):  RWF=   2106 Int=      0 D2E=      0 Chk=    163 Scr=      1
 Normal termination of Gaussian 09 at Sun Jun 30 08:47:10 2019.
