 Entering Gaussian System, Link 0=g16
 Input=Geometria-107-.com
 Output=Geometria-107-.log
 Initial command:
 /usr/local/g09/l1.exe "/home/padawan/israel-mol/chlorophyll-a/spectra/abs/Gau-31379.inp" -scrdir="/home/padawan/israel-mol/chlorophyll-a/spectra/abs/"
 Entering Link 1 = /usr/local/g09/l1.exe PID=     31381.
  
 Copyright (c) 1988,1990,1992,1993,1995,1998,2003,2009,2013,
            Gaussian, Inc.  All Rights Reserved.
  
 This is part of the Gaussian(R) 09 program.  It is based on
 the Gaussian(R) 03 system (copyright 2003, Gaussian, Inc.),
 the Gaussian(R) 98 system (copyright 1998, Gaussian, Inc.),
 the Gaussian(R) 94 system (copyright 1995, Gaussian, Inc.),
 the Gaussian 92(TM) system (copyright 1992, Gaussian, Inc.),
 the Gaussian 90(TM) system (copyright 1990, Gaussian, Inc.),
 the Gaussian 88(TM) system (copyright 1988, Gaussian, Inc.),
 the Gaussian 86(TM) system (copyright 1986, Carnegie Mellon
 University), and the Gaussian 82(TM) system (copyright 1983,
 Carnegie Mellon University). Gaussian is a federally registered
 trademark of Gaussian, Inc.
  
 This software contains proprietary and confidential information,
 including trade secrets, belonging to Gaussian, Inc.
  
 This software is provided under written license and may be
 used, copied, transmitted, or stored only in accord with that
 written license.
  
 The following legend is applicable only to US Government
 contracts under FAR:
  
                    RESTRICTED RIGHTS LEGEND
  
 Use, reproduction and disclosure by the US Government is
 subject to restrictions as set forth in subparagraphs (a)
 and (c) of the Commercial Computer Software - Restricted
 Rights clause in FAR 52.227-19.
  
 Gaussian, Inc.
 340 Quinnipiac St., Bldg. 40, Wallingford CT 06492
  
  
 ---------------------------------------------------------------
 Warning -- This program may not be used in any manner that
 competes with the business of Gaussian, Inc. or will provide
 assistance to any competitor of Gaussian, Inc.  The licensee
 of this program is prohibited from giving any competitor of
 Gaussian, Inc. access to this program.  By using this program,
 the user acknowledges that Gaussian, Inc. is engaged in the
 business of creating and licensing software in the field of
 computational chemistry and represents and warrants to the
 licensee that it is not a competitor of Gaussian, Inc. and that
 it will not use this program in any manner prohibited above.
 ---------------------------------------------------------------
  

 Cite this work as:
 Gaussian 09, Revision D.01,
 M. J. Frisch, G. W. Trucks, H. B. Schlegel, G. E. Scuseria, 
 M. A. Robb, J. R. Cheeseman, G. Scalmani, V. Barone, B. Mennucci, 
 G. A. Petersson, H. Nakatsuji, M. Caricato, X. Li, H. P. Hratchian, 
 A. F. Izmaylov, J. Bloino, G. Zheng, J. L. Sonnenberg, M. Hada, 
 M. Ehara, K. Toyota, R. Fukuda, J. Hasegawa, M. Ishida, T. Nakajima, 
 Y. Honda, O. Kitao, H. Nakai, T. Vreven, J. A. Montgomery, Jr., 
 J. E. Peralta, F. Ogliaro, M. Bearpark, J. J. Heyd, E. Brothers, 
 K. N. Kudin, V. N. Staroverov, T. Keith, R. Kobayashi, J. Normand, 
 K. Raghavachari, A. Rendell, J. C. Burant, S. S. Iyengar, J. Tomasi, 
 M. Cossi, N. Rega, J. M. Millam, M. Klene, J. E. Knox, J. B. Cross, 
 V. Bakken, C. Adamo, J. Jaramillo, R. Gomperts, R. E. Stratmann, 
 O. Yazyev, A. J. Austin, R. Cammi, C. Pomelli, J. W. Ochterski, 
 R. L. Martin, K. Morokuma, V. G. Zakrzewski, G. A. Voth, 
 P. Salvador, J. J. Dannenberg, S. Dapprich, A. D. Daniels, 
 O. Farkas, J. B. Foresman, J. V. Ortiz, J. Cioslowski, 
 and D. J. Fox, Gaussian, Inc., Wallingford CT, 2013.
 
 ******************************************
 Gaussian 09:  ES64L-G09RevD.01 24-Apr-2013
                27-Jun-2019 
 ******************************************
 %nproc=4
 Will use up to    4 processors via shared memory.
 %Mem=2GB
 -------------------------------------
 # td=(NStates=1) CAM-B3LYP/6-31G(d,p)
 -------------------------------------
 1/38=1/1;
 2/12=2,17=6,18=5,40=1/2;
 3/5=1,6=6,7=101,11=9,16=1,25=1,30=1,74=-40/1,2,8,3;
 4//1;
 5/5=2,38=5/2;
 8/6=1,10=2,108=1/1;
 9/41=1,42=1,70=2/14;
 6/7=2,8=2,9=2,10=2/1;
 99/5=1,9=1/99;
 --
 TD
 --
 Symbolic Z-matrix:
 Charge =  0 Multiplicity = 1
 12                   -7.12698   0.59818   0.1529 
 6                    -4.86268  -1.92557   0.54756 
 6                    -4.94374   2.84885   1.11407 
 6                    -9.44648   3.02881  -0.31026 
 6                    -9.43728  -1.77283  -0.76777 
 7                    -5.09579   0.50224   0.66661 
 6                    -4.40063  -0.62729   0.75362 
 6                    -3.04643  -0.37245   1.19694 
 6                    -3.11133   1.09782   1.64398 
 6                    -4.49655   1.55415   1.1213 
 6                    -3.10662   1.28622   3.16998 
 6                    -1.91747  -0.45305   0.06782 
 6                    -0.45146  -0.33697   0.55303 
 6                     0.61198  -0.45762  -0.53284 
 8                     0.31318  -0.86201  -1.6862 
 8                     1.77547  -0.37626  -0.08112 
 7                    -7.19909   2.67699   0.41307 
 6                    -6.11882   3.45551   0.68239 
 6                    -6.51422   4.83666   0.92425 
 6                    -7.8048    4.82501   0.36762 
 6                    -8.14081   3.48794   0.12921 
 6                    -5.52953   5.92743   1.38521 
 6                    -8.76069   5.87929   0.28498 
 6                    -8.40429   7.22068   0.0835 
 7                    -9.03856   0.67741  -0.60612 
 6                    -9.92452   1.74428  -0.52244 
 6                    -11.21915   1.42557  -1.10948 
 6                    -11.19756   0.02911  -1.17772 
 6                    -9.88986  -0.40278  -0.86407 
 6                    -12.44114   2.39871  -1.27171 
 6                    -12.38155  -0.77569  -1.59088 
 6                    -12.28229  -1.26733  -3.13705 
 7                    -7.1963   -1.45307  -0.22235 
 6                    -8.14012  -2.26413  -0.50149 
 6                    -7.80562  -3.59673  -0.62126 
 6                    -6.4804   -3.59299  -0.25366 
 6                    -6.11987  -2.20445   0.01193 
 6                    -8.6011   -4.83641  -0.9252 
 6                    -5.22861  -4.38161   0.11479 
 8                    -5.10408  -5.56523   0.15226 
 6                    -4.09951  -3.42773   0.51833 
 6                    -3.54873  -3.69644   1.94039 
 8                    -3.68857  -3.09659   3.00539 
 8                    -2.71179  -4.68986   1.76929 
 6                    -2.11484  -5.2361    2.91428 
 6                     2.77504  -0.60421  -1.18824 
 6                     4.13222  -0.2866   -0.55939 
 6                     5.18167   0.40232  -1.01847 
 6                     5.13725   1.23336  -2.35421 
 6                     6.47314   0.51463  -0.28881 
 6                     7.72048  -0.08107  -0.94399 
 6                     8.97187  -0.15523  -0.10396 
 6                     10.26976  -0.67485  -0.94605 
 6                     10.11407  -2.06572  -1.31996 
 6                     11.42573  -0.38164   0.03788 
 6                     12.79982  -0.50372  -0.75988 
 6                     13.97044  -0.14512   0.13858 
 6                     15.38468  -0.25754  -0.4222 
 6                     15.6506  -1.6503   -0.9658 
 6                     16.44812   0.31682   0.46166 
 6                     17.8626   0.58164  -0.31603 
 6                     18.84303   0.97959   0.73267 
 6                     20.3252   1.20658   0.2515 
 6                     20.33743   2.16465  -0.91065 
 6                     21.03518   1.90247   1.42727 
 1                    -4.05562   3.3912    1.33729 
 1                    -10.39865   3.74014  -0.40581 
 1                    -10.26563  -2.39427  -0.92979 
 1                    -2.7249   -1.10554   2.01738 
 1                    -2.36749   1.6997    1.04698 
 1                    -2.21459   1.03507   3.62719 
 1                    -3.40928   2.28897   3.39939 
 1                    -3.99427   0.80466   3.6943 
 1                    -2.2627   -1.33519  -0.52543 
 1                    -2.00767   0.44953  -0.63161 
 1                    -0.5129    0.5985    1.04134 
 1                    -0.40958  -1.18415   1.4119 
 1                    -4.84727   6.22623   0.53698 
 1                    -6.19436   6.76531   1.66896 
 1                    -4.93238   5.59955   2.08122 
 1                    -9.8411    5.63924   0.39544 
 1                    -9.18336   7.96481   0.08641 
 1                    -7.45311   7.5402   -0.08697 
 1                    -12.05697   3.12892  -2.07889 
 1                    -13.30863   1.78427  -1.53081 
 1                    -12.70398   2.93187  -0.34707 
 1                    -12.58206  -1.76114  -1.00512 
 1                    -13.27662  -0.17222  -1.29921 
 1                    -13.25012  -1.85126  -3.25882 
 1                    -12.22093  -0.48677  -3.79907 
 1                    -11.44229  -1.68164  -3.23978 
 1                    -9.11975  -4.85741  -1.9406 
 1                    -8.03099  -5.74131  -0.76832 
 1                    -9.68096  -5.01108  -0.31245 
 1                    -3.39838  -3.3155   -0.26575 
 1                    -0.90352  -4.63348   3.11995 
 1                    -2.7579   -5.40126   3.82046 
 1                    -1.7842   -6.21268   2.46994 
 1                     2.75969  -1.75487  -1.4838 
 1                     2.22848   0.08918  -2.03008 
 1                     4.27172  -1.09195   0.30602 
 1                     4.2264    1.33776  -2.97326 
 1                     5.44564   2.28549  -2.24386 
 1                     5.65283   0.79121  -3.2181 
 1                     6.85662   1.43743   0.13843 
 1                     6.32179  -0.10506   0.79898 
 1                     7.52083  -1.13583  -1.1885 
 1                     7.7891    0.5832   -1.85402 
 1                     9.03332   0.92058   0.23216 
 1                     8.78663  -0.86265   0.74346 
 1                     10.47967   0.32648  -1.74092 
 1                     9.16078  -2.32298  -1.87816 
 1                     10.94245  -2.26148  -2.23777 
 1                     10.32397  -2.83498  -0.37526 
 1                     11.4333   0.65751   0.20829 
 1                     11.51725  -1.10125   0.81361 
 1                     13.07083  -1.52539  -0.98854 
 1                     12.70604   0.07315  -1.56611 
 1                     13.85695   0.82773   0.4823 
 1                     14.02405  -0.87562   0.96526 
 1                     15.37833   0.46013  -1.24432 
 1                     15.69136  -2.40528  -0.14771 
 1                     14.73605  -1.83476  -1.656 
 1                     16.63414  -1.58943  -1.52617 
 1                     16.39173   1.27026   1.00504 
 1                     16.58651  -0.41627   1.34566 
 1                     18.41564  -0.2447   -0.68508 
 1                     17.61675   1.40708  -1.09861 
 1                     18.53883   1.97104   1.12671 
 1                     18.80364   0.24616   1.51796 
 1                     20.68709   0.24947  -0.23018 
 1                     19.65532   2.98745  -0.69971 
 1                     21.32758   2.61008  -1.1805 
 1                     19.88424   1.88645  -1.99489 
 1                     20.85958   1.39431   2.4524 
 1                     22.04497   1.92318   1.23387 
 1                     20.68051   3.12356   1.39969 
 
 Stoichiometry    C55H72MgN4O5
 Framework group  C1[X(C55H72MgN4O5)]
 Deg. of freedom   405
 Full point group                 C1      NOp   1
 Largest Abelian subgroup         C1      NOp   1
 Largest concise Abelian subgroup C1      NOp   1
                         Standard orientation:                         
 ---------------------------------------------------------------------
 Center     Atomic      Atomic             Coordinates (Angstroms)
 Number     Number       Type             X           Y           Z
 ---------------------------------------------------------------------
      1         12           0       -7.126518    0.585920    0.146827
      2          6           0       -4.857783   -1.932679    0.548915
      3          6           0       -4.948067    2.842920    1.104018
      4          6           0       -9.450223    3.011129   -0.323583
      5          6           0       -9.431832   -1.791552   -0.769665
      6          7           0       -5.095479    0.494976    0.662045
      7          6           0       -4.398275   -0.633056    0.752174
      8          6           0       -3.044830   -0.374648    1.195738
      9          6           0       -3.112747    1.096561    1.639240
     10          6           0       -4.498475    1.549069    1.114604
     11          6           0       -3.109353    1.288592    3.164794
     12          6           0       -1.915006   -0.455834    0.067527
     13          6           0       -0.449530   -0.335882    0.553392
     14          6           0        0.614826   -0.457137   -0.531526
     15          8           0        0.317510   -0.864821   -1.684102
     16          8           0        1.777879   -0.372547   -0.079265
     17          7           0       -7.202642    2.665207    0.401998
     18          6           0       -6.123991    3.446366    0.670146
     19          6           0       -6.522106    4.827359    0.908474
     20          6           0       -7.812310    4.811988    0.351063
     21          6           0       -8.145692    3.473730    0.115622
     22          6           0       -5.539733    5.921048    1.367453
     23          6           0       -8.770095    5.864293    0.265307
     24          6           0       -8.416061    7.205854    0.060866
     25          7           0       -9.037754    0.659803   -0.613591
     26          6           0       -9.925750    1.725213   -0.533003
     27          6           0      -11.219406    1.402714   -1.120098
     28          6           0      -11.195184    0.006131   -1.185003
     29          6           0       -9.886885   -0.422579   -0.869500
     30          6           0      -12.443101    2.373194   -1.285416
     31          6           0      -12.377416   -0.801841   -1.597001
     32          6           0      -12.276269   -1.296973   -3.141932
     33          7           0       -7.191787   -1.466344   -0.223584
     34          6           0       -8.133927   -2.279814   -0.501392
     35          6           0       -7.796879   -3.612073   -0.617783
     36          6           0       -6.471907   -3.604999   -0.249354
     37          6           0       -6.114115   -2.215157    0.013160
     38          6           0       -8.589867   -4.853940   -0.919276
     39          6           0       -5.218886   -4.390416    0.121759
     40          8           0       -5.092187   -5.573705    0.162124
     41          6           0       -4.091818   -3.433476    0.523743
     42          6           0       -3.541440   -3.697781    1.946778
     43          8           0       -3.683072   -3.095668    3.010268
     44          8           0       -2.702553   -4.690051    1.778569
     45          6           0       -2.105320   -5.232465    2.925240
     46          6           0        2.778570   -0.601270   -1.185210
     47          6           0        4.134754   -0.279649   -0.556256
     48          6           0        5.183221    0.410130   -1.016315
     49          6           0        5.138108    1.237902   -2.354057
     50          6           0        6.474019    0.526569   -0.286104
     51          6           0        7.722874   -0.068372   -0.939086
     52          6           0        8.973862   -0.138206   -0.098092
     53          6           0       10.273250   -0.657426   -0.938123
     54          6           0       10.120378   -2.049459   -1.308823
     55          6           0       11.428054   -0.359726    0.045841
     56          6           0       12.802868   -0.481150   -0.750760
     57          6           0       13.972256   -0.118246    0.147580
     58          6           0       15.387059   -0.229371   -0.412035
     59          6           0       15.655902   -1.622923   -0.952161
     60          6           0       16.448864    0.349056    0.471117
     61          6           0       17.863348    0.614652   -0.306303
     62          6           0       18.842370    1.016917    0.742060
     63          6           0       20.324422    1.245510    0.261296
     64          6           0       20.335617    2.200841   -0.903124
     65          6           0       21.032365    1.945519    1.435849
     66          1           0       -4.061089    3.387445    1.326500
     67          1           0      -10.403654    3.720468   -0.421429
     68          1           0      -10.258916   -2.414914   -0.930720
     69          1           0       -2.722468   -1.105185    2.018127
     70          1           0       -2.369641    1.698397    1.041281
     71          1           0       -2.217146    1.040190    3.623165
     72          1           0       -3.414015    2.291324    3.391630
     73          1           0       -3.996443    0.806643    3.689701
     74          1           0       -2.258225   -1.340022   -0.523834
     75          1           0       -2.006445    0.444907   -0.634100
     76          1           0       -0.513010    0.600631    1.039428
     77          1           0       -0.406618   -1.180938    1.414301
     78          1           0       -4.857488    6.219090    0.518946
     79          1           0       -6.206302    6.758357    1.648796
     80          1           0       -4.942416    5.595924    2.064625
     81          1           0       -9.850135    5.622495    0.375655
     82          1           0       -9.196510    7.948538    0.061510
     83          1           0       -7.465367    7.526740   -0.109771
     84          1           0      -12.059772    3.102192   -2.094095
     85          1           0      -13.309279    1.756532   -1.543599
     86          1           0      -12.707512    2.908056   -0.362211
     87          1           0      -12.576473   -1.786265   -1.009021
     88          1           0      -13.273795   -0.199344   -1.307325
     89          1           0      -13.242928   -1.882982   -3.262920
     90          1           0      -12.215934   -0.517874   -3.805764
     91          1           0      -11.435430   -1.709967   -3.243147
     92          1           0       -9.107834   -4.878319   -1.934949
     93          1           0       -8.018175   -5.757412   -0.759883
     94          1           0       -9.669790   -5.029158   -0.306790
     95          1           0       -3.390396   -3.321817   -0.260166
     96          1           0       -0.895248   -4.627107    3.130235
     97          1           0       -2.748645   -5.396659    3.831401
     98          1           0       -1.772583   -6.209474    2.483434
     99          1           0        2.765542   -1.752652   -1.478040
    100          1           0        2.231263    0.089102   -2.029033
    101          1           0        4.275198   -1.082674    0.311157
    102          1           0        4.227462    1.339145   -2.973926
    103          1           0        5.444472    2.290867   -2.246012
    104          1           0        5.655055    0.794658   -3.216568
    105          1           0        6.855510    1.451092    0.139178
    106          1           0        6.323120   -0.090817    0.803058
    107          1           0        7.525332   -1.124083   -1.181211
    108          1           0        7.790840    0.593854   -1.850642
    109          1           0        9.033106    0.938512    0.235506
    110          1           0        8.789396   -0.843961    0.750894
    111          1           0       10.481809    0.342401   -1.735237
    112          1           0        9.167925   -2.309818   -1.867010
    113          1           0       10.949701   -2.245870   -2.225638
    114          1           0       10.331106   -2.816079   -0.362159
    115          1           0       11.433583    0.679837    0.213782
    116          1           0       11.520415   -1.077322    0.823333
    117          1           0       13.075924   -1.502858   -0.976818
    118          1           0       12.708533    0.093620   -1.558428
    119          1           0       13.856738    0.855203    0.488917
    120          1           0       14.026691   -0.846676    0.976030
    121          1           0       15.379896    0.486323   -1.235873
    122          1           0       15.697545   -2.375878   -0.132250
    123          1           0       14.742137   -1.810725   -1.642496
    124          1           0       16.639686   -1.561566   -1.512054
    125          1           0       16.390367    1.303680    1.012200
    126          1           0       16.588055   -0.381665    1.356948
    127          1           0       18.418153   -0.211533   -0.673042
    128          1           0       17.616465    1.437776   -1.091003
    129          1           0       18.536084    2.008734    1.133551
    130          1           0       18.803839    0.285283    1.529071
    131          1           0       20.688391    0.287936   -0.217877
    132          1           0       19.651847    3.022868   -0.694576
    133          1           0       21.325105    2.647460   -1.173411
    134          1           0       19.883628    1.919220   -1.986988
    135          1           0       20.857051    1.439467    2.462080
    136          1           0       22.042235    1.967640    1.243036
    137          1           0       20.675447    3.165871    1.405137
 ---------------------------------------------------------------------
 Rotational constants (GHZ):      0.0648375      0.0060718      0.0057198
 Standard basis: 6-31G(d,p) (6D, 7F)
 There are  1339 symmetry adapted cartesian basis functions of A   symmetry.
 There are  1339 symmetry adapted basis functions of A   symmetry.
  1339 basis functions,  2348 primitive gaussians,  1339 cartesian basis functions
   241 alpha electrons      241 beta electrons
       nuclear repulsion energy      8744.7360373307 Hartrees.
 NAtoms=  137 NActive=  137 NUniq=  137 SFac= 1.00D+00 NAtFMM=   60 NAOKFM=T Big=T
 Integral buffers will be    131072 words long.
 Raffenetti 1 integral format.
 Two-electron integral symmetry is turned on.
 One-electron integrals computed using PRISM.
 NBasis=  1339 RedAO= T EigKep=  3.25D-04  NBF=  1339
 NBsUse=  1339 1.00D-06 EigRej= -1.00D+00 NBFU=  1339
 ExpMin= 4.21D-02 ExpMax= 1.17D+04 ExpMxC= 1.76D+03 IAcc=2 IRadAn=         4 AccDes= 0.00D+00
 Harris functional with IExCor=20419 and IRadAn=       4 diagonalized for initial guess.
 HarFok:  IExCor=20419 AccDes= 0.00D+00 IRadAn=         4 IDoV= 1 UseB2=F ITyADJ=14
 ICtDFT=  3500011 ScaDFX=  1.000000  1.000000  1.000000  1.000000
 FoFCou: FMM=F IPFlag=           0 FMFlag=      100000 FMFlg1=        2001
         NFxFlg=           0 DoJE=T BraDBF=F KetDBF=T FulRan=T
         wScrn=  0.000000 ICntrl=     500 IOpCl=  0 I1Cent=   200000004 NGrid=           0
         NMat0=    1 NMatS0=      1 NMatT0=    0 NMatD0=    1 NMtDS0=    0 NMtDT0=    0
 Petite list used in FoFCou.
 Requested convergence on RMS density matrix=1.00D-08 within 128 cycles.
 Requested convergence on MAX density matrix=1.00D-06.
 Requested convergence on             energy=1.00D-06.
 No special actions if energy rises.
 SCF Done:  E(RCAM-B3LYP) =  -2932.63300272     A.U. after   18 cycles
            NFock= 18  Conv=0.73D-08     -V/T= 2.0092
 DoSCS=F DFT=T ScalE2(SS,OS)=  1.000000  1.000000
 ExpMin= 4.21D-02 ExpMax= 1.17D+04 ExpMxC= 1.76D+03 IAcc=3 IRadAn=         5 AccDes= 0.00D+00
 HarFok:  IExCor=  205 AccDes= 0.00D+00 IRadAn=         5 IDoV=-2 UseB2=F ITyADJ=14
 ICtDFT= 12500011 ScaDFX=  1.000000  1.000000  1.000000  1.000000
 Range of M.O.s used for correlation:    70  1339
 NBasis=  1339 NAE=   241 NBE=   241 NFC=    69 NFV=     0
 NROrb=   1270 NOA=   172 NOB=   172 NVA=  1098 NVB=  1098
 Would need an additional       2415464100000 words for in-memory AO integral storage.
 Orbital symmetries:
       Occupied  (A) (A) (A) (A) (A) (A) (A) (A) (A) (A) (A) (A)
                 (A) (A) (A) (A) (A) (A) (A) (A) (A) (A) (A) (A)
                 (A) (A) (A) (A) (A) (A) (A) (A) (A) (A) (A) (A)
                 (A) (A) (A) (A) (A) (A) (A) (A) (A) (A) (A) (A)
                 (A) (A) (A) (A) (A) (A) (A) (A) (A) (A) (A) (A)
                 (A) (A) (A) (A) (A) (A) (A) (A) (A) (A) (A) (A)
                 (A) (A) (A) (A) (A) (A) (A) (A) (A) (A) (A) (A)
                 (A) (A) (A) (A) (A) (A) (A) (A) (A) (A) (A) (A)
                 (A) (A) (A) (A) (A) (A) (A) (A) (A) (A) (A) (A)
                 (A) (A) (A) (A) (A) (A) (A) (A) (A) (A) (A) (A)
                 (A) (A) (A) (A) (A) (A) (A) (A) (A) (A) (A) (A)
                 (A) (A) (A) (A) (A) (A) (A) (A) (A) (A) (A) (A)
                 (A) (A) (A) (A) (A) (A) (A) (A) (A) (A) (A) (A)
                 (A) (A) (A) (A) (A) (A) (A) (A) (A) (A) (A) (A)
                 (A) (A) (A) (A) (A) (A) (A) (A) (A) (A) (A) (A)
                 (A) (A) (A) (A) (A) (A) (A) (A) (A) (A) (A) (A)
                 (A) (A) (A) (A) (A) (A) (A) (A) (A) (A) (A) (A)
                 (A) (A) (A) (A) (A) (A) (A) (A) (A) (A) (A) (A)
                 (A) (A) (A) (A) (A) (A) (A) (A) (A) (A) (A) (A)
                 (A) (A) (A) (A) (A) (A) (A) (A) (A) (A) (A) (A)
                 (A)
       Virtual   (A) (A) (A) (A) (A) (A) (A) (A) (A) (A) (A) (A)
                 (A) (A) (A) (A) (A) (A) (A) (A) (A) (A) (A) (A)
                 (A) (A) (A) (A) (A) (A) (A) (A) (A) (A) (A) (A)
                 (A) (A) (A) (A) (A) (A) (A) (A) (A) (A) (A) (A)
                 (A) (A) (A) (A) (A) (A) (A) (A) (A) (A) (A) (A)
                 (A) (A) (A) (A) (A) (A) (A) (A) (A) (A) (A) (A)
                 (A) (A) (A) (A) (A) (A) (A) (A) (A) (A) (A) (A)
                 (A) (A) (A) (A) (A) (A) (A) (A) (A) (A) (A) (A)
                 (A) (A) (A) (A) (A) (A) (A) (A) (A) (A) (A) (A)
                 (A) (A) (A) (A) (A) (A) (A) (A) (A) (A) (A) (A)
                 (A) (A) (A) (A) (A) (A) (A) (A) (A) (A) (A) (A)
                 (A) (A) (A) (A) (A) (A) (A) (A) (A) (A) (A) (A)
                 (A) (A) (A) (A) (A) (A) (A) (A) (A) (A) (A) (A)
                 (A) (A) (A) (A) (A) (A) (A) (A) (A) (A) (A) (A)
                 (A) (A) (A) (A) (A) (A) (A) (A) (A) (A) (A) (A)
                 (A) (A) (A) (A) (A) (A) (A) (A) (A) (A) (A) (A)
                 (A) (A) (A) (A) (A) (A) (A) (A) (A) (A) (A) (A)
                 (A) (A) (A) (A) (A) (A) (A) (A) (A) (A) (A) (A)
                 (A) (A) (A) (A) (A) (A) (A) (A) (A) (A) (A) (A)
                 (A) (A) (A) (A) (A) (A) (A) (A) (A) (A) (A) (A)
                 (A) (A) (A) (A) (A) (A) (A) (A) (A) (A) (A) (A)
                 (A) (A) (A) (A) (A) (A) (A) (A) (A) (A) (A) (A)
                 (A) (A) (A) (A) (A) (A) (A) (A) (A) (A) (A) (A)
                 (A) (A) (A) (A) (A) (A) (A) (A) (A) (A) (A) (A)
                 (A) (A) (A) (A) (A) (A) (A) (A) (A) (A) (A) (A)
                 (A) (A) (A) (A) (A) (A) (A) (A) (A) (A) (A) (A)
                 (A) (A) (A) (A) (A) (A) (A) (A) (A) (A) (A) (A)
                 (A) (A) (A) (A) (A) (A) (A) (A) (A) (A) (A) (A)
                 (A) (A) (A) (A) (A) (A) (A) (A) (A) (A) (A) (A)
                 (A) (A) (A) (A) (A) (A) (A) (A) (A) (A) (A) (A)
                 (A) (A) (A) (A) (A) (A) (A) (A) (A) (A) (A) (A)
                 (A) (A) (A) (A) (A) (A) (A) (A) (A) (A) (A) (A)
                 (A) (A) (A) (A) (A) (A) (A) (A) (A) (A) (A) (A)
                 (A) (A) (A) (A) (A) (A) (A) (A) (A) (A) (A) (A)
                 (A) (A) (A) (A) (A) (A) (A) (A) (A) (A) (A) (A)
                 (A) (A) (A) (A) (A) (A) (A) (A) (A) (A) (A) (A)
                 (A) (A) (A) (A) (A) (A) (A) (A) (A) (A) (A) (A)
                 (A) (A) (A) (A) (A) (A) (A) (A) (A) (A) (A) (A)
                 (A) (A) (A) (A) (A) (A) (A) (A) (A) (A) (A) (A)
                 (A) (A) (A) (A) (A) (A) (A) (A) (A) (A) (A) (A)
                 (A) (A) (A) (A) (A) (A) (A) (A) (A) (A) (A) (A)
                 (A) (A) (A) (A) (A) (A) (A) (A) (A) (A) (A) (A)
                 (A) (A) (A) (A) (A) (A) (A) (A) (A) (A) (A) (A)
                 (A) (A) (A) (A) (A) (A) (A) (A) (A) (A) (A) (A)
                 (A) (A) (A) (A) (A) (A) (A) (A) (A) (A) (A) (A)
                 (A) (A) (A) (A) (A) (A) (A) (A) (A) (A) (A) (A)
                 (A) (A) (A) (A) (A) (A) (A) (A) (A) (A) (A) (A)
                 (A) (A) (A) (A) (A) (A) (A) (A) (A) (A) (A) (A)
                 (A) (A) (A) (A) (A) (A) (A) (A) (A) (A) (A) (A)
                 (A) (A) (A) (A) (A) (A) (A) (A) (A) (A) (A) (A)
                 (A) (A) (A) (A) (A) (A) (A) (A) (A) (A) (A) (A)
                 (A) (A) (A) (A) (A) (A) (A) (A) (A) (A) (A) (A)
                 (A) (A) (A) (A) (A) (A) (A) (A) (A) (A) (A) (A)
                 (A) (A) (A) (A) (A) (A) (A) (A) (A) (A) (A) (A)
                 (A) (A) (A) (A) (A) (A) (A) (A) (A) (A) (A) (A)
                 (A) (A) (A) (A) (A) (A) (A) (A) (A) (A) (A) (A)
                 (A) (A) (A) (A) (A) (A) (A) (A) (A) (A) (A) (A)
                 (A) (A) (A) (A) (A) (A) (A) (A) (A) (A) (A) (A)
                 (A) (A) (A) (A) (A) (A) (A) (A) (A) (A) (A) (A)
                 (A) (A) (A) (A) (A) (A) (A) (A) (A) (A) (A) (A)
                 (A) (A) (A) (A) (A) (A) (A) (A) (A) (A) (A) (A)
                 (A) (A) (A) (A) (A) (A) (A) (A) (A) (A) (A) (A)
                 (A) (A) (A) (A) (A) (A) (A) (A) (A) (A) (A) (A)
                 (A) (A) (A) (A) (A) (A) (A) (A) (A) (A) (A) (A)
                 (A) (A) (A) (A) (A) (A) (A) (A) (A) (A) (A) (A)
                 (A) (A) (A) (A) (A) (A) (A) (A) (A) (A) (A) (A)
                 (A) (A) (A) (A) (A) (A) (A) (A) (A) (A) (A) (A)
                 (A) (A) (A) (A) (A) (A) (A) (A) (A) (A) (A) (A)
                 (A) (A) (A) (A) (A) (A) (A) (A) (A) (A) (A) (A)
                 (A) (A) (A) (A) (A) (A) (A) (A) (A) (A) (A) (A)
                 (A) (A) (A) (A) (A) (A) (A) (A) (A) (A) (A) (A)
                 (A) (A) (A) (A) (A) (A) (A) (A) (A) (A) (A) (A)
                 (A) (A) (A) (A) (A) (A) (A) (A) (A) (A) (A) (A)
                 (A) (A) (A) (A) (A) (A) (A) (A) (A) (A) (A) (A)
                 (A) (A) (A) (A) (A) (A) (A) (A) (A) (A) (A) (A)
                 (A) (A) (A) (A) (A) (A) (A) (A) (A) (A) (A) (A)
                 (A) (A) (A) (A) (A) (A) (A) (A) (A) (A) (A) (A)
                 (A) (A) (A) (A) (A) (A) (A) (A) (A) (A) (A) (A)
                 (A) (A) (A) (A) (A) (A) (A) (A) (A) (A) (A) (A)
                 (A) (A) (A) (A) (A) (A) (A) (A) (A) (A) (A) (A)
                 (A) (A) (A) (A) (A) (A) (A) (A) (A) (A) (A) (A)
                 (A) (A) (A) (A) (A) (A) (A) (A) (A) (A) (A) (A)
                 (A) (A) (A) (A) (A) (A) (A) (A) (A) (A) (A) (A)
                 (A) (A) (A) (A) (A) (A) (A) (A) (A) (A) (A) (A)
                 (A) (A) (A) (A) (A) (A) (A) (A) (A) (A) (A) (A)
                 (A) (A) (A) (A) (A) (A) (A) (A) (A) (A) (A) (A)
                 (A) (A) (A) (A) (A) (A) (A) (A) (A) (A) (A) (A)
                 (A) (A) (A) (A) (A) (A) (A) (A) (A) (A) (A) (A)
                 (A) (A) (A) (A) (A) (A) (A) (A) (A) (A) (A) (A)
                 (A) (A) (A) (A) (A) (A) (A) (A) (A) (A) (A) (A)
                 (A) (A) (A) (A) (A) (A) (A) (A) (A) (A) (A) (A)
                 (A) (A) (A) (A) (A) (A)
     8 initial guesses have been made.
 Convergence on wavefunction:    0.001000000000000
 Iteration     1 Dimension     8 NMult     0 NNew      8
 CISAX will form     8 AO SS matrices at one time.
 Iteration     2 Dimension    12 NMult     8 NNew      4
 Iteration     3 Dimension    16 NMult    12 NNew      4
 Iteration     4 Dimension    20 NMult    16 NNew      4
 Iteration     5 Dimension    24 NMult    20 NNew      4
 Iteration     6 Dimension    28 NMult    24 NNew      4
 ***********************************************************************
 Excited states from <AA,BB:AA,BB> singles matrix:
 ***********************************************************************
 
 Ground to excited state transition densities written to RWF  633
 Ground to excited state transition electric dipole moments (Au):
       state          X           Y           Z        Dip. S.      Osc.
         1         0.1602      2.2962      0.3425      5.4155      0.2646
 Ground to excited state transition velocity dipole moments (Au):
       state          X           Y           Z        Dip. S.      Osc.
         1        -0.0118     -0.1642     -0.0234      0.0277      0.2516
 Ground to excited state transition magnetic dipole moments (Au):
       state          X           Y           Z
         1        -0.2627     -0.4140      3.1462
 Ground to excited state transition velocity quadrupole moments (Au):
       state          XX          YY          ZZ          XY          XZ          YZ
         1         0.5004     -0.4826     -0.0121      2.0952      0.3150     -0.1135
 <0|del|b> * <b|rxdel|0> + <0|del|b> * <b|delr+rdel|0>
 Rotatory Strengths (R) in cgs (10**-40 erg-esu-cm/Gauss)
       state          XX          YY          ZZ    R(velocity)    E-M Angle
         1       -15.1628    -97.3524     86.9373     -8.5259       90.29
 1/2[<0|r|b>*<b|rxdel|0> + (<0|rxdel|b>*<b|r|0>)*]
 Rotatory Strengths (R) in cgs (10**-40 erg-esu-cm/Gauss)
       state          XX          YY          ZZ     R(length)
         1        29.7666    672.2095   -761.9931    -20.0057
  1/2[<0|del|b>*<b|r|0> + (<0|r|b>*<b|del|0>)*] (Au)
       state          X           Y           Z        Dip. S.   Osc.(frdel)
         1        -0.0019     -0.3771     -0.0080      0.3870      0.2580

 Excitation energies and oscillator strengths:
 
 Excited State   1:      Singlet-A      1.9946 eV  621.61 nm  f=0.2646  <S**2>=0.000
     240 -> 243       -0.25337
     241 -> 242        0.65565
 This state for optimization and/or second-order correction.
 Total Energy, E(TD-HF/TD-KS) =  -2932.55970396    
 Copying the excited state density for this state as the 1-particle RhoCI density.
 SavETr:  write IOETrn=   770 NScale= 10 NData=  16 NLR=1 NState=    1 LETran=      28.

 **********************************************************************

            Population analysis using the SCF density.

 **********************************************************************

 Orbital symmetries:
       Occupied  (A) (A) (A) (A) (A) (A) (A) (A) (A) (A) (A) (A)
                 (A) (A) (A) (A) (A) (A) (A) (A) (A) (A) (A) (A)
                 (A) (A) (A) (A) (A) (A) (A) (A) (A) (A) (A) (A)
                 (A) (A) (A) (A) (A) (A) (A) (A) (A) (A) (A) (A)
                 (A) (A) (A) (A) (A) (A) (A) (A) (A) (A) (A) (A)
                 (A) (A) (A) (A) (A) (A) (A) (A) (A) (A) (A) (A)
                 (A) (A) (A) (A) (A) (A) (A) (A) (A) (A) (A) (A)
                 (A) (A) (A) (A) (A) (A) (A) (A) (A) (A) (A) (A)
                 (A) (A) (A) (A) (A) (A) (A) (A) (A) (A) (A) (A)
                 (A) (A) (A) (A) (A) (A) (A) (A) (A) (A) (A) (A)
                 (A) (A) (A) (A) (A) (A) (A) (A) (A) (A) (A) (A)
                 (A) (A) (A) (A) (A) (A) (A) (A) (A) (A) (A) (A)
                 (A) (A) (A) (A) (A) (A) (A) (A) (A) (A) (A) (A)
                 (A) (A) (A) (A) (A) (A) (A) (A) (A) (A) (A) (A)
                 (A) (A) (A) (A) (A) (A) (A) (A) (A) (A) (A) (A)
                 (A) (A) (A) (A) (A) (A) (A) (A) (A) (A) (A) (A)
                 (A) (A) (A) (A) (A) (A) (A) (A) (A) (A) (A) (A)
                 (A) (A) (A) (A) (A) (A) (A) (A) (A) (A) (A) (A)
                 (A) (A) (A) (A) (A) (A) (A) (A) (A) (A) (A) (A)
                 (A) (A) (A) (A) (A) (A) (A) (A) (A) (A) (A) (A)
                 (A)
       Virtual   (A) (A) (A) (A) (A) (A) (A) (A) (A) (A) (A) (A)
                 (A) (A) (A) (A) (A) (A) (A) (A) (A) (A) (A) (A)
                 (A) (A) (A) (A) (A) (A) (A) (A) (A) (A) (A) (A)
                 (A) (A) (A) (A) (A) (A) (A) (A) (A) (A) (A) (A)
                 (A) (A) (A) (A) (A) (A) (A) (A) (A) (A) (A) (A)
                 (A) (A) (A) (A) (A) (A) (A) (A) (A) (A) (A) (A)
                 (A) (A) (A) (A) (A) (A) (A) (A) (A) (A) (A) (A)
                 (A) (A) (A) (A) (A) (A) (A) (A) (A) (A) (A) (A)
                 (A) (A) (A) (A) (A) (A) (A) (A) (A) (A) (A) (A)
                 (A) (A) (A) (A) (A) (A) (A) (A) (A) (A) (A) (A)
                 (A) (A) (A) (A) (A) (A) (A) (A) (A) (A) (A) (A)
                 (A) (A) (A) (A) (A) (A) (A) (A) (A) (A) (A) (A)
                 (A) (A) (A) (A) (A) (A) (A) (A) (A) (A) (A) (A)
                 (A) (A) (A) (A) (A) (A) (A) (A) (A) (A) (A) (A)
                 (A) (A) (A) (A) (A) (A) (A) (A) (A) (A) (A) (A)
                 (A) (A) (A) (A) (A) (A) (A) (A) (A) (A) (A) (A)
                 (A) (A) (A) (A) (A) (A) (A) (A) (A) (A) (A) (A)
                 (A) (A) (A) (A) (A) (A) (A) (A) (A) (A) (A) (A)
                 (A) (A) (A) (A) (A) (A) (A) (A) (A) (A) (A) (A)
                 (A) (A) (A) (A) (A) (A) (A) (A) (A) (A) (A) (A)
                 (A) (A) (A) (A) (A) (A) (A) (A) (A) (A) (A) (A)
                 (A) (A) (A) (A) (A) (A) (A) (A) (A) (A) (A) (A)
                 (A) (A) (A) (A) (A) (A) (A) (A) (A) (A) (A) (A)
                 (A) (A) (A) (A) (A) (A) (A) (A) (A) (A) (A) (A)
                 (A) (A) (A) (A) (A) (A) (A) (A) (A) (A) (A) (A)
                 (A) (A) (A) (A) (A) (A) (A) (A) (A) (A) (A) (A)
                 (A) (A) (A) (A) (A) (A) (A) (A) (A) (A) (A) (A)
                 (A) (A) (A) (A) (A) (A) (A) (A) (A) (A) (A) (A)
                 (A) (A) (A) (A) (A) (A) (A) (A) (A) (A) (A) (A)
                 (A) (A) (A) (A) (A) (A) (A) (A) (A) (A) (A) (A)
                 (A) (A) (A) (A) (A) (A) (A) (A) (A) (A) (A) (A)
                 (A) (A) (A) (A) (A) (A) (A) (A) (A) (A) (A) (A)
                 (A) (A) (A) (A) (A) (A) (A) (A) (A) (A) (A) (A)
                 (A) (A) (A) (A) (A) (A) (A) (A) (A) (A) (A) (A)
                 (A) (A) (A) (A) (A) (A) (A) (A) (A) (A) (A) (A)
                 (A) (A) (A) (A) (A) (A) (A) (A) (A) (A) (A) (A)
                 (A) (A) (A) (A) (A) (A) (A) (A) (A) (A) (A) (A)
                 (A) (A) (A) (A) (A) (A) (A) (A) (A) (A) (A) (A)
                 (A) (A) (A) (A) (A) (A) (A) (A) (A) (A) (A) (A)
                 (A) (A) (A) (A) (A) (A) (A) (A) (A) (A) (A) (A)
                 (A) (A) (A) (A) (A) (A) (A) (A) (A) (A) (A) (A)
                 (A) (A) (A) (A) (A) (A) (A) (A) (A) (A) (A) (A)
                 (A) (A) (A) (A) (A) (A) (A) (A) (A) (A) (A) (A)
                 (A) (A) (A) (A) (A) (A) (A) (A) (A) (A) (A) (A)
                 (A) (A) (A) (A) (A) (A) (A) (A) (A) (A) (A) (A)
                 (A) (A) (A) (A) (A) (A) (A) (A) (A) (A) (A) (A)
                 (A) (A) (A) (A) (A) (A) (A) (A) (A) (A) (A) (A)
                 (A) (A) (A) (A) (A) (A) (A) (A) (A) (A) (A) (A)
                 (A) (A) (A) (A) (A) (A) (A) (A) (A) (A) (A) (A)
                 (A) (A) (A) (A) (A) (A) (A) (A) (A) (A) (A) (A)
                 (A) (A) (A) (A) (A) (A) (A) (A) (A) (A) (A) (A)
                 (A) (A) (A) (A) (A) (A) (A) (A) (A) (A) (A) (A)
                 (A) (A) (A) (A) (A) (A) (A) (A) (A) (A) (A) (A)
                 (A) (A) (A) (A) (A) (A) (A) (A) (A) (A) (A) (A)
                 (A) (A) (A) (A) (A) (A) (A) (A) (A) (A) (A) (A)
                 (A) (A) (A) (A) (A) (A) (A) (A) (A) (A) (A) (A)
                 (A) (A) (A) (A) (A) (A) (A) (A) (A) (A) (A) (A)
                 (A) (A) (A) (A) (A) (A) (A) (A) (A) (A) (A) (A)
                 (A) (A) (A) (A) (A) (A) (A) (A) (A) (A) (A) (A)
                 (A) (A) (A) (A) (A) (A) (A) (A) (A) (A) (A) (A)
                 (A) (A) (A) (A) (A) (A) (A) (A) (A) (A) (A) (A)
                 (A) (A) (A) (A) (A) (A) (A) (A) (A) (A) (A) (A)
                 (A) (A) (A) (A) (A) (A) (A) (A) (A) (A) (A) (A)
                 (A) (A) (A) (A) (A) (A) (A) (A) (A) (A) (A) (A)
                 (A) (A) (A) (A) (A) (A) (A) (A) (A) (A) (A) (A)
                 (A) (A) (A) (A) (A) (A) (A) (A) (A) (A) (A) (A)
                 (A) (A) (A) (A) (A) (A) (A) (A) (A) (A) (A) (A)
                 (A) (A) (A) (A) (A) (A) (A) (A) (A) (A) (A) (A)
                 (A) (A) (A) (A) (A) (A) (A) (A) (A) (A) (A) (A)
                 (A) (A) (A) (A) (A) (A) (A) (A) (A) (A) (A) (A)
                 (A) (A) (A) (A) (A) (A) (A) (A) (A) (A) (A) (A)
                 (A) (A) (A) (A) (A) (A) (A) (A) (A) (A) (A) (A)
                 (A) (A) (A) (A) (A) (A) (A) (A) (A) (A) (A) (A)
                 (A) (A) (A) (A) (A) (A) (A) (A) (A) (A) (A) (A)
                 (A) (A) (A) (A) (A) (A) (A) (A) (A) (A) (A) (A)
                 (A) (A) (A) (A) (A) (A) (A) (A) (A) (A) (A) (A)
                 (A) (A) (A) (A) (A) (A) (A) (A) (A) (A) (A) (A)
                 (A) (A) (A) (A) (A) (A) (A) (A) (A) (A) (A) (A)
                 (A) (A) (A) (A) (A) (A) (A) (A) (A) (A) (A) (A)
                 (A) (A) (A) (A) (A) (A) (A) (A) (A) (A) (A) (A)
                 (A) (A) (A) (A) (A) (A) (A) (A) (A) (A) (A) (A)
                 (A) (A) (A) (A) (A) (A) (A) (A) (A) (A) (A) (A)
                 (A) (A) (A) (A) (A) (A) (A) (A) (A) (A) (A) (A)
                 (A) (A) (A) (A) (A) (A) (A) (A) (A) (A) (A) (A)
                 (A) (A) (A) (A) (A) (A) (A) (A) (A) (A) (A) (A)
                 (A) (A) (A) (A) (A) (A) (A) (A) (A) (A) (A) (A)
                 (A) (A) (A) (A) (A) (A) (A) (A) (A) (A) (A) (A)
                 (A) (A) (A) (A) (A) (A) (A) (A) (A) (A) (A) (A)
                 (A) (A) (A) (A) (A) (A) (A) (A) (A) (A) (A) (A)
                 (A) (A) (A) (A) (A) (A) (A) (A) (A) (A) (A) (A)
                 (A) (A) (A) (A) (A) (A) (A) (A) (A) (A) (A) (A)
                 (A) (A) (A) (A) (A) (A)
 The electronic state is 1-A.
 Alpha  occ. eigenvalues --  -46.85068 -19.28008 -19.27746 -19.21640 -19.20832
 Alpha  occ. eigenvalues --  -19.19375 -14.41251 -14.38563 -14.38536 -14.38525
 Alpha  occ. eigenvalues --  -10.40272 -10.38951 -10.35638 -10.34895 -10.34165
 Alpha  occ. eigenvalues --  -10.29847 -10.29733 -10.29500 -10.29353 -10.28752
 Alpha  occ. eigenvalues --  -10.28593 -10.28412 -10.28306 -10.28268 -10.28214
 Alpha  occ. eigenvalues --  -10.28126 -10.28024 -10.27992 -10.27926 -10.27525
 Alpha  occ. eigenvalues --  -10.27361 -10.27353 -10.27344 -10.27334 -10.27234
 Alpha  occ. eigenvalues --  -10.27233 -10.27218 -10.27065 -10.26887 -10.26794
 Alpha  occ. eigenvalues --  -10.26745 -10.26629 -10.26521 -10.26501 -10.26418
 Alpha  occ. eigenvalues --  -10.26317 -10.25989 -10.25964 -10.25713 -10.25574
 Alpha  occ. eigenvalues --  -10.25573 -10.25410 -10.25380 -10.25291 -10.25201
 Alpha  occ. eigenvalues --  -10.25156 -10.25132 -10.24748 -10.24737 -10.24719
 Alpha  occ. eigenvalues --  -10.24602 -10.24174 -10.23861 -10.23441 -10.23342
 Alpha  occ. eigenvalues --   -3.13944  -1.88668  -1.88151  -1.88132  -1.21380
 Alpha  occ. eigenvalues --   -1.20749  -1.12968  -1.09518  -1.07020  -1.06802
 Alpha  occ. eigenvalues --   -1.06329  -1.05694  -1.01605  -0.91684  -0.91327
 Alpha  occ. eigenvalues --   -0.90721  -0.89734  -0.89264  -0.88720  -0.88585
 Alpha  occ. eigenvalues --   -0.88503  -0.87717  -0.87335  -0.86574  -0.85978
 Alpha  occ. eigenvalues --   -0.84988  -0.84439  -0.83422  -0.83113  -0.81870
 Alpha  occ. eigenvalues --   -0.81566  -0.80810  -0.80628  -0.80169  -0.78120
 Alpha  occ. eigenvalues --   -0.77742  -0.77336  -0.76383  -0.76140  -0.75425
 Alpha  occ. eigenvalues --   -0.74996  -0.74780  -0.74401  -0.73466  -0.72719
 Alpha  occ. eigenvalues --   -0.71585  -0.70459  -0.69583  -0.68692  -0.68356
 Alpha  occ. eigenvalues --   -0.67424  -0.66090  -0.65534  -0.64467  -0.64356
 Alpha  occ. eigenvalues --   -0.63505  -0.63005  -0.62854  -0.62544  -0.62019
 Alpha  occ. eigenvalues --   -0.61211  -0.60741  -0.60648  -0.59781  -0.59433
 Alpha  occ. eigenvalues --   -0.58565  -0.58267  -0.58172  -0.57738  -0.57241
 Alpha  occ. eigenvalues --   -0.56559  -0.56087  -0.55802  -0.55339  -0.55058
 Alpha  occ. eigenvalues --   -0.55007  -0.54820  -0.54598  -0.54025  -0.53237
 Alpha  occ. eigenvalues --   -0.52943  -0.52689  -0.52362  -0.51951  -0.51702
 Alpha  occ. eigenvalues --   -0.51519  -0.50828  -0.50712  -0.50527  -0.50334
 Alpha  occ. eigenvalues --   -0.49870  -0.49694  -0.49630  -0.49528  -0.49250
 Alpha  occ. eigenvalues --   -0.48925  -0.48744  -0.48626  -0.48610  -0.48269
 Alpha  occ. eigenvalues --   -0.48189  -0.47857  -0.47780  -0.47431  -0.47302
 Alpha  occ. eigenvalues --   -0.47219  -0.46762  -0.46482  -0.46276  -0.46021
 Alpha  occ. eigenvalues --   -0.45708  -0.45611  -0.45394  -0.45193  -0.44696
 Alpha  occ. eigenvalues --   -0.44463  -0.44232  -0.43856  -0.43833  -0.43699
 Alpha  occ. eigenvalues --   -0.43497  -0.43492  -0.43359  -0.43088  -0.42835
 Alpha  occ. eigenvalues --   -0.42703  -0.42566  -0.42399  -0.42254  -0.42132
 Alpha  occ. eigenvalues --   -0.42016  -0.41846  -0.41643  -0.41472  -0.41361
 Alpha  occ. eigenvalues --   -0.41305  -0.40958  -0.40644  -0.40286  -0.40059
 Alpha  occ. eigenvalues --   -0.39949  -0.39886  -0.39670  -0.39356  -0.39312
 Alpha  occ. eigenvalues --   -0.38761  -0.38440  -0.38081  -0.37963  -0.37623
 Alpha  occ. eigenvalues --   -0.37171  -0.37139  -0.37039  -0.36809  -0.36622
 Alpha  occ. eigenvalues --   -0.36281  -0.36135  -0.35940  -0.35820  -0.35506
 Alpha  occ. eigenvalues --   -0.34984  -0.34816  -0.34492  -0.34469  -0.33245
 Alpha  occ. eigenvalues --   -0.32866  -0.32370  -0.31930  -0.30958  -0.30585
 Alpha  occ. eigenvalues --   -0.30354  -0.29697  -0.27729  -0.26588  -0.22193
 Alpha  occ. eigenvalues --   -0.20667
 Alpha virt. eigenvalues --   -0.06315  -0.02495   0.01654   0.04168   0.04822
 Alpha virt. eigenvalues --    0.05032   0.05492   0.05962   0.06943   0.07756
 Alpha virt. eigenvalues --    0.08979   0.10263   0.10796   0.11093   0.11742
 Alpha virt. eigenvalues --    0.12038   0.12202   0.12379   0.12438   0.12734
 Alpha virt. eigenvalues --    0.13286   0.13424   0.13728   0.14062   0.14254
 Alpha virt. eigenvalues --    0.14353   0.14763   0.14978   0.15102   0.15405
 Alpha virt. eigenvalues --    0.15820   0.15949   0.16068   0.16218   0.16271
 Alpha virt. eigenvalues --    0.16501   0.16724   0.16906   0.17197   0.17377
 Alpha virt. eigenvalues --    0.17528   0.17953   0.18111   0.18304   0.18414
 Alpha virt. eigenvalues --    0.18489   0.18621   0.19037   0.19220   0.19511
 Alpha virt. eigenvalues --    0.19638   0.19729   0.19897   0.19965   0.20022
 Alpha virt. eigenvalues --    0.20155   0.20513   0.20666   0.20714   0.21028
 Alpha virt. eigenvalues --    0.21071   0.21293   0.21388   0.21794   0.21895
 Alpha virt. eigenvalues --    0.22024   0.22266   0.22276   0.22531   0.22712
 Alpha virt. eigenvalues --    0.22764   0.22986   0.23026   0.23095   0.23513
 Alpha virt. eigenvalues --    0.23569   0.23881   0.23888   0.24098   0.24236
 Alpha virt. eigenvalues --    0.24324   0.24963   0.25036   0.25240   0.25302
 Alpha virt. eigenvalues --    0.25411   0.25514   0.25749   0.26137   0.26397
 Alpha virt. eigenvalues --    0.26510   0.26675   0.26868   0.26977   0.27161
 Alpha virt. eigenvalues --    0.27319   0.27552   0.27644   0.27897   0.28197
 Alpha virt. eigenvalues --    0.28401   0.28855   0.28921   0.29271   0.29528
 Alpha virt. eigenvalues --    0.29610   0.29673   0.29743   0.30114   0.30582
 Alpha virt. eigenvalues --    0.31004   0.31379   0.31495   0.31876   0.31947
 Alpha virt. eigenvalues --    0.32295   0.32720   0.32848   0.33089   0.33417
 Alpha virt. eigenvalues --    0.33543   0.33939   0.34480   0.34665   0.34781
 Alpha virt. eigenvalues --    0.34982   0.35596   0.35740   0.36013   0.36154
 Alpha virt. eigenvalues --    0.36697   0.37039   0.37828   0.37925   0.38319
 Alpha virt. eigenvalues --    0.38992   0.39503   0.39636   0.40060   0.40452
 Alpha virt. eigenvalues --    0.41208   0.41376   0.42359   0.43053   0.43178
 Alpha virt. eigenvalues --    0.43483   0.43907   0.44694   0.45580   0.47067
 Alpha virt. eigenvalues --    0.47553   0.48507   0.48837   0.49065   0.49665
 Alpha virt. eigenvalues --    0.50359   0.50696   0.51146   0.52050   0.52253
 Alpha virt. eigenvalues --    0.52546   0.53717   0.54081   0.54250   0.54531
 Alpha virt. eigenvalues --    0.54586   0.55233   0.55560   0.55739   0.56004
 Alpha virt. eigenvalues --    0.56408   0.56657   0.57021   0.57264   0.57284
 Alpha virt. eigenvalues --    0.57574   0.57675   0.57771   0.58225   0.58392
 Alpha virt. eigenvalues --    0.58557   0.58731   0.58901   0.59139   0.59301
 Alpha virt. eigenvalues --    0.59551   0.59635   0.59857   0.59906   0.60204
 Alpha virt. eigenvalues --    0.60406   0.60963   0.61696   0.61857   0.61989
 Alpha virt. eigenvalues --    0.62211   0.62531   0.62825   0.62909   0.63019
 Alpha virt. eigenvalues --    0.63321   0.63589   0.63807   0.64133   0.64218
 Alpha virt. eigenvalues --    0.64445   0.64592   0.64730   0.65121   0.65301
 Alpha virt. eigenvalues --    0.65496   0.65810   0.66240   0.66437   0.66572
 Alpha virt. eigenvalues --    0.66736   0.67144   0.67429   0.67658   0.68025
 Alpha virt. eigenvalues --    0.68512   0.68798   0.68948   0.69197   0.69242
 Alpha virt. eigenvalues --    0.69688   0.70067   0.70396   0.70581   0.70791
 Alpha virt. eigenvalues --    0.70991   0.71236   0.71601   0.72060   0.72153
 Alpha virt. eigenvalues --    0.72423   0.72701   0.72868   0.73137   0.73400
 Alpha virt. eigenvalues --    0.73684   0.73862   0.73969   0.74124   0.74418
 Alpha virt. eigenvalues --    0.74446   0.74570   0.74835   0.75253   0.75532
 Alpha virt. eigenvalues --    0.75743   0.76199   0.76379   0.76600   0.77011
 Alpha virt. eigenvalues --    0.77072   0.77283   0.77433   0.77580   0.77869
 Alpha virt. eigenvalues --    0.78073   0.78185   0.78350   0.78811   0.79398
 Alpha virt. eigenvalues --    0.79495   0.79630   0.79923   0.80025   0.80458
 Alpha virt. eigenvalues --    0.80527   0.80648   0.80894   0.81181   0.81243
 Alpha virt. eigenvalues --    0.81383   0.81765   0.82467   0.82634   0.82972
 Alpha virt. eigenvalues --    0.83248   0.83337   0.83672   0.83793   0.83998
 Alpha virt. eigenvalues --    0.84358   0.84471   0.84632   0.84836   0.85081
 Alpha virt. eigenvalues --    0.85221   0.85332   0.85595   0.86113   0.86162
 Alpha virt. eigenvalues --    0.86463   0.86692   0.86903   0.87204   0.87380
 Alpha virt. eigenvalues --    0.87642   0.87725   0.88286   0.88421   0.88452
 Alpha virt. eigenvalues --    0.88566   0.88667   0.88849   0.89086   0.89207
 Alpha virt. eigenvalues --    0.89217   0.89494   0.89823   0.90008   0.90345
 Alpha virt. eigenvalues --    0.90912   0.91032   0.91278   0.91443   0.91531
 Alpha virt. eigenvalues --    0.91713   0.91934   0.92514   0.92693   0.92739
 Alpha virt. eigenvalues --    0.93070   0.93180   0.93407   0.93620   0.93726
 Alpha virt. eigenvalues --    0.93839   0.93963   0.94202   0.94372   0.94593
 Alpha virt. eigenvalues --    0.94684   0.94903   0.95111   0.95176   0.95408
 Alpha virt. eigenvalues --    0.95829   0.96109   0.96191   0.96255   0.96643
 Alpha virt. eigenvalues --    0.96888   0.97038   0.97254   0.97604   0.97969
 Alpha virt. eigenvalues --    0.98023   0.98195   0.98384   0.98617   0.98675
 Alpha virt. eigenvalues --    0.98892   0.99220   0.99315   0.99607   0.99771
 Alpha virt. eigenvalues --    1.00181   1.00258   1.00618   1.00669   1.00783
 Alpha virt. eigenvalues --    1.01108   1.01210   1.01321   1.01622   1.01860
 Alpha virt. eigenvalues --    1.01902   1.02123   1.02467   1.02697   1.03251
 Alpha virt. eigenvalues --    1.03392   1.03749   1.03774   1.03923   1.04276
 Alpha virt. eigenvalues --    1.04426   1.04766   1.04989   1.05125   1.05259
 Alpha virt. eigenvalues --    1.06082   1.06289   1.06434   1.06880   1.07244
 Alpha virt. eigenvalues --    1.07413   1.07751   1.08152   1.08384   1.08667
 Alpha virt. eigenvalues --    1.08771   1.08919   1.09476   1.10139   1.10469
 Alpha virt. eigenvalues --    1.11070   1.11150   1.11586   1.12247   1.12824
 Alpha virt. eigenvalues --    1.12895   1.13311   1.13692   1.14623   1.14812
 Alpha virt. eigenvalues --    1.15347   1.15856   1.16169   1.16653   1.16776
 Alpha virt. eigenvalues --    1.16937   1.17173   1.17752   1.18854   1.19078
 Alpha virt. eigenvalues --    1.19569   1.20733   1.20790   1.21461   1.22275
 Alpha virt. eigenvalues --    1.22526   1.23440   1.23580   1.24187   1.24799
 Alpha virt. eigenvalues --    1.25328   1.25628   1.26239   1.27139   1.27997
 Alpha virt. eigenvalues --    1.28360   1.28495   1.29012   1.29093   1.29617
 Alpha virt. eigenvalues --    1.29900   1.30343   1.30471   1.30909   1.32171
 Alpha virt. eigenvalues --    1.33162   1.33307   1.33772   1.33956   1.34530
 Alpha virt. eigenvalues --    1.35755   1.36519   1.36816   1.37771   1.38336
 Alpha virt. eigenvalues --    1.38808   1.38963   1.39153   1.40049   1.40368
 Alpha virt. eigenvalues --    1.40732   1.41116   1.41353   1.41739   1.42902
 Alpha virt. eigenvalues --    1.43266   1.44262   1.44457   1.44830   1.45178
 Alpha virt. eigenvalues --    1.45640   1.46351   1.46592   1.46848   1.47706
 Alpha virt. eigenvalues --    1.48455   1.49221   1.50417   1.50471   1.51012
 Alpha virt. eigenvalues --    1.51511   1.52100   1.52543   1.52799   1.52888
 Alpha virt. eigenvalues --    1.53562   1.53787   1.54553   1.54902   1.55302
 Alpha virt. eigenvalues --    1.55469   1.55664   1.56072   1.56253   1.56718
 Alpha virt. eigenvalues --    1.57269   1.57428   1.58283   1.59218   1.59354
 Alpha virt. eigenvalues --    1.59536   1.60409   1.60657   1.61296   1.62091
 Alpha virt. eigenvalues --    1.62334   1.62794   1.63069   1.64225   1.64378
 Alpha virt. eigenvalues --    1.64484   1.64858   1.65215   1.65616   1.65681
 Alpha virt. eigenvalues --    1.65732   1.66184   1.66580   1.67033   1.67080
 Alpha virt. eigenvalues --    1.67762   1.68387   1.68901   1.69222   1.69747
 Alpha virt. eigenvalues --    1.69904   1.70013   1.70629   1.71881   1.72071
 Alpha virt. eigenvalues --    1.72279   1.72563   1.73161   1.73283   1.73481
 Alpha virt. eigenvalues --    1.73804   1.73982   1.74518   1.75492   1.75768
 Alpha virt. eigenvalues --    1.76121   1.76403   1.76570   1.76872   1.77427
 Alpha virt. eigenvalues --    1.77912   1.78431   1.78689   1.79161   1.79422
 Alpha virt. eigenvalues --    1.79833   1.80165   1.80328   1.80708   1.80756
 Alpha virt. eigenvalues --    1.81277   1.82444   1.82504   1.82726   1.83009
 Alpha virt. eigenvalues --    1.83468   1.83890   1.84059   1.84477   1.84723
 Alpha virt. eigenvalues --    1.85151   1.85327   1.86068   1.86502   1.86574
 Alpha virt. eigenvalues --    1.86821   1.86880   1.87513   1.87604   1.87803
 Alpha virt. eigenvalues --    1.88260   1.88891   1.89204   1.89667   1.89910
 Alpha virt. eigenvalues --    1.90042   1.90160   1.90309   1.90763   1.91084
 Alpha virt. eigenvalues --    1.91323   1.91642   1.91934   1.92306   1.92352
 Alpha virt. eigenvalues --    1.92648   1.93152   1.93271   1.93430   1.93911
 Alpha virt. eigenvalues --    1.94174   1.94254   1.94587   1.94802   1.94999
 Alpha virt. eigenvalues --    1.95288   1.95376   1.95484   1.95757   1.96297
 Alpha virt. eigenvalues --    1.96895   1.97148   1.97429   1.97614   1.97841
 Alpha virt. eigenvalues --    1.98043   1.98259   1.98527   1.98761   1.99234
 Alpha virt. eigenvalues --    1.99562   1.99860   1.99963   2.00481   2.00647
 Alpha virt. eigenvalues --    2.00948   2.01685   2.02032   2.02095   2.02604
 Alpha virt. eigenvalues --    2.02689   2.02886   2.03229   2.03534   2.03969
 Alpha virt. eigenvalues --    2.04099   2.04178   2.04587   2.04750   2.05177
 Alpha virt. eigenvalues --    2.05314   2.05714   2.05852   2.06034   2.06632
 Alpha virt. eigenvalues --    2.06880   2.07114   2.07282   2.07439   2.07941
 Alpha virt. eigenvalues --    2.07964   2.08102   2.08261   2.08484   2.08573
 Alpha virt. eigenvalues --    2.09042   2.09294   2.09572   2.10023   2.10163
 Alpha virt. eigenvalues --    2.10205   2.10455   2.10650   2.10788   2.11230
 Alpha virt. eigenvalues --    2.11392   2.11955   2.12130   2.12201   2.12296
 Alpha virt. eigenvalues --    2.12508   2.12868   2.13695   2.13914   2.14389
 Alpha virt. eigenvalues --    2.15089   2.15265   2.15550   2.15781   2.16319
 Alpha virt. eigenvalues --    2.16836   2.16971   2.17147   2.17823   2.17988
 Alpha virt. eigenvalues --    2.18207   2.18398   2.19280   2.19330   2.19496
 Alpha virt. eigenvalues --    2.19768   2.19876   2.19970   2.20503   2.20924
 Alpha virt. eigenvalues --    2.20963   2.21366   2.22176   2.22345   2.22873
 Alpha virt. eigenvalues --    2.23055   2.23588   2.23691   2.24369   2.24450
 Alpha virt. eigenvalues --    2.24475   2.25394   2.25654   2.26128   2.26360
 Alpha virt. eigenvalues --    2.26977   2.27483   2.27518   2.27958   2.28191
 Alpha virt. eigenvalues --    2.28882   2.29161   2.29422   2.29675   2.30571
 Alpha virt. eigenvalues --    2.31107   2.31290   2.31389   2.31675   2.31871
 Alpha virt. eigenvalues --    2.32048   2.32654   2.32812   2.33115   2.33483
 Alpha virt. eigenvalues --    2.34062   2.34126   2.34815   2.35132   2.35503
 Alpha virt. eigenvalues --    2.35647   2.36363   2.36415   2.36476   2.36671
 Alpha virt. eigenvalues --    2.36886   2.36945   2.37395   2.37544   2.37888
 Alpha virt. eigenvalues --    2.38092   2.38432   2.38897   2.39101   2.39558
 Alpha virt. eigenvalues --    2.39864   2.40031   2.40376   2.40744   2.40904
 Alpha virt. eigenvalues --    2.41246   2.41368   2.41520   2.41852   2.42485
 Alpha virt. eigenvalues --    2.42627   2.43237   2.43512   2.43993   2.44212
 Alpha virt. eigenvalues --    2.44366   2.44515   2.44843   2.45049   2.45359
 Alpha virt. eigenvalues --    2.45914   2.46111   2.46743   2.46810   2.47096
 Alpha virt. eigenvalues --    2.47390   2.48104   2.48436   2.48874   2.48966
 Alpha virt. eigenvalues --    2.49233   2.49685   2.49779   2.50076   2.50298
 Alpha virt. eigenvalues --    2.50770   2.51283   2.51394   2.51578   2.52341
 Alpha virt. eigenvalues --    2.52437   2.52579   2.52749   2.53032   2.53610
 Alpha virt. eigenvalues --    2.54059   2.54284   2.54308   2.54605   2.54665
 Alpha virt. eigenvalues --    2.54803   2.55541   2.56218   2.56425   2.56859
 Alpha virt. eigenvalues --    2.57362   2.57917   2.57978   2.58359   2.58653
 Alpha virt. eigenvalues --    2.59746   2.60052   2.60244   2.60515   2.61154
 Alpha virt. eigenvalues --    2.61386   2.61716   2.61988   2.62217   2.62463
 Alpha virt. eigenvalues --    2.62742   2.63418   2.63659   2.64144   2.64304
 Alpha virt. eigenvalues --    2.64412   2.65274   2.65792   2.66028   2.66281
 Alpha virt. eigenvalues --    2.66428   2.66638   2.66704   2.67444   2.67981
 Alpha virt. eigenvalues --    2.68295   2.69168   2.69334   2.70094   2.70377
 Alpha virt. eigenvalues --    2.70508   2.70703   2.71798   2.71979   2.72022
 Alpha virt. eigenvalues --    2.72443   2.73084   2.73189   2.73659   2.73731
 Alpha virt. eigenvalues --    2.74278   2.74363   2.74495   2.75017   2.75503
 Alpha virt. eigenvalues --    2.75605   2.75677   2.76090   2.76208   2.76593
 Alpha virt. eigenvalues --    2.77138   2.77438   2.77511   2.77685   2.77915
 Alpha virt. eigenvalues --    2.77987   2.78317   2.78703   2.78846   2.78963
 Alpha virt. eigenvalues --    2.79147   2.79549   2.79771   2.80063   2.80640
 Alpha virt. eigenvalues --    2.81044   2.81339   2.81684   2.82202   2.82783
 Alpha virt. eigenvalues --    2.83542   2.83800   2.83865   2.83921   2.84163
 Alpha virt. eigenvalues --    2.85008   2.85277   2.85938   2.86237   2.86520
 Alpha virt. eigenvalues --    2.86735   2.86918   2.87921   2.88511   2.88844
 Alpha virt. eigenvalues --    2.89034   2.89095   2.89511   2.90326   2.90619
 Alpha virt. eigenvalues --    2.90926   2.91233   2.91458   2.91580   2.91985
 Alpha virt. eigenvalues --    2.92194   2.92469   2.92854   2.93088   2.93383
 Alpha virt. eigenvalues --    2.93937   2.94146   2.94407   2.94473   2.94899
 Alpha virt. eigenvalues --    2.95255   2.95560   2.96207   2.96543   2.96950
 Alpha virt. eigenvalues --    2.97257   2.97546   2.98379   2.98528   2.99762
 Alpha virt. eigenvalues --    3.00024   3.00227   3.00657   3.01314   3.01653
 Alpha virt. eigenvalues --    3.01808   3.02417   3.02678   3.03160   3.03261
 Alpha virt. eigenvalues --    3.03468   3.03486   3.04751   3.05595   3.05761
 Alpha virt. eigenvalues --    3.06670   3.06828   3.07591   3.07684   3.08842
 Alpha virt. eigenvalues --    3.09260   3.09498   3.10004   3.10960   3.11569
 Alpha virt. eigenvalues --    3.11667   3.11919   3.12572   3.12600   3.13834
 Alpha virt. eigenvalues --    3.13886   3.16140   3.16254   3.16750   3.16955
 Alpha virt. eigenvalues --    3.17528   3.18060   3.18783   3.21994   3.22246
 Alpha virt. eigenvalues --    3.22824   3.23692   3.24060   3.24093   3.24469
 Alpha virt. eigenvalues --    3.26389   3.26496   3.28143   3.30297   3.30898
 Alpha virt. eigenvalues --    3.31727   3.31850   3.32226   3.32382   3.32798
 Alpha virt. eigenvalues --    3.33610   3.34291   3.35774   3.36578   3.36678
 Alpha virt. eigenvalues --    3.36961   3.38582   3.38656   3.38758   3.39180
 Alpha virt. eigenvalues --    3.39366   3.40603   3.41038   3.41272   3.41487
 Alpha virt. eigenvalues --    3.41913   3.43481   3.43631   3.44216   3.45067
 Alpha virt. eigenvalues --    3.46324   3.46573   3.47253   3.47278   3.47795
 Alpha virt. eigenvalues --    3.49038   3.49669   3.49899   3.50406   3.51004
 Alpha virt. eigenvalues --    3.51240   3.51902   3.53665   3.53733   3.53941
 Alpha virt. eigenvalues --    3.54935   3.55073   3.56157   3.56390   3.56913
 Alpha virt. eigenvalues --    3.57630   3.58644   3.59237   3.62289   3.63051
 Alpha virt. eigenvalues --    3.63172   3.63749   3.63805   3.64518   3.65283
 Alpha virt. eigenvalues --    3.66140   3.66664   3.69654   3.71891   3.74418
 Alpha virt. eigenvalues --    3.78712   3.80199   3.80215   3.93200   4.06174
 Alpha virt. eigenvalues --    4.09905   4.14677   4.19745   4.20738   4.21360
 Alpha virt. eigenvalues --    4.23420   4.24092   4.24933   4.26199   4.26829
 Alpha virt. eigenvalues --    4.27837   4.28796   4.30713   4.32469   4.32770
 Alpha virt. eigenvalues --    4.34480   4.35685   4.37136   4.38907   4.40151
 Alpha virt. eigenvalues --    4.40615   4.43368   4.43918   4.45738   4.47868
 Alpha virt. eigenvalues --    4.48402   4.48723   4.49134   4.50000   4.50236
 Alpha virt. eigenvalues --    4.50729   4.52921   4.53307   4.54349   4.54559
 Alpha virt. eigenvalues --    4.57028   4.57984   4.59310   4.60295   4.61521
 Alpha virt. eigenvalues --    4.62275   4.63557   4.64023   4.64854   4.69164
 Alpha virt. eigenvalues --    4.69444   4.70070   4.70651   4.71716   4.72867
 Alpha virt. eigenvalues --    4.76124   4.77688   4.77706   4.81786   4.81994
 Alpha virt. eigenvalues --    4.84648   4.86178   4.87832   4.88625   4.90942
 Alpha virt. eigenvalues --    4.91111   4.95190   5.06099
          Condensed to atoms (all electrons):
 Mulliken charges:
               1
     1  Mg   0.822284
     2  C    0.020119
     3  C   -0.179789
     4  C   -0.187951
     5  C   -0.181453
     6  N   -0.637813
     7  C    0.313195
     8  C   -0.174389
     9  C   -0.153705
    10  C    0.289176
    11  C   -0.309914
    12  C   -0.175838
    13  C   -0.259655
    14  C    0.603940
    15  O   -0.517385
    16  O   -0.414254
    17  N   -0.662428
    18  C    0.260712
    19  C    0.015558
    20  C   -0.004116
    21  C    0.347920
    22  C   -0.346760
    23  C   -0.108498
    24  C   -0.246293
    25  N   -0.664829
    26  C    0.258624
    27  C    0.013983
    28  C    0.019330
    29  C    0.290202
    30  C   -0.359836
    31  C   -0.260510
    32  C   -0.298147
    33  N   -0.689625
    34  C    0.298413
    35  C    0.065981
    36  C   -0.034701
    37  C    0.254235
    38  C   -0.378718
    39  C    0.384529
    40  O   -0.434935
    41  C   -0.291795
    42  C    0.622883
    43  O   -0.476818
    44  O   -0.391089
    45  C   -0.078447
    46  C   -0.007515
    47  C   -0.138566
    48  C    0.161313
    49  C   -0.386162
    50  C   -0.238831
    51  C   -0.168468
    52  C   -0.172861
    53  C   -0.029779
    54  C   -0.303777
    55  C   -0.158941
    56  C   -0.194501
    57  C   -0.170165
    58  C   -0.061716
    59  C   -0.304876
    60  C   -0.175452
    61  C   -0.177745
    62  C   -0.172748
    63  C   -0.066445
    64  C   -0.306674
    65  C   -0.288174
    66  H    0.069687
    67  H    0.074756
    68  H    0.077058
    69  H    0.125491
    70  H    0.097628
    71  H    0.116350
    72  H    0.107254
    73  H    0.118513
    74  H    0.101917
    75  H    0.095978
    76  H    0.130705
    77  H    0.115187
    78  H    0.119282
    79  H    0.120665
    80  H    0.128397
    81  H    0.098260
    82  H    0.097176
    83  H    0.104209
    84  H    0.125827
    85  H    0.117009
    86  H    0.129797
    87  H    0.094395
    88  H    0.095063
    89  H    0.099775
    90  H    0.117263
    91  H    0.123928
    92  H    0.120735
    93  H    0.150169
    94  H    0.090443
    95  H    0.183782
    96  H    0.068671
    97  H    0.150437
    98  H    0.133858
    99  H    0.140001
   100  H    0.144303
   101  H    0.095502
   102  H    0.110904
   103  H    0.119279
   104  H    0.126331
   105  H    0.112397
   106  H    0.056543
   107  H    0.090772
   108  H    0.090845
   109  H    0.077656
   110  H    0.090090
   111  H    0.053653
   112  H    0.115859
   113  H    0.085907
   114  H    0.096644
   115  H    0.102612
   116  H    0.095662
   117  H    0.094021
   118  H    0.092527
   119  H    0.085264
   120  H    0.075696
   121  H    0.076074
   122  H    0.097277
   123  H    0.098351
   124  H    0.102902
   125  H    0.096135
   126  H    0.065838
   127  H    0.097620
   128  H    0.086640
   129  H    0.080396
   130  H    0.097685
   131  H    0.088163
   132  H    0.100002
   133  H    0.096501
   134  H    0.078021
   135  H    0.096952
   136  H    0.114456
   137  H    0.075542
 Sum of Mulliken charges =   0.00000
 Mulliken charges with hydrogens summed into heavy atoms:
               1
     1  Mg   0.822284
     2  C    0.020119
     3  C   -0.110102
     4  C   -0.113195
     5  C   -0.104396
     6  N   -0.637813
     7  C    0.313195
     8  C   -0.048898
     9  C   -0.056077
    10  C    0.289176
    11  C    0.032202
    12  C    0.022057
    13  C   -0.013763
    14  C    0.603940
    15  O   -0.517385
    16  O   -0.414254
    17  N   -0.662428
    18  C    0.260712
    19  C    0.015558
    20  C   -0.004116
    21  C    0.347920
    22  C    0.021583
    23  C   -0.010238
    24  C   -0.044908
    25  N   -0.664829
    26  C    0.258624
    27  C    0.013983
    28  C    0.019330
    29  C    0.290202
    30  C    0.012798
    31  C   -0.071052
    32  C    0.042819
    33  N   -0.689625
    34  C    0.298413
    35  C    0.065981
    36  C   -0.034701
    37  C    0.254235
    38  C   -0.017370
    39  C    0.384529
    40  O   -0.434935
    41  C   -0.108014
    42  C    0.622883
    43  O   -0.476818
    44  O   -0.391089
    45  C    0.274520
    46  C    0.276790
    47  C   -0.043064
    48  C    0.161313
    49  C   -0.029648
    50  C   -0.069891
    51  C    0.013149
    52  C   -0.005115
    53  C    0.023873
    54  C   -0.005366
    55  C    0.039334
    56  C   -0.007952
    57  C   -0.009205
    58  C    0.014358
    59  C   -0.006346
    60  C   -0.013478
    61  C    0.006514
    62  C    0.005333
    63  C    0.021718
    64  C   -0.032149
    65  C   -0.001224
 Electronic spatial extent (au):  <R**2>=         180191.0000
 Charge=              0.0000 electrons
 Dipole moment (field-independent basis, Debye):
    X=              2.8775    Y=              2.6374    Z=              0.3915  Tot=              3.9230
 Quadrupole moment (field-independent basis, Debye-Ang):
   XX=           -339.1471   YY=           -392.8930   ZZ=           -401.1991
   XY=            -10.5467   XZ=              3.3934   YZ=             -4.9656
 Traceless Quadrupole moment (field-independent basis, Debye-Ang):
   XX=             38.5993   YY=            -15.1466   ZZ=            -23.4527
   XY=            -10.5467   XZ=              3.3934   YZ=             -4.9656
 Octapole moment (field-independent basis, Debye-Ang**2):
  XXX=           -460.6280  YYY=             58.8478  ZZZ=              6.8347  XYY=             -1.7150
  XXY=             38.7177  XXZ=            -98.2581  XZZ=              1.5160  YZZ=            -34.2600
  YYZ=             42.4944  XYZ=            -60.3005
 Hexadecapole moment (field-independent basis, Debye-Ang**3):
 XXXX=        -214619.8560 YYYY=         -17530.5646 ZZZZ=          -4160.4696 XXXY=            228.0226
 XXXZ=           1335.5428 YYYX=           -570.6718 YYYZ=           -319.4295 ZZZX=            -55.5821
 ZZZY=           -144.1066 XXYY=         -40740.6545 XXZZ=         -39525.5138 YYZZ=          -3540.2368
 XXYZ=           -213.2333 YYXZ=             -0.9959 ZZXY=            149.5125
 N-N= 8.744736037331D+03 E-N=-2.431255113862D+04  KE= 2.905900482412D+03
 1\1\GINC-PEDRO-RYZENSSD\SP\RCAM-B3LYP TD-FC\6-31G(d,p)\C55H72Mg1N4O5\P
 ADAWAN\27-Jun-2019\0\\# td=(NStates=1) CAM-B3LYP/6-31G(d,p)\\TD\\0,1\M
 g,0,-7.1269843677,0.5981780585,0.1529033389\C,0,-4.8626751486,-1.92557
 46688,0.5475603909\C,0,-4.9437436807,2.8488492122,1.1140748647\C,0,-9.
 4464792367,3.0288052799,-0.3102623592\C,0,-9.4372847561,-1.7728274577,
 -0.7677748925\N,0,-5.0957923608,0.5022414846,0.6666141818\C,0,-4.40062
 76681,-0.6272933497,0.7536172645\C,0,-3.0464256038,-0.3724525174,1.196
 9351347\C,0,-3.1113314223,1.0978209146,1.6439772041\C,0,-4.4965477415,
 1.554145795,1.121298391\C,0,-3.1066184528,1.2862151088,3.1699805242\C,
 0,-1.9174660275,-0.453049315,0.0678161074\C,0,-0.4514634003,-0.3369719
 286,0.5530338863\C,0,0.6119805765,-0.457619194,-0.5328449363\O,0,0.313
 1818679,-0.8620076046,-1.6861979001\O,0,1.7754745725,-0.3762625331,-0.
 0811223323\N,0,-7.1990875173,2.6769891062,0.4130664634\C,0,-6.11881901
 29,3.4555065046,0.6823862226\C,0,-6.5142194116,4.8366642968,0.92425018
 95\C,0,-7.8048010755,4.8250123879,0.3676236694\C,0,-8.1408146347,3.487
 9390852,0.1292132605\C,0,-5.5295287341,5.9274338347,1.3852050457\C,0,-
 8.7606852809,5.8792929973,0.2849785198\C,0,-8.4042896268,7.2206781521,
 0.0835040881\N,0,-9.0385588916,0.6774142197,-0.6061223175\C,0,-9.92452
 41114,1.7442751101,-0.5224373679\C,0,-11.2191466576,1.4255735478,-1.10
 94756972\C,0,-11.1975582765,0.029106788,-1.1777170379\C,0,-9.889858869
 6,-0.402778766,-0.8640657095\C,0,-12.4411423563,2.3987121521,-1.271707
 7017\C,0,-12.3815482005,-0.7756886311,-1.5908842656\C,0,-12.2822945615
 ,-1.2673306183,-3.1370518106\N,0,-7.1962958817,-1.4530746691,-0.222345
 3532\C,0,-8.1401192342,-2.2641323527,-0.5014879547\C,0,-7.8056182293,-
 3.5967338563,-0.6212605551\C,0,-6.4804035624,-3.5929936149,-0.25365785
 79\C,0,-6.1198667649,-2.2044465992,0.0119328147\C,0,-8.6011004547,-4.8
 364064595,-0.9252020672\C,0,-5.2286093986,-4.3816141467,0.1147899789\O
 ,0,-5.10408177,-5.5652291765,0.1522612609\C,0,-4.0995133613,-3.4277257
 067,0.5183327253\C,0,-3.5487292371,-3.6964357282,1.9403852182\O,0,-3.6
 885725119,-3.0965928921,3.0053942547\O,0,-2.7117925272,-4.6898571382,1
 .7692850165\C,0,-2.1148441229,-5.2361040797,2.9142827653\C,0,2.7750412
 807,-0.6042096787,-1.1882441993\C,0,4.1322165441,-0.2866025097,-0.5593
 884675\C,0,5.1816717746,0.4023235569,-1.0184717474\C,0,5.1372511417,1.
 2333578721,-2.3542125124\C,0,6.473143772,0.5146302699,-0.2888055668\C,
 0,7.7204797869,-0.0810699889,-0.9439940681\C,0,8.971866269,-0.15522525
 6,-0.1039629905\C,0,10.2697578688,-0.6748545838,-0.9460509995\C,0,10.1
 140685931,-2.0657159065,-1.3199636579\C,0,11.4257336905,-0.3816390545,
 0.0378839871\C,0,12.7998171507,-0.5037168876,-0.7598765275\C,0,13.9704
 427321,-0.1451212753,0.1385810711\C,0,15.3846838124,-0.2575383655,-0.4
 221952698\C,0,15.6505991621,-1.6502978156,-0.9658038602\C,0,16.4481180
 658,0.3168160677,0.4616553502\C,0,17.8626019645,0.5816362894,-0.316029
 8829\C,0,18.8430297025,0.9795898058,0.7326656283\C,0,20.3252001998,1.2
 065764022,0.2515047541\C,0,20.3374339723,2.1646521132,-0.9106468861\C,
 0,21.0351813922,1.9024746169,1.4272694285\H,0,-4.0556158201,3.39119750
 15,1.3372882498\H,0,-10.3986536171,3.7401415981,-0.4058148841\H,0,-10.
 2656258244,-2.3942694816,-0.9297865262\H,0,-2.7249011808,-1.1055402177
 ,2.0173789765\H,0,-2.3674863866,1.6996984584,1.0469790644\H,0,-2.21458
 51818,1.0350689959,3.6271929327\H,0,-3.4092757138,2.2889683534,3.39939
 4507\H,0,-3.9942704082,0.8046648342,3.6943033148\H,0,-2.2626987968,-1.
 3351894393,-0.5254275288\H,0,-2.0076749697,0.449527044,-0.6316082624\H
 ,0,-0.5128983838,0.5984977733,1.0413363855\H,0,-0.4095769114,-1.184151
 3905,1.4119040663\H,0,-4.8472668944,6.2262277979,0.5369754797\H,0,-6.1
 943641067,6.7653063294,1.6689615854\H,0,-4.9323764664,5.5995451259,2.0
 812218009\H,0,-9.8411016091,5.6392368598,0.3954373882\H,0,-9.183358976
 3,7.96480507,0.0864092342\H,0,-7.4531103476,7.5402045897,-0.0869731679
 \H,0,-12.0569711099,3.1289201973,-2.0788941878\H,0,-13.3086260761,1.78
 42740655,-1.5308066044\H,0,-12.7039773591,2.931866272,-0.3470662046\H,
 0,-12.5820607342,-1.7611385121,-1.00512072\H,0,-13.276623666,-0.172221
 0351,-1.2992072777\H,0,-13.2501154777,-1.8512563648,-3.2588188796\H,0,
 -12.2209322672,-0.4867674026,-3.7990674817\H,0,-11.4422875764,-1.68164
 11081,-3.2397830938\H,0,-9.1197528712,-4.8574085892,-1.9406016416\H,0,
 -8.0309867997,-5.7413142396,-0.7683210602\H,0,-9.6809602618,-5.0110778
 948,-0.3124495012\H,0,-3.39837997,-3.3155031348,-0.2657532283\H,0,-0.9
 035214421,-4.6334817255,3.1199486819\H,0,-2.7579009775,-5.4012607685,3
 .820459268\H,0,-1.7841998465,-6.2126754446,2.4699436973\H,0,2.75969064
 02,-1.7548651764,-1.4838024565\H,0,2.2284845487,0.0891818366,-2.030075
 0273\H,0,4.2717163959,-1.0919472009,0.3060229785\H,0,4.2264035767,1.33
 77648728,-2.9732606684\H,0,5.4456378622,2.2854929395,-2.2438587405\H,0
 ,5.6528306059,0.7912094511,-3.2181031096\H,0,6.8566186852,1.4374299707
 ,0.1384313408\H,0,6.3217855266,-0.1050637553,0.7989809052\H,0,7.520825
 8247,-1.1358346552,-1.188502979\H,0,7.789100441,0.583195196,-1.8540155
 485\H,0,9.0333194291,0.920584675,0.2321571782\H,0,8.7866264854,-0.8626
 546209,0.7434589645\H,0,10.4796696785,0.326477414,-1.7409179224\H,0,9.
 1607825747,-2.3229793422,-1.8781627775\H,0,10.9424473294,-2.2614826609
 ,-2.237769963\H,0,10.3239698706,-2.8349751201,-0.3752596167\H,0,11.433
 298092,0.6575101585,0.2082927927\H,0,11.5172521349,-1.1012524633,0.813
 6088339\H,0,13.070832819,-1.5253894003,-0.9885371886\H,0,12.70603951,0
 .0731467937,-1.5661149753\H,0,13.8569471979,0.8277260281,0.482304891\H
 ,0,14.0240484951,-0.8756199993,0.9652616959\H,0,15.3783302251,0.460125
 873,-1.2443240919\H,0,15.6913611371,-2.4052772536,-0.1477123688\H,0,14
 .7360511369,-1.8347616698,-1.6560033207\H,0,16.6341414727,-1.589432871
 9,-1.5261747263\H,0,16.3917343831,1.2702560983,1.0050439254\H,0,16.586
 510353,-0.4162680225,1.3456574974\H,0,18.415640756,-0.2447014339,-0.68
 50845161\H,0,17.6167517564,1.4070819667,-1.0986133452\H,0,18.538832566
 1,1.9710390035,1.1267077717\H,0,18.8036366411,0.2461582271,1.517958147
 4\H,0,20.6870887756,0.2494713829,-0.2301752671\H,0,19.6553223655,2.987
 4477297,-0.6997102405\H,0,21.3275788718,2.6100768856,-1.1804993039\H,0
 ,19.8842392571,1.8864500473,-1.9948899123\H,0,20.8595759729,1.39430873
 47,2.4524046821\H,0,22.0449691374,1.9231808493,1.233867653\H,0,20.6805
 105837,3.1235560318,1.3996858998\\Version=ES64L-G09RevD.01\State=1-A\H
 F=-2932.6330027\RMSD=7.345e-09\PG=C01 [X(C55H72Mg1N4O5)]\\@


 Once you get people laughing, they're
 listening and you can tell them almost anything.
                                 -- Herb Gardner
 Job cpu time:       0 days  6 hours 21 minutes  2.1 seconds.
 File lengths (MBytes):  RWF=   2106 Int=      0 D2E=      0 Chk=    163 Scr=      1
 Normal termination of Gaussian 09 at Thu Jun 27 18:44:07 2019.
