 Entering Gaussian System, Link 0=g16
 Input=Geometria-25-.com
 Output=Geometria-25-.log
 Initial command:
 /usr/local/g09/l1.exe "/home/padawan/israel-mol/chlorophyll-a/spectra/abs/Gau-23619.inp" -scrdir="/home/padawan/israel-mol/chlorophyll-a/spectra/abs/"
 Entering Link 1 = /usr/local/g09/l1.exe PID=     23621.
  
 Copyright (c) 1988,1990,1992,1993,1995,1998,2003,2009,2013,
            Gaussian, Inc.  All Rights Reserved.
  
 This is part of the Gaussian(R) 09 program.  It is based on
 the Gaussian(R) 03 system (copyright 2003, Gaussian, Inc.),
 the Gaussian(R) 98 system (copyright 1998, Gaussian, Inc.),
 the Gaussian(R) 94 system (copyright 1995, Gaussian, Inc.),
 the Gaussian 92(TM) system (copyright 1992, Gaussian, Inc.),
 the Gaussian 90(TM) system (copyright 1990, Gaussian, Inc.),
 the Gaussian 88(TM) system (copyright 1988, Gaussian, Inc.),
 the Gaussian 86(TM) system (copyright 1986, Carnegie Mellon
 University), and the Gaussian 82(TM) system (copyright 1983,
 Carnegie Mellon University). Gaussian is a federally registered
 trademark of Gaussian, Inc.
  
 This software contains proprietary and confidential information,
 including trade secrets, belonging to Gaussian, Inc.
  
 This software is provided under written license and may be
 used, copied, transmitted, or stored only in accord with that
 written license.
  
 The following legend is applicable only to US Government
 contracts under FAR:
  
                    RESTRICTED RIGHTS LEGEND
  
 Use, reproduction and disclosure by the US Government is
 subject to restrictions as set forth in subparagraphs (a)
 and (c) of the Commercial Computer Software - Restricted
 Rights clause in FAR 52.227-19.
  
 Gaussian, Inc.
 340 Quinnipiac St., Bldg. 40, Wallingford CT 06492
  
  
 ---------------------------------------------------------------
 Warning -- This program may not be used in any manner that
 competes with the business of Gaussian, Inc. or will provide
 assistance to any competitor of Gaussian, Inc.  The licensee
 of this program is prohibited from giving any competitor of
 Gaussian, Inc. access to this program.  By using this program,
 the user acknowledges that Gaussian, Inc. is engaged in the
 business of creating and licensing software in the field of
 computational chemistry and represents and warrants to the
 licensee that it is not a competitor of Gaussian, Inc. and that
 it will not use this program in any manner prohibited above.
 ---------------------------------------------------------------
  

 Cite this work as:
 Gaussian 09, Revision D.01,
 M. J. Frisch, G. W. Trucks, H. B. Schlegel, G. E. Scuseria, 
 M. A. Robb, J. R. Cheeseman, G. Scalmani, V. Barone, B. Mennucci, 
 G. A. Petersson, H. Nakatsuji, M. Caricato, X. Li, H. P. Hratchian, 
 A. F. Izmaylov, J. Bloino, G. Zheng, J. L. Sonnenberg, M. Hada, 
 M. Ehara, K. Toyota, R. Fukuda, J. Hasegawa, M. Ishida, T. Nakajima, 
 Y. Honda, O. Kitao, H. Nakai, T. Vreven, J. A. Montgomery, Jr., 
 J. E. Peralta, F. Ogliaro, M. Bearpark, J. J. Heyd, E. Brothers, 
 K. N. Kudin, V. N. Staroverov, T. Keith, R. Kobayashi, J. Normand, 
 K. Raghavachari, A. Rendell, J. C. Burant, S. S. Iyengar, J. Tomasi, 
 M. Cossi, N. Rega, J. M. Millam, M. Klene, J. E. Knox, J. B. Cross, 
 V. Bakken, C. Adamo, J. Jaramillo, R. Gomperts, R. E. Stratmann, 
 O. Yazyev, A. J. Austin, R. Cammi, C. Pomelli, J. W. Ochterski, 
 R. L. Martin, K. Morokuma, V. G. Zakrzewski, G. A. Voth, 
 P. Salvador, J. J. Dannenberg, S. Dapprich, A. D. Daniels, 
 O. Farkas, J. B. Foresman, J. V. Ortiz, J. Cioslowski, 
 and D. J. Fox, Gaussian, Inc., Wallingford CT, 2013.
 
 ******************************************
 Gaussian 09:  ES64L-G09RevD.01 24-Apr-2013
                27-Jun-2019 
 ******************************************
 %nproc=4
 Will use up to    4 processors via shared memory.
 %Mem=2GB
 -------------------------------------
 # td=(NStates=1) CAM-B3LYP/6-31G(d,p)
 -------------------------------------
 1/38=1/1;
 2/12=2,17=6,18=5,40=1/2;
 3/5=1,6=6,7=101,11=9,16=1,25=1,30=1,74=-40/1,2,8,3;
 4//1;
 5/5=2,38=5/2;
 8/6=1,10=2,108=1/1;
 9/41=1,42=1,70=2/14;
 6/7=2,8=2,9=2,10=2/1;
 99/5=1,9=1/99;
 --
 TD
 --
 Symbolic Z-matrix:
 Charge =  0 Multiplicity = 1
 12                   -7.18597   0.60645   0.08283 
 6                    -4.85991  -1.86831   0.44657 
 6                    -4.89449   2.80096   1.16284 
 6                    -9.4812    3.12863  -0.22776 
 6                    -9.5498   -1.86685  -0.92584 
 7                    -5.23527   0.50463   0.74419 
 6                    -4.39258  -0.64281   0.73495 
 6                    -2.93094  -0.33918   1.20824 
 6                    -3.07264   1.11833   1.70824 
 6                    -4.51039   1.49928   1.22083 
 6                    -3.06744   1.32578   3.25602 
 6                    -1.90088  -0.54874   0.0931 
 6                    -0.53245  -0.35991   0.57231 
 6                     0.51498  -0.61052  -0.54284 
 8                     0.1972   -0.96145  -1.66629 
 8                     1.73794  -0.39714  -0.14149 
 7                    -7.2653    2.55225   0.39297 
 6                    -6.1927    3.40129   0.84964 
 6                    -6.59226   4.77437   0.85115 
 6                    -7.91274   4.79617   0.46889 
 6                    -8.26703   3.46429   0.19136 
 6                    -5.7254    5.92387   1.32623 
 6                    -8.79302   6.0216    0.36801 
 6                    -8.24841   7.28507   0.19658 
 7                    -9.14608   0.59691  -0.46823 
 6                    -9.96277   1.78362  -0.57996 
 6                    -11.24913   1.43289  -1.09498 
 6                    -11.33634  -0.04126  -1.18573 
 6                    -9.91969  -0.51579  -0.90843 
 6                    -12.26806   2.31859  -1.51078 
 6                    -12.322   -0.90288  -1.8063 
 6                    -12.24698  -1.202    -3.2497 
 7                    -7.19461  -1.37571  -0.24102 
 6                    -8.21064  -2.18744  -0.58087 
 6                    -7.75821  -3.60778  -0.58366 
 6                    -6.42311  -3.55619  -0.10559 
 6                    -6.17466  -2.1304   -0.0243 
 6                    -8.52744  -4.80855  -0.83223 
 6                    -5.35132  -4.36472   0.20537 
 8                    -5.09854  -5.55259   0.21421 
 6                    -4.22501  -3.29079   0.53045 
 6                    -3.42921  -3.5489    1.79011 
 8                    -3.57403  -3.00892   2.902 
 8                    -2.73866  -4.66322   1.70596 
 6                    -2.11512  -5.29053   2.88056 
 6                     2.77452  -0.63301  -1.0834 
 6                     4.17231  -0.39821  -0.43332 
 6                     5.17856   0.38588  -0.97999 
 6                     5.02522   1.24194  -2.17529 
 6                     6.49263   0.44521  -0.12484 
 6                     7.78913   0.01984  -1.04396 
 6                     8.96411   0.01893  -0.11493 
 6                     10.23351  -0.49864  -0.8695 
 6                     10.13129  -2.00687  -1.17951 
 6                     11.51152  -0.17646  -0.08335 
 6                     12.76151  -0.46835  -0.79465 
 6                     14.0904  -0.09917   0.03801 
 6                     15.49431  -0.25182  -0.51122 
 6                     15.71906  -1.83068  -0.7737 
 6                     16.55454   0.30017   0.42339 
 6                     17.93213   0.33958  -0.20974 
 6                     18.84309   1.06362   0.67104 
 6                     20.35526   1.23376   0.17672 
 6                     20.28781   2.19834  -1.07118 
 6                     21.24107   1.73892   1.28279 
 1                    -3.9492    3.48318   1.5744 
 1                    -10.24888   3.85512  -0.40558 
 1                    -10.34438  -2.83963  -1.07264 
 1                    -2.56501  -1.00781   2.03943 
 1                    -2.45224   2.04063   1.33586 
 1                    -1.98297   0.99961   3.70228 
 1                    -3.33335   2.28698   3.55715 
 1                    -3.73149   0.66389   3.54271 
 1                    -2.09393  -1.60852  -0.12457 
 1                    -2.03567   0.01357  -0.86349 
 1                    -0.17475   0.53339   1.20088 
 1                    -0.25392  -1.148     1.36831 
 1                    -4.92446   6.00341   0.39984 
 1                    -6.18039   6.8627    1.53457 
 1                    -5.41404   5.5229    2.3717 
 1                    -9.73204   5.69671   0.66453 
 1                    -8.81125   8.31937   0.1142 
 1                    -7.28019   7.57964  -0.062 
 1                    -12.06221   3.03426  -2.40923 
 1                    -13.11078   1.92176  -1.82157 
 1                    -12.57711   3.03363  -0.67075 
 1                    -12.51428  -1.66345  -1.19601 
 1                    -13.26091  -0.28093  -1.57459 
 1                    -12.85221  -1.95944  -3.59012 
 1                    -12.28204  -0.1975   -3.77612 
 1                    -11.4135  -1.80462  -3.57654 
 1                    -8.4101   -4.83411  -2.07929 
 1                    -7.96932  -5.71588  -0.38395 
 1                    -9.52203  -4.76263  -0.46797 
 1                    -3.44507  -3.35808  -0.25219 
 1                    -1.65552  -4.58243   3.43238 
 1                    -2.88154  -5.58562   3.50757 
 1                    -1.53908  -6.16468   2.68635 
 1                     2.83506  -1.56593  -1.37705 
 1                     2.60113  -0.02959  -1.89655 
 1                     4.24791  -1.02953   0.45055 
 1                     4.08733   1.62173  -2.52412 
 1                     5.68091   2.22586  -2.12577 
 1                     5.40651   0.71786  -2.95847 
 1                     6.61507   1.40915   0.31183 
 1                     6.4206   -0.19905   0.62946 
 1                     7.65718  -1.15676  -1.41867 
 1                     7.88268   0.68618  -2.00523 
 1                     9.24812   0.89294   0.38783 
 1                     8.81823  -0.64686   0.66468 
 1                     10.44036   0.06429  -1.84607 
 1                     9.18009  -2.47573  -1.78466 
 1                     10.88523  -2.46161  -1.80876 
 1                     9.9572   -2.77582  -0.38292 
 1                     11.36945   1.01206  -0.04133 
 1                     11.57892  -0.67323   1.06058 
 1                     12.76619  -1.46045  -0.9544 
 1                     12.8215   0.11834  -1.62688 
 1                     13.88832   0.8731    0.25893 
 1                     13.90955  -0.7881    0.88415 
 1                     15.58571   0.18809  -1.42222 
 1                     15.32366  -2.45023   0.11069 
 1                     15.06354  -2.0142   -1.61324 
 1                     16.87917  -1.8973   -0.9985 
 1                     16.21985   1.4239    0.53889 
 1                     16.74602  -0.32278   1.33186 
 1                     18.13174  -0.65443  -0.5618 
 1                     17.83721   0.8817   -1.29577 
 1                     18.53115   2.1187    0.96259 
 1                     18.73514   0.93462   1.90153 
 1                     20.79583   0.25724  -0.2438 
 1                     19.71656   3.16321  -0.74702 
 1                     21.31498   2.38174  -1.53452 
 1                     19.67199   1.80265  -1.97462 
 1                     21.12804   1.26502   2.28783 
 1                     22.32557   1.80802   1.00697 
 1                     21.20889   2.86235   1.43799 
 
 Stoichiometry    C55H72MgN4O5
 Framework group  C1[X(C55H72MgN4O5)]
 Deg. of freedom   405
 Full point group                 C1      NOp   1
 Largest Abelian subgroup         C1      NOp   1
 Largest concise Abelian subgroup C1      NOp   1
                         Standard orientation:                         
 ---------------------------------------------------------------------
 Center     Atomic      Atomic             Coordinates (Angstroms)
 Number     Number       Type             X           Y           Z
 ---------------------------------------------------------------------
      1         12           0       -7.188140    0.591287    0.074470
      2          6           0       -4.856195   -1.874901    0.458157
      3          6           0       -4.902578    2.799596    1.138797
      4          6           0       -9.489404    3.105374   -0.256412
      5          6           0       -9.545396   -1.895427   -0.916422
      6          7           0       -5.237514    0.499309    0.737506
      7          6           0       -4.392007   -0.646100    0.737401
      8          6           0       -2.931354   -0.335274    1.209048
      9          6           0       -3.076868    1.125654    1.697865
     10          6           0       -4.515313    1.499340    1.206886
     11          6           0       -3.072938    1.344903    3.244016
     12          6           0       -1.900240   -0.550794    0.096023
     13          6           0       -0.532508   -0.354959    0.574418
     14          6           0        0.516079   -0.611486   -0.538290
     15          8           0        0.199708   -0.971741   -1.659181
     16          8           0        1.738316   -0.392048   -0.138008
     17          7           0       -7.272400    2.539191    0.369739
     18          6           0       -6.202102    3.394326    0.820425
     19          6           0       -6.605033    4.766388    0.811281
     20          6           0       -7.925381    4.782030    0.428249
     21          6           0       -8.276261    3.447203    0.160709
     22          6           0       -5.741229    5.921608    1.277987
     23          6           0       -8.808613    6.004485    0.317611
     24          6           0       -8.267028    7.267954    0.136809
     25          7           0       -9.147951    0.572727   -0.477414
     26          6           0       -9.967495    1.756543   -0.598574
     27          6           0      -11.252741    1.398742   -1.111509
     28          6           0      -11.336291   -0.076271   -1.191054
     29          6           0       -9.918616   -0.545190   -0.909484
     30          6           0      -12.273635    2.278740   -1.534523
     31          6           0      -12.319531   -0.945017   -1.805498
     32          6           0      -12.243073   -1.254947   -3.246548
     33          7           0       -7.191752   -1.393294   -0.234259
     34          6           0       -8.205622   -2.210094   -0.568386
     35          6           0       -7.749713   -3.629298   -0.560138
     36          6           0       -6.414971   -3.570779   -0.081856
     37          6           0       -6.170065   -2.143804   -0.011318
     38          6           0       -8.515872   -4.833813   -0.799914
     39          6           0       -5.341355   -4.374281    0.235762
     40          8           0       -5.085664   -5.561420    0.253773
     41          6           0       -4.217837   -3.295139    0.553179
     42          6           0       -3.422021   -3.541683    1.815139
     43          8           0       -3.568712   -2.993605    2.922816
     44          8           0       -2.728695   -4.654914    1.739807
     45          6           0       -2.104199   -5.271714    2.919448
     46          6           0        2.775931   -0.632539   -1.077613
     47          6           0        4.172823   -0.389357   -0.428679
     48          6           0        5.177412    0.393020   -0.980840
     49          6           0        5.022552    1.239562   -2.182710
     50          6           0        6.490910    0.462097   -0.125553
     51          6           0        7.788899    0.032919   -1.040802
     52          6           0        8.963424    0.041980   -0.111242
     53          6           0       10.234466   -0.478203   -0.861249
     54          6           0       10.136096   -1.989002   -1.159797
     55          6           0       11.511297   -0.146902   -0.076974
     56          6           0       12.762347   -0.441136   -0.785444
     57          6           0       14.089922   -0.062348    0.045001
     58          6           0       15.494470   -0.215730   -0.502397
     59          6           0       15.723214   -1.795985   -0.752730
     60          6           0       16.552881    0.345974    0.428480
     61          6           0       17.930678    0.383941   -0.204287
     62          6           0       18.839430    1.116907    0.671373
     63          6           0       20.351422    1.286991    0.176477
     64          6           0       20.282208    2.241860   -1.078771
     65          6           0       21.235449    1.802742    1.279086
     66          1           0       -3.959162    3.487247    1.545590
     67          1           0      -10.258774    3.828606   -0.440126
     68          1           0      -10.337522   -2.871255   -1.056175
     69          1           0       -2.564180   -0.996649    2.045487
     70          1           0       -2.458560    2.046611    1.318750
     71          1           0       -1.987886    1.024806    3.693259
     72          1           0       -3.341347    2.307712    3.537687
     73          1           0       -3.735501    0.683588    3.535431
     74          1           0       -2.090580   -1.612671   -0.113649
     75          1           0       -2.035937    0.003878   -0.864889
     76          1           0       -0.177311    0.543987    1.196334
     77          1           0       -0.252433   -1.136266    1.376536
     78          1           0       -4.940042    5.996046    0.351396
     79          1           0       -6.198628    6.860870    1.478951
     80          1           0       -5.429402    5.529379    2.326631
     81          1           0       -9.746979    5.679563    0.616167
     82          1           0       -8.832362    8.300206    0.046290
     83          1           0       -7.299407    7.562918   -0.123552
     84          1           0      -12.069111    2.988042   -2.438302
     85          1           0      -13.115228    1.877476   -1.842668
     86          1           0      -12.584858    2.999392   -0.700110
     87          1           0      -12.510243   -1.701382   -1.189522
     88          1           0      -13.260077   -0.323630   -1.578984
     89          1           0      -12.846271   -2.016438   -3.581466
     90          1           0      -12.280339   -0.254572   -3.780618
     91          1           0      -11.407961   -1.857989   -3.568388
     92          1           0       -8.397861   -4.868581   -2.046681
     93          1           0       -7.955743   -5.736324   -0.344469
     94          1           0       -9.510750   -4.787563   -0.436473
     95          1           0       -3.437362   -3.366470   -0.228566
     96          1           0       -1.646599   -4.558299    3.466070
     97          1           0       -2.870197   -5.563900    3.548328
     98          1           0       -1.525912   -6.145902    2.732172
     99          1           0        2.838900   -1.567512   -1.364112
    100          1           0        2.601457   -0.035760   -1.895418
    101          1           0        4.249545   -1.013732    0.460007
    102          1           0        4.083903    1.614381   -2.534855
    103          1           0        5.675803    2.225438   -2.140376
    104          1           0        5.405505    0.710471   -2.961686
    105          1           0        6.610780    1.429629    0.303811
    106          1           0        6.420094   -0.176577    0.633605
    107          1           0        7.660022   -1.146820   -1.406586
    108          1           0        7.881284    0.692137   -2.007076
    109          1           0        9.245048    0.920492    0.384981
    110          1           0        8.818803   -0.618210    0.673358
    111          1           0       10.440401    0.077773   -1.841980
    112          1           0        9.186348   -2.464801   -1.761805
    113          1           0       10.891457   -2.446672   -1.785207
    114          1           0        9.963508   -2.752283   -0.357451
    115          1           0       11.366289    1.041545   -0.044085
    116          1           0       11.579355   -0.634773    1.070743
    117          1           0       12.769539   -1.434410   -0.937629
    118          1           0       12.821300    0.139345   -1.622095
    119          1           0       13.885344    0.911075    0.258410
    120          1           0       13.910344   -0.745256    0.896285
    121          1           0       15.585230    0.217444   -1.416679
    122          1           0       15.328913   -2.409753    0.136180
    123          1           0       15.068563   -1.987513   -1.591148
    124          1           0       16.883593   -1.861472   -0.976469
    125          1           0       16.215376    1.469723    0.535250
    126          1           0       16.745444   -0.269564    1.341756
    127          1           0       18.132902   -0.612234   -0.548670
    128          1           0       17.834962    0.917531   -1.294466
    129          1           0       18.524761    2.173414    0.954728
    130          1           0       18.731198    0.997022    1.902757
    131          1           0       20.794589    0.308384   -0.236375
    132          1           0       19.708434    3.207765   -0.762245
    133          1           0       21.309149    2.424256   -1.543017
    134          1           0       19.667801    1.837790   -1.979452
    135          1           0       21.123094    1.336237    2.287650
    136          1           0       22.319906    1.872404    1.003256
    137          1           0       21.200438    2.927241    1.425698
 ---------------------------------------------------------------------
 Rotational constants (GHZ):      0.0650938      0.0060415      0.0056949
 Standard basis: 6-31G(d,p) (6D, 7F)
 There are  1339 symmetry adapted cartesian basis functions of A   symmetry.
 There are  1339 symmetry adapted basis functions of A   symmetry.
  1339 basis functions,  2348 primitive gaussians,  1339 cartesian basis functions
   241 alpha electrons      241 beta electrons
       nuclear repulsion energy      8742.8327695502 Hartrees.
 NAtoms=  137 NActive=  137 NUniq=  137 SFac= 1.00D+00 NAtFMM=   60 NAOKFM=T Big=T
 Integral buffers will be    131072 words long.
 Raffenetti 1 integral format.
 Two-electron integral symmetry is turned on.
 One-electron integrals computed using PRISM.
 NBasis=  1339 RedAO= T EigKep=  3.23D-04  NBF=  1339
 NBsUse=  1339 1.00D-06 EigRej= -1.00D+00 NBFU=  1339
 ExpMin= 4.21D-02 ExpMax= 1.17D+04 ExpMxC= 1.76D+03 IAcc=2 IRadAn=         4 AccDes= 0.00D+00
 Harris functional with IExCor=20419 and IRadAn=       4 diagonalized for initial guess.
 HarFok:  IExCor=20419 AccDes= 0.00D+00 IRadAn=         4 IDoV= 1 UseB2=F ITyADJ=14
 ICtDFT=  3500011 ScaDFX=  1.000000  1.000000  1.000000  1.000000
 FoFCou: FMM=F IPFlag=           0 FMFlag=      100000 FMFlg1=        2001
         NFxFlg=           0 DoJE=T BraDBF=F KetDBF=T FulRan=T
         wScrn=  0.000000 ICntrl=     500 IOpCl=  0 I1Cent=   200000004 NGrid=           0
         NMat0=    1 NMatS0=      1 NMatT0=    0 NMatD0=    1 NMtDS0=    0 NMtDT0=    0
 Petite list used in FoFCou.
 Requested convergence on RMS density matrix=1.00D-08 within 128 cycles.
 Requested convergence on MAX density matrix=1.00D-06.
 Requested convergence on             energy=1.00D-06.
 No special actions if energy rises.
 SCF Done:  E(RCAM-B3LYP) =  -2932.62643565     A.U. after   17 cycles
            NFock= 17  Conv=0.94D-08     -V/T= 2.0093
 DoSCS=F DFT=T ScalE2(SS,OS)=  1.000000  1.000000
 ExpMin= 4.21D-02 ExpMax= 1.17D+04 ExpMxC= 1.76D+03 IAcc=3 IRadAn=         5 AccDes= 0.00D+00
 HarFok:  IExCor=  205 AccDes= 0.00D+00 IRadAn=         5 IDoV=-2 UseB2=F ITyADJ=14
 ICtDFT= 12500011 ScaDFX=  1.000000  1.000000  1.000000  1.000000
 Range of M.O.s used for correlation:    70  1339
 NBasis=  1339 NAE=   241 NBE=   241 NFC=    69 NFV=     0
 NROrb=   1270 NOA=   172 NOB=   172 NVA=  1098 NVB=  1098
 Would need an additional       2415464100000 words for in-memory AO integral storage.
 Orbital symmetries:
       Occupied  (A) (A) (A) (A) (A) (A) (A) (A) (A) (A) (A) (A)
                 (A) (A) (A) (A) (A) (A) (A) (A) (A) (A) (A) (A)
                 (A) (A) (A) (A) (A) (A) (A) (A) (A) (A) (A) (A)
                 (A) (A) (A) (A) (A) (A) (A) (A) (A) (A) (A) (A)
                 (A) (A) (A) (A) (A) (A) (A) (A) (A) (A) (A) (A)
                 (A) (A) (A) (A) (A) (A) (A) (A) (A) (A) (A) (A)
                 (A) (A) (A) (A) (A) (A) (A) (A) (A) (A) (A) (A)
                 (A) (A) (A) (A) (A) (A) (A) (A) (A) (A) (A) (A)
                 (A) (A) (A) (A) (A) (A) (A) (A) (A) (A) (A) (A)
                 (A) (A) (A) (A) (A) (A) (A) (A) (A) (A) (A) (A)
                 (A) (A) (A) (A) (A) (A) (A) (A) (A) (A) (A) (A)
                 (A) (A) (A) (A) (A) (A) (A) (A) (A) (A) (A) (A)
                 (A) (A) (A) (A) (A) (A) (A) (A) (A) (A) (A) (A)
                 (A) (A) (A) (A) (A) (A) (A) (A) (A) (A) (A) (A)
                 (A) (A) (A) (A) (A) (A) (A) (A) (A) (A) (A) (A)
                 (A) (A) (A) (A) (A) (A) (A) (A) (A) (A) (A) (A)
                 (A) (A) (A) (A) (A) (A) (A) (A) (A) (A) (A) (A)
                 (A) (A) (A) (A) (A) (A) (A) (A) (A) (A) (A) (A)
                 (A) (A) (A) (A) (A) (A) (A) (A) (A) (A) (A) (A)
                 (A) (A) (A) (A) (A) (A) (A) (A) (A) (A) (A) (A)
                 (A)
       Virtual   (A) (A) (A) (A) (A) (A) (A) (A) (A) (A) (A) (A)
                 (A) (A) (A) (A) (A) (A) (A) (A) (A) (A) (A) (A)
                 (A) (A) (A) (A) (A) (A) (A) (A) (A) (A) (A) (A)
                 (A) (A) (A) (A) (A) (A) (A) (A) (A) (A) (A) (A)
                 (A) (A) (A) (A) (A) (A) (A) (A) (A) (A) (A) (A)
                 (A) (A) (A) (A) (A) (A) (A) (A) (A) (A) (A) (A)
                 (A) (A) (A) (A) (A) (A) (A) (A) (A) (A) (A) (A)
                 (A) (A) (A) (A) (A) (A) (A) (A) (A) (A) (A) (A)
                 (A) (A) (A) (A) (A) (A) (A) (A) (A) (A) (A) (A)
                 (A) (A) (A) (A) (A) (A) (A) (A) (A) (A) (A) (A)
                 (A) (A) (A) (A) (A) (A) (A) (A) (A) (A) (A) (A)
                 (A) (A) (A) (A) (A) (A) (A) (A) (A) (A) (A) (A)
                 (A) (A) (A) (A) (A) (A) (A) (A) (A) (A) (A) (A)
                 (A) (A) (A) (A) (A) (A) (A) (A) (A) (A) (A) (A)
                 (A) (A) (A) (A) (A) (A) (A) (A) (A) (A) (A) (A)
                 (A) (A) (A) (A) (A) (A) (A) (A) (A) (A) (A) (A)
                 (A) (A) (A) (A) (A) (A) (A) (A) (A) (A) (A) (A)
                 (A) (A) (A) (A) (A) (A) (A) (A) (A) (A) (A) (A)
                 (A) (A) (A) (A) (A) (A) (A) (A) (A) (A) (A) (A)
                 (A) (A) (A) (A) (A) (A) (A) (A) (A) (A) (A) (A)
                 (A) (A) (A) (A) (A) (A) (A) (A) (A) (A) (A) (A)
                 (A) (A) (A) (A) (A) (A) (A) (A) (A) (A) (A) (A)
                 (A) (A) (A) (A) (A) (A) (A) (A) (A) (A) (A) (A)
                 (A) (A) (A) (A) (A) (A) (A) (A) (A) (A) (A) (A)
                 (A) (A) (A) (A) (A) (A) (A) (A) (A) (A) (A) (A)
                 (A) (A) (A) (A) (A) (A) (A) (A) (A) (A) (A) (A)
                 (A) (A) (A) (A) (A) (A) (A) (A) (A) (A) (A) (A)
                 (A) (A) (A) (A) (A) (A) (A) (A) (A) (A) (A) (A)
                 (A) (A) (A) (A) (A) (A) (A) (A) (A) (A) (A) (A)
                 (A) (A) (A) (A) (A) (A) (A) (A) (A) (A) (A) (A)
                 (A) (A) (A) (A) (A) (A) (A) (A) (A) (A) (A) (A)
                 (A) (A) (A) (A) (A) (A) (A) (A) (A) (A) (A) (A)
                 (A) (A) (A) (A) (A) (A) (A) (A) (A) (A) (A) (A)
                 (A) (A) (A) (A) (A) (A) (A) (A) (A) (A) (A) (A)
                 (A) (A) (A) (A) (A) (A) (A) (A) (A) (A) (A) (A)
                 (A) (A) (A) (A) (A) (A) (A) (A) (A) (A) (A) (A)
                 (A) (A) (A) (A) (A) (A) (A) (A) (A) (A) (A) (A)
                 (A) (A) (A) (A) (A) (A) (A) (A) (A) (A) (A) (A)
                 (A) (A) (A) (A) (A) (A) (A) (A) (A) (A) (A) (A)
                 (A) (A) (A) (A) (A) (A) (A) (A) (A) (A) (A) (A)
                 (A) (A) (A) (A) (A) (A) (A) (A) (A) (A) (A) (A)
                 (A) (A) (A) (A) (A) (A) (A) (A) (A) (A) (A) (A)
                 (A) (A) (A) (A) (A) (A) (A) (A) (A) (A) (A) (A)
                 (A) (A) (A) (A) (A) (A) (A) (A) (A) (A) (A) (A)
                 (A) (A) (A) (A) (A) (A) (A) (A) (A) (A) (A) (A)
                 (A) (A) (A) (A) (A) (A) (A) (A) (A) (A) (A) (A)
                 (A) (A) (A) (A) (A) (A) (A) (A) (A) (A) (A) (A)
                 (A) (A) (A) (A) (A) (A) (A) (A) (A) (A) (A) (A)
                 (A) (A) (A) (A) (A) (A) (A) (A) (A) (A) (A) (A)
                 (A) (A) (A) (A) (A) (A) (A) (A) (A) (A) (A) (A)
                 (A) (A) (A) (A) (A) (A) (A) (A) (A) (A) (A) (A)
                 (A) (A) (A) (A) (A) (A) (A) (A) (A) (A) (A) (A)
                 (A) (A) (A) (A) (A) (A) (A) (A) (A) (A) (A) (A)
                 (A) (A) (A) (A) (A) (A) (A) (A) (A) (A) (A) (A)
                 (A) (A) (A) (A) (A) (A) (A) (A) (A) (A) (A) (A)
                 (A) (A) (A) (A) (A) (A) (A) (A) (A) (A) (A) (A)
                 (A) (A) (A) (A) (A) (A) (A) (A) (A) (A) (A) (A)
                 (A) (A) (A) (A) (A) (A) (A) (A) (A) (A) (A) (A)
                 (A) (A) (A) (A) (A) (A) (A) (A) (A) (A) (A) (A)
                 (A) (A) (A) (A) (A) (A) (A) (A) (A) (A) (A) (A)
                 (A) (A) (A) (A) (A) (A) (A) (A) (A) (A) (A) (A)
                 (A) (A) (A) (A) (A) (A) (A) (A) (A) (A) (A) (A)
                 (A) (A) (A) (A) (A) (A) (A) (A) (A) (A) (A) (A)
                 (A) (A) (A) (A) (A) (A) (A) (A) (A) (A) (A) (A)
                 (A) (A) (A) (A) (A) (A) (A) (A) (A) (A) (A) (A)
                 (A) (A) (A) (A) (A) (A) (A) (A) (A) (A) (A) (A)
                 (A) (A) (A) (A) (A) (A) (A) (A) (A) (A) (A) (A)
                 (A) (A) (A) (A) (A) (A) (A) (A) (A) (A) (A) (A)
                 (A) (A) (A) (A) (A) (A) (A) (A) (A) (A) (A) (A)
                 (A) (A) (A) (A) (A) (A) (A) (A) (A) (A) (A) (A)
                 (A) (A) (A) (A) (A) (A) (A) (A) (A) (A) (A) (A)
                 (A) (A) (A) (A) (A) (A) (A) (A) (A) (A) (A) (A)
                 (A) (A) (A) (A) (A) (A) (A) (A) (A) (A) (A) (A)
                 (A) (A) (A) (A) (A) (A) (A) (A) (A) (A) (A) (A)
                 (A) (A) (A) (A) (A) (A) (A) (A) (A) (A) (A) (A)
                 (A) (A) (A) (A) (A) (A) (A) (A) (A) (A) (A) (A)
                 (A) (A) (A) (A) (A) (A) (A) (A) (A) (A) (A) (A)
                 (A) (A) (A) (A) (A) (A) (A) (A) (A) (A) (A) (A)
                 (A) (A) (A) (A) (A) (A) (A) (A) (A) (A) (A) (A)
                 (A) (A) (A) (A) (A) (A) (A) (A) (A) (A) (A) (A)
                 (A) (A) (A) (A) (A) (A) (A) (A) (A) (A) (A) (A)
                 (A) (A) (A) (A) (A) (A) (A) (A) (A) (A) (A) (A)
                 (A) (A) (A) (A) (A) (A) (A) (A) (A) (A) (A) (A)
                 (A) (A) (A) (A) (A) (A) (A) (A) (A) (A) (A) (A)
                 (A) (A) (A) (A) (A) (A) (A) (A) (A) (A) (A) (A)
                 (A) (A) (A) (A) (A) (A) (A) (A) (A) (A) (A) (A)
                 (A) (A) (A) (A) (A) (A) (A) (A) (A) (A) (A) (A)
                 (A) (A) (A) (A) (A) (A) (A) (A) (A) (A) (A) (A)
                 (A) (A) (A) (A) (A) (A) (A) (A) (A) (A) (A) (A)
                 (A) (A) (A) (A) (A) (A) (A) (A) (A) (A) (A) (A)
                 (A) (A) (A) (A) (A) (A) (A) (A) (A) (A) (A) (A)
                 (A) (A) (A) (A) (A) (A)
     8 initial guesses have been made.
 Convergence on wavefunction:    0.001000000000000
 Iteration     1 Dimension     8 NMult     0 NNew      8
 CISAX will form     8 AO SS matrices at one time.
 Iteration     2 Dimension    12 NMult     8 NNew      4
 Iteration     3 Dimension    16 NMult    12 NNew      4
 Iteration     4 Dimension    20 NMult    16 NNew      4
 Iteration     5 Dimension    24 NMult    20 NNew      4
 Iteration     6 Dimension    28 NMult    24 NNew      4
 ***********************************************************************
 Excited states from <AA,BB:AA,BB> singles matrix:
 ***********************************************************************
 
 Ground to excited state transition densities written to RWF  633
 Ground to excited state transition electric dipole moments (Au):
       state          X           Y           Z        Dip. S.      Osc.
         1        -0.2095      2.0531      0.2027      4.3002      0.2181
 Ground to excited state transition velocity dipole moments (Au):
       state          X           Y           Z        Dip. S.      Osc.
         1         0.0154     -0.1509     -0.0147      0.0232      0.2034
 Ground to excited state transition magnetic dipole moments (Au):
       state          X           Y           Z
         1        -0.5516     -0.4327      3.9271
 Ground to excited state transition velocity quadrupole moments (Au):
       state          XX          YY          ZZ          XY          XZ          YZ
         1        -0.5074     -0.0008     -0.0520      1.8864      0.1049     -0.0870
 <0|del|b> * <b|rxdel|0> + <0|del|b> * <b|delr+rdel|0>
 Rotatory Strengths (R) in cgs (10**-40 erg-esu-cm/Gauss)
       state          XX          YY          ZZ    R(velocity)    E-M Angle
         1       -21.4576   -185.4444    196.6744     -3.4092       90.10
 1/2[<0|r|b>*<b|rxdel|0> + (<0|rxdel|b>*<b|r|0>)*]
 Rotatory Strengths (R) in cgs (10**-40 erg-esu-cm/Gauss)
       state          XX          YY          ZZ     R(length)
         1       -81.7019    628.2379   -562.9265     -5.4635
  1/2[<0|del|b>*<b|r|0> + (<0|r|b>*<b|del|0>)*] (Au)
       state          X           Y           Z        Dip. S.   Osc.(frdel)
         1        -0.0032     -0.3098     -0.0030      0.3160      0.2107

 Excitation energies and oscillator strengths:
 
 Excited State   1:      Singlet-A      2.0705 eV  598.80 nm  f=0.2181  <S**2>=0.000
     240 -> 243        0.24802
     241 -> 242        0.65073
 This state for optimization and/or second-order correction.
 Total Energy, E(TD-HF/TD-KS) =  -2932.55034488    
 Copying the excited state density for this state as the 1-particle RhoCI density.
 SavETr:  write IOETrn=   770 NScale= 10 NData=  16 NLR=1 NState=    1 LETran=      28.

 **********************************************************************

            Population analysis using the SCF density.

 **********************************************************************

 Orbital symmetries:
       Occupied  (A) (A) (A) (A) (A) (A) (A) (A) (A) (A) (A) (A)
                 (A) (A) (A) (A) (A) (A) (A) (A) (A) (A) (A) (A)
                 (A) (A) (A) (A) (A) (A) (A) (A) (A) (A) (A) (A)
                 (A) (A) (A) (A) (A) (A) (A) (A) (A) (A) (A) (A)
                 (A) (A) (A) (A) (A) (A) (A) (A) (A) (A) (A) (A)
                 (A) (A) (A) (A) (A) (A) (A) (A) (A) (A) (A) (A)
                 (A) (A) (A) (A) (A) (A) (A) (A) (A) (A) (A) (A)
                 (A) (A) (A) (A) (A) (A) (A) (A) (A) (A) (A) (A)
                 (A) (A) (A) (A) (A) (A) (A) (A) (A) (A) (A) (A)
                 (A) (A) (A) (A) (A) (A) (A) (A) (A) (A) (A) (A)
                 (A) (A) (A) (A) (A) (A) (A) (A) (A) (A) (A) (A)
                 (A) (A) (A) (A) (A) (A) (A) (A) (A) (A) (A) (A)
                 (A) (A) (A) (A) (A) (A) (A) (A) (A) (A) (A) (A)
                 (A) (A) (A) (A) (A) (A) (A) (A) (A) (A) (A) (A)
                 (A) (A) (A) (A) (A) (A) (A) (A) (A) (A) (A) (A)
                 (A) (A) (A) (A) (A) (A) (A) (A) (A) (A) (A) (A)
                 (A) (A) (A) (A) (A) (A) (A) (A) (A) (A) (A) (A)
                 (A) (A) (A) (A) (A) (A) (A) (A) (A) (A) (A) (A)
                 (A) (A) (A) (A) (A) (A) (A) (A) (A) (A) (A) (A)
                 (A) (A) (A) (A) (A) (A) (A) (A) (A) (A) (A) (A)
                 (A)
       Virtual   (A) (A) (A) (A) (A) (A) (A) (A) (A) (A) (A) (A)
                 (A) (A) (A) (A) (A) (A) (A) (A) (A) (A) (A) (A)
                 (A) (A) (A) (A) (A) (A) (A) (A) (A) (A) (A) (A)
                 (A) (A) (A) (A) (A) (A) (A) (A) (A) (A) (A) (A)
                 (A) (A) (A) (A) (A) (A) (A) (A) (A) (A) (A) (A)
                 (A) (A) (A) (A) (A) (A) (A) (A) (A) (A) (A) (A)
                 (A) (A) (A) (A) (A) (A) (A) (A) (A) (A) (A) (A)
                 (A) (A) (A) (A) (A) (A) (A) (A) (A) (A) (A) (A)
                 (A) (A) (A) (A) (A) (A) (A) (A) (A) (A) (A) (A)
                 (A) (A) (A) (A) (A) (A) (A) (A) (A) (A) (A) (A)
                 (A) (A) (A) (A) (A) (A) (A) (A) (A) (A) (A) (A)
                 (A) (A) (A) (A) (A) (A) (A) (A) (A) (A) (A) (A)
                 (A) (A) (A) (A) (A) (A) (A) (A) (A) (A) (A) (A)
                 (A) (A) (A) (A) (A) (A) (A) (A) (A) (A) (A) (A)
                 (A) (A) (A) (A) (A) (A) (A) (A) (A) (A) (A) (A)
                 (A) (A) (A) (A) (A) (A) (A) (A) (A) (A) (A) (A)
                 (A) (A) (A) (A) (A) (A) (A) (A) (A) (A) (A) (A)
                 (A) (A) (A) (A) (A) (A) (A) (A) (A) (A) (A) (A)
                 (A) (A) (A) (A) (A) (A) (A) (A) (A) (A) (A) (A)
                 (A) (A) (A) (A) (A) (A) (A) (A) (A) (A) (A) (A)
                 (A) (A) (A) (A) (A) (A) (A) (A) (A) (A) (A) (A)
                 (A) (A) (A) (A) (A) (A) (A) (A) (A) (A) (A) (A)
                 (A) (A) (A) (A) (A) (A) (A) (A) (A) (A) (A) (A)
                 (A) (A) (A) (A) (A) (A) (A) (A) (A) (A) (A) (A)
                 (A) (A) (A) (A) (A) (A) (A) (A) (A) (A) (A) (A)
                 (A) (A) (A) (A) (A) (A) (A) (A) (A) (A) (A) (A)
                 (A) (A) (A) (A) (A) (A) (A) (A) (A) (A) (A) (A)
                 (A) (A) (A) (A) (A) (A) (A) (A) (A) (A) (A) (A)
                 (A) (A) (A) (A) (A) (A) (A) (A) (A) (A) (A) (A)
                 (A) (A) (A) (A) (A) (A) (A) (A) (A) (A) (A) (A)
                 (A) (A) (A) (A) (A) (A) (A) (A) (A) (A) (A) (A)
                 (A) (A) (A) (A) (A) (A) (A) (A) (A) (A) (A) (A)
                 (A) (A) (A) (A) (A) (A) (A) (A) (A) (A) (A) (A)
                 (A) (A) (A) (A) (A) (A) (A) (A) (A) (A) (A) (A)
                 (A) (A) (A) (A) (A) (A) (A) (A) (A) (A) (A) (A)
                 (A) (A) (A) (A) (A) (A) (A) (A) (A) (A) (A) (A)
                 (A) (A) (A) (A) (A) (A) (A) (A) (A) (A) (A) (A)
                 (A) (A) (A) (A) (A) (A) (A) (A) (A) (A) (A) (A)
                 (A) (A) (A) (A) (A) (A) (A) (A) (A) (A) (A) (A)
                 (A) (A) (A) (A) (A) (A) (A) (A) (A) (A) (A) (A)
                 (A) (A) (A) (A) (A) (A) (A) (A) (A) (A) (A) (A)
                 (A) (A) (A) (A) (A) (A) (A) (A) (A) (A) (A) (A)
                 (A) (A) (A) (A) (A) (A) (A) (A) (A) (A) (A) (A)
                 (A) (A) (A) (A) (A) (A) (A) (A) (A) (A) (A) (A)
                 (A) (A) (A) (A) (A) (A) (A) (A) (A) (A) (A) (A)
                 (A) (A) (A) (A) (A) (A) (A) (A) (A) (A) (A) (A)
                 (A) (A) (A) (A) (A) (A) (A) (A) (A) (A) (A) (A)
                 (A) (A) (A) (A) (A) (A) (A) (A) (A) (A) (A) (A)
                 (A) (A) (A) (A) (A) (A) (A) (A) (A) (A) (A) (A)
                 (A) (A) (A) (A) (A) (A) (A) (A) (A) (A) (A) (A)
                 (A) (A) (A) (A) (A) (A) (A) (A) (A) (A) (A) (A)
                 (A) (A) (A) (A) (A) (A) (A) (A) (A) (A) (A) (A)
                 (A) (A) (A) (A) (A) (A) (A) (A) (A) (A) (A) (A)
                 (A) (A) (A) (A) (A) (A) (A) (A) (A) (A) (A) (A)
                 (A) (A) (A) (A) (A) (A) (A) (A) (A) (A) (A) (A)
                 (A) (A) (A) (A) (A) (A) (A) (A) (A) (A) (A) (A)
                 (A) (A) (A) (A) (A) (A) (A) (A) (A) (A) (A) (A)
                 (A) (A) (A) (A) (A) (A) (A) (A) (A) (A) (A) (A)
                 (A) (A) (A) (A) (A) (A) (A) (A) (A) (A) (A) (A)
                 (A) (A) (A) (A) (A) (A) (A) (A) (A) (A) (A) (A)
                 (A) (A) (A) (A) (A) (A) (A) (A) (A) (A) (A) (A)
                 (A) (A) (A) (A) (A) (A) (A) (A) (A) (A) (A) (A)
                 (A) (A) (A) (A) (A) (A) (A) (A) (A) (A) (A) (A)
                 (A) (A) (A) (A) (A) (A) (A) (A) (A) (A) (A) (A)
                 (A) (A) (A) (A) (A) (A) (A) (A) (A) (A) (A) (A)
                 (A) (A) (A) (A) (A) (A) (A) (A) (A) (A) (A) (A)
                 (A) (A) (A) (A) (A) (A) (A) (A) (A) (A) (A) (A)
                 (A) (A) (A) (A) (A) (A) (A) (A) (A) (A) (A) (A)
                 (A) (A) (A) (A) (A) (A) (A) (A) (A) (A) (A) (A)
                 (A) (A) (A) (A) (A) (A) (A) (A) (A) (A) (A) (A)
                 (A) (A) (A) (A) (A) (A) (A) (A) (A) (A) (A) (A)
                 (A) (A) (A) (A) (A) (A) (A) (A) (A) (A) (A) (A)
                 (A) (A) (A) (A) (A) (A) (A) (A) (A) (A) (A) (A)
                 (A) (A) (A) (A) (A) (A) (A) (A) (A) (A) (A) (A)
                 (A) (A) (A) (A) (A) (A) (A) (A) (A) (A) (A) (A)
                 (A) (A) (A) (A) (A) (A) (A) (A) (A) (A) (A) (A)
                 (A) (A) (A) (A) (A) (A) (A) (A) (A) (A) (A) (A)
                 (A) (A) (A) (A) (A) (A) (A) (A) (A) (A) (A) (A)
                 (A) (A) (A) (A) (A) (A) (A) (A) (A) (A) (A) (A)
                 (A) (A) (A) (A) (A) (A) (A) (A) (A) (A) (A) (A)
                 (A) (A) (A) (A) (A) (A) (A) (A) (A) (A) (A) (A)
                 (A) (A) (A) (A) (A) (A) (A) (A) (A) (A) (A) (A)
                 (A) (A) (A) (A) (A) (A) (A) (A) (A) (A) (A) (A)
                 (A) (A) (A) (A) (A) (A) (A) (A) (A) (A) (A) (A)
                 (A) (A) (A) (A) (A) (A) (A) (A) (A) (A) (A) (A)
                 (A) (A) (A) (A) (A) (A) (A) (A) (A) (A) (A) (A)
                 (A) (A) (A) (A) (A) (A) (A) (A) (A) (A) (A) (A)
                 (A) (A) (A) (A) (A) (A) (A) (A) (A) (A) (A) (A)
                 (A) (A) (A) (A) (A) (A) (A) (A) (A) (A) (A) (A)
                 (A) (A) (A) (A) (A) (A) (A) (A) (A) (A) (A) (A)
                 (A) (A) (A) (A) (A) (A) (A) (A) (A) (A) (A) (A)
                 (A) (A) (A) (A) (A) (A)
 The electronic state is 1-A.
 Alpha  occ. eigenvalues --  -46.82807 -19.26469 -19.25381 -19.19704 -19.19691
 Alpha  occ. eigenvalues --  -19.18880 -14.41077 -14.39875 -14.39332 -14.39166
 Alpha  occ. eigenvalues --  -10.38472 -10.38322 -10.34362 -10.31212 -10.30320
 Alpha  occ. eigenvalues --  -10.29974 -10.29911 -10.29800 -10.29675 -10.29543
 Alpha  occ. eigenvalues --  -10.29206 -10.28908 -10.28902 -10.28743 -10.28645
 Alpha  occ. eigenvalues --  -10.28298 -10.28180 -10.28102 -10.27908 -10.27902
 Alpha  occ. eigenvalues --  -10.27858 -10.27729 -10.27721 -10.27713 -10.27658
 Alpha  occ. eigenvalues --  -10.27325 -10.27251 -10.27056 -10.26969 -10.26856
 Alpha  occ. eigenvalues --  -10.26756 -10.26669 -10.26626 -10.26300 -10.26278
 Alpha  occ. eigenvalues --  -10.26278 -10.26239 -10.26104 -10.25989 -10.25762
 Alpha  occ. eigenvalues --  -10.25749 -10.25651 -10.25648 -10.25532 -10.25523
 Alpha  occ. eigenvalues --  -10.25109 -10.25100 -10.25092 -10.24915 -10.24610
 Alpha  occ. eigenvalues --  -10.24559 -10.24539 -10.24336 -10.23815 -10.23101
 Alpha  occ. eigenvalues --   -3.12176  -1.86854  -1.86428  -1.86382  -1.19501
 Alpha  occ. eigenvalues --   -1.17298  -1.10520  -1.08619  -1.06213  -1.05953
 Alpha  occ. eigenvalues --   -1.03418  -1.02534  -0.98807  -0.92368  -0.91152
 Alpha  occ. eigenvalues --   -0.90339  -0.90040  -0.89352  -0.89135  -0.88922
 Alpha  occ. eigenvalues --   -0.88621  -0.87813  -0.87644  -0.86890  -0.85916
 Alpha  occ. eigenvalues --   -0.85386  -0.84540  -0.84066  -0.83103  -0.82549
 Alpha  occ. eigenvalues --   -0.82180  -0.81688  -0.80177  -0.80043  -0.78336
 Alpha  occ. eigenvalues --   -0.77769  -0.77264  -0.76827  -0.76463  -0.74949
 Alpha  occ. eigenvalues --   -0.74851  -0.74513  -0.73646  -0.73214  -0.72311
 Alpha  occ. eigenvalues --   -0.71624  -0.70554  -0.69876  -0.69281  -0.69076
 Alpha  occ. eigenvalues --   -0.68242  -0.66451  -0.65238  -0.65007  -0.64855
 Alpha  occ. eigenvalues --   -0.63566  -0.63485  -0.63358  -0.62514  -0.62029
 Alpha  occ. eigenvalues --   -0.61445  -0.61023  -0.60887  -0.59593  -0.59113
 Alpha  occ. eigenvalues --   -0.58129  -0.57622  -0.57358  -0.57260  -0.56473
 Alpha  occ. eigenvalues --   -0.55983  -0.55857  -0.55035  -0.54612  -0.54389
 Alpha  occ. eigenvalues --   -0.54007  -0.53540  -0.53492  -0.53245  -0.53105
 Alpha  occ. eigenvalues --   -0.52987  -0.52596  -0.52346  -0.52330  -0.51929
 Alpha  occ. eigenvalues --   -0.51453  -0.51359  -0.50986  -0.50929  -0.50570
 Alpha  occ. eigenvalues --   -0.50293  -0.49979  -0.49933  -0.49642  -0.49473
 Alpha  occ. eigenvalues --   -0.49284  -0.48820  -0.48557  -0.48414  -0.48221
 Alpha  occ. eigenvalues --   -0.48024  -0.47919  -0.47801  -0.47618  -0.47577
 Alpha  occ. eigenvalues --   -0.47360  -0.46849  -0.46690  -0.46222  -0.46180
 Alpha  occ. eigenvalues --   -0.45962  -0.45670  -0.45646  -0.45340  -0.44942
 Alpha  occ. eigenvalues --   -0.44732  -0.44415  -0.44177  -0.43941  -0.43766
 Alpha  occ. eigenvalues --   -0.43713  -0.43435  -0.43349  -0.43088  -0.42844
 Alpha  occ. eigenvalues --   -0.42714  -0.42495  -0.42455  -0.42245  -0.42017
 Alpha  occ. eigenvalues --   -0.42006  -0.41872  -0.41587  -0.41545  -0.40964
 Alpha  occ. eigenvalues --   -0.40730  -0.40504  -0.40455  -0.40307  -0.40171
 Alpha  occ. eigenvalues --   -0.40114  -0.39597  -0.39319  -0.38940  -0.38846
 Alpha  occ. eigenvalues --   -0.38793  -0.38599  -0.38188  -0.38004  -0.37653
 Alpha  occ. eigenvalues --   -0.37647  -0.36965  -0.36819  -0.36557  -0.36448
 Alpha  occ. eigenvalues --   -0.36119  -0.35891  -0.35541  -0.35493  -0.35171
 Alpha  occ. eigenvalues --   -0.34560  -0.34389  -0.33536  -0.33373  -0.32881
 Alpha  occ. eigenvalues --   -0.32643  -0.32207  -0.31717  -0.30642  -0.29923
 Alpha  occ. eigenvalues --   -0.29475  -0.28942  -0.27937  -0.26401  -0.22903
 Alpha  occ. eigenvalues --   -0.21332
 Alpha virt. eigenvalues --   -0.06368  -0.03235   0.01332   0.03535   0.06137
 Alpha virt. eigenvalues --    0.06240   0.06640   0.06934   0.07389   0.07754
 Alpha virt. eigenvalues --    0.08502   0.10160   0.11077   0.11442   0.11475
 Alpha virt. eigenvalues --    0.12061   0.12172   0.12315   0.12934   0.12975
 Alpha virt. eigenvalues --    0.13262   0.13556   0.13864   0.13920   0.14251
 Alpha virt. eigenvalues --    0.14262   0.14724   0.14964   0.15153   0.15383
 Alpha virt. eigenvalues --    0.16057   0.16217   0.16360   0.16558   0.16847
 Alpha virt. eigenvalues --    0.17241   0.17461   0.17571   0.17685   0.17976
 Alpha virt. eigenvalues --    0.18044   0.18271   0.18336   0.18507   0.18795
 Alpha virt. eigenvalues --    0.18881   0.19019   0.19039   0.19215   0.19432
 Alpha virt. eigenvalues --    0.19481   0.19701   0.20079   0.20130   0.20445
 Alpha virt. eigenvalues --    0.20513   0.20702   0.20776   0.20918   0.21201
 Alpha virt. eigenvalues --    0.21228   0.21303   0.21428   0.21687   0.21822
 Alpha virt. eigenvalues --    0.21999   0.22074   0.22163   0.22269   0.22516
 Alpha virt. eigenvalues --    0.22860   0.22986   0.23118   0.23201   0.23473
 Alpha virt. eigenvalues --    0.23574   0.23624   0.23824   0.23913   0.24202
 Alpha virt. eigenvalues --    0.24269   0.24374   0.24746   0.24897   0.25203
 Alpha virt. eigenvalues --    0.25732   0.25773   0.26191   0.26392   0.26519
 Alpha virt. eigenvalues --    0.26531   0.26964   0.27127   0.27339   0.27512
 Alpha virt. eigenvalues --    0.27932   0.28087   0.28233   0.28496   0.28569
 Alpha virt. eigenvalues --    0.28993   0.29035   0.29176   0.29336   0.29416
 Alpha virt. eigenvalues --    0.29741   0.29933   0.30135   0.30603   0.30674
 Alpha virt. eigenvalues --    0.31092   0.31493   0.31643   0.32032   0.32609
 Alpha virt. eigenvalues --    0.32703   0.32730   0.33259   0.33442   0.33582
 Alpha virt. eigenvalues --    0.33968   0.34085   0.34477   0.34547   0.34900
 Alpha virt. eigenvalues --    0.35081   0.35482   0.35877   0.36044   0.36339
 Alpha virt. eigenvalues --    0.36567   0.37013   0.37849   0.38139   0.38917
 Alpha virt. eigenvalues --    0.39426   0.39571   0.40064   0.40268   0.40816
 Alpha virt. eigenvalues --    0.41680   0.41865   0.42371   0.42613   0.42835
 Alpha virt. eigenvalues --    0.43220   0.43522   0.44760   0.45587   0.46360
 Alpha virt. eigenvalues --    0.46712   0.47418   0.47858   0.48819   0.49344
 Alpha virt. eigenvalues --    0.49528   0.50224   0.51279   0.51846   0.52477
 Alpha virt. eigenvalues --    0.52662   0.52996   0.53324   0.53757   0.54292
 Alpha virt. eigenvalues --    0.54353   0.54713   0.54847   0.55364   0.55542
 Alpha virt. eigenvalues --    0.56086   0.56192   0.56319   0.56609   0.56807
 Alpha virt. eigenvalues --    0.57409   0.57648   0.57811   0.57971   0.58197
 Alpha virt. eigenvalues --    0.58377   0.58533   0.58959   0.59296   0.59358
 Alpha virt. eigenvalues --    0.59404   0.59635   0.59729   0.59855   0.60010
 Alpha virt. eigenvalues --    0.60391   0.60571   0.60973   0.61299   0.61361
 Alpha virt. eigenvalues --    0.61646   0.61901   0.62313   0.62486   0.62624
 Alpha virt. eigenvalues --    0.62973   0.63440   0.63703   0.64079   0.64351
 Alpha virt. eigenvalues --    0.64435   0.64564   0.64744   0.65363   0.65504
 Alpha virt. eigenvalues --    0.65679   0.66156   0.66436   0.66774   0.66889
 Alpha virt. eigenvalues --    0.66889   0.67318   0.67566   0.67755   0.68299
 Alpha virt. eigenvalues --    0.68559   0.68587   0.68677   0.68918   0.69243
 Alpha virt. eigenvalues --    0.69435   0.69649   0.69899   0.70195   0.70672
 Alpha virt. eigenvalues --    0.70893   0.71536   0.71612   0.71867   0.72210
 Alpha virt. eigenvalues --    0.72488   0.72748   0.73118   0.73679   0.73742
 Alpha virt. eigenvalues --    0.73856   0.74233   0.74436   0.74543   0.74760
 Alpha virt. eigenvalues --    0.75023   0.75171   0.75730   0.75764   0.76070
 Alpha virt. eigenvalues --    0.76395   0.76775   0.76875   0.77083   0.77331
 Alpha virt. eigenvalues --    0.77614   0.77832   0.77992   0.78141   0.78468
 Alpha virt. eigenvalues --    0.78638   0.78856   0.79043   0.79297   0.79611
 Alpha virt. eigenvalues --    0.79675   0.80040   0.80629   0.80901   0.81497
 Alpha virt. eigenvalues --    0.81713   0.81902   0.81982   0.82318   0.82519
 Alpha virt. eigenvalues --    0.82755   0.82763   0.83021   0.83545   0.83678
 Alpha virt. eigenvalues --    0.83829   0.84108   0.84169   0.84331   0.84471
 Alpha virt. eigenvalues --    0.84628   0.84704   0.85211   0.85317   0.85466
 Alpha virt. eigenvalues --    0.85792   0.85935   0.86330   0.86478   0.86622
 Alpha virt. eigenvalues --    0.86804   0.87145   0.87371   0.87574   0.87630
 Alpha virt. eigenvalues --    0.87871   0.88205   0.88722   0.88869   0.89114
 Alpha virt. eigenvalues --    0.89201   0.89290   0.89660   0.89940   0.90015
 Alpha virt. eigenvalues --    0.90245   0.90489   0.90679   0.91030   0.91133
 Alpha virt. eigenvalues --    0.91263   0.91408   0.91663   0.91885   0.92124
 Alpha virt. eigenvalues --    0.92382   0.92546   0.92711   0.92898   0.93026
 Alpha virt. eigenvalues --    0.93231   0.93323   0.93561   0.93936   0.94029
 Alpha virt. eigenvalues --    0.94209   0.94331   0.94385   0.94674   0.94798
 Alpha virt. eigenvalues --    0.95052   0.95121   0.95300   0.95476   0.95802
 Alpha virt. eigenvalues --    0.96141   0.96379   0.96561   0.97016   0.97350
 Alpha virt. eigenvalues --    0.97595   0.97744   0.98136   0.98191   0.98304
 Alpha virt. eigenvalues --    0.98544   0.98837   0.99030   0.99209   0.99530
 Alpha virt. eigenvalues --    0.99758   0.99872   1.00098   1.00183   1.00763
 Alpha virt. eigenvalues --    1.00800   1.01037   1.01132   1.01283   1.01566
 Alpha virt. eigenvalues --    1.01690   1.02151   1.02422   1.02821   1.02926
 Alpha virt. eigenvalues --    1.03036   1.03140   1.03619   1.04217   1.04418
 Alpha virt. eigenvalues --    1.04445   1.04853   1.04896   1.05204   1.05315
 Alpha virt. eigenvalues --    1.05484   1.05714   1.06630   1.06714   1.07180
 Alpha virt. eigenvalues --    1.07220   1.07289   1.07791   1.07882   1.08157
 Alpha virt. eigenvalues --    1.08388   1.08462   1.09091   1.09198   1.09359
 Alpha virt. eigenvalues --    1.09820   1.10040   1.10309   1.10392   1.11316
 Alpha virt. eigenvalues --    1.12099   1.12228   1.12485   1.12660   1.13134
 Alpha virt. eigenvalues --    1.13402   1.13525   1.13791   1.14636   1.14770
 Alpha virt. eigenvalues --    1.15229   1.15777   1.16555   1.17070   1.17760
 Alpha virt. eigenvalues --    1.17958   1.18954   1.19313   1.19796   1.20295
 Alpha virt. eigenvalues --    1.21005   1.21467   1.22312   1.22854   1.23221
 Alpha virt. eigenvalues --    1.23379   1.23655   1.24664   1.25437   1.25968
 Alpha virt. eigenvalues --    1.26218   1.26503   1.26750   1.27712   1.27786
 Alpha virt. eigenvalues --    1.28271   1.28672   1.29190   1.29396   1.30453
 Alpha virt. eigenvalues --    1.30801   1.31536   1.31599   1.31815   1.32786
 Alpha virt. eigenvalues --    1.33152   1.33224   1.33936   1.34799   1.35557
 Alpha virt. eigenvalues --    1.36235   1.36431   1.37200   1.37582   1.38659
 Alpha virt. eigenvalues --    1.38726   1.38831   1.39401   1.39519   1.40159
 Alpha virt. eigenvalues --    1.40232   1.40862   1.41119   1.41351   1.41671
 Alpha virt. eigenvalues --    1.42376   1.42687   1.43407   1.43738   1.45488
 Alpha virt. eigenvalues --    1.45564   1.45851   1.45963   1.46403   1.46421
 Alpha virt. eigenvalues --    1.47755   1.48398   1.49057   1.49586   1.49778
 Alpha virt. eigenvalues --    1.50634   1.51125   1.51395   1.51625   1.52060
 Alpha virt. eigenvalues --    1.53025   1.53274   1.53563   1.53847   1.54642
 Alpha virt. eigenvalues --    1.54861   1.56043   1.56269   1.57088   1.57484
 Alpha virt. eigenvalues --    1.57534   1.57836   1.58343   1.58747   1.58864
 Alpha virt. eigenvalues --    1.59018   1.59422   1.60134   1.60178   1.60552
 Alpha virt. eigenvalues --    1.61598   1.62317   1.62792   1.62945   1.63066
 Alpha virt. eigenvalues --    1.63781   1.64055   1.64177   1.65665   1.65754
 Alpha virt. eigenvalues --    1.66092   1.66201   1.66844   1.67336   1.67657
 Alpha virt. eigenvalues --    1.68438   1.68666   1.69134   1.69336   1.69582
 Alpha virt. eigenvalues --    1.70188   1.70623   1.70931   1.71722   1.72072
 Alpha virt. eigenvalues --    1.72136   1.72316   1.73443   1.73913   1.74182
 Alpha virt. eigenvalues --    1.74742   1.75469   1.75589   1.75860   1.76536
 Alpha virt. eigenvalues --    1.77333   1.77557   1.77882   1.78065   1.78589
 Alpha virt. eigenvalues --    1.78709   1.78978   1.79321   1.79684   1.79805
 Alpha virt. eigenvalues --    1.80001   1.80221   1.80869   1.81561   1.81699
 Alpha virt. eigenvalues --    1.82192   1.82332   1.83000   1.83253   1.83643
 Alpha virt. eigenvalues --    1.83906   1.84400   1.84891   1.84966   1.85515
 Alpha virt. eigenvalues --    1.85619   1.86053   1.86484   1.86758   1.87346
 Alpha virt. eigenvalues --    1.87639   1.87738   1.88515   1.89022   1.89120
 Alpha virt. eigenvalues --    1.89484   1.89551   1.89621   1.89864   1.90172
 Alpha virt. eigenvalues --    1.90528   1.90972   1.91101   1.91151   1.91370
 Alpha virt. eigenvalues --    1.91503   1.91760   1.92294   1.92371   1.92680
 Alpha virt. eigenvalues --    1.92726   1.92772   1.93050   1.93138   1.93497
 Alpha virt. eigenvalues --    1.93802   1.93860   1.93993   1.94397   1.94554
 Alpha virt. eigenvalues --    1.95284   1.95308   1.95539   1.95790   1.96244
 Alpha virt. eigenvalues --    1.96334   1.96542   1.96801   1.96948   1.97127
 Alpha virt. eigenvalues --    1.97598   1.97750   1.98211   1.98406   1.98478
 Alpha virt. eigenvalues --    1.98720   1.98845   2.00014   2.00067   2.00183
 Alpha virt. eigenvalues --    2.00416   2.00817   2.01065   2.01341   2.01704
 Alpha virt. eigenvalues --    2.02036   2.02164   2.02774   2.02921   2.03212
 Alpha virt. eigenvalues --    2.03285   2.03782   2.03879   2.03929   2.04029
 Alpha virt. eigenvalues --    2.04619   2.04699   2.05265   2.05553   2.05924
 Alpha virt. eigenvalues --    2.06201   2.06342   2.06579   2.06909   2.07690
 Alpha virt. eigenvalues --    2.08067   2.08284   2.08338   2.08551   2.08677
 Alpha virt. eigenvalues --    2.08797   2.09031   2.09276   2.09806   2.10034
 Alpha virt. eigenvalues --    2.10244   2.11052   2.11350   2.11630   2.11826
 Alpha virt. eigenvalues --    2.12330   2.12627   2.12982   2.13202   2.13409
 Alpha virt. eigenvalues --    2.13645   2.13789   2.14609   2.14912   2.15089
 Alpha virt. eigenvalues --    2.15405   2.15755   2.16031   2.16102   2.16248
 Alpha virt. eigenvalues --    2.16670   2.17088   2.17881   2.17917   2.18238
 Alpha virt. eigenvalues --    2.18429   2.18640   2.19127   2.19736   2.19810
 Alpha virt. eigenvalues --    2.19933   2.20160   2.20569   2.20868   2.21149
 Alpha virt. eigenvalues --    2.21524   2.22264   2.22585   2.23114   2.23575
 Alpha virt. eigenvalues --    2.23816   2.24187   2.24580   2.24838   2.25552
 Alpha virt. eigenvalues --    2.25849   2.26002   2.26495   2.26857   2.26937
 Alpha virt. eigenvalues --    2.27152   2.27421   2.27877   2.28445   2.28515
 Alpha virt. eigenvalues --    2.28960   2.29412   2.29808   2.30093   2.30253
 Alpha virt. eigenvalues --    2.30727   2.31203   2.31528   2.31760   2.31794
 Alpha virt. eigenvalues --    2.32420   2.32813   2.32927   2.33312   2.33615
 Alpha virt. eigenvalues --    2.34102   2.34538   2.34883   2.35360   2.35603
 Alpha virt. eigenvalues --    2.35986   2.36670   2.36816   2.37086   2.37254
 Alpha virt. eigenvalues --    2.37390   2.37428   2.38212   2.38562   2.38661
 Alpha virt. eigenvalues --    2.38859   2.39080   2.39282   2.39509   2.39921
 Alpha virt. eigenvalues --    2.40038   2.40211   2.40800   2.40884   2.40988
 Alpha virt. eigenvalues --    2.41161   2.41209   2.41433   2.41689   2.42017
 Alpha virt. eigenvalues --    2.42253   2.42877   2.43265   2.43326   2.43923
 Alpha virt. eigenvalues --    2.44208   2.44363   2.44505   2.45580   2.45780
 Alpha virt. eigenvalues --    2.45854   2.46156   2.46654   2.46900   2.47125
 Alpha virt. eigenvalues --    2.47288   2.48190   2.48510   2.48636   2.49013
 Alpha virt. eigenvalues --    2.49255   2.49639   2.49993   2.50545   2.50765
 Alpha virt. eigenvalues --    2.51226   2.51840   2.51915   2.52004   2.52253
 Alpha virt. eigenvalues --    2.52354   2.52952   2.53177   2.54401   2.54528
 Alpha virt. eigenvalues --    2.54808   2.54946   2.55332   2.55825   2.56236
 Alpha virt. eigenvalues --    2.56336   2.56601   2.56814   2.56902   2.57513
 Alpha virt. eigenvalues --    2.58024   2.59140   2.59657   2.59768   2.60326
 Alpha virt. eigenvalues --    2.60515   2.61120   2.61331   2.62031   2.62161
 Alpha virt. eigenvalues --    2.62457   2.62866   2.63018   2.63083   2.63466
 Alpha virt. eigenvalues --    2.63764   2.63981   2.64811   2.65051   2.65316
 Alpha virt. eigenvalues --    2.65844   2.66213   2.66445   2.66618   2.66743
 Alpha virt. eigenvalues --    2.66930   2.67761   2.68067   2.68388   2.68745
 Alpha virt. eigenvalues --    2.68881   2.69132   2.70307   2.70647   2.70733
 Alpha virt. eigenvalues --    2.71396   2.71436   2.71883   2.71921   2.72278
 Alpha virt. eigenvalues --    2.72614   2.72918   2.73026   2.73435   2.74208
 Alpha virt. eigenvalues --    2.74435   2.74907   2.74987   2.75414   2.75839
 Alpha virt. eigenvalues --    2.75979   2.76222   2.76335   2.76754   2.77089
 Alpha virt. eigenvalues --    2.77406   2.77695   2.77968   2.78108   2.78654
 Alpha virt. eigenvalues --    2.78683   2.78951   2.79454   2.80304   2.80509
 Alpha virt. eigenvalues --    2.80619   2.80855   2.80983   2.81400   2.81571
 Alpha virt. eigenvalues --    2.82262   2.82505   2.82720   2.82878   2.83199
 Alpha virt. eigenvalues --    2.84014   2.84227   2.84441   2.84459   2.84982
 Alpha virt. eigenvalues --    2.85056   2.85376   2.85641   2.86831   2.86975
 Alpha virt. eigenvalues --    2.87337   2.87724   2.87866   2.88312   2.88869
 Alpha virt. eigenvalues --    2.89688   2.89857   2.91169   2.91562   2.92302
 Alpha virt. eigenvalues --    2.92409   2.92857   2.93107   2.93320   2.93607
 Alpha virt. eigenvalues --    2.93683   2.93825   2.94295   2.94556   2.94673
 Alpha virt. eigenvalues --    2.95009   2.95183   2.95858   2.96028   2.96421
 Alpha virt. eigenvalues --    2.97042   2.97424   2.97952   2.98174   2.98578
 Alpha virt. eigenvalues --    2.99593   3.00210   3.00400   3.00585   3.01034
 Alpha virt. eigenvalues --    3.01602   3.02316   3.02409   3.02612   3.03479
 Alpha virt. eigenvalues --    3.03734   3.03807   3.04012   3.04410   3.04569
 Alpha virt. eigenvalues --    3.05152   3.05349   3.05680   3.06069   3.06223
 Alpha virt. eigenvalues --    3.07072   3.07453   3.07554   3.08447   3.08829
 Alpha virt. eigenvalues --    3.09169   3.10642   3.11391   3.12107   3.12376
 Alpha virt. eigenvalues --    3.12757   3.13312   3.13915   3.14765   3.14947
 Alpha virt. eigenvalues --    3.15828   3.16582   3.17308   3.19023   3.19688
 Alpha virt. eigenvalues --    3.19773   3.20510   3.21079   3.21643   3.21879
 Alpha virt. eigenvalues --    3.22776   3.22907   3.22962   3.23162   3.23477
 Alpha virt. eigenvalues --    3.25145   3.26396   3.28692   3.29567   3.29623
 Alpha virt. eigenvalues --    3.30832   3.30980   3.32250   3.33102   3.33242
 Alpha virt. eigenvalues --    3.34515   3.35097   3.35216   3.35570   3.35937
 Alpha virt. eigenvalues --    3.37439   3.37556   3.39030   3.39472   3.40839
 Alpha virt. eigenvalues --    3.42371   3.43169   3.44063   3.44091   3.45175
 Alpha virt. eigenvalues --    3.45187   3.45584   3.46049   3.46324   3.47100
 Alpha virt. eigenvalues --    3.47441   3.48709   3.49088   3.49852   3.50184
 Alpha virt. eigenvalues --    3.50705   3.50718   3.51224   3.52053   3.53035
 Alpha virt. eigenvalues --    3.53204   3.54213   3.55209   3.55495   3.55568
 Alpha virt. eigenvalues --    3.57214   3.58298   3.58460   3.58520   3.60094
 Alpha virt. eigenvalues --    3.61099   3.61366   3.63325   3.63675   3.63733
 Alpha virt. eigenvalues --    3.65115   3.67415   3.67430   3.69583   3.70371
 Alpha virt. eigenvalues --    3.70420   3.73882   3.76716   3.77391   3.78970
 Alpha virt. eigenvalues --    3.80529   3.82446   3.83450   3.87415   4.09093
 Alpha virt. eigenvalues --    4.10531   4.18298   4.20154   4.22177   4.22789
 Alpha virt. eigenvalues --    4.23126   4.24295   4.25280   4.28626   4.29351
 Alpha virt. eigenvalues --    4.29714   4.31523   4.32434   4.33284   4.35356
 Alpha virt. eigenvalues --    4.35809   4.36722   4.37882   4.39013   4.40125
 Alpha virt. eigenvalues --    4.40751   4.42878   4.43301   4.43704   4.46847
 Alpha virt. eigenvalues --    4.47531   4.48258   4.49939   4.50616   4.50950
 Alpha virt. eigenvalues --    4.51348   4.53188   4.53998   4.54265   4.55799
 Alpha virt. eigenvalues --    4.57226   4.57492   4.60425   4.60574   4.61009
 Alpha virt. eigenvalues --    4.61901   4.62180   4.63470   4.65186   4.68420
 Alpha virt. eigenvalues --    4.69241   4.69343   4.70350   4.72274   4.72998
 Alpha virt. eigenvalues --    4.74409   4.75263   4.75522   4.78541   4.81512
 Alpha virt. eigenvalues --    4.84262   4.84855   4.85875   4.88322   4.88820
 Alpha virt. eigenvalues --    4.89044   4.94891   5.08765
          Condensed to atoms (all electrons):
 Mulliken charges:
               1
     1  Mg   0.807053
     2  C    0.093119
     3  C   -0.243431
     4  C   -0.209233
     5  C   -0.148054
     6  N   -0.644909
     7  C    0.252306
     8  C   -0.158985
     9  C   -0.154004
    10  C    0.385000
    11  C   -0.289204
    12  C   -0.147873
    13  C   -0.276644
    14  C    0.606572
    15  O   -0.493340
    16  O   -0.452979
    17  N   -0.718379
    18  C    0.286317
    19  C   -0.001538
    20  C   -0.003830
    21  C    0.389463
    22  C   -0.342843
    23  C   -0.038648
    24  C   -0.257748
    25  N   -0.684776
    26  C    0.280718
    27  C    0.036784
    28  C   -0.013245
    29  C    0.266315
    30  C   -0.388851
    31  C   -0.232990
    32  C   -0.290502
    33  N   -0.693577
    34  C    0.269767
    35  C    0.017153
    36  C    0.045781
    37  C    0.275139
    38  C   -0.373572
    39  C    0.351722
    40  O   -0.470981
    41  C   -0.336243
    42  C    0.595942
    43  O   -0.512277
    44  O   -0.442748
    45  C   -0.079426
    46  C    0.030254
    47  C   -0.173910
    48  C    0.114233
    49  C   -0.378284
    50  C   -0.218135
    51  C   -0.180134
    52  C   -0.160375
    53  C   -0.048022
    54  C   -0.331012
    55  C   -0.161093
    56  C   -0.186850
    57  C   -0.170861
    58  C   -0.064889
    59  C   -0.316861
    60  C   -0.160965
    61  C   -0.162577
    62  C   -0.166608
    63  C   -0.039450
    64  C   -0.302852
    65  C   -0.319824
    66  H    0.062932
    67  H    0.088493
    68  H    0.112519
    69  H    0.137549
    70  H    0.098754
    71  H    0.078438
    72  H    0.114618
    73  H    0.140824
    74  H    0.113084
    75  H    0.125489
    76  H    0.130957
    77  H    0.121438
    78  H    0.111029
    79  H    0.126674
    80  H    0.116302
    81  H    0.109767
    82  H    0.095431
    83  H    0.124908
    84  H    0.106887
    85  H    0.121311
    86  H    0.101970
    87  H    0.110825
    88  H    0.088917
    89  H    0.109911
    90  H    0.108325
    91  H    0.103753
    92  H    0.114635
    93  H    0.149893
    94  H    0.127305
    95  H    0.161842
    96  H    0.136590
    97  H    0.139491
    98  H    0.133012
    99  H    0.134645
   100  H    0.115761
   101  H    0.093633
   102  H    0.128567
   103  H    0.097240
   104  H    0.142557
   105  H    0.111230
   106  H    0.111265
   107  H    0.083520
   108  H    0.088648
   109  H    0.095864
   110  H    0.107976
   111  H    0.082708
   112  H    0.067794
   113  H    0.112392
   114  H    0.103136
   115  H    0.064724
   116  H    0.058083
   117  H    0.106694
   118  H    0.094841
   119  H    0.088980
   120  H    0.082428
   121  H    0.089949
   122  H    0.097079
   123  H    0.111417
   124  H    0.083140
   125  H    0.078018
   126  H    0.099341
   127  H    0.101852
   128  H    0.067736
   129  H    0.092486
   130  H    0.059540
   131  H    0.083465
   132  H    0.093101
   133  H    0.093342
   134  H    0.095054
   135  H    0.108633
   136  H    0.096322
   137  H    0.092855
 Sum of Mulliken charges =   0.00000
 Mulliken charges with hydrogens summed into heavy atoms:
               1
     1  Mg   0.807053
     2  C    0.093119
     3  C   -0.180499
     4  C   -0.120740
     5  C   -0.035535
     6  N   -0.644909
     7  C    0.252306
     8  C   -0.021436
     9  C   -0.055251
    10  C    0.385000
    11  C    0.044676
    12  C    0.090701
    13  C   -0.024248
    14  C    0.606572
    15  O   -0.493340
    16  O   -0.452979
    17  N   -0.718379
    18  C    0.286317
    19  C   -0.001538
    20  C   -0.003830
    21  C    0.389463
    22  C    0.011162
    23  C    0.071119
    24  C   -0.037409
    25  N   -0.684776
    26  C    0.280718
    27  C    0.036784
    28  C   -0.013245
    29  C    0.266315
    30  C   -0.058684
    31  C   -0.033247
    32  C    0.031488
    33  N   -0.693577
    34  C    0.269767
    35  C    0.017153
    36  C    0.045781
    37  C    0.275139
    38  C    0.018262
    39  C    0.351722
    40  O   -0.470981
    41  C   -0.174400
    42  C    0.595942
    43  O   -0.512277
    44  O   -0.442748
    45  C    0.329667
    46  C    0.280660
    47  C   -0.080277
    48  C    0.114233
    49  C   -0.009920
    50  C    0.004360
    51  C   -0.007966
    52  C    0.043464
    53  C    0.034687
    54  C   -0.047691
    55  C   -0.038285
    56  C    0.014684
    57  C    0.000547
    58  C    0.025060
    59  C   -0.025224
    60  C    0.016394
    61  C    0.007011
    62  C   -0.014582
    63  C    0.044015
    64  C   -0.021354
    65  C   -0.022014
 Electronic spatial extent (au):  <R**2>=         180890.1353
 Charge=              0.0000 electrons
 Dipole moment (field-independent basis, Debye):
    X=              1.3530    Y=              3.9900    Z=             -0.2372  Tot=              4.2199
 Quadrupole moment (field-independent basis, Debye-Ang):
   XX=           -339.8929   YY=           -381.6749   ZZ=           -397.3201
   XY=            -12.8718   XZ=              9.0180   YZ=             -3.0573
 Traceless Quadrupole moment (field-independent basis, Debye-Ang):
   XX=             33.0697   YY=             -8.7122   ZZ=            -24.3575
   XY=            -12.8718   XZ=              9.0180   YZ=             -3.0573
 Octapole moment (field-independent basis, Debye-Ang**2):
  XXX=           -666.4046  YYY=            136.7322  ZZZ=              8.3261  XYY=           -131.5617
  XXY=             92.7733  XXZ=           -235.0466  XZZ=             11.2267  YZZ=            -39.6760
  YYZ=             46.9155  XYZ=            -53.9462
 Hexadecapole moment (field-independent basis, Debye-Ang**3):
 XXXX=        -221923.4548 YYYY=         -16794.5232 ZZZZ=          -4167.7280 XXXY=           2146.3016
 XXXZ=            797.1575 YYYX=          -1263.3826 YYYZ=           -379.6876 ZZZX=             20.0898
 ZZZY=           -150.4665 XXYY=         -40205.2684 XXZZ=         -39153.5589 YYZZ=          -3433.2513
 XXYZ=            367.4301 YYXZ=            109.3072 ZZXY=            180.1230
 N-N= 8.742832769550D+03 E-N=-2.430932609551D+04  KE= 2.905721705232D+03
 1\1\GINC-PEDRO-RYZENSSD\SP\RCAM-B3LYP TD-FC\6-31G(d,p)\C55H72Mg1N4O5\P
 ADAWAN\27-Jun-2019\0\\# td=(NStates=1) CAM-B3LYP/6-31G(d,p)\\TD\\0,1\M
 g,0,-7.1859702663,0.6064488856,0.0828263312\C,0,-4.8599148726,-1.86830
 89422,0.4465702919\C,0,-4.8944887552,2.8009644237,1.1628397412\C,0,-9.
 4812027091,3.1286252619,-0.2277641094\C,0,-9.5497960072,-1.8668468597,
 -0.9258406991\N,0,-5.2352663082,0.5046317237,0.7441919396\C,0,-4.39257
 6863,-0.6428149019,0.7349453973\C,0,-2.9309440556,-0.33917919,1.208236
 2648\C,0,-3.072637553,1.1183329658,1.7082436308\C,0,-4.5103891256,1.49
 92803084,1.220828344\C,0,-3.0674445355,1.3257790652,3.256019128\C,0,-1
 .9008843693,-0.548738884,0.0930986357\C,0,-0.5324514991,-0.3599142228,
 0.5723058135\C,0,0.5149808765,-0.6105244845,-0.5428359354\O,0,0.197200
 2697,-0.9614475486,-1.6662859089\O,0,1.7379408191,-0.3971446213,-0.141
 4883689\N,0,-7.2653041389,2.552246632,0.3929744542\C,0,-6.1926964006,3
 .401291083,0.8496429483\C,0,-6.5922572154,4.7743680672,0.8511528798\C,
 0,-7.9127418696,4.7961695037,0.4688937964\C,0,-8.2670272559,3.46428672
 ,0.1913594751\C,0,-5.725398321,5.9238734786,1.3262291481\C,0,-8.793018
 5143,6.0215972277,0.3680068226\C,0,-8.2484140392,7.2850745918,0.196575
 3952\N,0,-9.1460796437,0.5969061689,-0.4682285282\C,0,-9.9627679358,1.
 7836190445,-0.5799631205\C,0,-11.2491296559,1.4328942798,-1.094984248\
 C,0,-11.3363421549,-0.0412602487,-1.185727839\C,0,-9.9196918529,-0.515
 7900671,-0.9084301459\C,0,-12.2680550476,2.3185941403,-1.5107816091\C,
 0,-12.3220022459,-0.9028813503,-1.8062958068\C,0,-12.2469810301,-1.202
 0040856,-3.2497030757\N,0,-7.1946057127,-1.3757069323,-0.2410172204\C,
 0,-8.2106362859,-2.187444684,-0.5808658925\C,0,-7.7582134888,-3.607784
 9614,-0.5836567947\C,0,-6.4231078328,-3.5561899345,-0.1055930514\C,0,-
 6.1746622444,-2.1303991944,-0.0243008087\C,0,-8.527443089,-4.808553674
 3,-0.8322327703\C,0,-5.3513216699,-4.3647224575,0.2053690368\O,0,-5.09
 85412159,-5.5525879124,0.2142074555\C,0,-4.2250059106,-3.2907920133,0.
 5304539374\C,0,-3.4292072849,-3.5489009747,1.7901101907\O,0,-3.5740310
 577,-3.0089241252,2.9020039157\O,0,-2.7386552134,-4.6632244749,1.70595
 86839\C,0,-2.1151241509,-5.2905295223,2.8805593929\C,0,2.7745212287,-0
 .633012559,-1.0834037153\C,0,4.1723105535,-0.3982136708,-0.4333158603\
 C,0,5.1785614635,0.3858819127,-0.979987899\C,0,5.0252199386,1.24193873
 02,-2.1752946206\C,0,6.4926257202,0.4452133282,-0.1248391701\C,0,7.789
 1266516,0.0198401021,-1.0439640651\C,0,8.9641054929,0.0189321597,-0.11
 49340876\C,0,10.2335142444,-0.498636962,-0.8695033447\C,0,10.131290315
 2,-2.0068700219,-1.1795096125\C,0,11.5115222693,-0.1764585365,-0.08334
 81361\C,0,12.7615133203,-0.4683533512,-0.7946500048\C,0,14.0904047283,
 -0.0991666799,0.0380110141\C,0,15.4943147755,-0.2518177935,-0.51122417
 27\C,0,15.7190560078,-1.8306758534,-0.7737046503\C,0,16.5545387079,0.3
 001744035,0.4233915239\C,0,17.9321289172,0.339582084,-0.2097392538\C,0
 ,18.8430897085,1.0636182086,0.6710394656\C,0,20.3552632061,1.233759120
 5,0.1767172753\C,0,20.2878090098,2.1983354815,-1.0711829397\C,0,21.241
 0719813,1.7389182612,1.2827949811\H,0,-3.949195178,3.4831766994,1.5744
 019612\H,0,-10.2488786396,3.8551230962,-0.4055848611\H,0,-10.344383700
 2,-2.8396340181,-1.0726408116\H,0,-2.5650051912,-1.0078104447,2.039431
 1817\H,0,-2.4522448625,2.0406325519,1.3358579523\H,0,-1.9829720205,0.9
 996054495,3.7022804414\H,0,-3.333348121,2.2869781544,3.5571502825\H,0,
 -3.7314941306,0.6638907568,3.5427081553\H,0,-2.0939319201,-1.608516772
 1,-0.1245674427\H,0,-2.035667769,0.0135734486,-0.8634914507\H,0,-0.174
 7545695,0.5333912626,1.2008823401\H,0,-0.2539213458,-1.1479977752,1.36
 83097069\H,0,-4.9244646142,6.0034055157,0.3998417664\H,0,-6.1803927096
 ,6.8626960684,1.534568146\H,0,-5.4140446333,5.5228974611,2.3717008488\
 H,0,-9.732040703,5.6967126074,0.6645342979\H,0,-8.8112517656,8.3193705
 266,0.1142020135\H,0,-7.2801930559,7.5796385331,-0.0620006707\H,0,-12.
 062211634,3.0342607314,-2.4092272211\H,0,-13.1107762911,1.9217578139,-
 1.8215656803\H,0,-12.5771146729,3.033626448,-0.6707485729\H,0,-12.5142
 839565,-1.6634487431,-1.1960098089\H,0,-13.2609120948,-0.2809319062,-1
 .5745948165\H,0,-12.8522056868,-1.9594371829,-3.5901220099\H,0,-12.282
 0383778,-0.1974984757,-3.7761151865\H,0,-11.4135046981,-1.8046234063,-
 3.5765367692\H,0,-8.4101019061,-4.8341062589,-2.07928551\H,0,-7.969320
 6331,-5.7158816964,-0.3839526234\H,0,-9.5220343692,-4.7626330503,-0.46
 79650527\H,0,-3.4450746395,-3.3580773922,-0.2521918722\H,0,-1.65551664
 17,-4.58242662,3.432379925\H,0,-2.8815433417,-5.5856192043,3.507567978
 9\H,0,-1.539075334,-6.1646806452,2.6863453374\H,0,2.8350581769,-1.5659
 262825,-1.3770517815\H,0,2.6011318134,-0.0295900406,-1.896551675\H,0,4
 .2479140157,-1.0295309593,0.4505474309\H,0,4.0873296693,1.6217332696,-
 2.5241157539\H,0,5.6809113895,2.2258569759,-2.1257669313\H,0,5.4065059
 734,0.7178621164,-2.958467146\H,0,6.6150745308,1.4091471424,0.31182868
 06\H,0,6.4205954075,-0.1990531542,0.6294639535\H,0,7.65717946,-1.15675
 67474,-1.4186659953\H,0,7.882679799,0.686175494,-2.00523067\H,0,9.2481
 209093,0.8929419107,0.3878327458\H,0,8.8182296458,-0.6468630417,0.6646
 810867\H,0,10.4403557471,0.0642911954,-1.8460684374\H,0,9.1800945059,-
 2.4757346178,-1.7846634275\H,0,10.8852316079,-2.4616126739,-1.80875706
 17\H,0,9.9572031939,-2.7758192045,-0.3829203827\H,0,11.3694517074,1.01
 20556131,-0.0413321698\H,0,11.5789183015,-0.6732296611,1.0605835314\H,
 0,12.7661923549,-1.4604529067,-0.9544037753\H,0,12.8215010561,0.118341
 3131,-1.6268810519\H,0,13.8883203352,0.8731005656,0.2589325538\H,0,13.
 909547045,-0.7881012474,0.8841535851\H,0,15.5857109632,0.1880886693,-1
 .4222218817\H,0,15.3236643674,-2.4502317491,0.1106934717\H,0,15.063543
 8862,-2.0141996136,-1.6132390443\H,0,16.8791659752,-1.897303659,-0.998
 501959\H,0,16.2198471944,1.4239014628,0.5388873097\H,0,16.7460163036,-
 0.3227786736,1.3318561173\H,0,18.1317423661,-0.654432407,-0.5618021878
 \H,0,17.8372138026,0.8816994284,-1.2957730612\H,0,18.531151798,2.11870
 377,0.96259136\H,0,18.7351397914,0.934617073,1.9015265043\H,0,20.79582
 96497,0.25724216,-0.2437966293\H,0,19.7165584891,3.1632053054,-0.74702
 4972\H,0,21.3149776117,2.3817440523,-1.5345247065\H,0,19.671988032,1.8
 026516675,-1.9746178851\H,0,21.1280428196,1.2650158054,2.2878282244\H,
 0,22.3255671972,1.8080193331,1.0069749637\H,0,21.2088934219,2.86234991
 12,1.4379897302\\Version=ES64L-G09RevD.01\State=1-A\HF=-2932.6264357\R
 MSD=9.384e-09\PG=C01 [X(C55H72Mg1N4O5)]\\@


 COMMON SENSE IS NOT SO COMMON.   -- VOLTAIRE
 Job cpu time:       0 days  6 hours 16 minutes 29.5 seconds.
 File lengths (MBytes):  RWF=   2106 Int=      0 D2E=      0 Chk=    163 Scr=      1
 Normal termination of Gaussian 09 at Thu Jun 27 02:11:56 2019.
