 Entering Gaussian System, Link 0=g16
 Input=Geometria-61-.com
 Output=Geometria-61-.log
 Initial command:
 /usr/local/g09/l1.exe "/home/padawan/israel-mol/chlorophyll-a/spectra/abs/Gau-27499.inp" -scrdir="/home/padawan/israel-mol/chlorophyll-a/spectra/abs/"
 Entering Link 1 = /usr/local/g09/l1.exe PID=     27501.
  
 Copyright (c) 1988,1990,1992,1993,1995,1998,2003,2009,2013,
            Gaussian, Inc.  All Rights Reserved.
  
 This is part of the Gaussian(R) 09 program.  It is based on
 the Gaussian(R) 03 system (copyright 2003, Gaussian, Inc.),
 the Gaussian(R) 98 system (copyright 1998, Gaussian, Inc.),
 the Gaussian(R) 94 system (copyright 1995, Gaussian, Inc.),
 the Gaussian 92(TM) system (copyright 1992, Gaussian, Inc.),
 the Gaussian 90(TM) system (copyright 1990, Gaussian, Inc.),
 the Gaussian 88(TM) system (copyright 1988, Gaussian, Inc.),
 the Gaussian 86(TM) system (copyright 1986, Carnegie Mellon
 University), and the Gaussian 82(TM) system (copyright 1983,
 Carnegie Mellon University). Gaussian is a federally registered
 trademark of Gaussian, Inc.
  
 This software contains proprietary and confidential information,
 including trade secrets, belonging to Gaussian, Inc.
  
 This software is provided under written license and may be
 used, copied, transmitted, or stored only in accord with that
 written license.
  
 The following legend is applicable only to US Government
 contracts under FAR:
  
                    RESTRICTED RIGHTS LEGEND
  
 Use, reproduction and disclosure by the US Government is
 subject to restrictions as set forth in subparagraphs (a)
 and (c) of the Commercial Computer Software - Restricted
 Rights clause in FAR 52.227-19.
  
 Gaussian, Inc.
 340 Quinnipiac St., Bldg. 40, Wallingford CT 06492
  
  
 ---------------------------------------------------------------
 Warning -- This program may not be used in any manner that
 competes with the business of Gaussian, Inc. or will provide
 assistance to any competitor of Gaussian, Inc.  The licensee
 of this program is prohibited from giving any competitor of
 Gaussian, Inc. access to this program.  By using this program,
 the user acknowledges that Gaussian, Inc. is engaged in the
 business of creating and licensing software in the field of
 computational chemistry and represents and warrants to the
 licensee that it is not a competitor of Gaussian, Inc. and that
 it will not use this program in any manner prohibited above.
 ---------------------------------------------------------------
  

 Cite this work as:
 Gaussian 09, Revision D.01,
 M. J. Frisch, G. W. Trucks, H. B. Schlegel, G. E. Scuseria, 
 M. A. Robb, J. R. Cheeseman, G. Scalmani, V. Barone, B. Mennucci, 
 G. A. Petersson, H. Nakatsuji, M. Caricato, X. Li, H. P. Hratchian, 
 A. F. Izmaylov, J. Bloino, G. Zheng, J. L. Sonnenberg, M. Hada, 
 M. Ehara, K. Toyota, R. Fukuda, J. Hasegawa, M. Ishida, T. Nakajima, 
 Y. Honda, O. Kitao, H. Nakai, T. Vreven, J. A. Montgomery, Jr., 
 J. E. Peralta, F. Ogliaro, M. Bearpark, J. J. Heyd, E. Brothers, 
 K. N. Kudin, V. N. Staroverov, T. Keith, R. Kobayashi, J. Normand, 
 K. Raghavachari, A. Rendell, J. C. Burant, S. S. Iyengar, J. Tomasi, 
 M. Cossi, N. Rega, J. M. Millam, M. Klene, J. E. Knox, J. B. Cross, 
 V. Bakken, C. Adamo, J. Jaramillo, R. Gomperts, R. E. Stratmann, 
 O. Yazyev, A. J. Austin, R. Cammi, C. Pomelli, J. W. Ochterski, 
 R. L. Martin, K. Morokuma, V. G. Zakrzewski, G. A. Voth, 
 P. Salvador, J. J. Dannenberg, S. Dapprich, A. D. Daniels, 
 O. Farkas, J. B. Foresman, J. V. Ortiz, J. Cioslowski, 
 and D. J. Fox, Gaussian, Inc., Wallingford CT, 2013.
 
 ******************************************
 Gaussian 09:  ES64L-G09RevD.01 24-Apr-2013
                27-Jun-2019 
 ******************************************
 %nproc=4
 Will use up to    4 processors via shared memory.
 %Mem=2GB
 -------------------------------------
 # td=(NStates=1) CAM-B3LYP/6-31G(d,p)
 -------------------------------------
 1/38=1/1;
 2/12=2,17=6,18=5,40=1/2;
 3/5=1,6=6,7=101,11=9,16=1,25=1,30=1,74=-40/1,2,8,3;
 4//1;
 5/5=2,38=5/2;
 8/6=1,10=2,108=1/1;
 9/41=1,42=1,70=2/14;
 6/7=2,8=2,9=2,10=2/1;
 99/5=1,9=1/99;
 --
 TD
 --
 Symbolic Z-matrix:
 Charge =  0 Multiplicity = 1
 12                   -7.17923   0.61599   0.14924 
 6                    -4.8482   -1.92092   0.57327 
 6                    -4.9046    2.81597   1.2326 
 6                    -9.49764   3.11641  -0.31027 
 6                    -9.55949  -1.69549  -0.78414 
 7                    -5.20709   0.40374   0.68283 
 6                    -4.31919  -0.69255   0.79942 
 6                    -2.87728  -0.3271    1.1425 
 6                    -3.09051   1.10887   1.58822 
 6                    -4.53865   1.49311   1.17038 
 6                    -2.95783   1.27088   3.11847 
 6                    -1.9641   -0.56688  -0.05736 
 6                    -0.45365  -0.42977   0.4951 
 6                     0.53953  -0.54345  -0.62868 
 8                     0.17311  -0.98554  -1.7 
 8                     1.73464  -0.39622  -0.17801 
 7                    -7.12576   2.64428   0.43047 
 6                    -6.16246   3.33818   0.87033 
 6                    -6.48063   4.7312    0.92139 
 6                    -7.83324   4.86282   0.45758 
 6                    -8.21229   3.51535   0.11759 
 6                    -5.53058   5.89818   1.25002 
 6                    -8.71601   6.02708   0.39996 
 6                    -8.36446   7.24122   0.0746 
 7                    -9.16069   0.70398  -0.54618 
 6                    -9.95706   1.80711  -0.627 
 6                    -11.25712   1.44971  -1.10738 
 6                    -11.32078   0.09181  -1.15851 
 6                    -9.96563  -0.38146  -0.79436 
 6                    -12.37877   2.31376  -1.53822 
 6                    -12.55006  -0.70175  -1.64468 
 6                    -12.4401  -1.00041  -3.15245 
 7                    -7.26263  -1.37153  -0.19461 
 6                    -8.26868  -2.23307  -0.53221 
 6                    -7.8306   -3.63261  -0.52436 
 6                    -6.44934  -3.61837  -0.12657 
 6                    -6.21609  -2.18935   0.12148 
 6                    -8.74999  -4.78065  -0.95683 
 6                    -5.37339  -4.3482    0.1672 
 8                    -5.15427  -5.52907   0.18677 
 6                    -4.19739  -3.32886   0.4685 
 6                    -3.49117  -3.68771   1.86116 
 8                    -3.84983  -3.17562   3.00232 
 8                    -2.55066  -4.66161   1.71215 
 6                    -1.98524  -5.12263   2.88403 
 6                     2.80967  -0.73863  -1.08645 
 6                     4.12219  -0.51989  -0.47639 
 6                     5.20201   0.225    -0.96471 
 6                     5.19618   1.12897  -2.18965 
 6                     6.51745   0.2254   -0.19151 
 6                     7.7272   -0.2947   -0.92896 
 6                     9.04062  -0.1498   -0.11741 
 6                     10.32854  -0.61925  -0.93134 
 6                     10.21516  -1.99193  -1.44607 
 6                     11.57984  -0.44666  -0.1065 
 6                     12.94055  -0.64596  -0.86232 
 6                     14.01404  -0.16897  -0.00572 
 6                     15.51977  -0.3578   -0.6312 
 6                     15.83954  -1.77874  -0.88896 
 6                     16.45244   0.37458   0.36849 
 6                     17.87994   0.62957  -0.14143 
 6                     18.73883   1.42269   0.84115 
 6                     20.26795   1.56195   0.38516 
 6                     20.39994   2.30805  -0.90781 
 6                     21.15125   2.00136   1.49442 
 1                    -4.17051   3.53761   1.73072 
 1                    -10.15548   3.97279  -0.34208 
 1                    -10.21698  -2.51902  -0.97323 
 1                    -2.4016   -0.97379   2.03113 
 1                    -2.29      1.59354   1.09486 
 1                    -1.9612    1.32871   3.37664 
 1                    -3.37673   2.26577   3.39132 
 1                    -3.33117   0.32266   3.66393 
 1                    -2.27129  -1.64165  -0.42103 
 1                    -2.14156   0.09784  -0.9855 
 1                    -0.30027   0.61135   0.81224 
 1                    -0.29765  -1.28567   1.32923 
 1                    -5.09207   6.25178   0.33879 
 1                    -6.01994   6.78027   1.67927 
 1                    -4.65135   5.47727   1.90729 
 1                    -9.80393   5.83008   0.43041 
 1                    -9.29529   7.92737  -0.15904 
 1                    -7.38641   7.42332  -0.05802 
 1                    -12.52583   3.08069  -2.42816 
 1                    -13.37356   1.896    -1.7174 
 1                    -12.69807   3.09633  -0.74244 
 1                    -12.4052  -1.62894  -1.08678 
 1                    -13.46398  -0.33839  -1.269 
 1                    -13.49722  -1.13935  -3.5687 
 1                    -12.05075   0.07435  -3.53091 
 1                    -11.53381  -1.93982  -3.25804 
 1                    -9.09091  -4.67067  -1.84496 
 1                    -8.21957  -5.89629  -0.86713 
 1                    -9.55017  -5.01329  -0.28042 
 1                    -3.45726  -3.19183  -0.21077 
 1                    -1.24689  -4.38791   3.20599 
 1                    -2.77649  -5.29207   3.71274 
 1                    -1.48055  -5.96451   2.44661 
 1                     2.66941  -1.72109  -1.4283 
 1                     2.34312  -0.06333  -1.8551 
 1                     4.36532  -1.12149   0.5415 
 1                     4.22128   1.37155  -2.63042 
 1                     5.6065    1.91914  -1.69867 
 1                     5.80138   0.62563  -2.91694 
 1                     6.83868   1.22231   0.31356 
 1                     6.51182  -0.4674    0.61289 
 1                     7.57594  -1.47133  -1.04595 
 1                     7.81313  -0.01884  -2.08828 
 1                     9.04932   1.0006    0.07181 
 1                     8.86333  -0.48799   0.91639 
 1                     10.50856  -0.0763   -1.96165 
 1                     9.39887  -2.26027  -2.06268 
 1                     10.98544  -2.23534  -2.0899 
 1                     10.23829  -2.6632   -0.6888 
 1                     11.6714   0.73834   0.09578 
 1                     11.55393  -1.04459   0.7068 
 1                     13.24597  -1.49098  -1.20319 
 1                     12.94334   0.02018  -1.75972 
 1                     13.89629   0.77353   0.23434 
 1                     14.02775  -0.83502   0.87179 
 1                     15.39602   0.1899   -1.63029 
 1                     15.82728  -2.43171  -0.02245 
 1                     15.32394  -2.05411  -1.80209 
 1                     16.8254  -1.93439  -1.39163 
 1                     16.17803   1.41482   0.54051 
 1                     16.23555   0.13248   1.27439 
 1                     18.22426  -0.34988  -0.27201 
 1                     17.89924   0.8997   -1.05322 
 1                     18.34336   2.4206    0.81116 
 1                     18.87821   0.95847   1.7705 
 1                     20.51257   0.50578   0.14832 
 1                     20.09862   3.45922  -0.88626 
 1                     21.4719   2.29479  -1.29956 
 1                     19.60956   2.07214  -1.59341 
 1                     21.2594   1.16126   2.16554 
 1                     22.16052   2.14331   1.10706 
 1                     20.90215   3.04151   2.12289 
 
 Stoichiometry    C55H72MgN4O5
 Framework group  C1[X(C55H72MgN4O5)]
 Deg. of freedom   405
 Full point group                 C1      NOp   1
 Largest Abelian subgroup         C1      NOp   1
 Largest concise Abelian subgroup C1      NOp   1
                         Standard orientation:                         
 ---------------------------------------------------------------------
 Center     Atomic      Atomic             Coordinates (Angstroms)
 Number     Number       Type             X           Y           Z
 ---------------------------------------------------------------------
      1         12           0       -7.181180    0.608229    0.148848
      2          6           0       -4.846706   -1.922524    0.590361
      3          6           0       -4.909249    2.818844    1.216089
      4          6           0       -9.503002    3.102259   -0.327893
      5          6           0       -9.558560   -1.712962   -0.767609
      6          7           0       -5.208656    0.402383    0.683503
      7          6           0       -4.319275   -0.691877    0.807681
      8          6           0       -2.877780   -0.322092    1.147851
      9          6           0       -3.092824    1.116719    1.583424
     10          6           0       -4.541560    1.496065    1.163180
     11          6           0       -2.960051    1.289754    3.112452
     12          6           0       -1.964529   -0.569168   -0.050469
     13          6           0       -0.454153   -0.426144    0.500677
     14          6           0        0.538955   -0.546471   -0.622483
     15          8           0        0.172898   -0.996635   -1.690557
     16          8           0        1.733958   -0.394473   -0.173120
     17          7           0       -7.130343    2.638528    0.415672
     18          6           0       -6.167877    3.336814    0.850391
     19          6           0       -6.487876    4.729737    0.891644
     20          6           0       -7.840762    4.856266    0.427204
     21          6           0       -8.218092    3.505923    0.096858
     22          6           0       -5.539310    5.900273    1.211790
     23          6           0       -8.725084    6.018919    0.361514
     24          6           0       -8.375205    7.231188    0.027481
     25          7           0       -9.162898    0.688658   -0.546755
     26          6           0       -9.960743    1.790136   -0.635228
     27          6           0      -11.260429    1.427611   -1.112782
     28          6           0      -11.322299    0.069307   -1.154267
     29          6           0       -9.966444   -0.399573   -0.787063
     30          6           0      -12.383307    2.287105   -1.549508
     31          6           0      -12.550619   -0.729313   -1.634540
     32          6           0      -12.440575   -1.038515   -3.140181
     33          7           0       -7.262018   -1.381784   -0.180887
     34          6           0       -8.266993   -2.247031   -0.512153
     35          6           0       -7.827054   -3.645897   -0.494471
     36          6           0       -6.445733   -3.627006   -0.097081
     37          6           0       -6.214324   -2.195954    0.140778
     38          6           0       -8.745004   -4.798195   -0.918588
     39          6           0       -5.368760   -4.353313    0.201618
     40          8           0       -5.148063   -5.533718    0.229524
     41          6           0       -4.194050   -3.330300    0.495434
     42          6           0       -3.487072   -3.678338    1.890453
     43          8           0       -3.846173   -3.158640    3.028036
     44          8           0       -2.545295   -4.652023    1.748154
     45          6           0       -1.979030   -5.103970    2.923154
     46          6           0        2.809260   -0.741891   -1.079340
     47          6           0        4.121604   -0.517085   -0.471123
     48          6           0        5.200344    0.225745   -0.964939
     49          6           0        5.193059    1.120998   -2.196257
     50          6           0        6.515934    0.233376   -0.192041
     51          6           0        7.726225   -0.290341   -0.926049
     52          6           0        9.039619   -0.137953   -0.115828
     53          6           0       10.327995   -0.611452   -0.926678
     54          6           0       10.216326   -1.987896   -1.431634
     55          6           0       11.579229   -0.431356   -0.103351
     56          6           0       12.940050   -0.634214   -0.858025
     57          6           0       14.013077   -0.149742   -0.005064
     58          6           0       15.518929   -0.341004   -0.629503
     59          6           0       15.840531   -1.763313   -0.877248
     60          6           0       16.450832    0.399682    0.364762
     61          6           0       17.877894    0.652939   -0.147256
     62          6           0       18.735927    1.454148    0.829490
     63          6           0       20.264773    1.592193    0.372200
     64          6           0       20.395506    2.329274   -0.926051
     65          6           0       21.147714    2.040631    1.478126
     66          1           0       -4.176012    3.544976    1.708924
     67          1           0      -10.161978    3.957521   -0.365631
     68          1           0      -10.215000   -2.538684   -0.950718
     69          1           0       -2.401062   -0.961832    2.040944
     70          1           0       -2.293057    1.598934    1.086471
     71          1           0       -1.963443    1.350728    3.369996
     72          1           0       -3.380213    2.285991    3.378338
     73          1           0       -3.332023    0.344926    3.664707
     74          1           0       -2.270367   -1.646895   -0.406444
     75          1           0       -2.143057    0.088720   -0.983269
     76          1           0       -0.302082    0.617402    0.810399
     77          1           0       -0.296840   -1.275900    1.340820
     78          1           0       -5.101458    6.247982    0.297976
     79          1           0       -6.029750    6.784733    1.634879
     80          1           0       -4.659389    5.485202    1.871844
     81          1           0       -9.812732    5.820697    0.393593
     82          1           0       -9.306996    7.914432   -0.210819
     83          1           0       -7.397432    7.413641   -0.106639
     84          1           0      -12.531567    3.047501   -2.444828
     85          1           0      -13.377585    1.866760   -1.725500
     86          1           0      -12.703483    3.074875   -0.759221
     87          1           0      -12.404424   -1.652324   -1.070109
     88          1           0      -13.464951   -0.364505   -1.261256
     89          1           0      -13.497595   -1.181794   -3.555207
     90          1           0      -12.052723    0.034052   -3.526334
     91          1           0      -11.533058   -1.977442   -3.239302
     92          1           0       -9.086255   -4.694967   -1.807410
     93          1           0       -8.213087   -5.912466   -0.821097
     94          1           0       -9.544739   -5.027089   -0.240376
     95          1           0       -3.454234   -3.197115   -0.184944
     96          1           0       -1.241584   -4.366003    3.239736
     97          1           0       -2.769887   -5.268574    3.753212
     98          1           0       -1.473312   -5.948260    2.491609
     99          1           0        2.670230   -1.726934   -1.414178
    100          1           0        2.341650   -0.072678   -1.852654
    101          1           0        4.365739   -1.111133    0.550953
    102          1           0        4.217754    1.359156   -2.638529
    103          1           0        5.602438    1.915172   -1.710988
    104          1           0        5.798776    0.613321   -2.920095
    105          1           0        6.835943    1.234264    0.305873
    106          1           0        6.511393   -0.453711    0.617251
    107          1           0        7.576502   -1.467967   -1.034656
    108          1           0        7.811555   -0.022589   -2.087311
    109          1           0        9.046830    1.013778    0.065233
    110          1           0        8.862989   -0.469030    0.920382
    111          1           0       10.507084   -0.075588   -1.960852
    112          1           0        9.400264   -2.261687   -2.046156
    113          1           0       10.986800   -2.234847   -2.073885
    114          1           0       10.240503   -2.653747   -0.669632
    115          1           0       11.669261    0.755163    0.090503
    116          1           0       11.554274   -1.023538    0.714173
    117          1           0       13.246520   -1.481220   -1.192961
    118          1           0       12.941776    0.025551   -1.760134
    119          1           0       13.894130    0.794284    0.228335
    120          1           0       14.027851   -0.809526    0.877150
    121          1           0       15.394254    0.199430   -1.632432
    122          1           0       15.829320   -2.410137   -0.006131
    123          1           0       15.325112   -2.045838   -1.788294
    124          1           0       16.826496   -1.921215   -1.379017
    125          1           0       16.175082    1.440750    0.529461
    126          1           0       16.234444    0.163721    1.272406
    127          1           0       18.223483   -0.326958   -0.270962
    128          1           0       17.896646    0.916622   -1.060939
    129          1           0       18.339132    2.451295    0.792509
    130          1           0       18.876116    0.996710    1.762086
    131          1           0       20.510742    0.534690    0.142808
    132          1           0       20.092661    3.480176   -0.912603
    133          1           0       21.467406    2.314655   -1.317930
    134          1           0       19.605301    2.087463   -1.609796
    135          1           0       21.257108    1.205446    2.155163
    136          1           0       22.156714    2.181165    1.089563
    137          1           0       20.897363    3.084874    2.099259
 ---------------------------------------------------------------------
 Rotational constants (GHZ):      0.0648698      0.0060202      0.0056735
 Standard basis: 6-31G(d,p) (6D, 7F)
 There are  1339 symmetry adapted cartesian basis functions of A   symmetry.
 There are  1339 symmetry adapted basis functions of A   symmetry.
  1339 basis functions,  2348 primitive gaussians,  1339 cartesian basis functions
   241 alpha electrons      241 beta electrons
       nuclear repulsion energy      8728.4774915421 Hartrees.
 NAtoms=  137 NActive=  137 NUniq=  137 SFac= 1.00D+00 NAtFMM=   60 NAOKFM=T Big=T
 Integral buffers will be    131072 words long.
 Raffenetti 1 integral format.
 Two-electron integral symmetry is turned on.
 One-electron integrals computed using PRISM.
 NBasis=  1339 RedAO= T EigKep=  2.78D-04  NBF=  1339
 NBsUse=  1339 1.00D-06 EigRej= -1.00D+00 NBFU=  1339
 ExpMin= 4.21D-02 ExpMax= 1.17D+04 ExpMxC= 1.76D+03 IAcc=2 IRadAn=         4 AccDes= 0.00D+00
 Harris functional with IExCor=20419 and IRadAn=       4 diagonalized for initial guess.
 HarFok:  IExCor=20419 AccDes= 0.00D+00 IRadAn=         4 IDoV= 1 UseB2=F ITyADJ=14
 ICtDFT=  3500011 ScaDFX=  1.000000  1.000000  1.000000  1.000000
 FoFCou: FMM=F IPFlag=           0 FMFlag=      100000 FMFlg1=        2001
         NFxFlg=           0 DoJE=T BraDBF=F KetDBF=T FulRan=T
         wScrn=  0.000000 ICntrl=     500 IOpCl=  0 I1Cent=   200000004 NGrid=           0
         NMat0=    1 NMatS0=      1 NMatT0=    0 NMatD0=    1 NMtDS0=    0 NMtDT0=    0
 Petite list used in FoFCou.
 Requested convergence on RMS density matrix=1.00D-08 within 128 cycles.
 Requested convergence on MAX density matrix=1.00D-06.
 Requested convergence on             energy=1.00D-06.
 No special actions if energy rises.
 SCF Done:  E(RCAM-B3LYP) =  -2932.64961162     A.U. after   17 cycles
            NFock= 17  Conv=0.80D-08     -V/T= 2.0089
 DoSCS=F DFT=T ScalE2(SS,OS)=  1.000000  1.000000
 ExpMin= 4.21D-02 ExpMax= 1.17D+04 ExpMxC= 1.76D+03 IAcc=3 IRadAn=         5 AccDes= 0.00D+00
 HarFok:  IExCor=  205 AccDes= 0.00D+00 IRadAn=         5 IDoV=-2 UseB2=F ITyADJ=14
 ICtDFT= 12500011 ScaDFX=  1.000000  1.000000  1.000000  1.000000
 Range of M.O.s used for correlation:    70  1339
 NBasis=  1339 NAE=   241 NBE=   241 NFC=    69 NFV=     0
 NROrb=   1270 NOA=   172 NOB=   172 NVA=  1098 NVB=  1098
 Would need an additional       2415464100000 words for in-memory AO integral storage.
 Orbital symmetries:
       Occupied  (A) (A) (A) (A) (A) (A) (A) (A) (A) (A) (A) (A)
                 (A) (A) (A) (A) (A) (A) (A) (A) (A) (A) (A) (A)
                 (A) (A) (A) (A) (A) (A) (A) (A) (A) (A) (A) (A)
                 (A) (A) (A) (A) (A) (A) (A) (A) (A) (A) (A) (A)
                 (A) (A) (A) (A) (A) (A) (A) (A) (A) (A) (A) (A)
                 (A) (A) (A) (A) (A) (A) (A) (A) (A) (A) (A) (A)
                 (A) (A) (A) (A) (A) (A) (A) (A) (A) (A) (A) (A)
                 (A) (A) (A) (A) (A) (A) (A) (A) (A) (A) (A) (A)
                 (A) (A) (A) (A) (A) (A) (A) (A) (A) (A) (A) (A)
                 (A) (A) (A) (A) (A) (A) (A) (A) (A) (A) (A) (A)
                 (A) (A) (A) (A) (A) (A) (A) (A) (A) (A) (A) (A)
                 (A) (A) (A) (A) (A) (A) (A) (A) (A) (A) (A) (A)
                 (A) (A) (A) (A) (A) (A) (A) (A) (A) (A) (A) (A)
                 (A) (A) (A) (A) (A) (A) (A) (A) (A) (A) (A) (A)
                 (A) (A) (A) (A) (A) (A) (A) (A) (A) (A) (A) (A)
                 (A) (A) (A) (A) (A) (A) (A) (A) (A) (A) (A) (A)
                 (A) (A) (A) (A) (A) (A) (A) (A) (A) (A) (A) (A)
                 (A) (A) (A) (A) (A) (A) (A) (A) (A) (A) (A) (A)
                 (A) (A) (A) (A) (A) (A) (A) (A) (A) (A) (A) (A)
                 (A) (A) (A) (A) (A) (A) (A) (A) (A) (A) (A) (A)
                 (A)
       Virtual   (A) (A) (A) (A) (A) (A) (A) (A) (A) (A) (A) (A)
                 (A) (A) (A) (A) (A) (A) (A) (A) (A) (A) (A) (A)
                 (A) (A) (A) (A) (A) (A) (A) (A) (A) (A) (A) (A)
                 (A) (A) (A) (A) (A) (A) (A) (A) (A) (A) (A) (A)
                 (A) (A) (A) (A) (A) (A) (A) (A) (A) (A) (A) (A)
                 (A) (A) (A) (A) (A) (A) (A) (A) (A) (A) (A) (A)
                 (A) (A) (A) (A) (A) (A) (A) (A) (A) (A) (A) (A)
                 (A) (A) (A) (A) (A) (A) (A) (A) (A) (A) (A) (A)
                 (A) (A) (A) (A) (A) (A) (A) (A) (A) (A) (A) (A)
                 (A) (A) (A) (A) (A) (A) (A) (A) (A) (A) (A) (A)
                 (A) (A) (A) (A) (A) (A) (A) (A) (A) (A) (A) (A)
                 (A) (A) (A) (A) (A) (A) (A) (A) (A) (A) (A) (A)
                 (A) (A) (A) (A) (A) (A) (A) (A) (A) (A) (A) (A)
                 (A) (A) (A) (A) (A) (A) (A) (A) (A) (A) (A) (A)
                 (A) (A) (A) (A) (A) (A) (A) (A) (A) (A) (A) (A)
                 (A) (A) (A) (A) (A) (A) (A) (A) (A) (A) (A) (A)
                 (A) (A) (A) (A) (A) (A) (A) (A) (A) (A) (A) (A)
                 (A) (A) (A) (A) (A) (A) (A) (A) (A) (A) (A) (A)
                 (A) (A) (A) (A) (A) (A) (A) (A) (A) (A) (A) (A)
                 (A) (A) (A) (A) (A) (A) (A) (A) (A) (A) (A) (A)
                 (A) (A) (A) (A) (A) (A) (A) (A) (A) (A) (A) (A)
                 (A) (A) (A) (A) (A) (A) (A) (A) (A) (A) (A) (A)
                 (A) (A) (A) (A) (A) (A) (A) (A) (A) (A) (A) (A)
                 (A) (A) (A) (A) (A) (A) (A) (A) (A) (A) (A) (A)
                 (A) (A) (A) (A) (A) (A) (A) (A) (A) (A) (A) (A)
                 (A) (A) (A) (A) (A) (A) (A) (A) (A) (A) (A) (A)
                 (A) (A) (A) (A) (A) (A) (A) (A) (A) (A) (A) (A)
                 (A) (A) (A) (A) (A) (A) (A) (A) (A) (A) (A) (A)
                 (A) (A) (A) (A) (A) (A) (A) (A) (A) (A) (A) (A)
                 (A) (A) (A) (A) (A) (A) (A) (A) (A) (A) (A) (A)
                 (A) (A) (A) (A) (A) (A) (A) (A) (A) (A) (A) (A)
                 (A) (A) (A) (A) (A) (A) (A) (A) (A) (A) (A) (A)
                 (A) (A) (A) (A) (A) (A) (A) (A) (A) (A) (A) (A)
                 (A) (A) (A) (A) (A) (A) (A) (A) (A) (A) (A) (A)
                 (A) (A) (A) (A) (A) (A) (A) (A) (A) (A) (A) (A)
                 (A) (A) (A) (A) (A) (A) (A) (A) (A) (A) (A) (A)
                 (A) (A) (A) (A) (A) (A) (A) (A) (A) (A) (A) (A)
                 (A) (A) (A) (A) (A) (A) (A) (A) (A) (A) (A) (A)
                 (A) (A) (A) (A) (A) (A) (A) (A) (A) (A) (A) (A)
                 (A) (A) (A) (A) (A) (A) (A) (A) (A) (A) (A) (A)
                 (A) (A) (A) (A) (A) (A) (A) (A) (A) (A) (A) (A)
                 (A) (A) (A) (A) (A) (A) (A) (A) (A) (A) (A) (A)
                 (A) (A) (A) (A) (A) (A) (A) (A) (A) (A) (A) (A)
                 (A) (A) (A) (A) (A) (A) (A) (A) (A) (A) (A) (A)
                 (A) (A) (A) (A) (A) (A) (A) (A) (A) (A) (A) (A)
                 (A) (A) (A) (A) (A) (A) (A) (A) (A) (A) (A) (A)
                 (A) (A) (A) (A) (A) (A) (A) (A) (A) (A) (A) (A)
                 (A) (A) (A) (A) (A) (A) (A) (A) (A) (A) (A) (A)
                 (A) (A) (A) (A) (A) (A) (A) (A) (A) (A) (A) (A)
                 (A) (A) (A) (A) (A) (A) (A) (A) (A) (A) (A) (A)
                 (A) (A) (A) (A) (A) (A) (A) (A) (A) (A) (A) (A)
                 (A) (A) (A) (A) (A) (A) (A) (A) (A) (A) (A) (A)
                 (A) (A) (A) (A) (A) (A) (A) (A) (A) (A) (A) (A)
                 (A) (A) (A) (A) (A) (A) (A) (A) (A) (A) (A) (A)
                 (A) (A) (A) (A) (A) (A) (A) (A) (A) (A) (A) (A)
                 (A) (A) (A) (A) (A) (A) (A) (A) (A) (A) (A) (A)
                 (A) (A) (A) (A) (A) (A) (A) (A) (A) (A) (A) (A)
                 (A) (A) (A) (A) (A) (A) (A) (A) (A) (A) (A) (A)
                 (A) (A) (A) (A) (A) (A) (A) (A) (A) (A) (A) (A)
                 (A) (A) (A) (A) (A) (A) (A) (A) (A) (A) (A) (A)
                 (A) (A) (A) (A) (A) (A) (A) (A) (A) (A) (A) (A)
                 (A) (A) (A) (A) (A) (A) (A) (A) (A) (A) (A) (A)
                 (A) (A) (A) (A) (A) (A) (A) (A) (A) (A) (A) (A)
                 (A) (A) (A) (A) (A) (A) (A) (A) (A) (A) (A) (A)
                 (A) (A) (A) (A) (A) (A) (A) (A) (A) (A) (A) (A)
                 (A) (A) (A) (A) (A) (A) (A) (A) (A) (A) (A) (A)
                 (A) (A) (A) (A) (A) (A) (A) (A) (A) (A) (A) (A)
                 (A) (A) (A) (A) (A) (A) (A) (A) (A) (A) (A) (A)
                 (A) (A) (A) (A) (A) (A) (A) (A) (A) (A) (A) (A)
                 (A) (A) (A) (A) (A) (A) (A) (A) (A) (A) (A) (A)
                 (A) (A) (A) (A) (A) (A) (A) (A) (A) (A) (A) (A)
                 (A) (A) (A) (A) (A) (A) (A) (A) (A) (A) (A) (A)
                 (A) (A) (A) (A) (A) (A) (A) (A) (A) (A) (A) (A)
                 (A) (A) (A) (A) (A) (A) (A) (A) (A) (A) (A) (A)
                 (A) (A) (A) (A) (A) (A) (A) (A) (A) (A) (A) (A)
                 (A) (A) (A) (A) (A) (A) (A) (A) (A) (A) (A) (A)
                 (A) (A) (A) (A) (A) (A) (A) (A) (A) (A) (A) (A)
                 (A) (A) (A) (A) (A) (A) (A) (A) (A) (A) (A) (A)
                 (A) (A) (A) (A) (A) (A) (A) (A) (A) (A) (A) (A)
                 (A) (A) (A) (A) (A) (A) (A) (A) (A) (A) (A) (A)
                 (A) (A) (A) (A) (A) (A) (A) (A) (A) (A) (A) (A)
                 (A) (A) (A) (A) (A) (A) (A) (A) (A) (A) (A) (A)
                 (A) (A) (A) (A) (A) (A) (A) (A) (A) (A) (A) (A)
                 (A) (A) (A) (A) (A) (A) (A) (A) (A) (A) (A) (A)
                 (A) (A) (A) (A) (A) (A) (A) (A) (A) (A) (A) (A)
                 (A) (A) (A) (A) (A) (A) (A) (A) (A) (A) (A) (A)
                 (A) (A) (A) (A) (A) (A) (A) (A) (A) (A) (A) (A)
                 (A) (A) (A) (A) (A) (A) (A) (A) (A) (A) (A) (A)
                 (A) (A) (A) (A) (A) (A) (A) (A) (A) (A) (A) (A)
                 (A) (A) (A) (A) (A) (A) (A) (A) (A) (A) (A) (A)
                 (A) (A) (A) (A) (A) (A) (A) (A) (A) (A) (A) (A)
                 (A) (A) (A) (A) (A) (A)
     8 initial guesses have been made.
 Convergence on wavefunction:    0.001000000000000
 Iteration     1 Dimension     8 NMult     0 NNew      8
 CISAX will form     8 AO SS matrices at one time.
 Iteration     2 Dimension    12 NMult     8 NNew      4
 Iteration     3 Dimension    16 NMult    12 NNew      4
 Iteration     4 Dimension    20 NMult    16 NNew      4
 Iteration     5 Dimension    24 NMult    20 NNew      4
 Iteration     6 Dimension    28 NMult    24 NNew      4
 ***********************************************************************
 Excited states from <AA,BB:AA,BB> singles matrix:
 ***********************************************************************
 
 Ground to excited state transition densities written to RWF  633
 Ground to excited state transition electric dipole moments (Au):
       state          X           Y           Z        Dip. S.      Osc.
         1         0.3452     -2.3506     -0.1445      5.6653      0.2888
 Ground to excited state transition velocity dipole moments (Au):
       state          X           Y           Z        Dip. S.      Osc.
         1        -0.0234      0.1752      0.0104      0.0313      0.2733
 Ground to excited state transition magnetic dipole moments (Au):
       state          X           Y           Z
         1         0.5391      0.3349     -4.2440
 Ground to excited state transition velocity quadrupole moments (Au):
       state          XX          YY          ZZ          XY          XZ          YZ
         1         0.5848      0.1202      0.0370     -2.2313     -0.0747      0.1178
 <0|del|b> * <b|rxdel|0> + <0|del|b> * <b|delr+rdel|0>
 Rotatory Strengths (R) in cgs (10**-40 erg-esu-cm/Gauss)
       state          XX          YY          ZZ    R(velocity)    E-M Angle
         1        21.2693   -167.7342    165.1230      6.2194       89.85
 1/2[<0|r|b>*<b|rxdel|0> + (<0|rxdel|b>*<b|r|0>)*]
 Rotatory Strengths (R) in cgs (10**-40 erg-esu-cm/Gauss)
       state          XX          YY          ZZ     R(length)
         1      -131.6119    556.7643   -433.6229     -2.8235
  1/2[<0|del|b>*<b|r|0> + (<0|r|b>*<b|del|0>)*] (Au)
       state          X           Y           Z        Dip. S.   Osc.(frdel)
         1        -0.0081     -0.4118     -0.0015      0.4214      0.2809

 Excitation energies and oscillator strengths:
 
 Excited State   1:      Singlet-A      2.0809 eV  595.81 nm  f=0.2888  <S**2>=0.000
     240 -> 242       -0.12257
     240 -> 243       -0.21704
     241 -> 242        0.65266
 This state for optimization and/or second-order correction.
 Total Energy, E(TD-HF/TD-KS) =  -2932.57313875    
 Copying the excited state density for this state as the 1-particle RhoCI density.
 SavETr:  write IOETrn=   770 NScale= 10 NData=  16 NLR=1 NState=    1 LETran=      28.

 **********************************************************************

            Population analysis using the SCF density.

 **********************************************************************

 Orbital symmetries:
       Occupied  (A) (A) (A) (A) (A) (A) (A) (A) (A) (A) (A) (A)
                 (A) (A) (A) (A) (A) (A) (A) (A) (A) (A) (A) (A)
                 (A) (A) (A) (A) (A) (A) (A) (A) (A) (A) (A) (A)
                 (A) (A) (A) (A) (A) (A) (A) (A) (A) (A) (A) (A)
                 (A) (A) (A) (A) (A) (A) (A) (A) (A) (A) (A) (A)
                 (A) (A) (A) (A) (A) (A) (A) (A) (A) (A) (A) (A)
                 (A) (A) (A) (A) (A) (A) (A) (A) (A) (A) (A) (A)
                 (A) (A) (A) (A) (A) (A) (A) (A) (A) (A) (A) (A)
                 (A) (A) (A) (A) (A) (A) (A) (A) (A) (A) (A) (A)
                 (A) (A) (A) (A) (A) (A) (A) (A) (A) (A) (A) (A)
                 (A) (A) (A) (A) (A) (A) (A) (A) (A) (A) (A) (A)
                 (A) (A) (A) (A) (A) (A) (A) (A) (A) (A) (A) (A)
                 (A) (A) (A) (A) (A) (A) (A) (A) (A) (A) (A) (A)
                 (A) (A) (A) (A) (A) (A) (A) (A) (A) (A) (A) (A)
                 (A) (A) (A) (A) (A) (A) (A) (A) (A) (A) (A) (A)
                 (A) (A) (A) (A) (A) (A) (A) (A) (A) (A) (A) (A)
                 (A) (A) (A) (A) (A) (A) (A) (A) (A) (A) (A) (A)
                 (A) (A) (A) (A) (A) (A) (A) (A) (A) (A) (A) (A)
                 (A) (A) (A) (A) (A) (A) (A) (A) (A) (A) (A) (A)
                 (A) (A) (A) (A) (A) (A) (A) (A) (A) (A) (A) (A)
                 (A)
       Virtual   (A) (A) (A) (A) (A) (A) (A) (A) (A) (A) (A) (A)
                 (A) (A) (A) (A) (A) (A) (A) (A) (A) (A) (A) (A)
                 (A) (A) (A) (A) (A) (A) (A) (A) (A) (A) (A) (A)
                 (A) (A) (A) (A) (A) (A) (A) (A) (A) (A) (A) (A)
                 (A) (A) (A) (A) (A) (A) (A) (A) (A) (A) (A) (A)
                 (A) (A) (A) (A) (A) (A) (A) (A) (A) (A) (A) (A)
                 (A) (A) (A) (A) (A) (A) (A) (A) (A) (A) (A) (A)
                 (A) (A) (A) (A) (A) (A) (A) (A) (A) (A) (A) (A)
                 (A) (A) (A) (A) (A) (A) (A) (A) (A) (A) (A) (A)
                 (A) (A) (A) (A) (A) (A) (A) (A) (A) (A) (A) (A)
                 (A) (A) (A) (A) (A) (A) (A) (A) (A) (A) (A) (A)
                 (A) (A) (A) (A) (A) (A) (A) (A) (A) (A) (A) (A)
                 (A) (A) (A) (A) (A) (A) (A) (A) (A) (A) (A) (A)
                 (A) (A) (A) (A) (A) (A) (A) (A) (A) (A) (A) (A)
                 (A) (A) (A) (A) (A) (A) (A) (A) (A) (A) (A) (A)
                 (A) (A) (A) (A) (A) (A) (A) (A) (A) (A) (A) (A)
                 (A) (A) (A) (A) (A) (A) (A) (A) (A) (A) (A) (A)
                 (A) (A) (A) (A) (A) (A) (A) (A) (A) (A) (A) (A)
                 (A) (A) (A) (A) (A) (A) (A) (A) (A) (A) (A) (A)
                 (A) (A) (A) (A) (A) (A) (A) (A) (A) (A) (A) (A)
                 (A) (A) (A) (A) (A) (A) (A) (A) (A) (A) (A) (A)
                 (A) (A) (A) (A) (A) (A) (A) (A) (A) (A) (A) (A)
                 (A) (A) (A) (A) (A) (A) (A) (A) (A) (A) (A) (A)
                 (A) (A) (A) (A) (A) (A) (A) (A) (A) (A) (A) (A)
                 (A) (A) (A) (A) (A) (A) (A) (A) (A) (A) (A) (A)
                 (A) (A) (A) (A) (A) (A) (A) (A) (A) (A) (A) (A)
                 (A) (A) (A) (A) (A) (A) (A) (A) (A) (A) (A) (A)
                 (A) (A) (A) (A) (A) (A) (A) (A) (A) (A) (A) (A)
                 (A) (A) (A) (A) (A) (A) (A) (A) (A) (A) (A) (A)
                 (A) (A) (A) (A) (A) (A) (A) (A) (A) (A) (A) (A)
                 (A) (A) (A) (A) (A) (A) (A) (A) (A) (A) (A) (A)
                 (A) (A) (A) (A) (A) (A) (A) (A) (A) (A) (A) (A)
                 (A) (A) (A) (A) (A) (A) (A) (A) (A) (A) (A) (A)
                 (A) (A) (A) (A) (A) (A) (A) (A) (A) (A) (A) (A)
                 (A) (A) (A) (A) (A) (A) (A) (A) (A) (A) (A) (A)
                 (A) (A) (A) (A) (A) (A) (A) (A) (A) (A) (A) (A)
                 (A) (A) (A) (A) (A) (A) (A) (A) (A) (A) (A) (A)
                 (A) (A) (A) (A) (A) (A) (A) (A) (A) (A) (A) (A)
                 (A) (A) (A) (A) (A) (A) (A) (A) (A) (A) (A) (A)
                 (A) (A) (A) (A) (A) (A) (A) (A) (A) (A) (A) (A)
                 (A) (A) (A) (A) (A) (A) (A) (A) (A) (A) (A) (A)
                 (A) (A) (A) (A) (A) (A) (A) (A) (A) (A) (A) (A)
                 (A) (A) (A) (A) (A) (A) (A) (A) (A) (A) (A) (A)
                 (A) (A) (A) (A) (A) (A) (A) (A) (A) (A) (A) (A)
                 (A) (A) (A) (A) (A) (A) (A) (A) (A) (A) (A) (A)
                 (A) (A) (A) (A) (A) (A) (A) (A) (A) (A) (A) (A)
                 (A) (A) (A) (A) (A) (A) (A) (A) (A) (A) (A) (A)
                 (A) (A) (A) (A) (A) (A) (A) (A) (A) (A) (A) (A)
                 (A) (A) (A) (A) (A) (A) (A) (A) (A) (A) (A) (A)
                 (A) (A) (A) (A) (A) (A) (A) (A) (A) (A) (A) (A)
                 (A) (A) (A) (A) (A) (A) (A) (A) (A) (A) (A) (A)
                 (A) (A) (A) (A) (A) (A) (A) (A) (A) (A) (A) (A)
                 (A) (A) (A) (A) (A) (A) (A) (A) (A) (A) (A) (A)
                 (A) (A) (A) (A) (A) (A) (A) (A) (A) (A) (A) (A)
                 (A) (A) (A) (A) (A) (A) (A) (A) (A) (A) (A) (A)
                 (A) (A) (A) (A) (A) (A) (A) (A) (A) (A) (A) (A)
                 (A) (A) (A) (A) (A) (A) (A) (A) (A) (A) (A) (A)
                 (A) (A) (A) (A) (A) (A) (A) (A) (A) (A) (A) (A)
                 (A) (A) (A) (A) (A) (A) (A) (A) (A) (A) (A) (A)
                 (A) (A) (A) (A) (A) (A) (A) (A) (A) (A) (A) (A)
                 (A) (A) (A) (A) (A) (A) (A) (A) (A) (A) (A) (A)
                 (A) (A) (A) (A) (A) (A) (A) (A) (A) (A) (A) (A)
                 (A) (A) (A) (A) (A) (A) (A) (A) (A) (A) (A) (A)
                 (A) (A) (A) (A) (A) (A) (A) (A) (A) (A) (A) (A)
                 (A) (A) (A) (A) (A) (A) (A) (A) (A) (A) (A) (A)
                 (A) (A) (A) (A) (A) (A) (A) (A) (A) (A) (A) (A)
                 (A) (A) (A) (A) (A) (A) (A) (A) (A) (A) (A) (A)
                 (A) (A) (A) (A) (A) (A) (A) (A) (A) (A) (A) (A)
                 (A) (A) (A) (A) (A) (A) (A) (A) (A) (A) (A) (A)
                 (A) (A) (A) (A) (A) (A) (A) (A) (A) (A) (A) (A)
                 (A) (A) (A) (A) (A) (A) (A) (A) (A) (A) (A) (A)
                 (A) (A) (A) (A) (A) (A) (A) (A) (A) (A) (A) (A)
                 (A) (A) (A) (A) (A) (A) (A) (A) (A) (A) (A) (A)
                 (A) (A) (A) (A) (A) (A) (A) (A) (A) (A) (A) (A)
                 (A) (A) (A) (A) (A) (A) (A) (A) (A) (A) (A) (A)
                 (A) (A) (A) (A) (A) (A) (A) (A) (A) (A) (A) (A)
                 (A) (A) (A) (A) (A) (A) (A) (A) (A) (A) (A) (A)
                 (A) (A) (A) (A) (A) (A) (A) (A) (A) (A) (A) (A)
                 (A) (A) (A) (A) (A) (A) (A) (A) (A) (A) (A) (A)
                 (A) (A) (A) (A) (A) (A) (A) (A) (A) (A) (A) (A)
                 (A) (A) (A) (A) (A) (A) (A) (A) (A) (A) (A) (A)
                 (A) (A) (A) (A) (A) (A) (A) (A) (A) (A) (A) (A)
                 (A) (A) (A) (A) (A) (A) (A) (A) (A) (A) (A) (A)
                 (A) (A) (A) (A) (A) (A) (A) (A) (A) (A) (A) (A)
                 (A) (A) (A) (A) (A) (A) (A) (A) (A) (A) (A) (A)
                 (A) (A) (A) (A) (A) (A) (A) (A) (A) (A) (A) (A)
                 (A) (A) (A) (A) (A) (A) (A) (A) (A) (A) (A) (A)
                 (A) (A) (A) (A) (A) (A) (A) (A) (A) (A) (A) (A)
                 (A) (A) (A) (A) (A) (A) (A) (A) (A) (A) (A) (A)
                 (A) (A) (A) (A) (A) (A) (A) (A) (A) (A) (A) (A)
                 (A) (A) (A) (A) (A) (A) (A) (A) (A) (A) (A) (A)
                 (A) (A) (A) (A) (A) (A)
 The electronic state is 1-A.
 Alpha  occ. eigenvalues --  -46.84351 -19.26694 -19.26531 -19.20140 -19.19932
 Alpha  occ. eigenvalues --  -19.18629 -14.41224 -14.40067 -14.39631 -14.39287
 Alpha  occ. eigenvalues --  -10.39460 -10.38197 -10.33171 -10.32047 -10.30607
 Alpha  occ. eigenvalues --  -10.30496 -10.30063 -10.29837 -10.29835 -10.29523
 Alpha  occ. eigenvalues --  -10.29516 -10.29343 -10.29266 -10.29202 -10.28912
 Alpha  occ. eigenvalues --  -10.28815 -10.28314 -10.27918 -10.27887 -10.27883
 Alpha  occ. eigenvalues --  -10.27739 -10.27602 -10.27509 -10.27436 -10.27373
 Alpha  occ. eigenvalues --  -10.27258 -10.27198 -10.27196 -10.27115 -10.26935
 Alpha  occ. eigenvalues --  -10.26838 -10.26831 -10.26604 -10.26389 -10.26311
 Alpha  occ. eigenvalues --  -10.26234 -10.26192 -10.26172 -10.26015 -10.25881
 Alpha  occ. eigenvalues --  -10.25575 -10.25450 -10.25402 -10.25351 -10.25189
 Alpha  occ. eigenvalues --  -10.25063 -10.25000 -10.24970 -10.24496 -10.24198
 Alpha  occ. eigenvalues --  -10.23070 -10.23018 -10.22924 -10.22547 -10.22040
 Alpha  occ. eigenvalues --   -3.13415  -1.88119  -1.87644  -1.87613  -1.20402
 Alpha  occ. eigenvalues --   -1.17514  -1.10662  -1.09369  -1.05218  -1.05117
 Alpha  occ. eigenvalues --   -1.03848  -1.03074  -1.01978  -0.91811  -0.91596
 Alpha  occ. eigenvalues --   -0.90958  -0.90134  -0.89921  -0.89371  -0.88823
 Alpha  occ. eigenvalues --   -0.88520  -0.88094  -0.87201  -0.86705  -0.86467
 Alpha  occ. eigenvalues --   -0.85324  -0.84364  -0.83881  -0.83332  -0.83042
 Alpha  occ. eigenvalues --   -0.82096  -0.81704  -0.81376  -0.80559  -0.78462
 Alpha  occ. eigenvalues --   -0.77862  -0.76924  -0.76704  -0.76388  -0.75825
 Alpha  occ. eigenvalues --   -0.75691  -0.75349  -0.75084  -0.73292  -0.72787
 Alpha  occ. eigenvalues --   -0.70973  -0.70409  -0.69625  -0.69007  -0.68599
 Alpha  occ. eigenvalues --   -0.67661  -0.67369  -0.65368  -0.64994  -0.64120
 Alpha  occ. eigenvalues --   -0.63961  -0.63432  -0.63055  -0.62978  -0.61998
 Alpha  occ. eigenvalues --   -0.61987  -0.60963  -0.60743  -0.60490  -0.59518
 Alpha  occ. eigenvalues --   -0.58615  -0.58473  -0.58022  -0.57657  -0.56640
 Alpha  occ. eigenvalues --   -0.56635  -0.55948  -0.55495  -0.55121  -0.54602
 Alpha  occ. eigenvalues --   -0.54486  -0.54098  -0.53725  -0.53446  -0.52993
 Alpha  occ. eigenvalues --   -0.52870  -0.52729  -0.52703  -0.51940  -0.51846
 Alpha  occ. eigenvalues --   -0.51747  -0.51461  -0.51277  -0.50949  -0.50661
 Alpha  occ. eigenvalues --   -0.50592  -0.50510  -0.50320  -0.49739  -0.49543
 Alpha  occ. eigenvalues --   -0.49465  -0.49001  -0.48890  -0.48854  -0.48625
 Alpha  occ. eigenvalues --   -0.48274  -0.48162  -0.48038  -0.47794  -0.47336
 Alpha  occ. eigenvalues --   -0.46991  -0.46916  -0.46253  -0.45994  -0.45771
 Alpha  occ. eigenvalues --   -0.45679  -0.45575  -0.45457  -0.45290  -0.45000
 Alpha  occ. eigenvalues --   -0.44643  -0.44507  -0.44357  -0.43945  -0.43756
 Alpha  occ. eigenvalues --   -0.43493  -0.43355  -0.43043  -0.42894  -0.42761
 Alpha  occ. eigenvalues --   -0.42667  -0.42503  -0.42401  -0.42173  -0.42139
 Alpha  occ. eigenvalues --   -0.41940  -0.41821  -0.41727  -0.41601  -0.41263
 Alpha  occ. eigenvalues --   -0.41010  -0.40858  -0.40685  -0.40509  -0.40428
 Alpha  occ. eigenvalues --   -0.40372  -0.39966  -0.39681  -0.39366  -0.39149
 Alpha  occ. eigenvalues --   -0.39009  -0.38706  -0.38434  -0.38003  -0.37916
 Alpha  occ. eigenvalues --   -0.37757  -0.37737  -0.37515  -0.37030  -0.36762
 Alpha  occ. eigenvalues --   -0.36683  -0.36104  -0.35998  -0.35817  -0.35681
 Alpha  occ. eigenvalues --   -0.35476  -0.34742  -0.34649  -0.33925  -0.32678
 Alpha  occ. eigenvalues --   -0.32273  -0.31831  -0.31747  -0.30933  -0.29873
 Alpha  occ. eigenvalues --   -0.29597  -0.29342  -0.28711  -0.27589  -0.22853
 Alpha  occ. eigenvalues --   -0.21703
 Alpha virt. eigenvalues --   -0.07006  -0.02481   0.01489   0.04640   0.04750
 Alpha virt. eigenvalues --    0.05189   0.06114   0.06597   0.06734   0.07521
 Alpha virt. eigenvalues --    0.08575   0.09897   0.11256   0.11513   0.11828
 Alpha virt. eigenvalues --    0.11909   0.12390   0.12743   0.12855   0.13164
 Alpha virt. eigenvalues --    0.13289   0.13478   0.13876   0.13898   0.14269
 Alpha virt. eigenvalues --    0.14589   0.14914   0.15099   0.15390   0.15670
 Alpha virt. eigenvalues --    0.15919   0.16288   0.16467   0.16525   0.16783
 Alpha virt. eigenvalues --    0.16965   0.17005   0.17194   0.17568   0.17831
 Alpha virt. eigenvalues --    0.17905   0.18207   0.18564   0.18809   0.18934
 Alpha virt. eigenvalues --    0.19201   0.19301   0.19432   0.19462   0.19680
 Alpha virt. eigenvalues --    0.19814   0.19844   0.20125   0.20320   0.20553
 Alpha virt. eigenvalues --    0.20842   0.21048   0.21078   0.21234   0.21277
 Alpha virt. eigenvalues --    0.21525   0.21695   0.21863   0.22198   0.22374
 Alpha virt. eigenvalues --    0.22577   0.22672   0.22756   0.22914   0.23194
 Alpha virt. eigenvalues --    0.23203   0.23346   0.23601   0.23657   0.23748
 Alpha virt. eigenvalues --    0.23952   0.24194   0.24293   0.24476   0.24595
 Alpha virt. eigenvalues --    0.24872   0.25122   0.25134   0.25322   0.25509
 Alpha virt. eigenvalues --    0.25631   0.25820   0.25950   0.26084   0.26121
 Alpha virt. eigenvalues --    0.26637   0.26878   0.27122   0.27220   0.27572
 Alpha virt. eigenvalues --    0.27659   0.27841   0.28038   0.28197   0.28550
 Alpha virt. eigenvalues --    0.28697   0.28830   0.29112   0.29459   0.29710
 Alpha virt. eigenvalues --    0.29931   0.30247   0.30324   0.30690   0.31413
 Alpha virt. eigenvalues --    0.31564   0.31809   0.31840   0.32133   0.32276
 Alpha virt. eigenvalues --    0.32952   0.33043   0.33179   0.33319   0.33871
 Alpha virt. eigenvalues --    0.34012   0.34316   0.34537   0.35022   0.35343
 Alpha virt. eigenvalues --    0.35379   0.35670   0.35737   0.36173   0.36413
 Alpha virt. eigenvalues --    0.36588   0.36893   0.37311   0.37337   0.37997
 Alpha virt. eigenvalues --    0.38499   0.38999   0.39671   0.40331   0.40632
 Alpha virt. eigenvalues --    0.41267   0.41808   0.42178   0.42307   0.42408
 Alpha virt. eigenvalues --    0.42923   0.43570   0.44668   0.46028   0.46208
 Alpha virt. eigenvalues --    0.46616   0.46801   0.47753   0.48276   0.49033
 Alpha virt. eigenvalues --    0.50160   0.50520   0.50652   0.51742   0.52152
 Alpha virt. eigenvalues --    0.52792   0.52959   0.53798   0.53936   0.54693
 Alpha virt. eigenvalues --    0.54725   0.55331   0.55631   0.55705   0.55956
 Alpha virt. eigenvalues --    0.56112   0.56379   0.56482   0.56649   0.57228
 Alpha virt. eigenvalues --    0.57261   0.57384   0.57801   0.57909   0.58000
 Alpha virt. eigenvalues --    0.58205   0.58358   0.58611   0.58848   0.59014
 Alpha virt. eigenvalues --    0.59175   0.59418   0.59566   0.59755   0.59946
 Alpha virt. eigenvalues --    0.60346   0.60494   0.60578   0.61254   0.61480
 Alpha virt. eigenvalues --    0.61546   0.61568   0.61767   0.61804   0.62326
 Alpha virt. eigenvalues --    0.62647   0.62732   0.63268   0.63286   0.63519
 Alpha virt. eigenvalues --    0.64313   0.64620   0.64930   0.65020   0.65514
 Alpha virt. eigenvalues --    0.65533   0.65819   0.65894   0.66400   0.66528
 Alpha virt. eigenvalues --    0.66803   0.67035   0.67331   0.67648   0.67884
 Alpha virt. eigenvalues --    0.67932   0.68291   0.68604   0.68624   0.69243
 Alpha virt. eigenvalues --    0.69340   0.69552   0.69741   0.70090   0.70544
 Alpha virt. eigenvalues --    0.71061   0.71162   0.71383   0.72008   0.72066
 Alpha virt. eigenvalues --    0.72304   0.72616   0.72871   0.73311   0.73592
 Alpha virt. eigenvalues --    0.73731   0.73884   0.73929   0.74294   0.74395
 Alpha virt. eigenvalues --    0.74478   0.74994   0.75061   0.75335   0.75731
 Alpha virt. eigenvalues --    0.75955   0.76340   0.76674   0.76916   0.77151
 Alpha virt. eigenvalues --    0.77411   0.77858   0.77878   0.78367   0.78803
 Alpha virt. eigenvalues --    0.78956   0.79133   0.79276   0.79384   0.79586
 Alpha virt. eigenvalues --    0.79718   0.80039   0.80203   0.80524   0.80946
 Alpha virt. eigenvalues --    0.80959   0.81231   0.81603   0.81720   0.82185
 Alpha virt. eigenvalues --    0.82356   0.82463   0.82951   0.83082   0.83205
 Alpha virt. eigenvalues --    0.83348   0.84053   0.84178   0.84436   0.84572
 Alpha virt. eigenvalues --    0.84716   0.84927   0.85165   0.85390   0.85629
 Alpha virt. eigenvalues --    0.85748   0.85928   0.85978   0.86283   0.86657
 Alpha virt. eigenvalues --    0.86754   0.86986   0.87242   0.87913   0.88033
 Alpha virt. eigenvalues --    0.88276   0.88287   0.88452   0.88620   0.88879
 Alpha virt. eigenvalues --    0.89347   0.89692   0.89807   0.89944   0.90196
 Alpha virt. eigenvalues --    0.90317   0.90534   0.90676   0.90852   0.91201
 Alpha virt. eigenvalues --    0.91454   0.91580   0.91662   0.91869   0.92140
 Alpha virt. eigenvalues --    0.92295   0.92357   0.92420   0.92717   0.93162
 Alpha virt. eigenvalues --    0.93349   0.93675   0.93877   0.94012   0.94075
 Alpha virt. eigenvalues --    0.94255   0.94301   0.94400   0.94734   0.95055
 Alpha virt. eigenvalues --    0.95570   0.95778   0.96215   0.96412   0.96589
 Alpha virt. eigenvalues --    0.96791   0.96827   0.97109   0.97390   0.97709
 Alpha virt. eigenvalues --    0.97827   0.97961   0.98029   0.98284   0.98308
 Alpha virt. eigenvalues --    0.98616   0.98949   0.99074   0.99301   0.99547
 Alpha virt. eigenvalues --    0.99795   1.00020   1.00114   1.00770   1.01110
 Alpha virt. eigenvalues --    1.01314   1.01399   1.01741   1.01835   1.02045
 Alpha virt. eigenvalues --    1.02344   1.02589   1.02727   1.02843   1.02957
 Alpha virt. eigenvalues --    1.03159   1.03407   1.03754   1.03935   1.04068
 Alpha virt. eigenvalues --    1.04410   1.04647   1.04918   1.04951   1.05244
 Alpha virt. eigenvalues --    1.05364   1.05428   1.05556   1.05746   1.06171
 Alpha virt. eigenvalues --    1.06387   1.06988   1.07024   1.07384   1.08081
 Alpha virt. eigenvalues --    1.08262   1.08357   1.09039   1.09178   1.09867
 Alpha virt. eigenvalues --    1.10044   1.10098   1.11070   1.11648   1.11927
 Alpha virt. eigenvalues --    1.12409   1.12775   1.12952   1.13027   1.13897
 Alpha virt. eigenvalues --    1.14425   1.14880   1.15252   1.15705   1.16349
 Alpha virt. eigenvalues --    1.16907   1.17148   1.17295   1.17737   1.18349
 Alpha virt. eigenvalues --    1.18883   1.19301   1.19878   1.20304   1.20668
 Alpha virt. eigenvalues --    1.21265   1.21868   1.22067   1.22261   1.23084
 Alpha virt. eigenvalues --    1.23312   1.24302   1.24656   1.25198   1.25482
 Alpha virt. eigenvalues --    1.26513   1.26721   1.27310   1.28791   1.28867
 Alpha virt. eigenvalues --    1.29318   1.29445   1.30246   1.30534   1.31035
 Alpha virt. eigenvalues --    1.31360   1.31572   1.32522   1.32640   1.33101
 Alpha virt. eigenvalues --    1.33582   1.33854   1.34539   1.34854   1.35763
 Alpha virt. eigenvalues --    1.35903   1.36527   1.36713   1.37598   1.37830
 Alpha virt. eigenvalues --    1.38323   1.38492   1.38656   1.39569   1.39968
 Alpha virt. eigenvalues --    1.40120   1.40204   1.41029   1.41291   1.41849
 Alpha virt. eigenvalues --    1.42352   1.43141   1.43290   1.43696   1.44194
 Alpha virt. eigenvalues --    1.44489   1.44785   1.44986   1.45961   1.46537
 Alpha virt. eigenvalues --    1.47286   1.48106   1.48212   1.49483   1.50128
 Alpha virt. eigenvalues --    1.50451   1.50842   1.51069   1.51638   1.52120
 Alpha virt. eigenvalues --    1.52679   1.52804   1.53732   1.54104   1.54113
 Alpha virt. eigenvalues --    1.55364   1.55461   1.55752   1.56529   1.57043
 Alpha virt. eigenvalues --    1.57107   1.57392   1.57855   1.58553   1.58815
 Alpha virt. eigenvalues --    1.59670   1.59807   1.60174   1.60258   1.60883
 Alpha virt. eigenvalues --    1.61467   1.61976   1.62334   1.62395   1.63021
 Alpha virt. eigenvalues --    1.63730   1.64246   1.64754   1.64925   1.65153
 Alpha virt. eigenvalues --    1.65373   1.66413   1.66424   1.67091   1.67315
 Alpha virt. eigenvalues --    1.67737   1.68409   1.68566   1.69310   1.69434
 Alpha virt. eigenvalues --    1.69718   1.70223   1.70651   1.71517   1.71660
 Alpha virt. eigenvalues --    1.71840   1.72454   1.73658   1.74241   1.74788
 Alpha virt. eigenvalues --    1.75046   1.75287   1.75534   1.75804   1.76155
 Alpha virt. eigenvalues --    1.76311   1.76764   1.77367   1.77635   1.78065
 Alpha virt. eigenvalues --    1.78426   1.78547   1.79282   1.79683   1.80170
 Alpha virt. eigenvalues --    1.80260   1.80546   1.80669   1.81765   1.81937
 Alpha virt. eigenvalues --    1.82181   1.82477   1.82902   1.83031   1.83455
 Alpha virt. eigenvalues --    1.84033   1.84249   1.84388   1.84977   1.85070
 Alpha virt. eigenvalues --    1.85721   1.86137   1.86512   1.86635   1.86888
 Alpha virt. eigenvalues --    1.87140   1.87608   1.87798   1.87820   1.88323
 Alpha virt. eigenvalues --    1.88426   1.89032   1.89589   1.89752   1.89861
 Alpha virt. eigenvalues --    1.89875   1.90432   1.90946   1.91276   1.91398
 Alpha virt. eigenvalues --    1.91692   1.91811   1.92198   1.92250   1.92311
 Alpha virt. eigenvalues --    1.92756   1.93130   1.93301   1.93520   1.93867
 Alpha virt. eigenvalues --    1.94068   1.94320   1.94448   1.94844   1.95407
 Alpha virt. eigenvalues --    1.95426   1.95643   1.96016   1.96364   1.96449
 Alpha virt. eigenvalues --    1.96740   1.96855   1.97087   1.97325   1.97580
 Alpha virt. eigenvalues --    1.97764   1.98157   1.98243   1.98546   1.98756
 Alpha virt. eigenvalues --    1.99270   1.99838   1.99943   1.99977   2.00243
 Alpha virt. eigenvalues --    2.00871   2.00908   2.01608   2.02114   2.02225
 Alpha virt. eigenvalues --    2.02367   2.03445   2.03493   2.03570   2.03729
 Alpha virt. eigenvalues --    2.03986   2.04106   2.04485   2.04839   2.04874
 Alpha virt. eigenvalues --    2.05187   2.05624   2.05709   2.06005   2.06435
 Alpha virt. eigenvalues --    2.06567   2.06773   2.07133   2.07519   2.07562
 Alpha virt. eigenvalues --    2.08010   2.08107   2.08860   2.08912   2.09170
 Alpha virt. eigenvalues --    2.09694   2.10292   2.10628   2.10821   2.11302
 Alpha virt. eigenvalues --    2.11350   2.11749   2.11969   2.12118   2.12354
 Alpha virt. eigenvalues --    2.12429   2.13151   2.13657   2.13931   2.14358
 Alpha virt. eigenvalues --    2.14452   2.14548   2.15202   2.15618   2.16063
 Alpha virt. eigenvalues --    2.16212   2.16853   2.17223   2.17469   2.17676
 Alpha virt. eigenvalues --    2.18208   2.18343   2.18597   2.18955   2.19190
 Alpha virt. eigenvalues --    2.19365   2.19463   2.19535   2.20026   2.20303
 Alpha virt. eigenvalues --    2.20683   2.20955   2.21461   2.21931   2.22100
 Alpha virt. eigenvalues --    2.22288   2.22670   2.23047   2.23337   2.23599
 Alpha virt. eigenvalues --    2.24051   2.24865   2.25083   2.25265   2.25699
 Alpha virt. eigenvalues --    2.26319   2.26687   2.27195   2.27382   2.27641
 Alpha virt. eigenvalues --    2.27676   2.27841   2.28039   2.28970   2.29388
 Alpha virt. eigenvalues --    2.29506   2.29793   2.30062   2.30622   2.30728
 Alpha virt. eigenvalues --    2.30878   2.31766   2.31966   2.32322   2.32577
 Alpha virt. eigenvalues --    2.33467   2.33690   2.33727   2.34077   2.34188
 Alpha virt. eigenvalues --    2.34235   2.34304   2.34678   2.34918   2.35236
 Alpha virt. eigenvalues --    2.35592   2.35875   2.36021   2.36530   2.36838
 Alpha virt. eigenvalues --    2.37124   2.37413   2.37768   2.38019   2.38770
 Alpha virt. eigenvalues --    2.39304   2.39727   2.40059   2.40338   2.40506
 Alpha virt. eigenvalues --    2.40557   2.40786   2.41158   2.41714   2.42049
 Alpha virt. eigenvalues --    2.42130   2.42360   2.42510   2.42843   2.42970
 Alpha virt. eigenvalues --    2.43061   2.43277   2.43679   2.44198   2.44504
 Alpha virt. eigenvalues --    2.44774   2.45451   2.45799   2.46088   2.46399
 Alpha virt. eigenvalues --    2.46633   2.47039   2.47236   2.48047   2.48201
 Alpha virt. eigenvalues --    2.48476   2.48708   2.48924   2.49072   2.49200
 Alpha virt. eigenvalues --    2.49521   2.49771   2.49980   2.50177   2.50605
 Alpha virt. eigenvalues --    2.50806   2.51020   2.51393   2.52045   2.52437
 Alpha virt. eigenvalues --    2.52860   2.53130   2.53356   2.53768   2.53856
 Alpha virt. eigenvalues --    2.54533   2.54830   2.54946   2.55936   2.56035
 Alpha virt. eigenvalues --    2.56252   2.56552   2.57144   2.57425   2.57764
 Alpha virt. eigenvalues --    2.58379   2.58719   2.59419   2.59541   2.59662
 Alpha virt. eigenvalues --    2.60298   2.60378   2.60981   2.61399   2.61855
 Alpha virt. eigenvalues --    2.62163   2.62563   2.63094   2.63648   2.63884
 Alpha virt. eigenvalues --    2.64199   2.64755   2.64940   2.65188   2.65507
 Alpha virt. eigenvalues --    2.66023   2.66298   2.66499   2.66798   2.67279
 Alpha virt. eigenvalues --    2.67448   2.67961   2.68320   2.68780   2.69405
 Alpha virt. eigenvalues --    2.69537   2.69800   2.70239   2.70648   2.70835
 Alpha virt. eigenvalues --    2.70976   2.71278   2.71645   2.72082   2.72660
 Alpha virt. eigenvalues --    2.72829   2.73419   2.73640   2.73806   2.74039
 Alpha virt. eigenvalues --    2.74208   2.74576   2.74663   2.74916   2.75381
 Alpha virt. eigenvalues --    2.75635   2.75918   2.76215   2.77235   2.77692
 Alpha virt. eigenvalues --    2.77731   2.78122   2.78443   2.78473   2.78748
 Alpha virt. eigenvalues --    2.78884   2.78937   2.79412   2.79979   2.80522
 Alpha virt. eigenvalues --    2.81220   2.81785   2.82000   2.82619   2.82987
 Alpha virt. eigenvalues --    2.83351   2.83892   2.84009   2.84330   2.84419
 Alpha virt. eigenvalues --    2.84918   2.85215   2.85893   2.85975   2.86376
 Alpha virt. eigenvalues --    2.87076   2.87100   2.87300   2.88148   2.88244
 Alpha virt. eigenvalues --    2.88330   2.88710   2.88836   2.89229   2.90034
 Alpha virt. eigenvalues --    2.90240   2.90696   2.91110   2.91526   2.92213
 Alpha virt. eigenvalues --    2.92457   2.92899   2.93018   2.93569   2.93737
 Alpha virt. eigenvalues --    2.94299   2.94732   2.94889   2.95190   2.95452
 Alpha virt. eigenvalues --    2.95872   2.96058   2.96541   2.96827   2.96980
 Alpha virt. eigenvalues --    2.97234   2.98462   2.98585   2.99007   2.99359
 Alpha virt. eigenvalues --    2.99742   3.01208   3.01521   3.02110   3.02536
 Alpha virt. eigenvalues --    3.02614   3.02994   3.03330   3.03921   3.04574
 Alpha virt. eigenvalues --    3.05080   3.05279   3.05394   3.05922   3.06182
 Alpha virt. eigenvalues --    3.07028   3.07358   3.08142   3.08774   3.09024
 Alpha virt. eigenvalues --    3.09779   3.09940   3.10009   3.10493   3.10867
 Alpha virt. eigenvalues --    3.11137   3.11819   3.11925   3.12902   3.13847
 Alpha virt. eigenvalues --    3.14596   3.15466   3.15681   3.16319   3.16815
 Alpha virt. eigenvalues --    3.17030   3.17442   3.19353   3.19790   3.20424
 Alpha virt. eigenvalues --    3.21470   3.21667   3.21888   3.21897   3.23566
 Alpha virt. eigenvalues --    3.23984   3.24142   3.26347   3.27499   3.28236
 Alpha virt. eigenvalues --    3.28654   3.29254   3.29907   3.30066   3.30475
 Alpha virt. eigenvalues --    3.30583   3.31740   3.32239   3.32704   3.32955
 Alpha virt. eigenvalues --    3.33281   3.33795   3.35115   3.36746   3.36888
 Alpha virt. eigenvalues --    3.37921   3.38038   3.38589   3.41907   3.42559
 Alpha virt. eigenvalues --    3.42958   3.43682   3.44130   3.44269   3.44452
 Alpha virt. eigenvalues --    3.44907   3.45536   3.46756   3.46885   3.47031
 Alpha virt. eigenvalues --    3.49367   3.50667   3.50991   3.51138   3.51686
 Alpha virt. eigenvalues --    3.51778   3.53048   3.53869   3.54204   3.55119
 Alpha virt. eigenvalues --    3.55208   3.55771   3.55840   3.58504   3.58678
 Alpha virt. eigenvalues --    3.59611   3.60264   3.60407   3.61015   3.61910
 Alpha virt. eigenvalues --    3.62019   3.62452   3.63913   3.65463   3.66031
 Alpha virt. eigenvalues --    3.66723   3.67116   3.67663   3.67744   3.69109
 Alpha virt. eigenvalues --    3.70864   3.72407   3.74189   3.74969   3.79821
 Alpha virt. eigenvalues --    3.85229   3.89212   3.94845   3.96483   4.04967
 Alpha virt. eigenvalues --    4.11347   4.16342   4.18580   4.22238   4.22373
 Alpha virt. eigenvalues --    4.22857   4.24692   4.25701   4.27156   4.28701
 Alpha virt. eigenvalues --    4.29784   4.30377   4.32140   4.33141   4.34323
 Alpha virt. eigenvalues --    4.34432   4.36108   4.37215   4.38202   4.39857
 Alpha virt. eigenvalues --    4.40110   4.43048   4.44128   4.44916   4.45152
 Alpha virt. eigenvalues --    4.46252   4.48306   4.49320   4.49589   4.51558
 Alpha virt. eigenvalues --    4.52781   4.54052   4.55058   4.55748   4.57032
 Alpha virt. eigenvalues --    4.57682   4.57981   4.59157   4.60814   4.61363
 Alpha virt. eigenvalues --    4.62787   4.62906   4.63255   4.65612   4.68221
 Alpha virt. eigenvalues --    4.68956   4.69523   4.71881   4.72518   4.73647
 Alpha virt. eigenvalues --    4.75169   4.75342   4.75829   4.80285   4.80671
 Alpha virt. eigenvalues --    4.84272   4.85160   4.86962   4.88881   4.89653
 Alpha virt. eigenvalues --    4.90798   4.94909   5.08204
          Condensed to atoms (all electrons):
 Mulliken charges:
               1
     1  Mg   0.818776
     2  C    0.041107
     3  C   -0.213479
     4  C   -0.168074
     5  C   -0.166931
     6  N   -0.659636
     7  C    0.284685
     8  C   -0.130453
     9  C   -0.139280
    10  C    0.371407
    11  C   -0.314480
    12  C   -0.168284
    13  C   -0.260460
    14  C    0.588865
    15  O   -0.486109
    16  O   -0.448036
    17  N   -0.720449
    18  C    0.396643
    19  C   -0.024802
    20  C    0.017624
    21  C    0.258866
    22  C   -0.372374
    23  C   -0.073302
    24  C   -0.220602
    25  N   -0.682089
    26  C    0.299728
    27  C    0.075275
    28  C   -0.000374
    29  C    0.299854
    30  C   -0.411981
    31  C   -0.229962
    32  C   -0.274652
    33  N   -0.699708
    34  C    0.253230
    35  C    0.021359
    36  C    0.104352
    37  C    0.248950
    38  C   -0.377229
    39  C    0.303036
    40  O   -0.467128
    41  C   -0.311147
    42  C    0.596444
    43  O   -0.510525
    44  O   -0.424067
    45  C   -0.083299
    46  C    0.010331
    47  C   -0.152636
    48  C    0.096836
    49  C   -0.341136
    50  C   -0.231196
    51  C   -0.174613
    52  C   -0.177559
    53  C   -0.057215
    54  C   -0.312832
    55  C   -0.157391
    56  C   -0.178043
    57  C   -0.169096
    58  C   -0.082068
    59  C   -0.309912
    60  C   -0.172007
    61  C   -0.175101
    62  C   -0.175770
    63  C   -0.053333
    64  C   -0.308047
    65  C   -0.300393
    66  H    0.077829
    67  H    0.089468
    68  H    0.088650
    69  H    0.108808
    70  H    0.103066
    71  H    0.112385
    72  H    0.103592
    73  H    0.127644
    74  H    0.105822
    75  H    0.116010
    76  H    0.126315
    77  H    0.127243
    78  H    0.137081
    79  H    0.125482
    80  H    0.100851
    81  H    0.093833
    82  H    0.101345
    83  H    0.098154
    84  H    0.111864
    85  H    0.120333
    86  H    0.099020
    87  H    0.104955
    88  H    0.118423
    89  H    0.107807
    90  H    0.105085
    91  H    0.085975
    92  H    0.139664
    93  H    0.119361
    94  H    0.132903
    95  H    0.152299
    96  H    0.113239
    97  H    0.136306
    98  H    0.127681
    99  H    0.144344
   100  H    0.127075
   101  H    0.086254
   102  H    0.115623
   103  H    0.133001
   104  H    0.132794
   105  H    0.092516
   106  H    0.114300
   107  H    0.080294
   108  H    0.079765
   109  H    0.078512
   110  H    0.098373
   111  H    0.072272
   112  H    0.102882
   113  H    0.107357
   114  H    0.100972
   115  H    0.075133
   116  H    0.099736
   117  H    0.100555
   118  H    0.072944
   119  H    0.095588
   120  H    0.077154
   121  H    0.068527
   122  H    0.109252
   123  H    0.107911
   124  H    0.094530
   125  H    0.076607
   126  H    0.092866
   127  H    0.089302
   128  H    0.096940
   129  H    0.095510
   130  H    0.096211
   131  H    0.088865
   132  H    0.071999
   133  H    0.095699
   134  H    0.107766
   135  H    0.103725
   136  H    0.099995
   137  H    0.078243
 Sum of Mulliken charges =   0.00000
 Mulliken charges with hydrogens summed into heavy atoms:
               1
     1  Mg   0.818776
     2  C    0.041107
     3  C   -0.135650
     4  C   -0.078606
     5  C   -0.078281
     6  N   -0.659636
     7  C    0.284685
     8  C   -0.021645
     9  C   -0.036214
    10  C    0.371407
    11  C    0.029141
    12  C    0.053549
    13  C   -0.006902
    14  C    0.588865
    15  O   -0.486109
    16  O   -0.448036
    17  N   -0.720449
    18  C    0.396643
    19  C   -0.024802
    20  C    0.017624
    21  C    0.258866
    22  C   -0.008959
    23  C    0.020531
    24  C   -0.021104
    25  N   -0.682089
    26  C    0.299728
    27  C    0.075275
    28  C   -0.000374
    29  C    0.299854
    30  C   -0.080764
    31  C   -0.006583
    32  C    0.024216
    33  N   -0.699708
    34  C    0.253230
    35  C    0.021359
    36  C    0.104352
    37  C    0.248950
    38  C    0.014699
    39  C    0.303036
    40  O   -0.467128
    41  C   -0.158848
    42  C    0.596444
    43  O   -0.510525
    44  O   -0.424067
    45  C    0.293927
    46  C    0.281751
    47  C   -0.066382
    48  C    0.096836
    49  C    0.040282
    50  C   -0.024380
    51  C   -0.014553
    52  C   -0.000674
    53  C    0.015057
    54  C   -0.001621
    55  C    0.017477
    56  C   -0.004543
    57  C    0.003646
    58  C   -0.013541
    59  C    0.001781
    60  C   -0.002534
    61  C    0.011140
    62  C    0.015952
    63  C    0.035532
    64  C   -0.032582
    65  C   -0.018429
 Electronic spatial extent (au):  <R**2>=         181589.0005
 Charge=              0.0000 electrons
 Dipole moment (field-independent basis, Debye):
    X=              2.2049    Y=              4.7971    Z=             -0.5791  Tot=              5.3112
 Quadrupole moment (field-independent basis, Debye-Ang):
   XX=           -314.9994   YY=           -395.1806   ZZ=           -403.2204
   XY=            -38.1653   XZ=             11.6196   YZ=             -1.7282
 Traceless Quadrupole moment (field-independent basis, Debye-Ang):
   XX=             56.1341   YY=            -24.0471   ZZ=            -32.0870
   XY=            -38.1653   XZ=             11.6196   YZ=             -1.7282
 Octapole moment (field-independent basis, Debye-Ang**2):
  XXX=           -760.0347  YYY=            144.6109  ZZZ=              4.4942  XYY=            -67.8011
  XXY=            -40.9438  XXZ=           -237.3195  XZZ=             76.9724  YZZ=            -29.8959
  YYZ=              9.4527  XYZ=            -27.7652
 Hexadecapole moment (field-independent basis, Debye-Ang**3):
 XXXX=        -214367.4213 YYYY=         -17572.2225 ZZZZ=          -4272.3672 XXXY=          -4262.4528
 XXXZ=           1315.3790 YYYX=          -1247.8125 YYYZ=           -257.1144 ZZZX=           -152.7836
 ZZZY=           -104.3532 XXYY=         -40501.8903 XXZZ=         -39460.1955 YYZZ=          -3604.4103
 XXYZ=           -134.2701 YYXZ=            200.2718 ZZXY=             -0.4810
 N-N= 8.728477491542D+03 E-N=-2.428078948211D+04  KE= 2.906717583635D+03
 1\1\GINC-PEDRO-RYZENSSD\SP\RCAM-B3LYP TD-FC\6-31G(d,p)\C55H72Mg1N4O5\P
 ADAWAN\27-Jun-2019\0\\# td=(NStates=1) CAM-B3LYP/6-31G(d,p)\\TD\\0,1\M
 g,0,-7.1792295923,0.6159898397,0.1492429729\C,0,-4.8482037015,-1.92092
 42037,0.5732729622\C,0,-4.9045997663,2.8159659239,1.2325967169\C,0,-9.
 4976443532,3.1164140408,-0.3102723602\C,0,-9.5594869763,-1.695489724,-
 0.7841365287\N,0,-5.2070934909,0.4037416347,0.682825803\C,0,-4.3191895
 243,-0.6925498754,0.799421845\C,0,-2.8772786891,-0.3270979819,1.142499
 6912\C,0,-3.0905093401,1.1088720197,1.5882216286\C,0,-4.5386519519,1.4
 931096914,1.1703832995\C,0,-2.9578335744,1.2708835757,3.1184653726\C,0
 ,-1.964100691,-0.5668806982,-0.0573564098\C,0,-0.4536536194,-0.4297712
 085,0.4950980927\C,0,0.5395333317,-0.5434477769,-0.6286845203\O,0,0.17
 31078605,-0.9855399578,-1.6999992802\O,0,1.734640489,-0.3962245293,-0.
 1780120213\N,0,-7.1257601845,2.6442758349,0.4304682036\C,0,-6.16246337
 73,3.3381847724,0.8703250165\C,0,-6.4806260523,4.7312037508,0.92138990
 35\C,0,-7.8332439198,4.8628161683,0.4575826653\C,0,-8.2122917824,3.515
 3518265,0.1175920984\C,0,-5.5305788391,5.8981809094,1.2500215274\C,0,-
 8.7160108135,6.0270777758,0.3999600179\C,0,-8.3644556434,7.2412202063,
 0.074603198\N,0,-9.1606911048,0.703976876,-0.5461763229\C,0,-9.9570573
 647,1.8071113937,-0.626997824\C,0,-11.2571204549,1.449705961,-1.107375
 4871\C,0,-11.3207805988,0.0918130586,-1.1585051167\C,0,-9.9656264463,-
 0.3814566338,-0.7943587388\C,0,-12.3787661187,2.3137636573,-1.53822435
 33\C,0,-12.5500550512,-0.7017512373,-1.6446796452\C,0,-12.440100342,-1
 .0004139266,-3.1524533507\N,0,-7.2626325154,-1.3715265143,-0.19461258\
 C,0,-8.2686820905,-2.2330692464,-0.532211027\C,0,-7.8306007276,-3.6326
 074436,-0.5243608651\C,0,-6.449340456,-3.6183661521,-0.1265651486\C,0,
 -6.2160863868,-2.189345089,0.1214837698\C,0,-8.7499853432,-4.780650884
 ,-0.9568252295\C,0,-5.3733938771,-4.3482008054,0.1671952194\O,0,-5.154
 2667885,-5.5290655602,0.1867747123\C,0,-4.1973931493,-3.3288558197,0.4
 684977418\C,0,-3.4911734815,-3.6877148561,1.8611572954\O,0,-3.84982863
 75,-3.1756207949,3.0023239477\O,0,-2.5506564135,-4.6616143139,1.712149
 3029\C,0,-1.9852411626,-5.1226327326,2.88402974\C,0,2.8096747441,-0.73
 8633121,-1.0864540203\C,0,4.122185541,-0.519885838,-0.4763901677\C,0,5
 .2020138088,0.2249958241,-0.9647063708\C,0,5.1961770343,1.128967433,-2
 .1896460557\C,0,6.5174482024,0.225401347,-0.1915058368\C,0,7.727200458
 9,-0.294701352,-0.928962565\C,0,9.0406231447,-0.149804714,-0.117414335
 6\C,0,10.3285437474,-0.6192490232,-0.9313395284\C,0,10.2151587021,-1.9
 919285278,-1.4460662681\C,0,11.579839101,-0.4466555562,-0.1065004513\C
 ,0,12.9405512241,-0.645961112,-0.8623167715\C,0,14.0140370915,-0.16897
 36606,-0.0057233593\C,0,15.5197673207,-0.3577983915,-0.6311961699\C,0,
 15.839538056,-1.7787406599,-0.8889561754\C,0,16.4524384978,0.374581844
 3,0.3684860333\C,0,17.8799436987,0.6295710829,-0.1414324231\C,0,18.738
 8292824,1.4226941162,0.8411464763\C,0,20.2679544752,1.5619519398,0.385
 1581194\C,0,20.3999402229,2.3080464526,-0.9078066021\C,0,21.1512529994
 ,2.0013645059,1.4944161432\H,0,-4.1705073092,3.5376121429,1.7307175928
 \H,0,-10.1554792996,3.9727948634,-0.3420785105\H,0,-10.2169809599,-2.5
 190219569,-0.9732308706\H,0,-2.4015988506,-0.9737870424,2.0311303516\H
 ,0,-2.2899986379,1.5935378424,1.0948638529\H,0,-1.9611998433,1.3287083
 598,3.3766378772\H,0,-3.3767324594,2.2657660332,3.3913236999\H,0,-3.33
 11740986,0.3226566334,3.6639302775\H,0,-2.2712896559,-1.6416500854,-0.
 4210270887\H,0,-2.141558358,0.0978418755,-0.985503652\H,0,-0.300267120
 7,0.6113490584,0.8122434762\H,0,-0.2976457183,-1.2856715426,1.32922579
 85\H,0,-5.0920713748,6.2517803531,0.3387856608\H,0,-6.019936664,6.7802
 678256,1.6792726165\H,0,-4.6513483636,5.4772728987,1.9072944081\H,0,-9
 .8039278917,5.8300759437,0.4304108856\H,0,-9.2952901694,7.9273713266,-
 0.1590353102\H,0,-7.386413678,7.4233229015,-0.0580202726\H,0,-12.52582
 79956,3.0806853738,-2.4281591143\H,0,-13.3735625698,1.8959952376,-1.71
 73952632\H,0,-12.6980667681,3.0963327187,-0.7424357416\H,0,-12.4052030
 484,-1.6289352917,-1.0867788858\H,0,-13.4639824018,-0.3383876518,-1.26
 90042574\H,0,-13.4972201882,-1.1393451737,-3.5686998677\H,0,-12.050745
 2485,0.074348709,-3.5309106661\H,0,-11.5338067283,-1.9398169257,-3.258
 04492\H,0,-9.0909099869,-4.6706699153,-1.8449620776\H,0,-8.2195656576,
 -5.8962897372,-0.8671309412\H,0,-9.5501671825,-5.0132881158,-0.2804162
 978\H,0,-3.4572558576,-3.1918307676,-0.2107677298\H,0,-1.2468857786,-4
 .387907168,3.2059872857\H,0,-2.7764928367,-5.2920698494,3.7127384959\H
 ,0,-1.4805494814,-5.9645106282,2.446611364\H,0,2.6694116123,-1.7210917
 991,-1.428296906\H,0,2.3431160118,-0.0633334149,-1.8550975296\H,0,4.36
 53157559,-1.1214901552,0.5414965259\H,0,4.2212830646,1.3715482511,-2.6
 304163839\H,0,5.6065039488,1.9191363038,-1.698674222\H,0,5.8013754603,
 0.6256328935,-2.9169429936\H,0,6.838676891,1.2223084585,0.3135588536\H
 ,0,6.5118245305,-0.4673999889,0.6128922963\H,0,7.5759413362,-1.4713282
 045,-1.0459487236\H,0,7.8131328443,-0.018835007,-2.0882789748\H,0,9.04
 93210293,1.0006026768,0.0718111436\H,0,8.8633341562,-0.4879871541,0.91
 63862572\H,0,10.5085625678,-0.076302864,-1.9616499956\H,0,9.398866383,
 -2.2602730716,-2.0626812293\H,0,10.9854416289,-2.2353400466,-2.0898951
 755\H,0,10.2382913027,-2.6631979424,-0.6888009708\H,0,11.6714019024,0.
 7383382413,0.0957815416\H,0,11.5539258023,-1.0445867968,0.7067981528\H
 ,0,13.2459703327,-1.490975959,-1.2031886538\H,0,12.9433432403,0.020181
 4971,-1.7597243362\H,0,13.8962911323,0.7735306086,0.2343400945\H,0,14.
 0277488652,-0.8350159389,0.8717923489\H,0,15.3960219943,0.1898988503,-
 1.6302926888\H,0,15.8272847295,-2.4317098969,-0.0224498426\H,0,15.3239
 399258,-2.054113605,-1.8020879292\H,0,16.8254005987,-1.9343873673,-1.3
 916312719\H,0,16.178033013,1.4148205548,0.5405074717\H,0,16.2355452565
 ,0.132476852,1.2743903707\H,0,18.2242616181,-0.349881952,-0.2720132089
 \H,0,17.8992400052,0.8997012286,-1.0532188058\H,0,18.3433630191,2.4206
 0396,0.8111562165\H,0,18.8782140988,0.9584694582,1.7705034019\H,0,20.5
 125713238,0.5057770135,0.1483225827\H,0,20.098616695,3.4592249074,-0.8
 862588954\H,0,21.4719033042,2.2947853564,-1.2995612101\H,0,19.60956178
 94,2.0721386162,-1.5934097643\H,0,21.2593959549,1.1612554293,2.1655359
 952\H,0,22.1605206926,2.1433128625,1.1070649727\H,0,20.9021527479,3.04
 1507827,2.12288822\\Version=ES64L-G09RevD.01\State=1-A\HF=-2932.649611
 6\RMSD=8.030e-09\PG=C01 [X(C55H72Mg1N4O5)]\\@


 CURIOUSER AND CURIOUSER

                  -- ALICE, IN WONDERLAND
 Job cpu time:       0 days  6 hours 17 minutes 22.1 seconds.
 File lengths (MBytes):  RWF=   2106 Int=      0 D2E=      0 Chk=    163 Scr=      1
 Normal termination of Gaussian 09 at Thu Jun 27 08:47:49 2019.
