 Entering Gaussian System, Link 0=g16
 Input=Geometria-66-.com
 Output=Geometria-66-.log
 Initial command:
 /usr/local/g09/l1.exe "/home/padawan/israel-mol/chlorophyll-a/spectra/abs/Gau-27955.inp" -scrdir="/home/padawan/israel-mol/chlorophyll-a/spectra/abs/"
 Entering Link 1 = /usr/local/g09/l1.exe PID=     27957.
  
 Copyright (c) 1988,1990,1992,1993,1995,1998,2003,2009,2013,
            Gaussian, Inc.  All Rights Reserved.
  
 This is part of the Gaussian(R) 09 program.  It is based on
 the Gaussian(R) 03 system (copyright 2003, Gaussian, Inc.),
 the Gaussian(R) 98 system (copyright 1998, Gaussian, Inc.),
 the Gaussian(R) 94 system (copyright 1995, Gaussian, Inc.),
 the Gaussian 92(TM) system (copyright 1992, Gaussian, Inc.),
 the Gaussian 90(TM) system (copyright 1990, Gaussian, Inc.),
 the Gaussian 88(TM) system (copyright 1988, Gaussian, Inc.),
 the Gaussian 86(TM) system (copyright 1986, Carnegie Mellon
 University), and the Gaussian 82(TM) system (copyright 1983,
 Carnegie Mellon University). Gaussian is a federally registered
 trademark of Gaussian, Inc.
  
 This software contains proprietary and confidential information,
 including trade secrets, belonging to Gaussian, Inc.
  
 This software is provided under written license and may be
 used, copied, transmitted, or stored only in accord with that
 written license.
  
 The following legend is applicable only to US Government
 contracts under FAR:
  
                    RESTRICTED RIGHTS LEGEND
  
 Use, reproduction and disclosure by the US Government is
 subject to restrictions as set forth in subparagraphs (a)
 and (c) of the Commercial Computer Software - Restricted
 Rights clause in FAR 52.227-19.
  
 Gaussian, Inc.
 340 Quinnipiac St., Bldg. 40, Wallingford CT 06492
  
  
 ---------------------------------------------------------------
 Warning -- This program may not be used in any manner that
 competes with the business of Gaussian, Inc. or will provide
 assistance to any competitor of Gaussian, Inc.  The licensee
 of this program is prohibited from giving any competitor of
 Gaussian, Inc. access to this program.  By using this program,
 the user acknowledges that Gaussian, Inc. is engaged in the
 business of creating and licensing software in the field of
 computational chemistry and represents and warrants to the
 licensee that it is not a competitor of Gaussian, Inc. and that
 it will not use this program in any manner prohibited above.
 ---------------------------------------------------------------
  

 Cite this work as:
 Gaussian 09, Revision D.01,
 M. J. Frisch, G. W. Trucks, H. B. Schlegel, G. E. Scuseria, 
 M. A. Robb, J. R. Cheeseman, G. Scalmani, V. Barone, B. Mennucci, 
 G. A. Petersson, H. Nakatsuji, M. Caricato, X. Li, H. P. Hratchian, 
 A. F. Izmaylov, J. Bloino, G. Zheng, J. L. Sonnenberg, M. Hada, 
 M. Ehara, K. Toyota, R. Fukuda, J. Hasegawa, M. Ishida, T. Nakajima, 
 Y. Honda, O. Kitao, H. Nakai, T. Vreven, J. A. Montgomery, Jr., 
 J. E. Peralta, F. Ogliaro, M. Bearpark, J. J. Heyd, E. Brothers, 
 K. N. Kudin, V. N. Staroverov, T. Keith, R. Kobayashi, J. Normand, 
 K. Raghavachari, A. Rendell, J. C. Burant, S. S. Iyengar, J. Tomasi, 
 M. Cossi, N. Rega, J. M. Millam, M. Klene, J. E. Knox, J. B. Cross, 
 V. Bakken, C. Adamo, J. Jaramillo, R. Gomperts, R. E. Stratmann, 
 O. Yazyev, A. J. Austin, R. Cammi, C. Pomelli, J. W. Ochterski, 
 R. L. Martin, K. Morokuma, V. G. Zakrzewski, G. A. Voth, 
 P. Salvador, J. J. Dannenberg, S. Dapprich, A. D. Daniels, 
 O. Farkas, J. B. Foresman, J. V. Ortiz, J. Cioslowski, 
 and D. J. Fox, Gaussian, Inc., Wallingford CT, 2013.
 
 ******************************************
 Gaussian 09:  ES64L-G09RevD.01 24-Apr-2013
                27-Jun-2019 
 ******************************************
 %nproc=4
 Will use up to    4 processors via shared memory.
 %Mem=2GB
 -------------------------------------
 # td=(NStates=1) CAM-B3LYP/6-31G(d,p)
 -------------------------------------
 1/38=1/1;
 2/12=2,17=6,18=5,40=1/2;
 3/5=1,6=6,7=101,11=9,16=1,25=1,30=1,74=-40/1,2,8,3;
 4//1;
 5/5=2,38=5/2;
 8/6=1,10=2,108=1/1;
 9/41=1,42=1,70=2/14;
 6/7=2,8=2,9=2,10=2/1;
 99/5=1,9=1/99;
 --
 TD
 --
 Symbolic Z-matrix:
 Charge =  0 Multiplicity = 1
 12                   -7.09402   0.66682   0.14803 
 6                    -4.84649  -1.83565   0.4726 
 6                    -4.82644   2.83906   1.18027 
 6                    -9.4144    3.00693  -0.24232 
 6                    -9.56331  -1.78553  -0.87078 
 7                    -5.09662   0.54425   0.59371 
 6                    -4.29217  -0.56958   0.66313 
 6                    -2.91781  -0.2939    1.19074 
 6                    -3.00101   1.09882   1.67848 
 6                    -4.3159    1.52928   1.20569 
 6                    -2.9113    1.29532   3.18091 
 6                    -1.79612  -0.54239   0.12592 
 6                    -0.45072  -0.34883   0.51935 
 6                     0.63102  -0.71497  -0.68186 
 8                     0.16187  -0.91336  -1.79864 
 8                     1.788    -0.46512  -0.29402 
 7                    -7.15268   2.65559   0.4283 
 6                    -6.03435   3.3791    0.92595 
 6                    -6.42178   4.77791   0.89301 
 6                    -7.79518   4.80935   0.49876 
 6                    -8.22628   3.43738   0.23028 
 6                    -5.65237   5.97382   1.35567 
 6                    -8.74094   5.94782   0.44897 
 6                    -8.4672    7.22542   0.14464 
 7                    -9.12857   0.59603  -0.49455 
 6                    -9.89357   1.70744  -0.60327 
 6                    -11.19951   1.38906  -1.12594 
 6                    -11.31592   0.00413  -1.30819 
 6                    -9.96956  -0.43975  -0.952 
 6                    -12.27942   2.40813  -1.4991 
 6                    -12.47359  -0.88654  -1.6966 
 6                    -12.28718  -1.31252  -3.17 
 7                    -7.1819   -1.39421  -0.16527 
 6                    -8.2509   -2.17129  -0.57592 
 6                    -7.82649  -3.57379  -0.50794 
 6                    -6.43834  -3.52229  -0.13287 
 6                    -6.12862  -2.18373  -0.03262 
 6                    -8.57513  -4.75833  -0.7686 
 6                    -5.22014  -4.28236   0.1507 
 8                    -5.05194  -5.51736   0.15027 
 6                    -4.18774  -3.22286   0.44335 
 6                    -3.53294  -3.6528    1.84904 
 8                    -3.68204  -3.08482   2.83691 
 8                    -2.63541  -4.64797   1.74942 
 6                    -2.02897  -5.05698   2.91636 
 6                     2.81995  -0.80793  -1.23482 
 6                     4.08271  -0.50043  -0.57241 
 6                     5.16439   0.3018   -0.90548 
 6                     5.13696   1.27115  -2.02905 
 6                     6.44103   0.35361  -0.08652 
 6                     7.632    -0.19757  -0.96227 
 6                     8.93083  -0.16788  -0.09697 
 6                     10.20779  -0.49315  -0.82066 
 6                     10.09213  -2.00042  -1.30311 
 6                     11.47031  -0.379     0.09824 
 6                     12.74001  -0.54993  -0.6315 
 6                     13.93442  -0.10169   0.19928 
 6                     15.30073  -0.25741  -0.5604 
 6                     15.51139  -1.70196  -0.799 
 6                     16.31779   0.35375   0.43222 
 6                     17.70586   0.628    -0.21971 
 6                     18.70443   1.24859   0.76721 
 6                     20.21782   1.30078   0.14058 
 6                     20.42468   2.16338  -1.18177 
 6                     21.14075   1.76844   1.25966 
 1                    -4.09868   3.59863   1.82855 
 1                    -10.3921   3.61289  -0.01259 
 1                    -10.2908  -2.46654  -1.24288 
 1                    -2.8743   -0.98351   2.12147 
 1                    -2.25589   1.66944   1.07114 
 1                    -1.99108   1.09982   3.55732 
 1                    -3.26669   2.38111   3.39437 
 1                    -3.491     0.70989   3.68898 
 1                    -1.91773  -1.54122  -0.367 
 1                    -2.05391   0.29716  -0.67901 
 1                    -0.17953   0.67738   0.93919 
 1                    -0.31776  -1.11463   1.22562 
 1                    -4.96673   6.3275    0.65207 
 1                    -6.35771   6.6355    1.84571 
 1                    -4.80831   5.57992   2.0515 
 1                    -9.83866   5.78707   0.60697 
 1                    -9.41658   7.9162    0.27422 
 1                    -7.46899   7.49332  -0.23142 
 1                    -11.89557   2.927    -2.36098 
 1                    -13.13042   2.11869  -1.68078 
 1                    -12.44042   3.20008  -0.71482 
 1                    -12.5331  -1.91095  -1.123 
 1                    -13.45371  -0.34964  -1.59405 
 1                    -13.29847  -1.92327  -3.54664 
 1                    -12.40365  -0.56265  -4.02605 
 1                    -11.48175  -1.97831  -3.50538 
 1                    -8.54155  -4.95586  -1.99678 
 1                    -7.8868   -5.643    -0.35815 
 1                    -9.59025  -4.85573  -0.40244 
 1                    -3.49902  -3.15162  -0.41153 
 1                    -1.47892  -4.25915   3.35417 
 1                    -2.80992  -5.38264   3.78065 
 1                    -1.42593  -5.94386   2.45701 
 1                     2.54141  -1.87336  -1.41836 
 1                     2.75213  -0.21752  -2.29879 
 1                     4.05201  -1.02667   0.33318 
 1                     4.03639   1.38015  -2.45583 
 1                     5.48851   2.08177  -1.56278 
 1                     5.61577   0.79948  -2.97185 
 1                     6.47457   1.42931   0.26066 
 1                     6.38569  -0.47495   0.69319 
 1                     7.43798  -1.06053  -1.38838 
 1                     7.89669   0.51865  -1.87123 
 1                     9.04475   0.86538   0.40429 
 1                     8.91542  -0.96415   0.70291 
 1                     10.01401   0.0821   -1.69418 
 1                     9.22772  -2.21766  -1.92936 
 1                     10.91029  -2.32126  -1.97855 
 1                     10.09252  -2.45752  -0.26368 
 1                     11.21644   0.55491   0.4756 
 1                     11.411   -1.21969   0.88378 
 1                     12.70612  -1.67384  -0.92768 
 1                     12.79829  -0.1248   -1.62207 
 1                     13.66918   1.06209   0.60705 
 1                     13.99025  -0.51457   1.21172 
 1                     15.30028   0.47085  -1.61925 
 1                     15.7975  -2.20179   0.14994 
 1                     14.88592  -2.18686  -1.45618 
 1                     16.57029  -1.75697  -1.193 
 1                     15.96375   1.24052   0.91024 
 1                     16.53462  -0.35216   1.27564 
 1                     18.05859  -0.50597  -0.37728 
 1                     17.71998   1.38351  -1.04877 
 1                     18.44754   2.27743   0.98411 
 1                     18.99608   0.79188   1.63921 
 1                     20.33925   0.22568  -0.03643 
 1                     19.73879   3.09958  -1.24044 
 1                     21.50143   2.34115  -1.19401 
 1                     19.92647   1.58153  -2.06214 
 1                     21.40055   1.10689   2.0375 
 1                     22.24194   1.88109   0.85906 
 1                     20.82419   2.83551   1.64602 
 
 Stoichiometry    C55H72MgN4O5
 Framework group  C1[X(C55H72MgN4O5)]
 Deg. of freedom   405
 Full point group                 C1      NOp   1
 Largest Abelian subgroup         C1      NOp   1
 Largest concise Abelian subgroup C1      NOp   1
                         Standard orientation:                         
 ---------------------------------------------------------------------
 Center     Atomic      Atomic             Coordinates (Angstroms)
 Number     Number       Type             X           Y           Z
 ---------------------------------------------------------------------
      1         12           0       -7.092445    0.656776    0.137150
      2          6           0       -4.839765   -1.835309    0.503251
      3          6           0       -4.828956    2.850726    1.131750
      4          6           0       -9.417663    2.985263   -0.291950
      5          6           0       -9.557070   -1.817433   -0.839216
      6          7           0       -5.094670    0.545781    0.584171
      7          6           0       -4.287943   -0.565084    0.672153
      8          6           0       -2.913992   -0.277756    1.194575
      9          6           0       -2.999861    1.122849    1.658714
     10          6           0       -4.315758    1.542601    1.179144
     11          6           0       -2.910099    1.344908    3.157577
     12          6           0       -1.792120   -0.541951    0.133735
     13          6           0       -0.446997   -0.339056    0.523387
     14          6           0        0.635130   -0.723279   -0.671818
     15          8           0        0.166043   -0.941473   -1.784927
     16          8           0        1.791711   -0.464569   -0.288647
     17          7           0       -7.155045    2.649872    0.383759
     18          6           0       -6.038030    3.383951    0.868733
     19          6           0       -6.428297    4.781219    0.812265
     20          6           0       -7.801875    4.803219    0.417995
     21          6           0       -8.230283    3.426041    0.172907
     22          6           0       -5.661170    5.986333    1.254382
     23          6           0       -8.749953    5.938773    0.349280
     24          6           0       -8.478880    7.211591    0.023290
     25          7           0       -9.127036    0.571016   -0.503469
     26          6           0       -9.894317    1.678888   -0.630711
     27          6           0      -11.199770    1.349079   -1.147490
     28          6           0      -11.313429   -0.038963   -1.306255
     29          6           0       -9.966065   -0.474046   -0.943060
     30          6           0      -12.281841    2.359515   -1.537476
     31          6           0      -12.469408   -0.938412   -1.679166
     32          6           0      -12.282574   -1.388870   -3.145203
     33          7           0       -7.176254   -1.409435   -0.141221
     34          6           0       -8.243798   -2.195508   -0.538310
     35          6           0       -7.816533   -3.595797   -0.446764
     36          6           0       -6.428377   -3.535156   -0.073077
     37          6           0       -6.121333   -2.194478    0.004412
     38          6           0       -8.562851   -4.786081   -0.687102
     39          6           0       -5.208557   -4.287871    0.222903
     40          8           0       -5.037859   -5.522360    0.243302
     41          6           0       -4.178219   -3.221484    0.497241
     42          6           0       -3.522127   -3.626272    1.909785
     43          8           0       -3.672086   -3.041967    2.887958
     44          8           0       -2.622624   -4.621174    1.826719
     45          6           0       -2.015001   -5.009157    3.000208
     46          6           0        2.824072   -0.821159   -1.223852
     47          6           0        4.086410   -0.499957   -0.567158
     48          6           0        5.166365    0.298712   -0.914108
     49          6           0        5.136641    1.248861   -2.053902
     50          6           0        6.443142    0.366942   -0.096560
     51          6           0        7.634964   -0.196574   -0.963259
     52          6           0        8.933990   -0.149629   -0.099022
     53          6           0       10.211389   -0.484516   -0.817528
     54          6           0       10.098628   -1.999963   -1.274382
     55          6           0       11.473945   -0.352297    0.098890
     56          6           0       12.743774   -0.532986   -0.628280
     57          6           0       13.937521   -0.068347    0.194404
     58          6           0       15.303913   -0.234139   -0.562983
     59          6           0       15.517422   -1.682094   -0.777186
     60          6           0       16.320030    0.395771    0.418822
     61          6           0       17.707350    0.661755   -0.238116
     62          6           0       18.704956    1.300957    0.737835
     63          6           0       20.218054    1.345592    0.109914
     64          6           0       20.422779    2.186125   -1.226912
     65          6           0       21.140373    1.833979    1.220617
     66          1           0       -4.102538    3.622618    1.766845
     67          1           0      -10.396525    3.593044   -0.072176
     68          1           0      -10.283294   -2.506103   -1.199507
     69          1           0       -2.868804   -0.951430    2.136815
     70          1           0       -2.256072    1.684612    1.041564
     71          1           0       -1.989378    1.157658    3.536929
     72          1           0       -3.267623    2.433436    3.352763
     73          1           0       -3.488464    0.766986    3.675669
     74          1           0       -1.911857   -1.549220   -0.342185
     75          1           0       -2.051843    0.283344   -0.685198
     76          1           0       -0.177749    0.694652    0.925717
     77          1           0       -0.312272   -1.092533    1.242459
     78          1           0       -4.976454    6.329443    0.544669
     79          1           0       -6.367700    6.654787    1.733393
     80          1           0       -4.816111    5.605965    1.956491
     81          1           0       -9.847297    5.778507    0.510334
     82          1           0       -9.429623    7.902550    0.141482
     83          1           0       -7.481332    7.475107   -0.357576
     84          1           0      -11.899306    2.864503   -2.408138
     85          1           0      -13.132310    2.065322   -1.713954
     86          1           0      -12.444213    3.164290   -0.766652
     87          1           0      -12.526674   -1.953096   -1.088300
     88          1           0      -13.450585   -0.401831   -1.585378
     89          1           0      -13.292744   -2.007949   -3.511126
     90          1           0      -12.400820   -0.653832   -4.013779
     91          1           0      -11.475905   -2.058617   -3.469546
     92          1           0       -8.529235   -5.004287   -1.911778
     93          1           0       -7.872616   -5.662298   -0.261981
     94          1           0       -9.577666   -4.879325   -0.319012
     95          1           0       -3.489897   -3.163325   -0.358943
     96          1           0       -1.466439   -4.202937    3.424279
     97          1           0       -2.795034   -5.321730    3.870134
     98          1           0       -1.410314   -5.902464    2.555723
     99          1           0        2.547635   -1.890097   -1.389252
    100          1           0        2.754742   -0.248965   -2.297636
    101          1           0        4.057047   -1.010863    0.347208
    102          1           0        4.035730    1.348405   -2.482098
    103          1           0        5.486691    2.067960   -1.601526
    104          1           0        5.616119    0.762278   -2.988747
    105          1           0        6.474610    1.448420    0.232365
    106          1           0        6.389711   -0.448427    0.697066
    107          1           0        7.442559   -1.067003   -1.374656
    108          1           0        7.897934    0.504703   -1.884291
    109          1           0        9.045968    0.892185    0.384660
    110          1           0        8.920425   -0.932294    0.714223
    111          1           0       10.016187    0.075485   -1.700592
    112          1           0        9.234476   -2.229507   -1.896577
    113          1           0       10.917242   -2.330530   -1.944572
    114          1           0       10.100252   -2.439414   -0.227366
    115          1           0       11.218298    0.587347    0.460485
    116          1           0       11.416573   -1.179704    0.898551
    117          1           0       12.712064   -1.661814   -0.905396
    118          1           0       12.800897   -0.124556   -1.625915
    119          1           0       13.670049    1.101623    0.582522
    120          1           0       13.994483   -0.463937    1.213663
    121          1           0       15.301682    0.476101   -1.634001
    122          1           0       15.804831   -2.165219    0.179972
    123          1           0       14.892739   -2.179295   -1.425869
    124          1           0       16.576314   -1.741621   -1.170555
    125          1           0       15.964346    1.289786    0.881896
    126          1           0       16.538538   -0.295336    1.273987
    127          1           0       18.062324   -0.474002   -0.376606
    128          1           0       17.719701    1.403161   -1.079838
    129          1           0       18.446058    2.332801    0.937393
    130          1           0       18.997789    0.859656    1.617338
    131          1           0       20.341610    0.267903   -0.048928
    132          1           0       19.734978    3.119811   -1.301180
    133          1           0       21.499157    2.365832   -1.242511
    134          1           0       19.925485    1.588462   -2.097143
    135          1           0       21.401739    1.186203    2.009448
    136          1           0       22.241210    1.942053    0.817801
    137          1           0       20.821773    2.906786    1.588978
 ---------------------------------------------------------------------
 Rotational constants (GHZ):      0.0657092      0.0060987      0.0057494
 Standard basis: 6-31G(d,p) (6D, 7F)
 There are  1339 symmetry adapted cartesian basis functions of A   symmetry.
 There are  1339 symmetry adapted basis functions of A   symmetry.
  1339 basis functions,  2348 primitive gaussians,  1339 cartesian basis functions
   241 alpha electrons      241 beta electrons
       nuclear repulsion energy      8754.1752128518 Hartrees.
 NAtoms=  137 NActive=  137 NUniq=  137 SFac= 1.00D+00 NAtFMM=   60 NAOKFM=T Big=T
 Integral buffers will be    131072 words long.
 Raffenetti 1 integral format.
 Two-electron integral symmetry is turned on.
 One-electron integrals computed using PRISM.
 NBasis=  1339 RedAO= T EigKep=  3.67D-04  NBF=  1339
 NBsUse=  1339 1.00D-06 EigRej= -1.00D+00 NBFU=  1339
 ExpMin= 4.21D-02 ExpMax= 1.17D+04 ExpMxC= 1.76D+03 IAcc=2 IRadAn=         4 AccDes= 0.00D+00
 Harris functional with IExCor=20419 and IRadAn=       4 diagonalized for initial guess.
 HarFok:  IExCor=20419 AccDes= 0.00D+00 IRadAn=         4 IDoV= 1 UseB2=F ITyADJ=14
 ICtDFT=  3500011 ScaDFX=  1.000000  1.000000  1.000000  1.000000
 FoFCou: FMM=F IPFlag=           0 FMFlag=      100000 FMFlg1=        2001
         NFxFlg=           0 DoJE=T BraDBF=F KetDBF=T FulRan=T
         wScrn=  0.000000 ICntrl=     500 IOpCl=  0 I1Cent=   200000004 NGrid=           0
         NMat0=    1 NMatS0=      1 NMatT0=    0 NMatD0=    1 NMtDS0=    0 NMtDT0=    0
 Petite list used in FoFCou.
 Requested convergence on RMS density matrix=1.00D-08 within 128 cycles.
 Requested convergence on MAX density matrix=1.00D-06.
 Requested convergence on             energy=1.00D-06.
 No special actions if energy rises.
 SCF Done:  E(RCAM-B3LYP) =  -2932.65571648     A.U. after   18 cycles
            NFock= 18  Conv=0.63D-08     -V/T= 2.0093
 DoSCS=F DFT=T ScalE2(SS,OS)=  1.000000  1.000000
 ExpMin= 4.21D-02 ExpMax= 1.17D+04 ExpMxC= 1.76D+03 IAcc=3 IRadAn=         5 AccDes= 0.00D+00
 HarFok:  IExCor=  205 AccDes= 0.00D+00 IRadAn=         5 IDoV=-2 UseB2=F ITyADJ=14
 ICtDFT= 12500011 ScaDFX=  1.000000  1.000000  1.000000  1.000000
 Range of M.O.s used for correlation:    70  1339
 NBasis=  1339 NAE=   241 NBE=   241 NFC=    69 NFV=     0
 NROrb=   1270 NOA=   172 NOB=   172 NVA=  1098 NVB=  1098
 Would need an additional       2415464100000 words for in-memory AO integral storage.
 Orbital symmetries:
       Occupied  (A) (A) (A) (A) (A) (A) (A) (A) (A) (A) (A) (A)
                 (A) (A) (A) (A) (A) (A) (A) (A) (A) (A) (A) (A)
                 (A) (A) (A) (A) (A) (A) (A) (A) (A) (A) (A) (A)
                 (A) (A) (A) (A) (A) (A) (A) (A) (A) (A) (A) (A)
                 (A) (A) (A) (A) (A) (A) (A) (A) (A) (A) (A) (A)
                 (A) (A) (A) (A) (A) (A) (A) (A) (A) (A) (A) (A)
                 (A) (A) (A) (A) (A) (A) (A) (A) (A) (A) (A) (A)
                 (A) (A) (A) (A) (A) (A) (A) (A) (A) (A) (A) (A)
                 (A) (A) (A) (A) (A) (A) (A) (A) (A) (A) (A) (A)
                 (A) (A) (A) (A) (A) (A) (A) (A) (A) (A) (A) (A)
                 (A) (A) (A) (A) (A) (A) (A) (A) (A) (A) (A) (A)
                 (A) (A) (A) (A) (A) (A) (A) (A) (A) (A) (A) (A)
                 (A) (A) (A) (A) (A) (A) (A) (A) (A) (A) (A) (A)
                 (A) (A) (A) (A) (A) (A) (A) (A) (A) (A) (A) (A)
                 (A) (A) (A) (A) (A) (A) (A) (A) (A) (A) (A) (A)
                 (A) (A) (A) (A) (A) (A) (A) (A) (A) (A) (A) (A)
                 (A) (A) (A) (A) (A) (A) (A) (A) (A) (A) (A) (A)
                 (A) (A) (A) (A) (A) (A) (A) (A) (A) (A) (A) (A)
                 (A) (A) (A) (A) (A) (A) (A) (A) (A) (A) (A) (A)
                 (A) (A) (A) (A) (A) (A) (A) (A) (A) (A) (A) (A)
                 (A)
       Virtual   (A) (A) (A) (A) (A) (A) (A) (A) (A) (A) (A) (A)
                 (A) (A) (A) (A) (A) (A) (A) (A) (A) (A) (A) (A)
                 (A) (A) (A) (A) (A) (A) (A) (A) (A) (A) (A) (A)
                 (A) (A) (A) (A) (A) (A) (A) (A) (A) (A) (A) (A)
                 (A) (A) (A) (A) (A) (A) (A) (A) (A) (A) (A) (A)
                 (A) (A) (A) (A) (A) (A) (A) (A) (A) (A) (A) (A)
                 (A) (A) (A) (A) (A) (A) (A) (A) (A) (A) (A) (A)
                 (A) (A) (A) (A) (A) (A) (A) (A) (A) (A) (A) (A)
                 (A) (A) (A) (A) (A) (A) (A) (A) (A) (A) (A) (A)
                 (A) (A) (A) (A) (A) (A) (A) (A) (A) (A) (A) (A)
                 (A) (A) (A) (A) (A) (A) (A) (A) (A) (A) (A) (A)
                 (A) (A) (A) (A) (A) (A) (A) (A) (A) (A) (A) (A)
                 (A) (A) (A) (A) (A) (A) (A) (A) (A) (A) (A) (A)
                 (A) (A) (A) (A) (A) (A) (A) (A) (A) (A) (A) (A)
                 (A) (A) (A) (A) (A) (A) (A) (A) (A) (A) (A) (A)
                 (A) (A) (A) (A) (A) (A) (A) (A) (A) (A) (A) (A)
                 (A) (A) (A) (A) (A) (A) (A) (A) (A) (A) (A) (A)
                 (A) (A) (A) (A) (A) (A) (A) (A) (A) (A) (A) (A)
                 (A) (A) (A) (A) (A) (A) (A) (A) (A) (A) (A) (A)
                 (A) (A) (A) (A) (A) (A) (A) (A) (A) (A) (A) (A)
                 (A) (A) (A) (A) (A) (A) (A) (A) (A) (A) (A) (A)
                 (A) (A) (A) (A) (A) (A) (A) (A) (A) (A) (A) (A)
                 (A) (A) (A) (A) (A) (A) (A) (A) (A) (A) (A) (A)
                 (A) (A) (A) (A) (A) (A) (A) (A) (A) (A) (A) (A)
                 (A) (A) (A) (A) (A) (A) (A) (A) (A) (A) (A) (A)
                 (A) (A) (A) (A) (A) (A) (A) (A) (A) (A) (A) (A)
                 (A) (A) (A) (A) (A) (A) (A) (A) (A) (A) (A) (A)
                 (A) (A) (A) (A) (A) (A) (A) (A) (A) (A) (A) (A)
                 (A) (A) (A) (A) (A) (A) (A) (A) (A) (A) (A) (A)
                 (A) (A) (A) (A) (A) (A) (A) (A) (A) (A) (A) (A)
                 (A) (A) (A) (A) (A) (A) (A) (A) (A) (A) (A) (A)
                 (A) (A) (A) (A) (A) (A) (A) (A) (A) (A) (A) (A)
                 (A) (A) (A) (A) (A) (A) (A) (A) (A) (A) (A) (A)
                 (A) (A) (A) (A) (A) (A) (A) (A) (A) (A) (A) (A)
                 (A) (A) (A) (A) (A) (A) (A) (A) (A) (A) (A) (A)
                 (A) (A) (A) (A) (A) (A) (A) (A) (A) (A) (A) (A)
                 (A) (A) (A) (A) (A) (A) (A) (A) (A) (A) (A) (A)
                 (A) (A) (A) (A) (A) (A) (A) (A) (A) (A) (A) (A)
                 (A) (A) (A) (A) (A) (A) (A) (A) (A) (A) (A) (A)
                 (A) (A) (A) (A) (A) (A) (A) (A) (A) (A) (A) (A)
                 (A) (A) (A) (A) (A) (A) (A) (A) (A) (A) (A) (A)
                 (A) (A) (A) (A) (A) (A) (A) (A) (A) (A) (A) (A)
                 (A) (A) (A) (A) (A) (A) (A) (A) (A) (A) (A) (A)
                 (A) (A) (A) (A) (A) (A) (A) (A) (A) (A) (A) (A)
                 (A) (A) (A) (A) (A) (A) (A) (A) (A) (A) (A) (A)
                 (A) (A) (A) (A) (A) (A) (A) (A) (A) (A) (A) (A)
                 (A) (A) (A) (A) (A) (A) (A) (A) (A) (A) (A) (A)
                 (A) (A) (A) (A) (A) (A) (A) (A) (A) (A) (A) (A)
                 (A) (A) (A) (A) (A) (A) (A) (A) (A) (A) (A) (A)
                 (A) (A) (A) (A) (A) (A) (A) (A) (A) (A) (A) (A)
                 (A) (A) (A) (A) (A) (A) (A) (A) (A) (A) (A) (A)
                 (A) (A) (A) (A) (A) (A) (A) (A) (A) (A) (A) (A)
                 (A) (A) (A) (A) (A) (A) (A) (A) (A) (A) (A) (A)
                 (A) (A) (A) (A) (A) (A) (A) (A) (A) (A) (A) (A)
                 (A) (A) (A) (A) (A) (A) (A) (A) (A) (A) (A) (A)
                 (A) (A) (A) (A) (A) (A) (A) (A) (A) (A) (A) (A)
                 (A) (A) (A) (A) (A) (A) (A) (A) (A) (A) (A) (A)
                 (A) (A) (A) (A) (A) (A) (A) (A) (A) (A) (A) (A)
                 (A) (A) (A) (A) (A) (A) (A) (A) (A) (A) (A) (A)
                 (A) (A) (A) (A) (A) (A) (A) (A) (A) (A) (A) (A)
                 (A) (A) (A) (A) (A) (A) (A) (A) (A) (A) (A) (A)
                 (A) (A) (A) (A) (A) (A) (A) (A) (A) (A) (A) (A)
                 (A) (A) (A) (A) (A) (A) (A) (A) (A) (A) (A) (A)
                 (A) (A) (A) (A) (A) (A) (A) (A) (A) (A) (A) (A)
                 (A) (A) (A) (A) (A) (A) (A) (A) (A) (A) (A) (A)
                 (A) (A) (A) (A) (A) (A) (A) (A) (A) (A) (A) (A)
                 (A) (A) (A) (A) (A) (A) (A) (A) (A) (A) (A) (A)
                 (A) (A) (A) (A) (A) (A) (A) (A) (A) (A) (A) (A)
                 (A) (A) (A) (A) (A) (A) (A) (A) (A) (A) (A) (A)
                 (A) (A) (A) (A) (A) (A) (A) (A) (A) (A) (A) (A)
                 (A) (A) (A) (A) (A) (A) (A) (A) (A) (A) (A) (A)
                 (A) (A) (A) (A) (A) (A) (A) (A) (A) (A) (A) (A)
                 (A) (A) (A) (A) (A) (A) (A) (A) (A) (A) (A) (A)
                 (A) (A) (A) (A) (A) (A) (A) (A) (A) (A) (A) (A)
                 (A) (A) (A) (A) (A) (A) (A) (A) (A) (A) (A) (A)
                 (A) (A) (A) (A) (A) (A) (A) (A) (A) (A) (A) (A)
                 (A) (A) (A) (A) (A) (A) (A) (A) (A) (A) (A) (A)
                 (A) (A) (A) (A) (A) (A) (A) (A) (A) (A) (A) (A)
                 (A) (A) (A) (A) (A) (A) (A) (A) (A) (A) (A) (A)
                 (A) (A) (A) (A) (A) (A) (A) (A) (A) (A) (A) (A)
                 (A) (A) (A) (A) (A) (A) (A) (A) (A) (A) (A) (A)
                 (A) (A) (A) (A) (A) (A) (A) (A) (A) (A) (A) (A)
                 (A) (A) (A) (A) (A) (A) (A) (A) (A) (A) (A) (A)
                 (A) (A) (A) (A) (A) (A) (A) (A) (A) (A) (A) (A)
                 (A) (A) (A) (A) (A) (A) (A) (A) (A) (A) (A) (A)
                 (A) (A) (A) (A) (A) (A) (A) (A) (A) (A) (A) (A)
                 (A) (A) (A) (A) (A) (A) (A) (A) (A) (A) (A) (A)
                 (A) (A) (A) (A) (A) (A) (A) (A) (A) (A) (A) (A)
                 (A) (A) (A) (A) (A) (A) (A) (A) (A) (A) (A) (A)
                 (A) (A) (A) (A) (A) (A) (A) (A) (A) (A) (A) (A)
                 (A) (A) (A) (A) (A) (A) (A) (A) (A) (A) (A) (A)
                 (A) (A) (A) (A) (A) (A)
     8 initial guesses have been made.
 Convergence on wavefunction:    0.001000000000000
 Iteration     1 Dimension     8 NMult     0 NNew      8
 CISAX will form     8 AO SS matrices at one time.
 Iteration     2 Dimension    12 NMult     8 NNew      4
 Iteration     3 Dimension    16 NMult    12 NNew      4
 Iteration     4 Dimension    20 NMult    16 NNew      4
 Iteration     5 Dimension    24 NMult    20 NNew      4
 Iteration     6 Dimension    28 NMult    24 NNew      4
 ***********************************************************************
 Excited states from <AA,BB:AA,BB> singles matrix:
 ***********************************************************************
 
 Ground to excited state transition densities written to RWF  633
 Ground to excited state transition electric dipole moments (Au):
       state          X           Y           Z        Dip. S.      Osc.
         1         0.1352      2.0302      0.3192      4.2417      0.2120
 Ground to excited state transition velocity dipole moments (Au):
       state          X           Y           Z        Dip. S.      Osc.
         1        -0.0107     -0.1473     -0.0239      0.0224      0.1991
 Ground to excited state transition magnetic dipole moments (Au):
       state          X           Y           Z
         1        -0.4494     -0.5149      3.5245
 Ground to excited state transition velocity quadrupole moments (Au):
       state          XX          YY          ZZ          XY          XZ          YZ
         1         0.2528     -0.1704     -0.0409      1.8762      0.2678     -0.0950
 <0|del|b> * <b|rxdel|0> + <0|del|b> * <b|delr+rdel|0>
 Rotatory Strengths (R) in cgs (10**-40 erg-esu-cm/Gauss)
       state          XX          YY          ZZ    R(velocity)    E-M Angle
         1       -65.4368   -158.4486    189.5701    -11.4384       90.39
 1/2[<0|r|b>*<b|rxdel|0> + (<0|rxdel|b>*<b|r|0>)*]
 Rotatory Strengths (R) in cgs (10**-40 erg-esu-cm/Gauss)
       state          XX          YY          ZZ     R(length)
         1        42.9722    739.2045   -795.4436     -4.4223
  1/2[<0|del|b>*<b|r|0> + (<0|r|b>*<b|del|0>)*] (Au)
       state          X           Y           Z        Dip. S.   Osc.(frdel)
         1        -0.0014     -0.2991     -0.0076      0.3082      0.2054

 Excitation energies and oscillator strengths:
 
 Excited State   1:      Singlet-A      2.0403 eV  607.68 nm  f=0.2120  <S**2>=0.000
     240 -> 243       -0.25360
     241 -> 242        0.64382
 This state for optimization and/or second-order correction.
 Total Energy, E(TD-HF/TD-KS) =  -2932.58073780    
 Copying the excited state density for this state as the 1-particle RhoCI density.
 SavETr:  write IOETrn=   770 NScale= 10 NData=  16 NLR=1 NState=    1 LETran=      28.

 **********************************************************************

            Population analysis using the SCF density.

 **********************************************************************

 Orbital symmetries:
       Occupied  (A) (A) (A) (A) (A) (A) (A) (A) (A) (A) (A) (A)
                 (A) (A) (A) (A) (A) (A) (A) (A) (A) (A) (A) (A)
                 (A) (A) (A) (A) (A) (A) (A) (A) (A) (A) (A) (A)
                 (A) (A) (A) (A) (A) (A) (A) (A) (A) (A) (A) (A)
                 (A) (A) (A) (A) (A) (A) (A) (A) (A) (A) (A) (A)
                 (A) (A) (A) (A) (A) (A) (A) (A) (A) (A) (A) (A)
                 (A) (A) (A) (A) (A) (A) (A) (A) (A) (A) (A) (A)
                 (A) (A) (A) (A) (A) (A) (A) (A) (A) (A) (A) (A)
                 (A) (A) (A) (A) (A) (A) (A) (A) (A) (A) (A) (A)
                 (A) (A) (A) (A) (A) (A) (A) (A) (A) (A) (A) (A)
                 (A) (A) (A) (A) (A) (A) (A) (A) (A) (A) (A) (A)
                 (A) (A) (A) (A) (A) (A) (A) (A) (A) (A) (A) (A)
                 (A) (A) (A) (A) (A) (A) (A) (A) (A) (A) (A) (A)
                 (A) (A) (A) (A) (A) (A) (A) (A) (A) (A) (A) (A)
                 (A) (A) (A) (A) (A) (A) (A) (A) (A) (A) (A) (A)
                 (A) (A) (A) (A) (A) (A) (A) (A) (A) (A) (A) (A)
                 (A) (A) (A) (A) (A) (A) (A) (A) (A) (A) (A) (A)
                 (A) (A) (A) (A) (A) (A) (A) (A) (A) (A) (A) (A)
                 (A) (A) (A) (A) (A) (A) (A) (A) (A) (A) (A) (A)
                 (A) (A) (A) (A) (A) (A) (A) (A) (A) (A) (A) (A)
                 (A)
       Virtual   (A) (A) (A) (A) (A) (A) (A) (A) (A) (A) (A) (A)
                 (A) (A) (A) (A) (A) (A) (A) (A) (A) (A) (A) (A)
                 (A) (A) (A) (A) (A) (A) (A) (A) (A) (A) (A) (A)
                 (A) (A) (A) (A) (A) (A) (A) (A) (A) (A) (A) (A)
                 (A) (A) (A) (A) (A) (A) (A) (A) (A) (A) (A) (A)
                 (A) (A) (A) (A) (A) (A) (A) (A) (A) (A) (A) (A)
                 (A) (A) (A) (A) (A) (A) (A) (A) (A) (A) (A) (A)
                 (A) (A) (A) (A) (A) (A) (A) (A) (A) (A) (A) (A)
                 (A) (A) (A) (A) (A) (A) (A) (A) (A) (A) (A) (A)
                 (A) (A) (A) (A) (A) (A) (A) (A) (A) (A) (A) (A)
                 (A) (A) (A) (A) (A) (A) (A) (A) (A) (A) (A) (A)
                 (A) (A) (A) (A) (A) (A) (A) (A) (A) (A) (A) (A)
                 (A) (A) (A) (A) (A) (A) (A) (A) (A) (A) (A) (A)
                 (A) (A) (A) (A) (A) (A) (A) (A) (A) (A) (A) (A)
                 (A) (A) (A) (A) (A) (A) (A) (A) (A) (A) (A) (A)
                 (A) (A) (A) (A) (A) (A) (A) (A) (A) (A) (A) (A)
                 (A) (A) (A) (A) (A) (A) (A) (A) (A) (A) (A) (A)
                 (A) (A) (A) (A) (A) (A) (A) (A) (A) (A) (A) (A)
                 (A) (A) (A) (A) (A) (A) (A) (A) (A) (A) (A) (A)
                 (A) (A) (A) (A) (A) (A) (A) (A) (A) (A) (A) (A)
                 (A) (A) (A) (A) (A) (A) (A) (A) (A) (A) (A) (A)
                 (A) (A) (A) (A) (A) (A) (A) (A) (A) (A) (A) (A)
                 (A) (A) (A) (A) (A) (A) (A) (A) (A) (A) (A) (A)
                 (A) (A) (A) (A) (A) (A) (A) (A) (A) (A) (A) (A)
                 (A) (A) (A) (A) (A) (A) (A) (A) (A) (A) (A) (A)
                 (A) (A) (A) (A) (A) (A) (A) (A) (A) (A) (A) (A)
                 (A) (A) (A) (A) (A) (A) (A) (A) (A) (A) (A) (A)
                 (A) (A) (A) (A) (A) (A) (A) (A) (A) (A) (A) (A)
                 (A) (A) (A) (A) (A) (A) (A) (A) (A) (A) (A) (A)
                 (A) (A) (A) (A) (A) (A) (A) (A) (A) (A) (A) (A)
                 (A) (A) (A) (A) (A) (A) (A) (A) (A) (A) (A) (A)
                 (A) (A) (A) (A) (A) (A) (A) (A) (A) (A) (A) (A)
                 (A) (A) (A) (A) (A) (A) (A) (A) (A) (A) (A) (A)
                 (A) (A) (A) (A) (A) (A) (A) (A) (A) (A) (A) (A)
                 (A) (A) (A) (A) (A) (A) (A) (A) (A) (A) (A) (A)
                 (A) (A) (A) (A) (A) (A) (A) (A) (A) (A) (A) (A)
                 (A) (A) (A) (A) (A) (A) (A) (A) (A) (A) (A) (A)
                 (A) (A) (A) (A) (A) (A) (A) (A) (A) (A) (A) (A)
                 (A) (A) (A) (A) (A) (A) (A) (A) (A) (A) (A) (A)
                 (A) (A) (A) (A) (A) (A) (A) (A) (A) (A) (A) (A)
                 (A) (A) (A) (A) (A) (A) (A) (A) (A) (A) (A) (A)
                 (A) (A) (A) (A) (A) (A) (A) (A) (A) (A) (A) (A)
                 (A) (A) (A) (A) (A) (A) (A) (A) (A) (A) (A) (A)
                 (A) (A) (A) (A) (A) (A) (A) (A) (A) (A) (A) (A)
                 (A) (A) (A) (A) (A) (A) (A) (A) (A) (A) (A) (A)
                 (A) (A) (A) (A) (A) (A) (A) (A) (A) (A) (A) (A)
                 (A) (A) (A) (A) (A) (A) (A) (A) (A) (A) (A) (A)
                 (A) (A) (A) (A) (A) (A) (A) (A) (A) (A) (A) (A)
                 (A) (A) (A) (A) (A) (A) (A) (A) (A) (A) (A) (A)
                 (A) (A) (A) (A) (A) (A) (A) (A) (A) (A) (A) (A)
                 (A) (A) (A) (A) (A) (A) (A) (A) (A) (A) (A) (A)
                 (A) (A) (A) (A) (A) (A) (A) (A) (A) (A) (A) (A)
                 (A) (A) (A) (A) (A) (A) (A) (A) (A) (A) (A) (A)
                 (A) (A) (A) (A) (A) (A) (A) (A) (A) (A) (A) (A)
                 (A) (A) (A) (A) (A) (A) (A) (A) (A) (A) (A) (A)
                 (A) (A) (A) (A) (A) (A) (A) (A) (A) (A) (A) (A)
                 (A) (A) (A) (A) (A) (A) (A) (A) (A) (A) (A) (A)
                 (A) (A) (A) (A) (A) (A) (A) (A) (A) (A) (A) (A)
                 (A) (A) (A) (A) (A) (A) (A) (A) (A) (A) (A) (A)
                 (A) (A) (A) (A) (A) (A) (A) (A) (A) (A) (A) (A)
                 (A) (A) (A) (A) (A) (A) (A) (A) (A) (A) (A) (A)
                 (A) (A) (A) (A) (A) (A) (A) (A) (A) (A) (A) (A)
                 (A) (A) (A) (A) (A) (A) (A) (A) (A) (A) (A) (A)
                 (A) (A) (A) (A) (A) (A) (A) (A) (A) (A) (A) (A)
                 (A) (A) (A) (A) (A) (A) (A) (A) (A) (A) (A) (A)
                 (A) (A) (A) (A) (A) (A) (A) (A) (A) (A) (A) (A)
                 (A) (A) (A) (A) (A) (A) (A) (A) (A) (A) (A) (A)
                 (A) (A) (A) (A) (A) (A) (A) (A) (A) (A) (A) (A)
                 (A) (A) (A) (A) (A) (A) (A) (A) (A) (A) (A) (A)
                 (A) (A) (A) (A) (A) (A) (A) (A) (A) (A) (A) (A)
                 (A) (A) (A) (A) (A) (A) (A) (A) (A) (A) (A) (A)
                 (A) (A) (A) (A) (A) (A) (A) (A) (A) (A) (A) (A)
                 (A) (A) (A) (A) (A) (A) (A) (A) (A) (A) (A) (A)
                 (A) (A) (A) (A) (A) (A) (A) (A) (A) (A) (A) (A)
                 (A) (A) (A) (A) (A) (A) (A) (A) (A) (A) (A) (A)
                 (A) (A) (A) (A) (A) (A) (A) (A) (A) (A) (A) (A)
                 (A) (A) (A) (A) (A) (A) (A) (A) (A) (A) (A) (A)
                 (A) (A) (A) (A) (A) (A) (A) (A) (A) (A) (A) (A)
                 (A) (A) (A) (A) (A) (A) (A) (A) (A) (A) (A) (A)
                 (A) (A) (A) (A) (A) (A) (A) (A) (A) (A) (A) (A)
                 (A) (A) (A) (A) (A) (A) (A) (A) (A) (A) (A) (A)
                 (A) (A) (A) (A) (A) (A) (A) (A) (A) (A) (A) (A)
                 (A) (A) (A) (A) (A) (A) (A) (A) (A) (A) (A) (A)
                 (A) (A) (A) (A) (A) (A) (A) (A) (A) (A) (A) (A)
                 (A) (A) (A) (A) (A) (A) (A) (A) (A) (A) (A) (A)
                 (A) (A) (A) (A) (A) (A) (A) (A) (A) (A) (A) (A)
                 (A) (A) (A) (A) (A) (A) (A) (A) (A) (A) (A) (A)
                 (A) (A) (A) (A) (A) (A) (A) (A) (A) (A) (A) (A)
                 (A) (A) (A) (A) (A) (A) (A) (A) (A) (A) (A) (A)
                 (A) (A) (A) (A) (A) (A) (A) (A) (A) (A) (A) (A)
                 (A) (A) (A) (A) (A) (A) (A) (A) (A) (A) (A) (A)
                 (A) (A) (A) (A) (A) (A)
 The electronic state is 1-A.
 Alpha  occ. eigenvalues --  -46.83938 -19.28783 -19.25166 -19.21292 -19.20354
 Alpha  occ. eigenvalues --  -19.19043 -14.41926 -14.38991 -14.38588 -14.38219
 Alpha  occ. eigenvalues --  -10.39323 -10.38775 -10.33991 -10.33920 -10.31623
 Alpha  occ. eigenvalues --  -10.31428 -10.30201 -10.30197 -10.28847 -10.28839
 Alpha  occ. eigenvalues --  -10.28815 -10.28768 -10.28272 -10.28219 -10.28174
 Alpha  occ. eigenvalues --  -10.28164 -10.27738 -10.27589 -10.27523 -10.27509
 Alpha  occ. eigenvalues --  -10.27295 -10.27285 -10.27266 -10.27190 -10.27095
 Alpha  occ. eigenvalues --  -10.26963 -10.26940 -10.26869 -10.26850 -10.26801
 Alpha  occ. eigenvalues --  -10.26765 -10.26726 -10.26652 -10.26617 -10.26493
 Alpha  occ. eigenvalues --  -10.26438 -10.26423 -10.26318 -10.26316 -10.26161
 Alpha  occ. eigenvalues --  -10.26156 -10.26089 -10.26023 -10.26004 -10.25487
 Alpha  occ. eigenvalues --  -10.25460 -10.25292 -10.25174 -10.25092 -10.25030
 Alpha  occ. eigenvalues --  -10.24661 -10.24423 -10.24049 -10.24046 -10.23795
 Alpha  occ. eigenvalues --   -3.12941  -1.87654  -1.87215  -1.87080  -1.22950
 Alpha  occ. eigenvalues --   -1.20608  -1.11609  -1.09361  -1.08316  -1.04519
 Alpha  occ. eigenvalues --   -1.03183  -1.02619  -1.01483  -0.92219  -0.92211
 Alpha  occ. eigenvalues --   -0.91198  -0.90974  -0.89794  -0.89039  -0.88194
 Alpha  occ. eigenvalues --   -0.87866  -0.87726  -0.87482  -0.86938  -0.86625
 Alpha  occ. eigenvalues --   -0.85764  -0.84629  -0.83725  -0.82956  -0.82259
 Alpha  occ. eigenvalues --   -0.82070  -0.80748  -0.80623  -0.80308  -0.78732
 Alpha  occ. eigenvalues --   -0.77678  -0.76887  -0.76229  -0.75836  -0.75643
 Alpha  occ. eigenvalues --   -0.75346  -0.74864  -0.74632  -0.73935  -0.72082
 Alpha  occ. eigenvalues --   -0.71601  -0.70479  -0.69646  -0.68420  -0.67296
 Alpha  occ. eigenvalues --   -0.66801  -0.65775  -0.65253  -0.64654  -0.64553
 Alpha  occ. eigenvalues --   -0.64038  -0.63396  -0.63196  -0.62245  -0.61821
 Alpha  occ. eigenvalues --   -0.61804  -0.60891  -0.60588  -0.60094  -0.59001
 Alpha  occ. eigenvalues --   -0.58601  -0.58344  -0.57717  -0.57500  -0.57358
 Alpha  occ. eigenvalues --   -0.56034  -0.55845  -0.55775  -0.55323  -0.54944
 Alpha  occ. eigenvalues --   -0.54865  -0.54782  -0.54557  -0.54106  -0.53834
 Alpha  occ. eigenvalues --   -0.53492  -0.52695  -0.52627  -0.52406  -0.52029
 Alpha  occ. eigenvalues --   -0.51593  -0.51495  -0.51324  -0.50906  -0.50724
 Alpha  occ. eigenvalues --   -0.50487  -0.50253  -0.49842  -0.49553  -0.49421
 Alpha  occ. eigenvalues --   -0.49194  -0.49096  -0.49047  -0.48857  -0.48576
 Alpha  occ. eigenvalues --   -0.48290  -0.47838  -0.47699  -0.47267  -0.47101
 Alpha  occ. eigenvalues --   -0.47001  -0.46856  -0.46417  -0.46294  -0.45740
 Alpha  occ. eigenvalues --   -0.45598  -0.45298  -0.45219  -0.45062  -0.44859
 Alpha  occ. eigenvalues --   -0.44591  -0.44453  -0.44376  -0.43947  -0.43766
 Alpha  occ. eigenvalues --   -0.43658  -0.43451  -0.43353  -0.43167  -0.42852
 Alpha  occ. eigenvalues --   -0.42797  -0.42660  -0.42475  -0.42363  -0.42163
 Alpha  occ. eigenvalues --   -0.41930  -0.41913  -0.41641  -0.41405  -0.41088
 Alpha  occ. eigenvalues --   -0.40790  -0.40710  -0.40451  -0.40323  -0.40309
 Alpha  occ. eigenvalues --   -0.40049  -0.39776  -0.39668  -0.39433  -0.39013
 Alpha  occ. eigenvalues --   -0.38941  -0.38817  -0.38452  -0.37977  -0.37925
 Alpha  occ. eigenvalues --   -0.37870  -0.37832  -0.37418  -0.37291  -0.36723
 Alpha  occ. eigenvalues --   -0.36660  -0.36454  -0.36121  -0.35666  -0.35379
 Alpha  occ. eigenvalues --   -0.35322  -0.34721  -0.34532  -0.33801  -0.33147
 Alpha  occ. eigenvalues --   -0.32483  -0.32388  -0.32092  -0.30024  -0.29648
 Alpha  occ. eigenvalues --   -0.29356  -0.28070  -0.27373  -0.26779  -0.22609
 Alpha  occ. eigenvalues --   -0.21002
 Alpha virt. eigenvalues --   -0.06187  -0.03103   0.01883   0.03969   0.04314
 Alpha virt. eigenvalues --    0.05996   0.06815   0.07285   0.07516   0.07717
 Alpha virt. eigenvalues --    0.08623   0.10793   0.10924   0.11396   0.11633
 Alpha virt. eigenvalues --    0.11857   0.12195   0.12280   0.12768   0.13210
 Alpha virt. eigenvalues --    0.13307   0.13441   0.13706   0.13922   0.14107
 Alpha virt. eigenvalues --    0.14304   0.14625   0.14734   0.15202   0.15559
 Alpha virt. eigenvalues --    0.15588   0.15776   0.16178   0.16224   0.16594
 Alpha virt. eigenvalues --    0.16663   0.16846   0.16918   0.17179   0.17369
 Alpha virt. eigenvalues --    0.17581   0.17783   0.17965   0.17990   0.18356
 Alpha virt. eigenvalues --    0.18430   0.18829   0.18907   0.19067   0.19139
 Alpha virt. eigenvalues --    0.19314   0.19465   0.19675   0.19864   0.19944
 Alpha virt. eigenvalues --    0.20026   0.20438   0.20538   0.20870   0.21093
 Alpha virt. eigenvalues --    0.21147   0.21443   0.21628   0.21732   0.21875
 Alpha virt. eigenvalues --    0.22063   0.22401   0.22498   0.22591   0.22707
 Alpha virt. eigenvalues --    0.22790   0.23021   0.23211   0.23406   0.23825
 Alpha virt. eigenvalues --    0.23986   0.24109   0.24237   0.24515   0.24578
 Alpha virt. eigenvalues --    0.24639   0.24726   0.24851   0.25145   0.25273
 Alpha virt. eigenvalues --    0.25308   0.25526   0.25770   0.25918   0.26275
 Alpha virt. eigenvalues --    0.26432   0.26782   0.26926   0.26980   0.27432
 Alpha virt. eigenvalues --    0.27690   0.27895   0.28032   0.28204   0.28477
 Alpha virt. eigenvalues --    0.28860   0.29076   0.29084   0.29183   0.29278
 Alpha virt. eigenvalues --    0.29565   0.29903   0.29926   0.30361   0.30664
 Alpha virt. eigenvalues --    0.31001   0.31058   0.31189   0.31414   0.31509
 Alpha virt. eigenvalues --    0.32068   0.32352   0.32501   0.32766   0.33359
 Alpha virt. eigenvalues --    0.33764   0.34109   0.34270   0.34437   0.34708
 Alpha virt. eigenvalues --    0.34759   0.34932   0.35379   0.35852   0.36436
 Alpha virt. eigenvalues --    0.36794   0.37078   0.37570   0.38071   0.38236
 Alpha virt. eigenvalues --    0.39212   0.39516   0.39911   0.41028   0.41242
 Alpha virt. eigenvalues --    0.41302   0.41873   0.42468   0.42839   0.43107
 Alpha virt. eigenvalues --    0.43356   0.44648   0.45340   0.45989   0.46615
 Alpha virt. eigenvalues --    0.47769   0.47972   0.48330   0.48778   0.49498
 Alpha virt. eigenvalues --    0.50718   0.51154   0.51308   0.51853   0.52525
 Alpha virt. eigenvalues --    0.52888   0.53066   0.53808   0.54264   0.54531
 Alpha virt. eigenvalues --    0.54616   0.54874   0.55125   0.55726   0.55794
 Alpha virt. eigenvalues --    0.56029   0.56490   0.56580   0.56890   0.57141
 Alpha virt. eigenvalues --    0.57295   0.57499   0.57634   0.57736   0.58205
 Alpha virt. eigenvalues --    0.58341   0.58685   0.58985   0.59020   0.59160
 Alpha virt. eigenvalues --    0.59445   0.59720   0.60083   0.60229   0.60320
 Alpha virt. eigenvalues --    0.60445   0.60731   0.60912   0.61040   0.61241
 Alpha virt. eigenvalues --    0.61499   0.61556   0.61792   0.62153   0.62344
 Alpha virt. eigenvalues --    0.62654   0.63117   0.63544   0.63736   0.64010
 Alpha virt. eigenvalues --    0.64267   0.64577   0.64743   0.65217   0.65449
 Alpha virt. eigenvalues --    0.65840   0.66099   0.66487   0.66744   0.66892
 Alpha virt. eigenvalues --    0.67238   0.67521   0.67655   0.68107   0.68344
 Alpha virt. eigenvalues --    0.68418   0.68531   0.68655   0.68940   0.69076
 Alpha virt. eigenvalues --    0.69707   0.69915   0.70008   0.70181   0.70548
 Alpha virt. eigenvalues --    0.70634   0.70810   0.71249   0.71482   0.72328
 Alpha virt. eigenvalues --    0.72458   0.72553   0.72797   0.72836   0.73281
 Alpha virt. eigenvalues --    0.73366   0.73689   0.73854   0.74104   0.74354
 Alpha virt. eigenvalues --    0.74528   0.74743   0.75136   0.75421   0.75439
 Alpha virt. eigenvalues --    0.75815   0.76284   0.76361   0.76472   0.76808
 Alpha virt. eigenvalues --    0.77216   0.77252   0.77775   0.78158   0.78228
 Alpha virt. eigenvalues --    0.78419   0.78501   0.78955   0.79190   0.79741
 Alpha virt. eigenvalues --    0.79801   0.80157   0.80270   0.80443   0.81035
 Alpha virt. eigenvalues --    0.81063   0.81362   0.81779   0.82007   0.82063
 Alpha virt. eigenvalues --    0.82249   0.82281   0.82516   0.82774   0.82889
 Alpha virt. eigenvalues --    0.82970   0.83247   0.83756   0.83929   0.84088
 Alpha virt. eigenvalues --    0.84448   0.84568   0.84665   0.84994   0.85114
 Alpha virt. eigenvalues --    0.85365   0.85648   0.85842   0.86034   0.86067
 Alpha virt. eigenvalues --    0.86255   0.86381   0.87019   0.87360   0.87618
 Alpha virt. eigenvalues --    0.87692   0.87970   0.88210   0.88312   0.88429
 Alpha virt. eigenvalues --    0.88499   0.88869   0.89092   0.89325   0.89401
 Alpha virt. eigenvalues --    0.89559   0.89577   0.89896   0.90121   0.90293
 Alpha virt. eigenvalues --    0.90720   0.90916   0.91025   0.91173   0.91200
 Alpha virt. eigenvalues --    0.91385   0.91845   0.91947   0.92513   0.92563
 Alpha virt. eigenvalues --    0.92858   0.92895   0.93023   0.93197   0.93321
 Alpha virt. eigenvalues --    0.93461   0.93660   0.94127   0.94480   0.94727
 Alpha virt. eigenvalues --    0.94753   0.95042   0.95559   0.95725   0.95932
 Alpha virt. eigenvalues --    0.96107   0.96285   0.96422   0.96673   0.96968
 Alpha virt. eigenvalues --    0.97137   0.97426   0.97575   0.97803   0.97979
 Alpha virt. eigenvalues --    0.98219   0.98450   0.98544   0.98835   0.99046
 Alpha virt. eigenvalues --    0.99227   0.99333   0.99688   0.99813   0.99991
 Alpha virt. eigenvalues --    1.00189   1.00278   1.00433   1.00701   1.00946
 Alpha virt. eigenvalues --    1.00972   1.01389   1.01665   1.01978   1.02038
 Alpha virt. eigenvalues --    1.02158   1.02242   1.02610   1.02754   1.03291
 Alpha virt. eigenvalues --    1.03335   1.04013   1.04257   1.04322   1.04451
 Alpha virt. eigenvalues --    1.04715   1.05225   1.05286   1.05611   1.05679
 Alpha virt. eigenvalues --    1.05796   1.06016   1.06232   1.07153   1.07305
 Alpha virt. eigenvalues --    1.07445   1.07589   1.08536   1.09024   1.09347
 Alpha virt. eigenvalues --    1.09792   1.09960   1.10347   1.10617   1.10801
 Alpha virt. eigenvalues --    1.11094   1.11319   1.11654   1.11929   1.12191
 Alpha virt. eigenvalues --    1.13140   1.13563   1.13803   1.14105   1.14917
 Alpha virt. eigenvalues --    1.15442   1.16087   1.16790   1.17717   1.18331
 Alpha virt. eigenvalues --    1.19121   1.19348   1.19729   1.20214   1.20645
 Alpha virt. eigenvalues --    1.21133   1.21429   1.22101   1.22544   1.23074
 Alpha virt. eigenvalues --    1.23196   1.24012   1.24269   1.24443   1.24818
 Alpha virt. eigenvalues --    1.25230   1.25601   1.26229   1.27168   1.27646
 Alpha virt. eigenvalues --    1.28759   1.29017   1.29571   1.29797   1.30281
 Alpha virt. eigenvalues --    1.31081   1.31654   1.32143   1.32606   1.32702
 Alpha virt. eigenvalues --    1.33420   1.33629   1.34338   1.34845   1.34982
 Alpha virt. eigenvalues --    1.35308   1.35823   1.37655   1.38057   1.38392
 Alpha virt. eigenvalues --    1.38818   1.38966   1.40021   1.40151   1.40306
 Alpha virt. eigenvalues --    1.41034   1.41328   1.41552   1.42099   1.42615
 Alpha virt. eigenvalues --    1.43093   1.43734   1.43899   1.44535   1.45140
 Alpha virt. eigenvalues --    1.45817   1.45961   1.46351   1.46429   1.46927
 Alpha virt. eigenvalues --    1.47435   1.48003   1.48704   1.48953   1.50010
 Alpha virt. eigenvalues --    1.50489   1.51586   1.51935   1.52316   1.52933
 Alpha virt. eigenvalues --    1.53290   1.53979   1.54413   1.54882   1.55259
 Alpha virt. eigenvalues --    1.55848   1.56144   1.56428   1.56656   1.56805
 Alpha virt. eigenvalues --    1.57189   1.57904   1.58387   1.58624   1.58786
 Alpha virt. eigenvalues --    1.59127   1.59426   1.59634   1.60170   1.60770
 Alpha virt. eigenvalues --    1.61874   1.61914   1.62453   1.63392   1.63809
 Alpha virt. eigenvalues --    1.64310   1.64752   1.65193   1.65730   1.66209
 Alpha virt. eigenvalues --    1.66378   1.66916   1.67410   1.67550   1.67958
 Alpha virt. eigenvalues --    1.68224   1.69005   1.69233   1.69331   1.69650
 Alpha virt. eigenvalues --    1.70234   1.70854   1.70999   1.71512   1.71784
 Alpha virt. eigenvalues --    1.71968   1.72171   1.72928   1.73456   1.73746
 Alpha virt. eigenvalues --    1.74027   1.74123   1.74766   1.75231   1.75657
 Alpha virt. eigenvalues --    1.75874   1.76512   1.76684   1.76878   1.77543
 Alpha virt. eigenvalues --    1.78190   1.78577   1.79064   1.79523   1.79858
 Alpha virt. eigenvalues --    1.80569   1.80733   1.81059   1.81696   1.82370
 Alpha virt. eigenvalues --    1.82880   1.83048   1.83227   1.83300   1.84393
 Alpha virt. eigenvalues --    1.85013   1.85094   1.85206   1.85606   1.85919
 Alpha virt. eigenvalues --    1.85994   1.86367   1.86553   1.86627   1.86823
 Alpha virt. eigenvalues --    1.87327   1.87420   1.87607   1.88311   1.88422
 Alpha virt. eigenvalues --    1.88851   1.89025   1.89481   1.89599   1.89797
 Alpha virt. eigenvalues --    1.90162   1.90290   1.90543   1.90765   1.91007
 Alpha virt. eigenvalues --    1.91122   1.91266   1.91848   1.92063   1.92334
 Alpha virt. eigenvalues --    1.92908   1.93103   1.93319   1.93423   1.94106
 Alpha virt. eigenvalues --    1.94201   1.94344   1.94658   1.95111   1.95327
 Alpha virt. eigenvalues --    1.95541   1.95753   1.96068   1.96282   1.96319
 Alpha virt. eigenvalues --    1.96522   1.96699   1.96914   1.97263   1.97373
 Alpha virt. eigenvalues --    1.97676   1.97774   1.97938   1.98181   1.98302
 Alpha virt. eigenvalues --    1.98528   1.98957   1.99056   1.99400   1.99751
 Alpha virt. eigenvalues --    2.00141   2.00620   2.00910   2.01570   2.01849
 Alpha virt. eigenvalues --    2.02012   2.02549   2.02942   2.03044   2.03276
 Alpha virt. eigenvalues --    2.03530   2.03613   2.03862   2.04426   2.04458
 Alpha virt. eigenvalues --    2.04854   2.05241   2.05434   2.05453   2.06192
 Alpha virt. eigenvalues --    2.06277   2.06591   2.07036   2.07363   2.07671
 Alpha virt. eigenvalues --    2.08112   2.08487   2.09104   2.09472   2.09852
 Alpha virt. eigenvalues --    2.09980   2.10253   2.10459   2.10764   2.11056
 Alpha virt. eigenvalues --    2.11194   2.11566   2.11664   2.12249   2.12439
 Alpha virt. eigenvalues --    2.12535   2.12635   2.13298   2.13339   2.13735
 Alpha virt. eigenvalues --    2.13908   2.14024   2.14368   2.14739   2.15158
 Alpha virt. eigenvalues --    2.15344   2.15530   2.16085   2.16347   2.16998
 Alpha virt. eigenvalues --    2.17038   2.17390   2.17673   2.17932   2.18245
 Alpha virt. eigenvalues --    2.18349   2.18664   2.18981   2.19116   2.20330
 Alpha virt. eigenvalues --    2.20399   2.20501   2.21092   2.21271   2.21638
 Alpha virt. eigenvalues --    2.21772   2.21849   2.22099   2.22375   2.22810
 Alpha virt. eigenvalues --    2.22841   2.23221   2.23916   2.24048   2.24334
 Alpha virt. eigenvalues --    2.25187   2.25597   2.25669   2.26001   2.26296
 Alpha virt. eigenvalues --    2.26458   2.26550   2.26920   2.27120   2.27677
 Alpha virt. eigenvalues --    2.27800   2.28008   2.28524   2.28544   2.28771
 Alpha virt. eigenvalues --    2.29298   2.30190   2.30589   2.30659   2.30933
 Alpha virt. eigenvalues --    2.31216   2.31410   2.31553   2.32531   2.33010
 Alpha virt. eigenvalues --    2.33654   2.33854   2.34048   2.34787   2.34886
 Alpha virt. eigenvalues --    2.35126   2.35800   2.35875   2.36066   2.36234
 Alpha virt. eigenvalues --    2.36448   2.36877   2.37227   2.37420   2.37839
 Alpha virt. eigenvalues --    2.38108   2.38700   2.39344   2.39388   2.39800
 Alpha virt. eigenvalues --    2.39852   2.40141   2.40329   2.40572   2.40693
 Alpha virt. eigenvalues --    2.41189   2.41484   2.41898   2.42376   2.42590
 Alpha virt. eigenvalues --    2.42832   2.43004   2.43189   2.43523   2.43937
 Alpha virt. eigenvalues --    2.44042   2.44489   2.44767   2.45019   2.45188
 Alpha virt. eigenvalues --    2.45654   2.45834   2.46519   2.46968   2.47097
 Alpha virt. eigenvalues --    2.47367   2.47567   2.48173   2.48380   2.48745
 Alpha virt. eigenvalues --    2.49101   2.49249   2.49409   2.49810   2.50190
 Alpha virt. eigenvalues --    2.50368   2.50916   2.51049   2.51284   2.51755
 Alpha virt. eigenvalues --    2.52488   2.52519   2.53323   2.53702   2.54634
 Alpha virt. eigenvalues --    2.54659   2.54794   2.55053   2.55358   2.55481
 Alpha virt. eigenvalues --    2.56294   2.56608   2.57017   2.57425   2.57518
 Alpha virt. eigenvalues --    2.58091   2.58250   2.58328   2.58548   2.58720
 Alpha virt. eigenvalues --    2.59316   2.59571   2.60753   2.60963   2.61240
 Alpha virt. eigenvalues --    2.61577   2.61694   2.62227   2.62396   2.62958
 Alpha virt. eigenvalues --    2.63769   2.63923   2.64403   2.64556   2.64867
 Alpha virt. eigenvalues --    2.65058   2.65095   2.65529   2.66107   2.66437
 Alpha virt. eigenvalues --    2.66818   2.67047   2.67078   2.67778   2.68200
 Alpha virt. eigenvalues --    2.68352   2.69037   2.69306   2.69379   2.70000
 Alpha virt. eigenvalues --    2.70257   2.70566   2.71011   2.71121   2.71747
 Alpha virt. eigenvalues --    2.71897   2.72431   2.72713   2.72922   2.73362
 Alpha virt. eigenvalues --    2.73741   2.74139   2.74287   2.74314   2.74684
 Alpha virt. eigenvalues --    2.74892   2.75304   2.75730   2.76091   2.76403
 Alpha virt. eigenvalues --    2.76724   2.77229   2.77390   2.77607   2.77713
 Alpha virt. eigenvalues --    2.78127   2.78385   2.78756   2.79206   2.79683
 Alpha virt. eigenvalues --    2.80313   2.80952   2.81024   2.81131   2.81653
 Alpha virt. eigenvalues --    2.82147   2.82288   2.82578   2.82743   2.83400
 Alpha virt. eigenvalues --    2.83640   2.83685   2.84371   2.84550   2.84673
 Alpha virt. eigenvalues --    2.84809   2.85157   2.85771   2.86018   2.86275
 Alpha virt. eigenvalues --    2.86410   2.86997   2.87192   2.87373   2.87484
 Alpha virt. eigenvalues --    2.88145   2.88337   2.88464   2.89108   2.90313
 Alpha virt. eigenvalues --    2.90647   2.90909   2.91225   2.91356   2.91414
 Alpha virt. eigenvalues --    2.91741   2.92368   2.92724   2.93120   2.93177
 Alpha virt. eigenvalues --    2.93475   2.94037   2.94327   2.94463   2.95223
 Alpha virt. eigenvalues --    2.95336   2.95807   2.96124   2.96384   2.96748
 Alpha virt. eigenvalues --    2.96944   2.97609   2.97682   2.98132   2.99155
 Alpha virt. eigenvalues --    2.99370   2.99516   3.00432   3.01153   3.01387
 Alpha virt. eigenvalues --    3.01974   3.02569   3.02769   3.02831   3.03020
 Alpha virt. eigenvalues --    3.03306   3.03764   3.03979   3.04603   3.05592
 Alpha virt. eigenvalues --    3.06199   3.07750   3.07765   3.08799   3.09035
 Alpha virt. eigenvalues --    3.09093   3.09819   3.10192   3.10958   3.11600
 Alpha virt. eigenvalues --    3.12517   3.13068   3.13721   3.14985   3.15806
 Alpha virt. eigenvalues --    3.16964   3.17488   3.17908   3.18648   3.19359
 Alpha virt. eigenvalues --    3.19435   3.21036   3.21964   3.22150   3.23568
 Alpha virt. eigenvalues --    3.24002   3.24240   3.26123   3.26654   3.27093
 Alpha virt. eigenvalues --    3.27402   3.27526   3.27913   3.28331   3.29028
 Alpha virt. eigenvalues --    3.30542   3.31344   3.31671   3.32405   3.32892
 Alpha virt. eigenvalues --    3.33094   3.33891   3.35394   3.35562   3.36169
 Alpha virt. eigenvalues --    3.37007   3.37738   3.37992   3.39214   3.39312
 Alpha virt. eigenvalues --    3.39652   3.40377   3.40655   3.42259   3.42668
 Alpha virt. eigenvalues --    3.42723   3.44145   3.44641   3.44871   3.45031
 Alpha virt. eigenvalues --    3.45399   3.46345   3.46410   3.46902   3.47403
 Alpha virt. eigenvalues --    3.47729   3.48271   3.48373   3.49040   3.50198
 Alpha virt. eigenvalues --    3.50601   3.51003   3.52471   3.52798   3.52903
 Alpha virt. eigenvalues --    3.53622   3.53757   3.54573   3.55449   3.55552
 Alpha virt. eigenvalues --    3.55647   3.57802   3.59464   3.60103   3.61414
 Alpha virt. eigenvalues --    3.62797   3.63715   3.63957   3.65017   3.65277
 Alpha virt. eigenvalues --    3.65805   3.67465   3.69021   3.69610   3.69916
 Alpha virt. eigenvalues --    3.71911   3.79656   3.83012   4.05977   4.10531
 Alpha virt. eigenvalues --    4.11063   4.16883   4.19267   4.20680   4.22950
 Alpha virt. eigenvalues --    4.23674   4.24172   4.26386   4.26920   4.28910
 Alpha virt. eigenvalues --    4.29884   4.31134   4.31354   4.31771   4.33299
 Alpha virt. eigenvalues --    4.33852   4.34687   4.36486   4.38498   4.39556
 Alpha virt. eigenvalues --    4.40049   4.41742   4.43950   4.45012   4.46399
 Alpha virt. eigenvalues --    4.47568   4.48045   4.48510   4.50789   4.51300
 Alpha virt. eigenvalues --    4.51774   4.52858   4.54673   4.54941   4.56519
 Alpha virt. eigenvalues --    4.56670   4.58154   4.60248   4.60503   4.60655
 Alpha virt. eigenvalues --    4.61460   4.62674   4.62883   4.64192   4.66245
 Alpha virt. eigenvalues --    4.68615   4.69331   4.71339   4.72013   4.73281
 Alpha virt. eigenvalues --    4.74981   4.75306   4.76370   4.79495   4.82540
 Alpha virt. eigenvalues --    4.84846   4.85823   4.86759   4.88370   4.90718
 Alpha virt. eigenvalues --    4.91697   4.99918   5.06527
          Condensed to atoms (all electrons):
 Mulliken charges:
               1
     1  Mg   0.819566
     2  C    0.043420
     3  C   -0.220158
     4  C   -0.184513
     5  C   -0.145596
     6  N   -0.614385
     7  C    0.297248
     8  C   -0.172671
     9  C   -0.137200
    10  C    0.312090
    11  C   -0.298758
    12  C   -0.155565
    13  C   -0.266350
    14  C    0.575878
    15  O   -0.481137
    16  O   -0.388942
    17  N   -0.753606
    18  C    0.339162
    19  C    0.012454
    20  C   -0.009217
    21  C    0.368747
    22  C   -0.371437
    23  C   -0.085351
    24  C   -0.247626
    25  N   -0.660892
    26  C    0.313406
    27  C   -0.042912
    28  C    0.082829
    29  C    0.218444
    30  C   -0.341133
    31  C   -0.240065
    32  C   -0.311971
    33  N   -0.696449
    34  C    0.282446
    35  C    0.022358
    36  C    0.034734
    37  C    0.263832
    38  C   -0.402087
    39  C    0.362013
    40  O   -0.494632
    41  C   -0.329646
    42  C    0.598133
    43  O   -0.420253
    44  O   -0.425960
    45  C   -0.079941
    46  C   -0.013517
    47  C   -0.125446
    48  C    0.086991
    49  C   -0.335750
    50  C   -0.223233
    51  C   -0.175407
    52  C   -0.161039
    53  C   -0.092465
    54  C   -0.308557
    55  C   -0.157775
    56  C   -0.170554
    57  C   -0.154712
    58  C   -0.038513
    59  C   -0.305099
    60  C   -0.180944
    61  C   -0.168104
    62  C   -0.181252
    63  C   -0.062114
    64  C   -0.309231
    65  C   -0.316319
    66  H    0.056218
    67  H    0.086789
    68  H    0.093035
    69  H    0.131273
    70  H    0.119708
    71  H    0.117990
    72  H    0.096135
    73  H    0.138346
    74  H    0.119087
    75  H    0.089871
    76  H    0.115687
    77  H    0.120990
    78  H    0.136002
    79  H    0.137333
    80  H    0.092342
    81  H    0.095176
    82  H    0.095804
    83  H    0.112100
    84  H    0.130579
    85  H    0.108093
    86  H    0.098165
    87  H    0.113480
    88  H    0.117382
    89  H    0.061463
    90  H    0.110722
    91  H    0.125152
    92  H    0.106077
    93  H    0.142671
    94  H    0.125146
    95  H    0.170967
    96  H    0.120787
    97  H    0.105149
    98  H    0.120458
    99  H    0.134900
   100  H    0.109382
   101  H    0.087053
   102  H    0.099187
   103  H    0.124690
   104  H    0.125883
   105  H    0.108859
   106  H    0.111664
   107  H    0.120410
   108  H    0.077296
   109  H    0.079315
   110  H    0.075551
   111  H    0.084944
   112  H    0.094363
   113  H    0.098887
   114  H    0.091013
   115  H    0.096272
   116  H    0.087723
   117  H    0.084720
   118  H    0.099937
   119  H    0.047843
   120  H    0.095087
   121  H    0.051174
   122  H    0.104735
   123  H    0.120271
   124  H    0.091927
   125  H    0.096833
   126  H    0.086312
   127  H    0.075013
   128  H    0.096430
   129  H    0.086942
   130  H    0.098298
   131  H    0.090035
   132  H    0.092385
   133  H    0.112610
   134  H    0.095959
   135  H    0.113493
   136  H    0.073680
   137  H    0.093479
 Sum of Mulliken charges =   0.00000
 Mulliken charges with hydrogens summed into heavy atoms:
               1
     1  Mg   0.819566
     2  C    0.043420
     3  C   -0.163940
     4  C   -0.097723
     5  C   -0.052561
     6  N   -0.614385
     7  C    0.297248
     8  C   -0.041398
     9  C   -0.017492
    10  C    0.312090
    11  C    0.053713
    12  C    0.053393
    13  C   -0.029673
    14  C    0.575878
    15  O   -0.481137
    16  O   -0.388942
    17  N   -0.753606
    18  C    0.339162
    19  C    0.012454
    20  C   -0.009217
    21  C    0.368747
    22  C   -0.005760
    23  C    0.009825
    24  C   -0.039723
    25  N   -0.660892
    26  C    0.313406
    27  C   -0.042912
    28  C    0.082829
    29  C    0.218444
    30  C   -0.004296
    31  C   -0.009202
    32  C   -0.014634
    33  N   -0.696449
    34  C    0.282446
    35  C    0.022358
    36  C    0.034734
    37  C    0.263832
    38  C   -0.028193
    39  C    0.362013
    40  O   -0.494632
    41  C   -0.158678
    42  C    0.598133
    43  O   -0.420253
    44  O   -0.425960
    45  C    0.266453
    46  C    0.230765
    47  C   -0.038393
    48  C    0.086991
    49  C    0.014010
    50  C   -0.002710
    51  C    0.022299
    52  C   -0.006173
    53  C   -0.007522
    54  C   -0.024295
    55  C    0.026221
    56  C    0.014103
    57  C   -0.011782
    58  C    0.012661
    59  C    0.011834
    60  C    0.002201
    61  C    0.003338
    62  C    0.003988
    63  C    0.027921
    64  C   -0.008277
    65  C   -0.035667
 Electronic spatial extent (au):  <R**2>=         179297.9195
 Charge=              0.0000 electrons
 Dipole moment (field-independent basis, Debye):
    X=              4.2034    Y=              4.2563    Z=              0.9103  Tot=              6.0510
 Quadrupole moment (field-independent basis, Debye-Ang):
   XX=           -334.5500   YY=           -406.2891   ZZ=           -397.0879
   XY=            -25.8538   XZ=             10.3290   YZ=              1.0995
 Traceless Quadrupole moment (field-independent basis, Debye-Ang):
   XX=             44.7590   YY=            -26.9801   ZZ=            -17.7789
   XY=            -25.8538   XZ=             10.3290   YZ=              1.0995
 Octapole moment (field-independent basis, Debye-Ang**2):
  XXX=           -527.0477  YYY=            140.1432  ZZZ=             15.8549  XYY=              8.8504
  XXY=            -39.5884  XXZ=            -47.8316  XZZ=             -3.9395  YZZ=            -39.9235
  YYZ=             26.9663  XYZ=            -47.3720
 Hexadecapole moment (field-independent basis, Debye-Ang**3):
 XXXX=        -215215.0351 YYYY=         -17979.6061 ZZZZ=          -4105.3175 XXXY=          -2833.1491
 XXXZ=           4087.7784 YYYX=           -978.3864 YYYZ=           -154.2866 ZZZX=             -7.1542
 ZZZY=           -119.5086 XXYY=         -40765.7045 XXZZ=         -39028.8678 YYZZ=          -3554.1461
 XXYZ=            173.5975 YYXZ=             -5.0527 ZZXY=             79.4175
 N-N= 8.754175212852D+03 E-N=-2.433138444628D+04  KE= 2.905776244091D+03
 1\1\GINC-PEDRO-RYZENSSD\SP\RCAM-B3LYP TD-FC\6-31G(d,p)\C55H72Mg1N4O5\P
 ADAWAN\27-Jun-2019\0\\# td=(NStates=1) CAM-B3LYP/6-31G(d,p)\\TD\\0,1\M
 g,0,-7.0940210714,0.6668249232,0.1480328519\C,0,-4.8464935305,-1.83564
 56759,0.4726028952\C,0,-4.8264419505,2.8390582331,1.1802714843\C,0,-9.
 4143960284,3.0069330927,-0.2423155646\C,0,-9.5633073583,-1.7855287279,
 -0.8707751925\N,0,-5.0966224438,0.5442456851,0.5937068911\C,0,-4.29216
 6822,-0.5695775782,0.6631282156\C,0,-2.9178127425,-0.2939046626,1.1907
 445157\C,0,-3.0010103902,1.0988210146,1.6784806545\C,0,-4.3158996767,1
 .5292833087,1.2056868299\C,0,-2.9112989209,1.2953160189,3.1809116173\C
 ,0,-1.7961238933,-0.5423882489,0.125921918\C,0,-0.4507233263,-0.348833
 1147,0.519350518\C,0,0.6310224806,-0.7149749296,-0.6818598378\O,0,0.16
 18667364,-0.9133627401,-1.7986391442\O,0,1.7879958246,-0.4651214189,-0
 .2940236225\N,0,-7.1526828768,2.655586966,0.4282979866\C,0,-6.03435056
 61,3.3790988638,0.9259505791\C,0,-6.4217801677,4.7779084212,0.89300706
 52\C,0,-7.7951801134,4.8093508218,0.4987567827\C,0,-8.2262831815,3.437
 3840297,0.2302833675\C,0,-5.6523710183,5.9738184731,1.3556720924\C,0,-
 8.7409433067,5.94781985,0.4489749194\C,0,-8.4671959174,7.2254186262,0.
 1446402017\N,0,-9.1285678925,0.5960260809,-0.4945511604\C,0,-9.8935710
 161,1.7074414267,-0.6032654507\C,0,-11.1995146944,1.3890598964,-1.1259
 373433\C,0,-11.3159201127,0.0041342907,-1.3081900852\C,0,-9.9695568394
 ,-0.4397524633,-0.9520045034\C,0,-12.2794161837,2.4081330942,-1.499100
 4409\C,0,-12.4735874044,-0.8865397162,-1.6966048377\C,0,-12.2871750495
 ,-1.3125151367,-3.1699951049\N,0,-7.1819044425,-1.3942087825,-0.165269
 6457\C,0,-8.2509003123,-2.1712930688,-0.5759153974\C,0,-7.8264903165,-
 3.5737915621,-0.5079392229\C,0,-6.4383393559,-3.5222865442,-0.13286577
 87\C,0,-6.12861764,-2.183734528,-0.0326216408\C,0,-8.5751278575,-4.758
 3286518,-0.7685964066\C,0,-5.2201385516,-4.2823642217,0.1507035703\O,0
 ,-5.0519365555,-5.51736439,0.1502710619\C,0,-4.1877421842,-3.222855219
 6,0.4433452265\C,0,-3.532937658,-3.6528013647,1.8490360833\O,0,-3.6820
 418588,-3.084821715,2.836907406\O,0,-2.6354148894,-4.6479729498,1.7494
 230303\C,0,-2.0289655351,-5.0569761669,2.9163629733\C,0,2.8199457712,-
 0.8079300507,-1.2348188568\C,0,4.0827115936,-0.5004338928,-0.572409769
 7\C,0,5.1643900464,0.3018035049,-0.9054804482\C,0,5.1369611127,1.27115
 16515,-2.0290499961\C,0,6.4410305607,0.3536141683,-0.0865153377\C,0,7.
 632000939,-0.1975716391,-0.9622658953\C,0,8.9308321656,-0.1678765212,-
 0.0969722914\C,0,10.2077916722,-0.4931464129,-0.8206584602\C,0,10.0921
 263988,-2.0004193768,-1.3031119727\C,0,11.4703081479,-0.3789987905,0.0
 982400227\C,0,12.7400111701,-0.5499315091,-0.6315036902\C,0,13.9344191
 297,-0.1016869319,0.1992771407\C,0,15.3007254165,-0.2574083525,-0.5603
 990902\C,0,15.5113852407,-1.7019629821,-0.7989971795\C,0,16.3177850325
 ,0.3537497611,0.4322224069\C,0,17.7058562899,0.6280009259,-0.219710250
 9\C,0,18.7044258421,1.2485867055,0.7672090826\C,0,20.2178194617,1.3007
 758222,0.140583662\C,0,20.4246826972,2.1633819862,-1.1817739988\C,0,21
 .1407519493,1.7684412135,1.2596626679\H,0,-4.0986801265,3.5986282445,1
 .8285473757\H,0,-10.392102962,3.6128888728,-0.0125855612\H,0,-10.29079
 83416,-2.4665367084,-1.2428778353\H,0,-2.8742961203,-0.9835080145,2.12
 14693855\H,0,-2.2558852265,1.6694354321,1.0711414806\H,0,-1.9910828316
 ,1.0998154705,3.557315945\H,0,-3.2666914553,2.3811075674,3.3943740049\
 H,0,-3.4910000812,0.7098853562,3.6889827828\H,0,-1.9177343003,-1.54122
 00424,-0.3670016862\H,0,-2.0539095932,0.2971618075,-0.6790130029\H,0,-
 0.1795250465,0.6773756611,0.9391861705\H,0,-0.3177577295,-1.1146344388
 ,1.2256154374\H,0,-4.9667288406,6.3274979249,0.6520669889\H,0,-6.35771
 04413,6.6355033491,1.8457092601\H,0,-4.8083140602,5.5799231637,2.05149
 88286\H,0,-9.838661365,5.7870716433,0.6069685414\H,0,-9.4165822986,7.9
 162002095,0.2742180151\H,0,-7.4689919358,7.4933199012,-0.2314176124\H,
 0,-11.8955749703,2.9270000053,-2.3609823966\H,0,-13.1304182553,2.11868
 75069,-1.6807816019\H,0,-12.4404210035,3.2000830937,-0.7148229803\H,0,
 -12.5330958377,-1.9109534935,-1.1230025082\H,0,-13.4537113747,-0.34963
 87769,-1.5940467617\H,0,-13.2984703132,-1.9232735666,-3.5466376615\H,0
 ,-12.4036505391,-0.5626549914,-4.02605018\H,0,-11.4817515228,-1.978310
 7751,-3.5053796535\H,0,-8.5415450504,-4.9558584341,-1.9967772591\H,0,-
 7.8868023812,-5.6430044086,-0.3581500431\H,0,-9.5902511909,-4.85573236
 02,-0.4024385001\H,0,-3.499020034,-3.1516167462,-0.4115278058\H,0,-1.4
 789189819,-4.2591542927,3.3541721042\H,0,-2.809916179,-5.3826389063,3.
 7806452866\H,0,-1.4259340199,-5.943858563,2.4570124041\H,0,2.541408812
 ,-1.8733570256,-1.4183559119\H,0,2.7521269129,-0.2175188335,-2.2987918
 99\H,0,4.0520144257,-1.0266706733,0.3331756938\H,0,4.0363945758,1.3801
 491112,-2.4558289252\H,0,5.4885121496,2.0817725675,-1.5627806327\H,0,5
 .6157668995,0.7994802782,-2.9718484841\H,0,6.4745704803,1.4293091586,0
 .2606635641\H,0,6.3856919172,-0.474950744,0.6931903261\H,0,7.437977539
 9,-1.0605271244,-1.388382967\H,0,7.8966912001,0.5186487414,-1.87122726
 96\H,0,9.0447505723,0.8653791544,0.4042943919\H,0,8.9154193647,-0.9641
 547709,0.7029149101\H,0,10.0140131128,0.0821029766,-1.6941832489\H,0,9
 .2277192683,-2.2176588102,-1.929357897\H,0,10.9102941141,-2.3212586385
 ,-1.9785540414\H,0,10.0925167253,-2.4575173743,-0.2636784585\H,0,11.21
 64364058,0.5549098985,0.4755995234\H,0,11.4110015099,-1.2196943075,0.8
 837758506\H,0,12.7061163473,-1.6738442458,-0.927681103\H,0,12.79828873
 49,-0.1248030013,-1.6220705709\H,0,13.669178421,1.0620894644,0.6070473
 652\H,0,13.9902451148,-0.5145738947,1.2117163413\H,0,15.3002824203,0.4
 708469451,-1.6192515847\H,0,15.7975017512,-2.2017869046,0.1499373961\H
 ,0,14.8859161234,-2.1868568793,-1.4561833387\H,0,16.5702850871,-1.7569
 696256,-1.1930014089\H,0,15.9637515849,1.240523125,0.9102444454\H,0,16
 .5346151635,-0.3521616119,1.2756404957\H,0,18.0585850504,-0.5059675606
 ,-0.377283736\H,0,17.7199820794,1.3835096095,-1.0487683607\H,0,18.4475
 434371,2.2774296426,0.9841135123\H,0,18.996075885,0.7918827996,1.63921
 02726\H,0,20.3392539921,0.2256790037,-0.0364258922\H,0,19.7387907124,3
 .0995789428,-1.2404443139\H,0,21.5014262565,2.3411499929,-1.1940106551
 \H,0,19.9264734805,1.5815295553,-2.062136637\H,0,21.4005500703,1.10688
 99928,2.0375031919\H,0,22.2419388344,1.8810866399,0.8590601722\H,0,20.
 8241949521,2.8355072269,1.6460205333\\Version=ES64L-G09RevD.01\State=1
 -A\HF=-2932.6557165\RMSD=6.341e-09\PG=C01 [X(C55H72Mg1N4O5)]\\@


 ERROR IS THE FORCE THAT WELDS MEN TOGETHER....
 TRUTH IS COMMUNICATED TO MEN ONLY BY DEEDS OF TRUTH.
           TOLSTOI,MY RELIGION
 Job cpu time:       0 days  6 hours 38 minutes 37.8 seconds.
 File lengths (MBytes):  RWF=   2106 Int=      0 D2E=      0 Chk=    163 Scr=      1
 Normal termination of Gaussian 09 at Thu Jun 27 10:24:05 2019.
