 Entering Gaussian System, Link 0=g16
 Input=Geometria-113-.com
 Output=Geometria-113-.log
 Initial command:
 /usr/local/g09/l1.exe "/home/padawan/israel-mol/chlorophyll-a/spectra/abs/Gau-32232.inp" -scrdir="/home/padawan/israel-mol/chlorophyll-a/spectra/abs/"
 Entering Link 1 = /usr/local/g09/l1.exe PID=     32234.
  
 Copyright (c) 1988,1990,1992,1993,1995,1998,2003,2009,2013,
            Gaussian, Inc.  All Rights Reserved.
  
 This is part of the Gaussian(R) 09 program.  It is based on
 the Gaussian(R) 03 system (copyright 2003, Gaussian, Inc.),
 the Gaussian(R) 98 system (copyright 1998, Gaussian, Inc.),
 the Gaussian(R) 94 system (copyright 1995, Gaussian, Inc.),
 the Gaussian 92(TM) system (copyright 1992, Gaussian, Inc.),
 the Gaussian 90(TM) system (copyright 1990, Gaussian, Inc.),
 the Gaussian 88(TM) system (copyright 1988, Gaussian, Inc.),
 the Gaussian 86(TM) system (copyright 1986, Carnegie Mellon
 University), and the Gaussian 82(TM) system (copyright 1983,
 Carnegie Mellon University). Gaussian is a federally registered
 trademark of Gaussian, Inc.
  
 This software contains proprietary and confidential information,
 including trade secrets, belonging to Gaussian, Inc.
  
 This software is provided under written license and may be
 used, copied, transmitted, or stored only in accord with that
 written license.
  
 The following legend is applicable only to US Government
 contracts under FAR:
  
                    RESTRICTED RIGHTS LEGEND
  
 Use, reproduction and disclosure by the US Government is
 subject to restrictions as set forth in subparagraphs (a)
 and (c) of the Commercial Computer Software - Restricted
 Rights clause in FAR 52.227-19.
  
 Gaussian, Inc.
 340 Quinnipiac St., Bldg. 40, Wallingford CT 06492
  
  
 ---------------------------------------------------------------
 Warning -- This program may not be used in any manner that
 competes with the business of Gaussian, Inc. or will provide
 assistance to any competitor of Gaussian, Inc.  The licensee
 of this program is prohibited from giving any competitor of
 Gaussian, Inc. access to this program.  By using this program,
 the user acknowledges that Gaussian, Inc. is engaged in the
 business of creating and licensing software in the field of
 computational chemistry and represents and warrants to the
 licensee that it is not a competitor of Gaussian, Inc. and that
 it will not use this program in any manner prohibited above.
 ---------------------------------------------------------------
  

 Cite this work as:
 Gaussian 09, Revision D.01,
 M. J. Frisch, G. W. Trucks, H. B. Schlegel, G. E. Scuseria, 
 M. A. Robb, J. R. Cheeseman, G. Scalmani, V. Barone, B. Mennucci, 
 G. A. Petersson, H. Nakatsuji, M. Caricato, X. Li, H. P. Hratchian, 
 A. F. Izmaylov, J. Bloino, G. Zheng, J. L. Sonnenberg, M. Hada, 
 M. Ehara, K. Toyota, R. Fukuda, J. Hasegawa, M. Ishida, T. Nakajima, 
 Y. Honda, O. Kitao, H. Nakai, T. Vreven, J. A. Montgomery, Jr., 
 J. E. Peralta, F. Ogliaro, M. Bearpark, J. J. Heyd, E. Brothers, 
 K. N. Kudin, V. N. Staroverov, T. Keith, R. Kobayashi, J. Normand, 
 K. Raghavachari, A. Rendell, J. C. Burant, S. S. Iyengar, J. Tomasi, 
 M. Cossi, N. Rega, J. M. Millam, M. Klene, J. E. Knox, J. B. Cross, 
 V. Bakken, C. Adamo, J. Jaramillo, R. Gomperts, R. E. Stratmann, 
 O. Yazyev, A. J. Austin, R. Cammi, C. Pomelli, J. W. Ochterski, 
 R. L. Martin, K. Morokuma, V. G. Zakrzewski, G. A. Voth, 
 P. Salvador, J. J. Dannenberg, S. Dapprich, A. D. Daniels, 
 O. Farkas, J. B. Foresman, J. V. Ortiz, J. Cioslowski, 
 and D. J. Fox, Gaussian, Inc., Wallingford CT, 2013.
 
 ******************************************
 Gaussian 09:  ES64L-G09RevD.01 24-Apr-2013
                27-Jun-2019 
 ******************************************
 %nproc=4
 Will use up to    4 processors via shared memory.
 %Mem=2GB
 -------------------------------------
 # td=(NStates=1) CAM-B3LYP/6-31G(d,p)
 -------------------------------------
 1/38=1/1;
 2/12=2,17=6,18=5,40=1/2;
 3/5=1,6=6,7=101,11=9,16=1,25=1,30=1,74=-40/1,2,8,3;
 4//1;
 5/5=2,38=5/2;
 8/6=1,10=2,108=1/1;
 9/41=1,42=1,70=2/14;
 6/7=2,8=2,9=2,10=2/1;
 99/5=1,9=1/99;
 --
 TD
 --
 Symbolic Z-matrix:
 Charge =  0 Multiplicity = 1
 12                   -7.18597   0.5943    0.09243 
 6                    -4.75492  -1.97175   0.51103 
 6                    -4.79451   2.92124   1.16358 
 6                    -9.44588   3.08935  -0.31363 
 6                    -9.53751  -1.80794  -0.79653 
 7                    -5.15467   0.45329   0.72488 
 6                    -4.36283  -0.73032   0.77078 
 6                    -2.82398  -0.39833   1.09188 
 6                    -3.00044   1.02566   1.58914 
 6                    -4.33564   1.56874   1.08318 
 6                    -3.00818   1.11144   3.14831 
 6                    -1.91438  -0.66044  -0.02891 
 6                    -0.46531  -0.47041   0.4378 
 6                     0.52139  -0.60761  -0.77434 
 8                     0.23044  -0.90068  -1.87745 
 8                     1.84828  -0.28773  -0.30488 
 7                    -7.11242   2.6872    0.34555 
 6                    -6.0574    3.34639   0.8219 
 6                    -6.42188   4.74836   0.93614 
 6                    -7.66722   4.81424   0.48519 
 6                    -8.16198   3.52519   0.18852 
 6                    -5.61938   5.89438   1.52828 
 6                    -8.52645   6.01667   0.3532 
 6                    -8.14407   7.27241  -0.04552 
 7                    -9.09949   0.66014  -0.40902 
 6                    -9.92859   1.74661  -0.55837 
 6                    -11.22783   1.32908  -1.07024 
 6                    -11.19236   0.03326  -1.07572 
 6                    -9.91223  -0.419    -0.71623 
 6                    -12.28668   2.39037  -1.44668 
 6                    -12.37603  -0.85384  -1.62929 
 6                    -12.30485  -0.95237  -3.16434 
 7                    -7.16527  -1.40949  -0.18141 
 6                    -8.26165  -2.21968  -0.51144 
 6                    -7.8179   -3.60151  -0.52209 
 6                    -6.45318  -3.60818  -0.1909 
 6                    -6.05697  -2.176     0.06863 
 6                    -8.58764  -4.90436  -0.67379 
 6                    -5.31731  -4.44245   0.18098 
 8                    -5.04897  -5.59916   0.15977 
 6                    -4.10453  -3.33119   0.40713 
 6                    -3.51736  -3.6528    1.74697 
 8                    -3.85933  -3.12601   2.79579 
 8                    -2.56907  -4.69456   1.78039 
 6                    -2.40643  -5.22194   3.1463 
 6                     2.86027  -0.65013  -1.30579 
 6                     4.11544  -0.40368  -0.55014 
 6                     5.23995   0.36136  -1.02471 
 6                     5.10579   1.35585  -2.27001 
 6                     6.4866    0.49411  -0.14003 
 6                     7.6668   -0.01039  -0.98649 
 6                     8.93497  -0.06816  -0.09264 
 6                     10.23117  -0.54576  -0.77846 
 6                     10.01857  -2.07024  -1.04586 
 6                     11.45457  -0.23253  -0.07965 
 6                     12.74728  -0.67003  -0.66144 
 6                     13.89676  -0.10514   0.10572 
 6                     15.29575  -0.24725  -0.52515 
 6                     15.63838  -1.69463  -0.84455 
 6                     16.28589   0.41291   0.31802 
 6                     17.6969   0.44876  -0.1704 
 6                     18.74902   1.20645   0.74192 
 6                     20.12345   1.37324   0.22855 
 6                     20.1814   2.27     -1.04799 
 6                     21.05175   1.82998   1.45041 
 1                    -4.0624    3.80309   1.17237 
 1                    -10.03721   4.01921  -0.3341 
 1                    -10.31247  -2.54523  -1.13483 
 1                    -2.64127  -0.84349   2.01112 
 1                    -2.19509   1.76677   1.07553 
 1                    -1.9866    0.71958   3.44021 
 1                    -3.11281   2.16828   3.64425 
 1                    -3.88152   0.53327   3.42404 
 1                    -2.08706  -1.58839  -0.55736 
 1                    -2.16156   0.26868  -0.78646 
 1                    -0.37885   0.69894   0.84353 
 1                    -0.18024  -1.24075   1.22912 
 1                    -4.99886   6.35082   0.78388 
 1                    -6.35371   6.6589    1.68438 
 1                    -5.21855   5.41007   2.33156 
 1                    -9.67887   5.93696   0.2284 
 1                    -8.72702   8.01225   0.03724 
 1                    -7.15414   7.51696  -0.26486 
 1                    -12.00722   3.2291   -2.13928 
 1                    -13.07958   1.91921  -1.84733 
 1                    -12.44603   3.01422  -0.50955 
 1                    -12.44414  -1.99791  -1.34246 
 1                    -13.31127  -0.38632  -1.35796 
 1                    -12.97103  -1.60913  -3.7069 
 1                    -12.36221  -0.13174  -3.70449 
 1                    -11.20686  -1.4735   -3.50385 
 1                    -9.23323  -5.02417  -1.48183 
 1                    -7.93155  -5.79117  -0.76076 
 1                    -9.1659   -5.08489   0.23488 
 1                    -3.36962  -3.66761  -0.38722 
 1                    -1.96842  -4.28286   3.63965 
 1                    -3.40359  -5.41325   3.72614 
 1                    -1.74887  -5.85935   2.86953 
 1                     2.7656   -1.79227  -1.65702 
 1                     2.87012  -0.08188  -2.06523 
 1                     4.4086   -1.14816   0.31383 
 1                     4.17519   1.45353  -2.54158 
 1                     5.28756   2.30498  -2.02252 
 1                     5.71102   1.25418  -3.02697 
 1                     6.72515   1.58885  -0.07437 
 1                     6.39069  -0.08861   0.72624 
 1                     7.604    -1.02408  -1.31504 
 1                     7.95159   0.61505  -1.90173 
 1                     9.14811   0.99313   0.27824 
 1                     8.74627  -0.72625   0.88673 
 1                     10.45096  -0.09519  -1.78903 
 1                     9.12632  -2.37251  -1.55685 
 1                     11.02855  -2.43395  -1.61362 
 1                     9.95511  -2.69207  -0.13373 
 1                     11.62227   0.86833   0.18417 
 1                     11.46056  -0.71202   0.76425 
 1                     12.67208  -1.67244  -0.73658 
 1                     12.65122  -0.27274  -1.62656 
 1                     13.58379   0.92819   0.63481 
 1                     13.96578  -0.55937   1.07075 
 1                     15.13703   0.21619  -1.44614 
 1                     15.52661  -2.37704  -0.00538 
 1                     14.87268  -1.90157  -1.51316 
 1                     16.54549  -1.84961  -1.21489 
 1                     15.88639   1.28637   0.43742 
 1                     16.18825   0.0142    1.42849 
 1                     18.18879  -0.47992  -0.62432 
 1                     17.71319   1.19126  -1.16162 
 1                     18.43375   2.07248   0.96837 
 1                     18.92236   0.91352   1.86307 
 1                     20.61354   0.34297  -0.05845 
 1                     19.52035   3.13487  -0.75536 
 1                     21.26718   2.43785  -1.39557 
 1                     19.49039   1.64656  -1.85715 
 1                     21.0076   0.90953   2.21069 
 1                     22.01277   1.93761   1.05466 
 1                     20.61029   2.7118    1.87796 
 
 Stoichiometry    C55H72MgN4O5
 Framework group  C1[X(C55H72MgN4O5)]
 Deg. of freedom   405
 Full point group                 C1      NOp   1
 Largest Abelian subgroup         C1      NOp   1
 Largest concise Abelian subgroup C1      NOp   1
                         Standard orientation:                         
 ---------------------------------------------------------------------
 Center     Atomic      Atomic             Coordinates (Angstroms)
 Number     Number       Type             X           Y           Z
 ---------------------------------------------------------------------
      1         12           0       -7.182459    0.595006    0.092260
      2          6           0       -4.751822   -1.973829    0.495863
      3          6           0       -4.791046    2.915080    1.178309
      4          6           0       -9.441971    3.092753   -0.299188
      5          6           0       -9.534016   -1.801485   -0.812043
      6          7           0       -5.151356    0.449899    0.724424
      7          6           0       -4.359667   -0.734060    0.763314
      8          6           0       -2.820872   -0.404206    1.086887
      9          6           0       -2.997313    1.016736    1.592790
     10          6           0       -4.332307    1.563045    1.089778
     11          6           0       -3.005492    1.092976    3.152450
     12          6           0       -1.910970   -0.659567   -0.035231
     13          6           0       -0.462023   -0.472555    0.433056
     14          6           0        0.525018   -0.602462   -0.779618
     15          8           0        0.234356   -0.888747   -1.884581
     16          8           0        1.851808   -0.285609   -0.307834
     17          7           0       -7.108746    2.686313    0.358195
     18          6           0       -6.053794    3.342454    0.838871
     19          6           0       -6.418147    4.743740    0.961577
     20          6           0       -7.663346    4.812524    0.510673
     21          6           0       -8.158164    3.525370    0.205989
     22          6           0       -5.615687    5.886032    1.560942
     23          6           0       -8.522408    6.015832    0.385790
     24          6           0       -8.139773    7.273949   -0.005129
     25          7           0       -9.095831    0.664133   -0.409329
     26          6           0       -9.924766    1.751584   -0.552271
     27          6           0      -11.223898    1.337348   -1.067059
     28          6           0      -11.188572    0.041575   -1.080446
     29          6           0       -9.908600   -0.413018   -0.723364
     30          6           0      -12.282519    2.401037   -1.437302
     31          6           0      -12.372181   -0.841983   -1.639772
     32          6           0      -12.300568   -0.931137   -3.175382
     33          7           0       -7.161907   -1.407073   -0.193818
     34          6           0       -8.258281   -2.215102   -0.529109
     35          6           0       -7.814681   -3.596898   -0.548082
     36          6           0       -6.450059   -3.605740   -0.216546
     37          6           0       -6.053763   -2.175227    0.051850
     38          6           0       -8.584523   -4.898708   -0.707962
     39          6           0       -5.314388   -4.442402    0.150552
     40          8           0       -5.046169   -5.598994    0.122352
     41          6           0       -4.101554   -3.332680    0.383846
     42          6           0       -3.514799   -3.662548    1.721858
     43          8           0       -3.857017   -3.142136    2.773788
     44          8           0       -2.566638   -4.704597    1.749182
     45          6           0       -2.404457   -5.240342    3.111888
     46          6           0        2.864045   -0.641999   -1.310641
     47          6           0        4.119029   -0.400317   -0.553138
     48          6           0        5.243755    0.367486   -1.022702
     49          6           0        5.110066    1.369587   -2.261939
     50          6           0        6.490162    0.494682   -0.136866
     51          6           0        7.670559   -0.004769   -0.986053
     52          6           0        8.938462   -0.068141   -0.092211
     53          6           0       10.234808   -0.541692   -0.780567
     54          6           0       10.022109   -2.064479   -1.057336
     55          6           0       11.458034   -0.232883   -0.079496
     56          6           0       12.750868   -0.666964   -0.663576
     57          6           0       13.900183   -0.106900    0.107349
     58          6           0       15.299349   -0.245309   -0.523969
     59          6           0       15.641902   -1.690753   -0.852119
     60          6           0       16.289316    0.409563    0.323504
     61          6           0       17.700465    0.448245   -0.164278
     62          6           0       18.752411    1.200223    0.752953
     63          6           0       20.127008    1.369992    0.241014
     64          6           0       20.185426    2.274533   -1.030005
     65          6           0       21.055009    1.819142    1.465911
     66          1           0       -4.058837    3.796778    1.192703
     67          1           0      -10.033189    4.022786   -0.314138
     68          1           0      -10.308957   -2.536608   -1.155067
     69          1           0       -2.638477   -0.855008    2.003434
     70          1           0       -2.191731    1.760872    1.083953
     71          1           0       -1.984044    0.699222    3.442249
     72          1           0       -3.110144    2.146775    3.654813
     73          1           0       -3.878977    0.513231    3.424386
     74          1           0       -2.083607   -1.584254   -0.569391
     75          1           0       -2.157832    0.274194   -0.787157
     76          1           0       -0.375549    0.694276    0.845947
     77          1           0       -0.177267   -1.247753    1.219727
     78          1           0       -4.994905    6.346944    0.819526
     79          1           0       -6.349978    6.649662    1.721505
     80          1           0       -5.215140    5.396770    2.361359
     81          1           0       -9.674794    5.937018    0.260178
     82          1           0       -8.722664    8.013332    0.081988
     83          1           0       -7.149749    7.519722   -0.222686
     84          1           0      -12.002765    3.243953   -2.124685
     85          1           0      -13.075363    1.932422   -1.841056
     86          1           0      -12.442075    3.019167   -0.496428
     87          1           0      -12.440502   -1.987783   -1.359968
     88          1           0      -13.307447   -0.376030   -1.365863
     89          1           0      -12.966666   -1.584494   -3.722138
     90          1           0      -12.357680   -0.107216   -3.710514
     91          1           0      -11.202546   -1.450307   -3.517750
     92          1           0       -9.229899   -5.013494   -1.516905
     93          1           0       -7.928506   -5.785040   -0.800167
     94          1           0       -9.163066   -5.084716    0.199412
     95          1           0       -3.366446   -3.664323   -0.412331
     96          1           0       -1.966479   -4.304340    3.611101
     97          1           0       -3.401798   -5.435079    3.690264
     98          1           0       -1.746881   -5.876120    2.831423
     99          1           0        2.769349   -1.781954   -1.668878
    100          1           0        2.874177   -0.069108   -2.066592
    101          1           0        4.411851   -1.150097    0.306350
    102          1           0        4.179556    1.469028   -2.533168
    103          1           0        5.291875    2.317171   -2.008591
    104          1           0        5.715502    1.272474   -3.019332
    105          1           0        6.728816    1.588969   -0.064445
    106          1           0        6.393943   -0.093313    0.725801
    107          1           0        7.607740   -1.016425   -1.320810
    108          1           0        7.955675    0.626224   -1.897371
    109          1           0        9.151612    0.990835    0.285216
    110          1           0        8.749405   -0.732190    0.883068
    111          1           0       10.454933   -0.084980   -1.788298
    112          1           0        9.129973   -2.363526   -1.570426
    113          1           0       11.032209   -2.424830   -1.627019
    114          1           0        9.958320   -2.691872   -0.149042
    115          1           0       11.625782    0.866330    0.191096
    116          1           0       11.463726   -0.717523    0.761460
    117          1           0       12.675578   -1.668888   -0.744871
    118          1           0       12.655133   -0.263764   -1.626281
    119          1           0       13.587181    0.923205    0.642659
    120          1           0       13.968881   -0.567030    1.069608
    121          1           0       15.140938    0.223770   -1.442162
    122          1           0       15.529820   -2.378271   -0.017166
    123          1           0       14.876379   -1.893511   -1.522200
    124          1           0       16.549106   -1.843566   -1.223140
    125          1           0       15.889882    1.282324    0.448123
    126          1           0       16.191310    0.004082    1.431482
    127          1           0       18.192385   -0.477706   -0.623729
    128          1           0       17.717131    1.196787   -1.150939
    129          1           0       18.437175    2.064885    0.984608
    130          1           0       18.925393    0.900426    1.872347
    131          1           0       20.617067    0.341438   -0.052139
    132          1           0       19.524389    3.137673   -0.732279
    133          1           0       21.271329    2.444379   -1.376240
    134          1           0       19.494581    1.656124   -1.843157
    135          1           0       21.010534    0.894069    2.220535
    136          1           0       22.016149    1.929085    1.071101
    137          1           0       20.613525    2.698389    1.898719
 ---------------------------------------------------------------------
 Rotational constants (GHZ):      0.0645776      0.0061286      0.0057666
 Standard basis: 6-31G(d,p) (6D, 7F)
 There are  1339 symmetry adapted cartesian basis functions of A   symmetry.
 There are  1339 symmetry adapted basis functions of A   symmetry.
  1339 basis functions,  2348 primitive gaussians,  1339 cartesian basis functions
   241 alpha electrons      241 beta electrons
       nuclear repulsion energy      8753.6522870016 Hartrees.
 NAtoms=  137 NActive=  137 NUniq=  137 SFac= 1.00D+00 NAtFMM=   60 NAOKFM=T Big=T
 Integral buffers will be    131072 words long.
 Raffenetti 1 integral format.
 Two-electron integral symmetry is turned on.
 One-electron integrals computed using PRISM.
 NBasis=  1339 RedAO= T EigKep=  3.22D-04  NBF=  1339
 NBsUse=  1339 1.00D-06 EigRej= -1.00D+00 NBFU=  1339
 ExpMin= 4.21D-02 ExpMax= 1.17D+04 ExpMxC= 1.76D+03 IAcc=2 IRadAn=         4 AccDes= 0.00D+00
 Harris functional with IExCor=20419 and IRadAn=       4 diagonalized for initial guess.
 HarFok:  IExCor=20419 AccDes= 0.00D+00 IRadAn=         4 IDoV= 1 UseB2=F ITyADJ=14
 ICtDFT=  3500011 ScaDFX=  1.000000  1.000000  1.000000  1.000000
 FoFCou: FMM=F IPFlag=           0 FMFlag=      100000 FMFlg1=        2001
         NFxFlg=           0 DoJE=T BraDBF=F KetDBF=T FulRan=T
         wScrn=  0.000000 ICntrl=     500 IOpCl=  0 I1Cent=   200000004 NGrid=           0
         NMat0=    1 NMatS0=      1 NMatT0=    0 NMatD0=    1 NMtDS0=    0 NMtDT0=    0
 Petite list used in FoFCou.
 Requested convergence on RMS density matrix=1.00D-08 within 128 cycles.
 Requested convergence on MAX density matrix=1.00D-06.
 Requested convergence on             energy=1.00D-06.
 No special actions if energy rises.
 SCF Done:  E(RCAM-B3LYP) =  -2932.59167792     A.U. after   18 cycles
            NFock= 18  Conv=0.52D-08     -V/T= 2.0088
 DoSCS=F DFT=T ScalE2(SS,OS)=  1.000000  1.000000
 ExpMin= 4.21D-02 ExpMax= 1.17D+04 ExpMxC= 1.76D+03 IAcc=3 IRadAn=         5 AccDes= 0.00D+00
 HarFok:  IExCor=  205 AccDes= 0.00D+00 IRadAn=         5 IDoV=-2 UseB2=F ITyADJ=14
 ICtDFT= 12500011 ScaDFX=  1.000000  1.000000  1.000000  1.000000
 Range of M.O.s used for correlation:    70  1339
 NBasis=  1339 NAE=   241 NBE=   241 NFC=    69 NFV=     0
 NROrb=   1270 NOA=   172 NOB=   172 NVA=  1098 NVB=  1098
 Would need an additional       2415464100000 words for in-memory AO integral storage.
 Orbital symmetries:
       Occupied  (A) (A) (A) (A) (A) (A) (A) (A) (A) (A) (A) (A)
                 (A) (A) (A) (A) (A) (A) (A) (A) (A) (A) (A) (A)
                 (A) (A) (A) (A) (A) (A) (A) (A) (A) (A) (A) (A)
                 (A) (A) (A) (A) (A) (A) (A) (A) (A) (A) (A) (A)
                 (A) (A) (A) (A) (A) (A) (A) (A) (A) (A) (A) (A)
                 (A) (A) (A) (A) (A) (A) (A) (A) (A) (A) (A) (A)
                 (A) (A) (A) (A) (A) (A) (A) (A) (A) (A) (A) (A)
                 (A) (A) (A) (A) (A) (A) (A) (A) (A) (A) (A) (A)
                 (A) (A) (A) (A) (A) (A) (A) (A) (A) (A) (A) (A)
                 (A) (A) (A) (A) (A) (A) (A) (A) (A) (A) (A) (A)
                 (A) (A) (A) (A) (A) (A) (A) (A) (A) (A) (A) (A)
                 (A) (A) (A) (A) (A) (A) (A) (A) (A) (A) (A) (A)
                 (A) (A) (A) (A) (A) (A) (A) (A) (A) (A) (A) (A)
                 (A) (A) (A) (A) (A) (A) (A) (A) (A) (A) (A) (A)
                 (A) (A) (A) (A) (A) (A) (A) (A) (A) (A) (A) (A)
                 (A) (A) (A) (A) (A) (A) (A) (A) (A) (A) (A) (A)
                 (A) (A) (A) (A) (A) (A) (A) (A) (A) (A) (A) (A)
                 (A) (A) (A) (A) (A) (A) (A) (A) (A) (A) (A) (A)
                 (A) (A) (A) (A) (A) (A) (A) (A) (A) (A) (A) (A)
                 (A) (A) (A) (A) (A) (A) (A) (A) (A) (A) (A) (A)
                 (A)
       Virtual   (A) (A) (A) (A) (A) (A) (A) (A) (A) (A) (A) (A)
                 (A) (A) (A) (A) (A) (A) (A) (A) (A) (A) (A) (A)
                 (A) (A) (A) (A) (A) (A) (A) (A) (A) (A) (A) (A)
                 (A) (A) (A) (A) (A) (A) (A) (A) (A) (A) (A) (A)
                 (A) (A) (A) (A) (A) (A) (A) (A) (A) (A) (A) (A)
                 (A) (A) (A) (A) (A) (A) (A) (A) (A) (A) (A) (A)
                 (A) (A) (A) (A) (A) (A) (A) (A) (A) (A) (A) (A)
                 (A) (A) (A) (A) (A) (A) (A) (A) (A) (A) (A) (A)
                 (A) (A) (A) (A) (A) (A) (A) (A) (A) (A) (A) (A)
                 (A) (A) (A) (A) (A) (A) (A) (A) (A) (A) (A) (A)
                 (A) (A) (A) (A) (A) (A) (A) (A) (A) (A) (A) (A)
                 (A) (A) (A) (A) (A) (A) (A) (A) (A) (A) (A) (A)
                 (A) (A) (A) (A) (A) (A) (A) (A) (A) (A) (A) (A)
                 (A) (A) (A) (A) (A) (A) (A) (A) (A) (A) (A) (A)
                 (A) (A) (A) (A) (A) (A) (A) (A) (A) (A) (A) (A)
                 (A) (A) (A) (A) (A) (A) (A) (A) (A) (A) (A) (A)
                 (A) (A) (A) (A) (A) (A) (A) (A) (A) (A) (A) (A)
                 (A) (A) (A) (A) (A) (A) (A) (A) (A) (A) (A) (A)
                 (A) (A) (A) (A) (A) (A) (A) (A) (A) (A) (A) (A)
                 (A) (A) (A) (A) (A) (A) (A) (A) (A) (A) (A) (A)
                 (A) (A) (A) (A) (A) (A) (A) (A) (A) (A) (A) (A)
                 (A) (A) (A) (A) (A) (A) (A) (A) (A) (A) (A) (A)
                 (A) (A) (A) (A) (A) (A) (A) (A) (A) (A) (A) (A)
                 (A) (A) (A) (A) (A) (A) (A) (A) (A) (A) (A) (A)
                 (A) (A) (A) (A) (A) (A) (A) (A) (A) (A) (A) (A)
                 (A) (A) (A) (A) (A) (A) (A) (A) (A) (A) (A) (A)
                 (A) (A) (A) (A) (A) (A) (A) (A) (A) (A) (A) (A)
                 (A) (A) (A) (A) (A) (A) (A) (A) (A) (A) (A) (A)
                 (A) (A) (A) (A) (A) (A) (A) (A) (A) (A) (A) (A)
                 (A) (A) (A) (A) (A) (A) (A) (A) (A) (A) (A) (A)
                 (A) (A) (A) (A) (A) (A) (A) (A) (A) (A) (A) (A)
                 (A) (A) (A) (A) (A) (A) (A) (A) (A) (A) (A) (A)
                 (A) (A) (A) (A) (A) (A) (A) (A) (A) (A) (A) (A)
                 (A) (A) (A) (A) (A) (A) (A) (A) (A) (A) (A) (A)
                 (A) (A) (A) (A) (A) (A) (A) (A) (A) (A) (A) (A)
                 (A) (A) (A) (A) (A) (A) (A) (A) (A) (A) (A) (A)
                 (A) (A) (A) (A) (A) (A) (A) (A) (A) (A) (A) (A)
                 (A) (A) (A) (A) (A) (A) (A) (A) (A) (A) (A) (A)
                 (A) (A) (A) (A) (A) (A) (A) (A) (A) (A) (A) (A)
                 (A) (A) (A) (A) (A) (A) (A) (A) (A) (A) (A) (A)
                 (A) (A) (A) (A) (A) (A) (A) (A) (A) (A) (A) (A)
                 (A) (A) (A) (A) (A) (A) (A) (A) (A) (A) (A) (A)
                 (A) (A) (A) (A) (A) (A) (A) (A) (A) (A) (A) (A)
                 (A) (A) (A) (A) (A) (A) (A) (A) (A) (A) (A) (A)
                 (A) (A) (A) (A) (A) (A) (A) (A) (A) (A) (A) (A)
                 (A) (A) (A) (A) (A) (A) (A) (A) (A) (A) (A) (A)
                 (A) (A) (A) (A) (A) (A) (A) (A) (A) (A) (A) (A)
                 (A) (A) (A) (A) (A) (A) (A) (A) (A) (A) (A) (A)
                 (A) (A) (A) (A) (A) (A) (A) (A) (A) (A) (A) (A)
                 (A) (A) (A) (A) (A) (A) (A) (A) (A) (A) (A) (A)
                 (A) (A) (A) (A) (A) (A) (A) (A) (A) (A) (A) (A)
                 (A) (A) (A) (A) (A) (A) (A) (A) (A) (A) (A) (A)
                 (A) (A) (A) (A) (A) (A) (A) (A) (A) (A) (A) (A)
                 (A) (A) (A) (A) (A) (A) (A) (A) (A) (A) (A) (A)
                 (A) (A) (A) (A) (A) (A) (A) (A) (A) (A) (A) (A)
                 (A) (A) (A) (A) (A) (A) (A) (A) (A) (A) (A) (A)
                 (A) (A) (A) (A) (A) (A) (A) (A) (A) (A) (A) (A)
                 (A) (A) (A) (A) (A) (A) (A) (A) (A) (A) (A) (A)
                 (A) (A) (A) (A) (A) (A) (A) (A) (A) (A) (A) (A)
                 (A) (A) (A) (A) (A) (A) (A) (A) (A) (A) (A) (A)
                 (A) (A) (A) (A) (A) (A) (A) (A) (A) (A) (A) (A)
                 (A) (A) (A) (A) (A) (A) (A) (A) (A) (A) (A) (A)
                 (A) (A) (A) (A) (A) (A) (A) (A) (A) (A) (A) (A)
                 (A) (A) (A) (A) (A) (A) (A) (A) (A) (A) (A) (A)
                 (A) (A) (A) (A) (A) (A) (A) (A) (A) (A) (A) (A)
                 (A) (A) (A) (A) (A) (A) (A) (A) (A) (A) (A) (A)
                 (A) (A) (A) (A) (A) (A) (A) (A) (A) (A) (A) (A)
                 (A) (A) (A) (A) (A) (A) (A) (A) (A) (A) (A) (A)
                 (A) (A) (A) (A) (A) (A) (A) (A) (A) (A) (A) (A)
                 (A) (A) (A) (A) (A) (A) (A) (A) (A) (A) (A) (A)
                 (A) (A) (A) (A) (A) (A) (A) (A) (A) (A) (A) (A)
                 (A) (A) (A) (A) (A) (A) (A) (A) (A) (A) (A) (A)
                 (A) (A) (A) (A) (A) (A) (A) (A) (A) (A) (A) (A)
                 (A) (A) (A) (A) (A) (A) (A) (A) (A) (A) (A) (A)
                 (A) (A) (A) (A) (A) (A) (A) (A) (A) (A) (A) (A)
                 (A) (A) (A) (A) (A) (A) (A) (A) (A) (A) (A) (A)
                 (A) (A) (A) (A) (A) (A) (A) (A) (A) (A) (A) (A)
                 (A) (A) (A) (A) (A) (A) (A) (A) (A) (A) (A) (A)
                 (A) (A) (A) (A) (A) (A) (A) (A) (A) (A) (A) (A)
                 (A) (A) (A) (A) (A) (A) (A) (A) (A) (A) (A) (A)
                 (A) (A) (A) (A) (A) (A) (A) (A) (A) (A) (A) (A)
                 (A) (A) (A) (A) (A) (A) (A) (A) (A) (A) (A) (A)
                 (A) (A) (A) (A) (A) (A) (A) (A) (A) (A) (A) (A)
                 (A) (A) (A) (A) (A) (A) (A) (A) (A) (A) (A) (A)
                 (A) (A) (A) (A) (A) (A) (A) (A) (A) (A) (A) (A)
                 (A) (A) (A) (A) (A) (A) (A) (A) (A) (A) (A) (A)
                 (A) (A) (A) (A) (A) (A) (A) (A) (A) (A) (A) (A)
                 (A) (A) (A) (A) (A) (A) (A) (A) (A) (A) (A) (A)
                 (A) (A) (A) (A) (A) (A) (A) (A) (A) (A) (A) (A)
                 (A) (A) (A) (A) (A) (A) (A) (A) (A) (A) (A) (A)
                 (A) (A) (A) (A) (A) (A) (A) (A) (A) (A) (A) (A)
                 (A) (A) (A) (A) (A) (A)
     8 initial guesses have been made.
 Convergence on wavefunction:    0.001000000000000
 Iteration     1 Dimension     8 NMult     0 NNew      8
 CISAX will form     8 AO SS matrices at one time.
 Iteration     2 Dimension    12 NMult     8 NNew      4
 Iteration     3 Dimension    16 NMult    12 NNew      4
 Iteration     4 Dimension    20 NMult    16 NNew      4
 Iteration     5 Dimension    24 NMult    20 NNew      4
 Iteration     6 Dimension    28 NMult    24 NNew      4
 ***********************************************************************
 Excited states from <AA,BB:AA,BB> singles matrix:
 ***********************************************************************
 
 Ground to excited state transition densities written to RWF  633
 Ground to excited state transition electric dipole moments (Au):
       state          X           Y           Z        Dip. S.      Osc.
         1         0.2054      2.2095      0.3054      5.0175      0.2471
 Ground to excited state transition velocity dipole moments (Au):
       state          X           Y           Z        Dip. S.      Osc.
         1        -0.0152     -0.1582     -0.0217      0.0257      0.2322
 Ground to excited state transition magnetic dipole moments (Au):
       state          X           Y           Z
         1        -0.5031     -0.5113      3.9686
 Ground to excited state transition velocity quadrupole moments (Au):
       state          XX          YY          ZZ          XY          XZ          YZ
         1         0.4341     -0.2321     -0.0310      1.9664      0.2650     -0.1321
 <0|del|b> * <b|rxdel|0> + <0|del|b> * <b|delr+rdel|0>
 Rotatory Strengths (R) in cgs (10**-40 erg-esu-cm/Gauss)
       state          XX          YY          ZZ    R(velocity)    E-M Angle
         1       -27.3537   -161.4783    213.4054      8.1911       89.77
 1/2[<0|r|b>*<b|rxdel|0> + (<0|rxdel|b>*<b|r|0>)*]
 Rotatory Strengths (R) in cgs (10**-40 erg-esu-cm/Gauss)
       state          XX          YY          ZZ     R(length)
         1        73.0930    798.9872   -857.1540      4.9754
  1/2[<0|del|b>*<b|r|0> + (<0|r|b>*<b|del|0>)*] (Au)
       state          X           Y           Z        Dip. S.   Osc.(frdel)
         1        -0.0031     -0.3496     -0.0066      0.3593      0.2395

 Excitation energies and oscillator strengths:
 
 Excited State   1:      Singlet-A      2.0105 eV  616.68 nm  f=0.2471  <S**2>=0.000
     240 -> 243        0.23482
     241 -> 242        0.66264
 This state for optimization and/or second-order correction.
 Total Energy, E(TD-HF/TD-KS) =  -2932.51779276    
 Copying the excited state density for this state as the 1-particle RhoCI density.
 SavETr:  write IOETrn=   770 NScale= 10 NData=  16 NLR=1 NState=    1 LETran=      28.

 **********************************************************************

            Population analysis using the SCF density.

 **********************************************************************

 Orbital symmetries:
       Occupied  (A) (A) (A) (A) (A) (A) (A) (A) (A) (A) (A) (A)
                 (A) (A) (A) (A) (A) (A) (A) (A) (A) (A) (A) (A)
                 (A) (A) (A) (A) (A) (A) (A) (A) (A) (A) (A) (A)
                 (A) (A) (A) (A) (A) (A) (A) (A) (A) (A) (A) (A)
                 (A) (A) (A) (A) (A) (A) (A) (A) (A) (A) (A) (A)
                 (A) (A) (A) (A) (A) (A) (A) (A) (A) (A) (A) (A)
                 (A) (A) (A) (A) (A) (A) (A) (A) (A) (A) (A) (A)
                 (A) (A) (A) (A) (A) (A) (A) (A) (A) (A) (A) (A)
                 (A) (A) (A) (A) (A) (A) (A) (A) (A) (A) (A) (A)
                 (A) (A) (A) (A) (A) (A) (A) (A) (A) (A) (A) (A)
                 (A) (A) (A) (A) (A) (A) (A) (A) (A) (A) (A) (A)
                 (A) (A) (A) (A) (A) (A) (A) (A) (A) (A) (A) (A)
                 (A) (A) (A) (A) (A) (A) (A) (A) (A) (A) (A) (A)
                 (A) (A) (A) (A) (A) (A) (A) (A) (A) (A) (A) (A)
                 (A) (A) (A) (A) (A) (A) (A) (A) (A) (A) (A) (A)
                 (A) (A) (A) (A) (A) (A) (A) (A) (A) (A) (A) (A)
                 (A) (A) (A) (A) (A) (A) (A) (A) (A) (A) (A) (A)
                 (A) (A) (A) (A) (A) (A) (A) (A) (A) (A) (A) (A)
                 (A) (A) (A) (A) (A) (A) (A) (A) (A) (A) (A) (A)
                 (A) (A) (A) (A) (A) (A) (A) (A) (A) (A) (A) (A)
                 (A)
       Virtual   (A) (A) (A) (A) (A) (A) (A) (A) (A) (A) (A) (A)
                 (A) (A) (A) (A) (A) (A) (A) (A) (A) (A) (A) (A)
                 (A) (A) (A) (A) (A) (A) (A) (A) (A) (A) (A) (A)
                 (A) (A) (A) (A) (A) (A) (A) (A) (A) (A) (A) (A)
                 (A) (A) (A) (A) (A) (A) (A) (A) (A) (A) (A) (A)
                 (A) (A) (A) (A) (A) (A) (A) (A) (A) (A) (A) (A)
                 (A) (A) (A) (A) (A) (A) (A) (A) (A) (A) (A) (A)
                 (A) (A) (A) (A) (A) (A) (A) (A) (A) (A) (A) (A)
                 (A) (A) (A) (A) (A) (A) (A) (A) (A) (A) (A) (A)
                 (A) (A) (A) (A) (A) (A) (A) (A) (A) (A) (A) (A)
                 (A) (A) (A) (A) (A) (A) (A) (A) (A) (A) (A) (A)
                 (A) (A) (A) (A) (A) (A) (A) (A) (A) (A) (A) (A)
                 (A) (A) (A) (A) (A) (A) (A) (A) (A) (A) (A) (A)
                 (A) (A) (A) (A) (A) (A) (A) (A) (A) (A) (A) (A)
                 (A) (A) (A) (A) (A) (A) (A) (A) (A) (A) (A) (A)
                 (A) (A) (A) (A) (A) (A) (A) (A) (A) (A) (A) (A)
                 (A) (A) (A) (A) (A) (A) (A) (A) (A) (A) (A) (A)
                 (A) (A) (A) (A) (A) (A) (A) (A) (A) (A) (A) (A)
                 (A) (A) (A) (A) (A) (A) (A) (A) (A) (A) (A) (A)
                 (A) (A) (A) (A) (A) (A) (A) (A) (A) (A) (A) (A)
                 (A) (A) (A) (A) (A) (A) (A) (A) (A) (A) (A) (A)
                 (A) (A) (A) (A) (A) (A) (A) (A) (A) (A) (A) (A)
                 (A) (A) (A) (A) (A) (A) (A) (A) (A) (A) (A) (A)
                 (A) (A) (A) (A) (A) (A) (A) (A) (A) (A) (A) (A)
                 (A) (A) (A) (A) (A) (A) (A) (A) (A) (A) (A) (A)
                 (A) (A) (A) (A) (A) (A) (A) (A) (A) (A) (A) (A)
                 (A) (A) (A) (A) (A) (A) (A) (A) (A) (A) (A) (A)
                 (A) (A) (A) (A) (A) (A) (A) (A) (A) (A) (A) (A)
                 (A) (A) (A) (A) (A) (A) (A) (A) (A) (A) (A) (A)
                 (A) (A) (A) (A) (A) (A) (A) (A) (A) (A) (A) (A)
                 (A) (A) (A) (A) (A) (A) (A) (A) (A) (A) (A) (A)
                 (A) (A) (A) (A) (A) (A) (A) (A) (A) (A) (A) (A)
                 (A) (A) (A) (A) (A) (A) (A) (A) (A) (A) (A) (A)
                 (A) (A) (A) (A) (A) (A) (A) (A) (A) (A) (A) (A)
                 (A) (A) (A) (A) (A) (A) (A) (A) (A) (A) (A) (A)
                 (A) (A) (A) (A) (A) (A) (A) (A) (A) (A) (A) (A)
                 (A) (A) (A) (A) (A) (A) (A) (A) (A) (A) (A) (A)
                 (A) (A) (A) (A) (A) (A) (A) (A) (A) (A) (A) (A)
                 (A) (A) (A) (A) (A) (A) (A) (A) (A) (A) (A) (A)
                 (A) (A) (A) (A) (A) (A) (A) (A) (A) (A) (A) (A)
                 (A) (A) (A) (A) (A) (A) (A) (A) (A) (A) (A) (A)
                 (A) (A) (A) (A) (A) (A) (A) (A) (A) (A) (A) (A)
                 (A) (A) (A) (A) (A) (A) (A) (A) (A) (A) (A) (A)
                 (A) (A) (A) (A) (A) (A) (A) (A) (A) (A) (A) (A)
                 (A) (A) (A) (A) (A) (A) (A) (A) (A) (A) (A) (A)
                 (A) (A) (A) (A) (A) (A) (A) (A) (A) (A) (A) (A)
                 (A) (A) (A) (A) (A) (A) (A) (A) (A) (A) (A) (A)
                 (A) (A) (A) (A) (A) (A) (A) (A) (A) (A) (A) (A)
                 (A) (A) (A) (A) (A) (A) (A) (A) (A) (A) (A) (A)
                 (A) (A) (A) (A) (A) (A) (A) (A) (A) (A) (A) (A)
                 (A) (A) (A) (A) (A) (A) (A) (A) (A) (A) (A) (A)
                 (A) (A) (A) (A) (A) (A) (A) (A) (A) (A) (A) (A)
                 (A) (A) (A) (A) (A) (A) (A) (A) (A) (A) (A) (A)
                 (A) (A) (A) (A) (A) (A) (A) (A) (A) (A) (A) (A)
                 (A) (A) (A) (A) (A) (A) (A) (A) (A) (A) (A) (A)
                 (A) (A) (A) (A) (A) (A) (A) (A) (A) (A) (A) (A)
                 (A) (A) (A) (A) (A) (A) (A) (A) (A) (A) (A) (A)
                 (A) (A) (A) (A) (A) (A) (A) (A) (A) (A) (A) (A)
                 (A) (A) (A) (A) (A) (A) (A) (A) (A) (A) (A) (A)
                 (A) (A) (A) (A) (A) (A) (A) (A) (A) (A) (A) (A)
                 (A) (A) (A) (A) (A) (A) (A) (A) (A) (A) (A) (A)
                 (A) (A) (A) (A) (A) (A) (A) (A) (A) (A) (A) (A)
                 (A) (A) (A) (A) (A) (A) (A) (A) (A) (A) (A) (A)
                 (A) (A) (A) (A) (A) (A) (A) (A) (A) (A) (A) (A)
                 (A) (A) (A) (A) (A) (A) (A) (A) (A) (A) (A) (A)
                 (A) (A) (A) (A) (A) (A) (A) (A) (A) (A) (A) (A)
                 (A) (A) (A) (A) (A) (A) (A) (A) (A) (A) (A) (A)
                 (A) (A) (A) (A) (A) (A) (A) (A) (A) (A) (A) (A)
                 (A) (A) (A) (A) (A) (A) (A) (A) (A) (A) (A) (A)
                 (A) (A) (A) (A) (A) (A) (A) (A) (A) (A) (A) (A)
                 (A) (A) (A) (A) (A) (A) (A) (A) (A) (A) (A) (A)
                 (A) (A) (A) (A) (A) (A) (A) (A) (A) (A) (A) (A)
                 (A) (A) (A) (A) (A) (A) (A) (A) (A) (A) (A) (A)
                 (A) (A) (A) (A) (A) (A) (A) (A) (A) (A) (A) (A)
                 (A) (A) (A) (A) (A) (A) (A) (A) (A) (A) (A) (A)
                 (A) (A) (A) (A) (A) (A) (A) (A) (A) (A) (A) (A)
                 (A) (A) (A) (A) (A) (A) (A) (A) (A) (A) (A) (A)
                 (A) (A) (A) (A) (A) (A) (A) (A) (A) (A) (A) (A)
                 (A) (A) (A) (A) (A) (A) (A) (A) (A) (A) (A) (A)
                 (A) (A) (A) (A) (A) (A) (A) (A) (A) (A) (A) (A)
                 (A) (A) (A) (A) (A) (A) (A) (A) (A) (A) (A) (A)
                 (A) (A) (A) (A) (A) (A) (A) (A) (A) (A) (A) (A)
                 (A) (A) (A) (A) (A) (A) (A) (A) (A) (A) (A) (A)
                 (A) (A) (A) (A) (A) (A) (A) (A) (A) (A) (A) (A)
                 (A) (A) (A) (A) (A) (A) (A) (A) (A) (A) (A) (A)
                 (A) (A) (A) (A) (A) (A) (A) (A) (A) (A) (A) (A)
                 (A) (A) (A) (A) (A) (A) (A) (A) (A) (A) (A) (A)
                 (A) (A) (A) (A) (A) (A) (A) (A) (A) (A) (A) (A)
                 (A) (A) (A) (A) (A) (A) (A) (A) (A) (A) (A) (A)
                 (A) (A) (A) (A) (A) (A) (A) (A) (A) (A) (A) (A)
                 (A) (A) (A) (A) (A) (A) (A) (A) (A) (A) (A) (A)
                 (A) (A) (A) (A) (A) (A)
 The electronic state is 1-A.
 Alpha  occ. eigenvalues --  -46.83867 -19.24972 -19.24445 -19.22732 -19.21320
 Alpha  occ. eigenvalues --  -19.20306 -14.42263 -14.39999 -14.39994 -14.38811
 Alpha  occ. eigenvalues --  -10.39563 -10.38328 -10.35934 -10.32193 -10.30996
 Alpha  occ. eigenvalues --  -10.30667 -10.29938 -10.29921 -10.29793 -10.29616
 Alpha  occ. eigenvalues --  -10.29472 -10.29294 -10.29149 -10.29084 -10.28969
 Alpha  occ. eigenvalues --  -10.28873 -10.28866 -10.28741 -10.28658 -10.28259
 Alpha  occ. eigenvalues --  -10.28200 -10.28113 -10.27625 -10.27096 -10.27028
 Alpha  occ. eigenvalues --  -10.26799 -10.26676 -10.26645 -10.26583 -10.26579
 Alpha  occ. eigenvalues --  -10.26328 -10.26305 -10.26253 -10.26106 -10.26049
 Alpha  occ. eigenvalues --  -10.25971 -10.25937 -10.25894 -10.25832 -10.25816
 Alpha  occ. eigenvalues --  -10.25787 -10.25705 -10.25589 -10.25351 -10.25163
 Alpha  occ. eigenvalues --  -10.24860 -10.24855 -10.24566 -10.24417 -10.23730
 Alpha  occ. eigenvalues --  -10.23692 -10.22949 -10.22920 -10.22664 -10.22022
 Alpha  occ. eigenvalues --   -3.12971  -1.87680  -1.87215  -1.87145  -1.17143
 Alpha  occ. eigenvalues --   -1.15542  -1.13184  -1.09249  -1.07104  -1.05041
 Alpha  occ. eigenvalues --   -1.03744  -1.02664  -1.00912  -0.92566  -0.92552
 Alpha  occ. eigenvalues --   -0.90825  -0.90472  -0.89450  -0.89246  -0.88899
 Alpha  occ. eigenvalues --   -0.88602  -0.88112  -0.87109  -0.86995  -0.85944
 Alpha  occ. eigenvalues --   -0.85083  -0.83872  -0.83226  -0.83094  -0.82596
 Alpha  occ. eigenvalues --   -0.81666  -0.81072  -0.80709  -0.80427  -0.78825
 Alpha  occ. eigenvalues --   -0.78078  -0.77913  -0.76872  -0.76298  -0.75965
 Alpha  occ. eigenvalues --   -0.75475  -0.75167  -0.74910  -0.72930  -0.72183
 Alpha  occ. eigenvalues --   -0.71829  -0.70642  -0.70137  -0.69121  -0.68482
 Alpha  occ. eigenvalues --   -0.67583  -0.66887  -0.65581  -0.65328  -0.64530
 Alpha  occ. eigenvalues --   -0.64106  -0.63558  -0.62865  -0.62584  -0.61679
 Alpha  occ. eigenvalues --   -0.61085  -0.60423  -0.60029  -0.59772  -0.59255
 Alpha  occ. eigenvalues --   -0.58865  -0.58064  -0.57890  -0.57069  -0.56290
 Alpha  occ. eigenvalues --   -0.56225  -0.55849  -0.55384  -0.55036  -0.54643
 Alpha  occ. eigenvalues --   -0.54304  -0.53856  -0.53487  -0.52913  -0.52794
 Alpha  occ. eigenvalues --   -0.52721  -0.52608  -0.52357  -0.52025  -0.51707
 Alpha  occ. eigenvalues --   -0.51594  -0.51501  -0.51083  -0.50723  -0.50628
 Alpha  occ. eigenvalues --   -0.50433  -0.50263  -0.49937  -0.49827  -0.49803
 Alpha  occ. eigenvalues --   -0.49564  -0.49492  -0.49250  -0.49078  -0.48616
 Alpha  occ. eigenvalues --   -0.48503  -0.47917  -0.47725  -0.47660  -0.47215
 Alpha  occ. eigenvalues --   -0.46994  -0.46774  -0.46546  -0.46419  -0.46005
 Alpha  occ. eigenvalues --   -0.45988  -0.45908  -0.45746  -0.45551  -0.45127
 Alpha  occ. eigenvalues --   -0.45037  -0.44964  -0.44876  -0.44764  -0.44377
 Alpha  occ. eigenvalues --   -0.44242  -0.44203  -0.43965  -0.43846  -0.43298
 Alpha  occ. eigenvalues --   -0.43205  -0.42962  -0.42558  -0.42443  -0.42347
 Alpha  occ. eigenvalues --   -0.42323  -0.42192  -0.41772  -0.41754  -0.41673
 Alpha  occ. eigenvalues --   -0.41567  -0.41286  -0.41196  -0.40787  -0.40656
 Alpha  occ. eigenvalues --   -0.40539  -0.40224  -0.39922  -0.39897  -0.39416
 Alpha  occ. eigenvalues --   -0.39112  -0.38292  -0.38216  -0.38081  -0.37873
 Alpha  occ. eigenvalues --   -0.37815  -0.37134  -0.36962  -0.36712  -0.36363
 Alpha  occ. eigenvalues --   -0.36142  -0.35870  -0.35804  -0.35559  -0.35120
 Alpha  occ. eigenvalues --   -0.35033  -0.34577  -0.34222  -0.34164  -0.33807
 Alpha  occ. eigenvalues --   -0.33180  -0.32947  -0.32401  -0.31489  -0.30239
 Alpha  occ. eigenvalues --   -0.30064  -0.29317  -0.28175  -0.27724  -0.23884
 Alpha  occ. eigenvalues --   -0.21158
 Alpha virt. eigenvalues --   -0.06561  -0.03261   0.01267   0.03776   0.04938
 Alpha virt. eigenvalues --    0.05708   0.05977   0.06432   0.06580   0.06928
 Alpha virt. eigenvalues --    0.08628   0.10176   0.11274   0.11429   0.11806
 Alpha virt. eigenvalues --    0.12455   0.12499   0.12785   0.13644   0.13765
 Alpha virt. eigenvalues --    0.13960   0.14070   0.14222   0.14321   0.14468
 Alpha virt. eigenvalues --    0.14687   0.15430   0.15522   0.15619   0.15789
 Alpha virt. eigenvalues --    0.15995   0.16234   0.16539   0.16696   0.16873
 Alpha virt. eigenvalues --    0.17206   0.17297   0.17488   0.17764   0.17937
 Alpha virt. eigenvalues --    0.18127   0.18396   0.18523   0.18617   0.18655
 Alpha virt. eigenvalues --    0.18943   0.19011   0.19470   0.19515   0.19660
 Alpha virt. eigenvalues --    0.19794   0.19994   0.20083   0.20221   0.20347
 Alpha virt. eigenvalues --    0.20532   0.20696   0.20884   0.20988   0.21198
 Alpha virt. eigenvalues --    0.21251   0.21472   0.21665   0.22015   0.22215
 Alpha virt. eigenvalues --    0.22278   0.22616   0.22792   0.22987   0.22997
 Alpha virt. eigenvalues --    0.23076   0.23182   0.23413   0.23650   0.24009
 Alpha virt. eigenvalues --    0.24173   0.24239   0.24326   0.24474   0.24641
 Alpha virt. eigenvalues --    0.24770   0.25043   0.25261   0.25316   0.25501
 Alpha virt. eigenvalues --    0.25624   0.25685   0.25794   0.26123   0.26378
 Alpha virt. eigenvalues --    0.26459   0.26559   0.26832   0.27160   0.27276
 Alpha virt. eigenvalues --    0.27632   0.28037   0.28135   0.28219   0.28637
 Alpha virt. eigenvalues --    0.28732   0.28900   0.28993   0.29193   0.29450
 Alpha virt. eigenvalues --    0.29574   0.29676   0.29910   0.30136   0.30270
 Alpha virt. eigenvalues --    0.30396   0.30659   0.30787   0.31088   0.31296
 Alpha virt. eigenvalues --    0.31580   0.31619   0.32261   0.32432   0.32788
 Alpha virt. eigenvalues --    0.33045   0.33232   0.33570   0.33889   0.34113
 Alpha virt. eigenvalues --    0.34370   0.34773   0.35108   0.35856   0.35954
 Alpha virt. eigenvalues --    0.36267   0.36880   0.37516   0.37861   0.38373
 Alpha virt. eigenvalues --    0.38556   0.38828   0.39231   0.39992   0.40363
 Alpha virt. eigenvalues --    0.41623   0.41759   0.42335   0.42641   0.43314
 Alpha virt. eigenvalues --    0.43545   0.43820   0.43972   0.44456   0.45471
 Alpha virt. eigenvalues --    0.45992   0.46653   0.47534   0.48043   0.48402
 Alpha virt. eigenvalues --    0.49060   0.49500   0.50860   0.51108   0.52508
 Alpha virt. eigenvalues --    0.52731   0.52842   0.53365   0.53723   0.53918
 Alpha virt. eigenvalues --    0.54665   0.54981   0.55584   0.55823   0.55850
 Alpha virt. eigenvalues --    0.55977   0.56174   0.56237   0.56592   0.56935
 Alpha virt. eigenvalues --    0.57163   0.57360   0.57410   0.57498   0.57698
 Alpha virt. eigenvalues --    0.58048   0.58276   0.58434   0.58865   0.58998
 Alpha virt. eigenvalues --    0.59189   0.59274   0.59716   0.59881   0.60081
 Alpha virt. eigenvalues --    0.60253   0.60671   0.60932   0.61025   0.61462
 Alpha virt. eigenvalues --    0.61791   0.61929   0.62048   0.62423   0.62703
 Alpha virt. eigenvalues --    0.62985   0.63177   0.63382   0.63612   0.63891
 Alpha virt. eigenvalues --    0.64044   0.64495   0.64781   0.65069   0.65441
 Alpha virt. eigenvalues --    0.65679   0.65710   0.65892   0.66181   0.66577
 Alpha virt. eigenvalues --    0.66904   0.67116   0.67224   0.67328   0.67806
 Alpha virt. eigenvalues --    0.67923   0.68349   0.68522   0.68807   0.68817
 Alpha virt. eigenvalues --    0.69035   0.69399   0.69775   0.70052   0.70320
 Alpha virt. eigenvalues --    0.70460   0.70900   0.71236   0.71375   0.71532
 Alpha virt. eigenvalues --    0.71691   0.72287   0.72353   0.72687   0.72828
 Alpha virt. eigenvalues --    0.73052   0.73355   0.73824   0.74087   0.74435
 Alpha virt. eigenvalues --    0.74577   0.75056   0.75210   0.75238   0.75501
 Alpha virt. eigenvalues --    0.75873   0.75964   0.76233   0.76471   0.76761
 Alpha virt. eigenvalues --    0.76855   0.76915   0.77243   0.77381   0.77946
 Alpha virt. eigenvalues --    0.78265   0.78536   0.78598   0.78838   0.79019
 Alpha virt. eigenvalues --    0.79153   0.79482   0.79815   0.80073   0.80399
 Alpha virt. eigenvalues --    0.80661   0.81314   0.81457   0.81520   0.81937
 Alpha virt. eigenvalues --    0.82369   0.82595   0.82869   0.83018   0.83307
 Alpha virt. eigenvalues --    0.83436   0.83826   0.84295   0.84433   0.84638
 Alpha virt. eigenvalues --    0.84763   0.84925   0.85321   0.85526   0.85817
 Alpha virt. eigenvalues --    0.85896   0.85972   0.86193   0.86444   0.86662
 Alpha virt. eigenvalues --    0.86731   0.87071   0.87202   0.87800   0.87878
 Alpha virt. eigenvalues --    0.88084   0.88243   0.88851   0.89186   0.89198
 Alpha virt. eigenvalues --    0.89569   0.89616   0.89848   0.89921   0.89987
 Alpha virt. eigenvalues --    0.90239   0.90553   0.90783   0.91215   0.91353
 Alpha virt. eigenvalues --    0.91462   0.91737   0.91902   0.91946   0.92254
 Alpha virt. eigenvalues --    0.92454   0.92724   0.93166   0.93266   0.93324
 Alpha virt. eigenvalues --    0.93711   0.93743   0.94011   0.94207   0.94345
 Alpha virt. eigenvalues --    0.94655   0.94752   0.94896   0.95086   0.95170
 Alpha virt. eigenvalues --    0.95321   0.95500   0.95878   0.96162   0.96479
 Alpha virt. eigenvalues --    0.96763   0.96855   0.97102   0.97138   0.97522
 Alpha virt. eigenvalues --    0.97677   0.97831   0.98352   0.98618   0.99063
 Alpha virt. eigenvalues --    0.99168   0.99442   0.99575   0.99722   0.99910
 Alpha virt. eigenvalues --    1.00215   1.00315   1.00576   1.00704   1.01278
 Alpha virt. eigenvalues --    1.01429   1.01452   1.01761   1.01831   1.02081
 Alpha virt. eigenvalues --    1.02265   1.02459   1.02864   1.03098   1.03256
 Alpha virt. eigenvalues --    1.03537   1.03848   1.04126   1.04351   1.04490
 Alpha virt. eigenvalues --    1.04913   1.05073   1.05304   1.05723   1.05859
 Alpha virt. eigenvalues --    1.05926   1.06612   1.06871   1.07107   1.07465
 Alpha virt. eigenvalues --    1.07744   1.07990   1.08053   1.08405   1.08569
 Alpha virt. eigenvalues --    1.08966   1.09474   1.09499   1.09741   1.10043
 Alpha virt. eigenvalues --    1.10402   1.10527   1.10992   1.11475   1.11738
 Alpha virt. eigenvalues --    1.12210   1.12597   1.13045   1.13250   1.13838
 Alpha virt. eigenvalues --    1.14572   1.14810   1.15000   1.15353   1.15539
 Alpha virt. eigenvalues --    1.15747   1.16340   1.16666   1.16871   1.17768
 Alpha virt. eigenvalues --    1.17965   1.18242   1.18508   1.18823   1.19203
 Alpha virt. eigenvalues --    1.19788   1.20403   1.21309   1.22372   1.22975
 Alpha virt. eigenvalues --    1.23726   1.24054   1.24614   1.24962   1.25128
 Alpha virt. eigenvalues --    1.25670   1.26051   1.26556   1.27160   1.27979
 Alpha virt. eigenvalues --    1.28571   1.29062   1.29756   1.30445   1.30473
 Alpha virt. eigenvalues --    1.30935   1.31225   1.31777   1.32784   1.33333
 Alpha virt. eigenvalues --    1.33663   1.34265   1.34293   1.34754   1.35263
 Alpha virt. eigenvalues --    1.35799   1.36196   1.36427   1.37060   1.37518
 Alpha virt. eigenvalues --    1.37731   1.38335   1.38853   1.39006   1.39037
 Alpha virt. eigenvalues --    1.39393   1.40892   1.40950   1.41710   1.42192
 Alpha virt. eigenvalues --    1.42716   1.43293   1.43725   1.44288   1.44856
 Alpha virt. eigenvalues --    1.45216   1.45911   1.46153   1.46562   1.46682
 Alpha virt. eigenvalues --    1.47987   1.48097   1.48916   1.49422   1.49909
 Alpha virt. eigenvalues --    1.50723   1.51050   1.51786   1.51872   1.52139
 Alpha virt. eigenvalues --    1.53046   1.53558   1.54131   1.54729   1.55021
 Alpha virt. eigenvalues --    1.55579   1.55842   1.56614   1.56983   1.57242
 Alpha virt. eigenvalues --    1.57414   1.57918   1.58653   1.58886   1.59324
 Alpha virt. eigenvalues --    1.60008   1.60225   1.61324   1.61978   1.62051
 Alpha virt. eigenvalues --    1.62572   1.62743   1.63051   1.63364   1.63612
 Alpha virt. eigenvalues --    1.64138   1.64557   1.65175   1.65344   1.65409
 Alpha virt. eigenvalues --    1.65904   1.66277   1.66903   1.67069   1.67432
 Alpha virt. eigenvalues --    1.67763   1.67872   1.68227   1.68737   1.68829
 Alpha virt. eigenvalues --    1.69611   1.70469   1.70636   1.70910   1.71298
 Alpha virt. eigenvalues --    1.71863   1.72252   1.72555   1.72763   1.73142
 Alpha virt. eigenvalues --    1.74426   1.74855   1.74949   1.75257   1.75503
 Alpha virt. eigenvalues --    1.76529   1.76775   1.77093   1.77523   1.78196
 Alpha virt. eigenvalues --    1.78566   1.78706   1.78868   1.79718   1.80322
 Alpha virt. eigenvalues --    1.80501   1.80579   1.81345   1.81830   1.82163
 Alpha virt. eigenvalues --    1.82465   1.82940   1.83064   1.83406   1.84145
 Alpha virt. eigenvalues --    1.84842   1.84897   1.85208   1.85430   1.85564
 Alpha virt. eigenvalues --    1.85776   1.86561   1.87092   1.87179   1.87359
 Alpha virt. eigenvalues --    1.87442   1.87741   1.88087   1.88244   1.88562
 Alpha virt. eigenvalues --    1.88760   1.89153   1.89410   1.89796   1.90135
 Alpha virt. eigenvalues --    1.90231   1.90313   1.90608   1.90692   1.91384
 Alpha virt. eigenvalues --    1.91636   1.91789   1.92617   1.92752   1.92787
 Alpha virt. eigenvalues --    1.93012   1.93180   1.93469   1.93698   1.93736
 Alpha virt. eigenvalues --    1.93874   1.94396   1.94703   1.94895   1.95113
 Alpha virt. eigenvalues --    1.95367   1.95707   1.95973   1.96346   1.96464
 Alpha virt. eigenvalues --    1.96927   1.97256   1.97323   1.97596   1.98157
 Alpha virt. eigenvalues --    1.98440   1.98534   1.98950   1.99041   1.99508
 Alpha virt. eigenvalues --    1.99840   1.99956   2.00148   2.00500   2.00636
 Alpha virt. eigenvalues --    2.01198   2.01287   2.01592   2.01942   2.01981
 Alpha virt. eigenvalues --    2.02110   2.02423   2.02867   2.03082   2.03291
 Alpha virt. eigenvalues --    2.03623   2.03887   2.04518   2.04576   2.04771
 Alpha virt. eigenvalues --    2.04817   2.04956   2.05320   2.06032   2.06264
 Alpha virt. eigenvalues --    2.06714   2.06888   2.07638   2.07798   2.08012
 Alpha virt. eigenvalues --    2.08665   2.08837   2.08985   2.09255   2.09804
 Alpha virt. eigenvalues --    2.09907   2.10691   2.10805   2.10903   2.11619
 Alpha virt. eigenvalues --    2.12060   2.12173   2.12428   2.12656   2.12888
 Alpha virt. eigenvalues --    2.13336   2.13544   2.13719   2.14359   2.14407
 Alpha virt. eigenvalues --    2.14673   2.14886   2.15398   2.15873   2.16233
 Alpha virt. eigenvalues --    2.16597   2.16724   2.17027   2.17327   2.17569
 Alpha virt. eigenvalues --    2.17638   2.18270   2.18279   2.18497   2.18560
 Alpha virt. eigenvalues --    2.19325   2.19681   2.19781   2.19866   2.20380
 Alpha virt. eigenvalues --    2.20427   2.20555   2.20591   2.21352   2.21637
 Alpha virt. eigenvalues --    2.21981   2.22230   2.22294   2.23101   2.23466
 Alpha virt. eigenvalues --    2.23681   2.24383   2.24670   2.25492   2.25730
 Alpha virt. eigenvalues --    2.25950   2.26198   2.26320   2.26428   2.26538
 Alpha virt. eigenvalues --    2.27406   2.27710   2.27928   2.28001   2.29025
 Alpha virt. eigenvalues --    2.29452   2.29791   2.29906   2.30196   2.30541
 Alpha virt. eigenvalues --    2.30775   2.31435   2.31539   2.31604   2.31718
 Alpha virt. eigenvalues --    2.32281   2.32377   2.33109   2.33298   2.33535
 Alpha virt. eigenvalues --    2.33761   2.33803   2.34199   2.34210   2.35008
 Alpha virt. eigenvalues --    2.35152   2.35863   2.36722   2.37214   2.37621
 Alpha virt. eigenvalues --    2.37653   2.37860   2.38549   2.38699   2.39208
 Alpha virt. eigenvalues --    2.39589   2.39833   2.39984   2.40072   2.40277
 Alpha virt. eigenvalues --    2.40603   2.40666   2.41363   2.41468   2.41577
 Alpha virt. eigenvalues --    2.41905   2.42161   2.42278   2.42711   2.43241
 Alpha virt. eigenvalues --    2.43472   2.43719   2.44708   2.44912   2.45005
 Alpha virt. eigenvalues --    2.45386   2.45645   2.46205   2.46264   2.46584
 Alpha virt. eigenvalues --    2.46776   2.47075   2.47104   2.47665   2.48234
 Alpha virt. eigenvalues --    2.48528   2.48768   2.49098   2.49474   2.49608
 Alpha virt. eigenvalues --    2.49766   2.50082   2.50575   2.50673   2.51244
 Alpha virt. eigenvalues --    2.51342   2.51809   2.51900   2.52168   2.52338
 Alpha virt. eigenvalues --    2.52575   2.52721   2.53598   2.54393   2.54549
 Alpha virt. eigenvalues --    2.54913   2.55436   2.55713   2.56311   2.56446
 Alpha virt. eigenvalues --    2.57072   2.57592   2.57811   2.58429   2.58711
 Alpha virt. eigenvalues --    2.59008   2.59561   2.59685   2.60115   2.60262
 Alpha virt. eigenvalues --    2.60836   2.61521   2.61837   2.62378   2.62630
 Alpha virt. eigenvalues --    2.62777   2.63190   2.63634   2.63838   2.64197
 Alpha virt. eigenvalues --    2.64696   2.64889   2.65240   2.65743   2.65870
 Alpha virt. eigenvalues --    2.66201   2.66454   2.66975   2.67572   2.67833
 Alpha virt. eigenvalues --    2.67943   2.68013   2.68285   2.68681   2.68880
 Alpha virt. eigenvalues --    2.69118   2.69792   2.69920   2.70090   2.70522
 Alpha virt. eigenvalues --    2.70923   2.71669   2.71728   2.71783   2.72551
 Alpha virt. eigenvalues --    2.73099   2.73525   2.73799   2.74060   2.74551
 Alpha virt. eigenvalues --    2.74913   2.75049   2.75248   2.75550   2.75897
 Alpha virt. eigenvalues --    2.76463   2.76682   2.77198   2.78087   2.78253
 Alpha virt. eigenvalues --    2.78416   2.78533   2.78617   2.79137   2.79375
 Alpha virt. eigenvalues --    2.79641   2.79884   2.80141   2.80538   2.80916
 Alpha virt. eigenvalues --    2.81088   2.81233   2.81806   2.81911   2.82041
 Alpha virt. eigenvalues --    2.82160   2.82651   2.83398   2.83550   2.84010
 Alpha virt. eigenvalues --    2.84638   2.84701   2.84878   2.85122   2.85263
 Alpha virt. eigenvalues --    2.86161   2.86950   2.87009   2.87197   2.87650
 Alpha virt. eigenvalues --    2.88219   2.88506   2.89531   2.89590   2.89794
 Alpha virt. eigenvalues --    2.90063   2.90684   2.90882   2.91076   2.91902
 Alpha virt. eigenvalues --    2.92859   2.93063   2.93343   2.93570   2.93791
 Alpha virt. eigenvalues --    2.94249   2.94565   2.94801   2.95440   2.96098
 Alpha virt. eigenvalues --    2.96313   2.96473   2.96620   2.97097   2.97303
 Alpha virt. eigenvalues --    2.97687   2.98275   2.99040   2.99724   2.99970
 Alpha virt. eigenvalues --    3.00121   3.00831   3.01338   3.01784   3.02612
 Alpha virt. eigenvalues --    3.02825   3.03330   3.03466   3.04477   3.04629
 Alpha virt. eigenvalues --    3.04766   3.05741   3.05847   3.06225   3.06430
 Alpha virt. eigenvalues --    3.06649   3.06861   3.07601   3.08594   3.08921
 Alpha virt. eigenvalues --    3.09376   3.09864   3.10743   3.10866   3.11371
 Alpha virt. eigenvalues --    3.12400   3.14349   3.14484   3.14623   3.15255
 Alpha virt. eigenvalues --    3.16435   3.16524   3.16712   3.17064   3.17587
 Alpha virt. eigenvalues --    3.18364   3.18627   3.18876   3.20311   3.20554
 Alpha virt. eigenvalues --    3.21299   3.22032   3.22872   3.23068   3.24114
 Alpha virt. eigenvalues --    3.24785   3.24933   3.26123   3.26189   3.26214
 Alpha virt. eigenvalues --    3.26758   3.27172   3.27272   3.28375   3.30560
 Alpha virt. eigenvalues --    3.30572   3.32011   3.33019   3.33125   3.33261
 Alpha virt. eigenvalues --    3.34359   3.37173   3.37632   3.37709   3.38061
 Alpha virt. eigenvalues --    3.38081   3.39442   3.39975   3.40350   3.40827
 Alpha virt. eigenvalues --    3.42048   3.42515   3.43909   3.44082   3.44290
 Alpha virt. eigenvalues --    3.46085   3.46593   3.46656   3.47130   3.47365
 Alpha virt. eigenvalues --    3.48756   3.49685   3.50082   3.50220   3.50895
 Alpha virt. eigenvalues --    3.52077   3.52389   3.53564   3.54414   3.56185
 Alpha virt. eigenvalues --    3.56548   3.57749   3.57995   3.58819   3.60326
 Alpha virt. eigenvalues --    3.60487   3.60972   3.61320   3.63784   3.64049
 Alpha virt. eigenvalues --    3.64347   3.64807   3.65691   3.66610   3.68052
 Alpha virt. eigenvalues --    3.69352   3.70077   3.71478   3.75457   3.79713
 Alpha virt. eigenvalues --    3.79913   3.81179   3.83862   3.86137   3.88200
 Alpha virt. eigenvalues --    3.88797   3.91186   3.94555   3.94909   4.08764
 Alpha virt. eigenvalues --    4.10542   4.16021   4.20693   4.20944   4.21905
 Alpha virt. eigenvalues --    4.22417   4.23260   4.24731   4.27894   4.28234
 Alpha virt. eigenvalues --    4.29149   4.30743   4.31525   4.32962   4.34798
 Alpha virt. eigenvalues --    4.35932   4.37055   4.37901   4.39138   4.40009
 Alpha virt. eigenvalues --    4.43024   4.43448   4.43976   4.44742   4.46028
 Alpha virt. eigenvalues --    4.46140   4.46943   4.48985   4.49583   4.50263
 Alpha virt. eigenvalues --    4.52503   4.54573   4.54816   4.55371   4.56194
 Alpha virt. eigenvalues --    4.57235   4.57670   4.58443   4.60841   4.61842
 Alpha virt. eigenvalues --    4.62138   4.62811   4.63846   4.64566   4.67002
 Alpha virt. eigenvalues --    4.68258   4.69042   4.69641   4.71948   4.72649
 Alpha virt. eigenvalues --    4.74656   4.75569   4.77837   4.80464   4.80586
 Alpha virt. eigenvalues --    4.84523   4.86160   4.86359   4.88285   4.90117
 Alpha virt. eigenvalues --    4.92461   4.92858   5.01946
          Condensed to atoms (all electrons):
 Mulliken charges:
               1
     1  Mg   0.823268
     2  C    0.168750
     3  C   -0.219605
     4  C   -0.160477
     5  C   -0.142796
     6  N   -0.627446
     7  C    0.252870
     8  C   -0.111188
     9  C   -0.171536
    10  C    0.324199
    11  C   -0.300946
    12  C   -0.151797
    13  C   -0.260810
    14  C    0.608145
    15  O   -0.421919
    16  O   -0.511621
    17  N   -0.715318
    18  C    0.349803
    19  C   -0.034448
    20  C    0.036002
    21  C    0.274982
    22  C   -0.349503
    23  C   -0.124503
    24  C   -0.220172
    25  N   -0.698382
    26  C    0.263767
    27  C    0.059408
    28  C   -0.002949
    29  C    0.281527
    30  C   -0.353018
    31  C   -0.236202
    32  C   -0.300509
    33  N   -0.756912
    34  C    0.296973
    35  C    0.012138
    36  C   -0.011864
    37  C    0.259940
    38  C   -0.388515
    39  C    0.373463
    40  O   -0.430167
    41  C   -0.368660
    42  C    0.637613
    43  O   -0.483987
    44  O   -0.509054
    45  C   -0.060450
    46  C    0.046255
    47  C   -0.145398
    48  C    0.079047
    49  C   -0.364222
    50  C   -0.203320
    51  C   -0.181061
    52  C   -0.171423
    53  C   -0.055248
    54  C   -0.321287
    55  C   -0.167470
    56  C   -0.178745
    57  C   -0.198365
    58  C   -0.071588
    59  C   -0.305075
    60  C   -0.136832
    61  C   -0.184834
    62  C   -0.147956
    63  C   -0.063486
    64  C   -0.292223
    65  C   -0.312215
    66  H    0.098769
    67  H    0.077062
    68  H    0.114343
    69  H    0.130754
    70  H    0.074879
    71  H    0.110018
    72  H    0.107110
    73  H    0.138641
    74  H    0.131363
    75  H    0.093248
    76  H    0.121260
    77  H    0.139343
    78  H    0.125918
    79  H    0.124374
    80  H    0.128445
    81  H    0.089153
    82  H    0.101051
    83  H    0.097282
    84  H    0.121437
    85  H    0.115869
    86  H    0.118730
    87  H    0.095603
    88  H    0.111425
    89  H    0.105068
    90  H    0.124050
    91  H    0.066215
    92  H    0.124815
    93  H    0.144197
    94  H    0.135009
    95  H    0.160480
    96  H    0.120118
    97  H    0.134193
    98  H    0.126647
    99  H    0.105419
   100  H    0.118086
   101  H    0.077244
   102  H    0.119799
   103  H    0.119785
   104  H    0.126466
   105  H    0.111105
   106  H    0.111023
   107  H    0.104306
   108  H    0.093757
   109  H    0.073826
   110  H    0.071690
   111  H    0.073490
   112  H    0.113170
   113  H    0.075701
   114  H    0.100097
   115  H    0.075500
   116  H    0.097798
   117  H    0.111280
   118  H    0.087342
   119  H    0.066933
   120  H    0.095759
   121  H    0.093501
   122  H    0.094183
   123  H    0.105021
   124  H    0.109278
   125  H    0.103921
   126  H    0.065525
   127  H    0.095352
   128  H    0.059918
   129  H    0.100522
   130  H    0.064089
   131  H    0.063130
   132  H    0.098679
   133  H    0.100730
   134  H    0.084139
   135  H    0.091529
   136  H    0.106765
   137  H    0.104624
 Sum of Mulliken charges =   0.00000
 Mulliken charges with hydrogens summed into heavy atoms:
               1
     1  Mg   0.823268
     2  C    0.168750
     3  C   -0.120836
     4  C   -0.083415
     5  C   -0.028452
     6  N   -0.627446
     7  C    0.252870
     8  C    0.019566
     9  C   -0.096657
    10  C    0.324199
    11  C    0.054822
    12  C    0.072813
    13  C   -0.000207
    14  C    0.608145
    15  O   -0.421919
    16  O   -0.511621
    17  N   -0.715318
    18  C    0.349803
    19  C   -0.034448
    20  C    0.036002
    21  C    0.274982
    22  C    0.029235
    23  C   -0.035350
    24  C   -0.021838
    25  N   -0.698382
    26  C    0.263767
    27  C    0.059408
    28  C   -0.002949
    29  C    0.281527
    30  C    0.003019
    31  C   -0.029174
    32  C   -0.005176
    33  N   -0.756912
    34  C    0.296973
    35  C    0.012138
    36  C   -0.011864
    37  C    0.259940
    38  C    0.015505
    39  C    0.373463
    40  O   -0.430167
    41  C   -0.208180
    42  C    0.637613
    43  O   -0.483987
    44  O   -0.509054
    45  C    0.320508
    46  C    0.269761
    47  C   -0.068154
    48  C    0.079047
    49  C    0.001828
    50  C    0.018808
    51  C    0.017001
    52  C   -0.025906
    53  C    0.018243
    54  C   -0.032319
    55  C    0.005827
    56  C    0.019877
    57  C   -0.035673
    58  C    0.021914
    59  C    0.003407
    60  C    0.032614
    61  C   -0.029564
    62  C    0.016654
    63  C   -0.000355
    64  C   -0.008675
    65  C   -0.009297
 Electronic spatial extent (au):  <R**2>=         178662.0200
 Charge=              0.0000 electrons
 Dipole moment (field-independent basis, Debye):
    X=             -0.4846    Y=              4.0169    Z=             -0.3276  Tot=              4.0592
 Quadrupole moment (field-independent basis, Debye-Ang):
   XX=           -342.2354   YY=           -389.3619   ZZ=           -398.6228
   XY=            -11.5281   XZ=             11.8205   YZ=             -2.2648
 Traceless Quadrupole moment (field-independent basis, Debye-Ang):
   XX=             34.5046   YY=            -12.6218   ZZ=            -21.8827
   XY=            -11.5281   XZ=             11.8205   YZ=             -2.2648
 Octapole moment (field-independent basis, Debye-Ang**2):
  XXX=           -922.0179  YYY=            130.6274  ZZZ=             12.3792  XYY=           -100.2674
  XXY=             68.2253  XXZ=           -216.9919  XZZ=            -18.7548  YZZ=            -35.1703
  YYZ=             20.6911  XYZ=            -24.9059
 Hexadecapole moment (field-independent basis, Debye-Ang**3):
 XXXX=        -218910.9779 YYYY=         -17348.1719 ZZZZ=          -4126.3818 XXXY=            479.5365
 XXXZ=           1751.9803 YYYX=           -946.5864 YYYZ=           -261.3654 ZZZX=              6.6772
 ZZZY=           -155.7752 XXYY=         -39625.3748 XXZZ=         -38965.0918 YYZZ=          -3550.6524
 XXYZ=            223.6986 YYXZ=            133.1068 ZZXY=            150.8807
 N-N= 8.753652287002D+03 E-N=-2.433110971443D+04  KE= 2.906938033003D+03
 1\1\GINC-PEDRO-RYZENSSD\SP\RCAM-B3LYP TD-FC\6-31G(d,p)\C55H72Mg1N4O5\P
 ADAWAN\27-Jun-2019\0\\# td=(NStates=1) CAM-B3LYP/6-31G(d,p)\\TD\\0,1\M
 g,0,-7.1859702663,0.5942976705,0.0924272913\C,0,-4.7549243735,-1.97174
 92862,0.5110267376\C,0,-4.7945087572,2.9212364509,1.1635798152\C,0,-9.
 4458791767,3.0893513345,-0.3136326963\C,0,-9.5375147791,-1.8079409691,
 -0.7965277678\N,0,-5.1546682484,0.4532865892,0.7248800084\C,0,-4.36283
 38887,-0.7303236528,0.7707789807\C,0,-2.8239833595,-0.3983251046,1.091
 8846297\C,0,-3.0004403332,1.0256636989,1.5891417206\C,0,-4.3356416509,
 1.5687372541,1.0831845797\C,0,-3.0081786089,1.1114376311,3.1483083569\
 C,0,-1.9143757185,-0.6604400541,-0.0289135656\C,0,-0.4653147855,-0.470
 4052719,0.4378023631\C,0,0.5213915176,-0.6076141935,-0.7743390857\O,0,
 0.2304435941,-0.9006814719,-1.877447025\O,0,1.8482818532,-0.2877336802
 ,-0.3048847086\N,0,-7.1124188504,2.6872001273,0.3455497118\C,0,-6.0574
 028713,3.3463855925,0.821900174\C,0,-6.4218801777,4.7483554659,0.93614
 13786\C,0,-7.6672173171,4.8142413108,0.4851854255\C,0,-8.1619767509,3.
 5251928106,0.1885191911\C,0,-5.619377719,5.8943805294,1.5282793531\C,0
 ,-8.5264518576,6.0166667347,0.3531953414\C,0,-8.1440736052,7.272413325
 6,-0.0455188142\N,0,-9.0994949852,0.6601424925,-0.4090226076\C,0,-9.92
 85945185,1.7466053431,-0.5583709613\C,0,-11.2278275257,1.3290838988,-1
 .0702417738\C,0,-11.1923577565,0.033257203,-1.0757168379\C,0,-9.912231
 1068,-0.4190003881,-0.716230926\C,0,-12.2866769098,2.390371318,-1.4466
 751984\C,0,-12.3760276485,-0.8538364458,-1.629288106\C,0,-12.304846816
 7,-0.9523691221,-3.1643445399\N,0,-7.1652727794,-1.4094903106,-0.18141
 12598\C,0,-8.2616513874,-2.2196779073,-0.5114389498\C,0,-7.8178994574,
 -3.6015143343,-0.5220906381\C,0,-6.4531808401,-3.608175133,-0.19090158
 23\C,0,-6.0569704752,-2.1760037549,0.0686284842\C,0,-8.5876391086,-4.9
 043632552,-0.6737869257\C,0,-5.3173082685,-4.4424502303,0.1809765976\O
 ,0,-5.0489662584,-5.5991625699,0.159772012\C,0,-4.1045338634,-3.331186
 0527,0.4071316052\C,0,-3.5173560998,-3.6528013647,1.7469658763\O,0,-3.
 8593295876,-3.1260058334,2.7957932946\O,0,-2.5690682547,-4.6945576083,
 1.7803861266\C,0,-2.4064332818,-5.2219426636,3.1462959666\C,0,2.860269
 8036,-0.6501342711,-1.3057859535\C,0,4.1154448669,-0.4036842178,-0.550
 1375425\C,0,5.2399476022,0.3613594604,-1.0247123714\C,0,5.1057879954,1
 .3558501213,-2.2700140925\C,0,6.4865951171,0.4941082177,-0.1400306893\
 C,0,7.6668044193,-0.0103929212,-0.9864883175\C,0,8.9349725797,-0.06815
 65492,-0.0926418584\C,0,10.2311740104,-0.5457616745,-0.7784642408\C,0,
 10.0185690431,-2.0702363585,-1.0458562471\C,0,11.4545665738,-0.2325341
 44,-0.0796477661\C,0,12.7472818972,-0.6700335193,-0.6614366835\C,0,13.
 8967553633,-0.1051372769,0.1057177848\C,0,15.2957549195,-0.2472473364,
 -0.5251455649\C,0,15.63837794,-1.694632249,-0.844551735\C,0,16.2858918
 432,0.4129056767,0.3180209868\C,0,17.6968953938,0.4487630021,-0.170395
 3194\C,0,18.7490203015,1.206452492,0.7419165534\C,0,20.1234500248,1.37
 32430689,0.2285524588\C,0,20.1813983687,2.2700026483,-1.0479906205\C,0
 ,21.0517530494,1.8299773671,1.4504117428\H,0,-4.0623964981,3.803088690
 6,1.1723717582\H,0,-10.0372074724,4.0192095049,-0.3340977124\H,0,-10.3
 124705089,-2.5452345782,-1.1348270302\H,0,-2.641272818,-0.8434940131,2
 .0111183504\H,0,-2.1950891469,1.7667651651,1.0755319197\H,0,-1.9866023
 835,0.7195774467,3.4402142348\H,0,-3.1128060668,2.1682762842,3.6442489
 924\H,0,-3.8815191331,0.5332676945,3.4240362881\H,0,-2.087061233,-1.58
 83947599,-0.5573607221\H,0,-2.1615603582,0.2686789592,-0.786463748\H,0
 ,-0.3788549795,0.6989378173,0.8435266046\H,0,-0.1802439781,-1.24074705
 01,1.2291157875\H,0,-4.9988620539,6.3508202571,0.7838801702\H,0,-6.353
 7100413,6.6588956884,1.6843831275\H,0,-5.2185450833,5.410066178,2.3315
 568344\H,0,-9.6788653854,5.9369566318,0.2284006846\H,0,-8.7270233427,8
 .0122498145,0.0372443177\H,0,-7.1541404506,7.5169622654,-0.2648609567\
 H,0,-12.0072161344,3.2291002153,-2.1392802264\H,0,-13.0795831718,1.919
 2075589,-1.8473282565\H,0,-12.4460315646,3.0142245079,-0.5095524532\H,
 0,-12.4441369418,-1.9979121894,-1.3424644543\H,0,-13.3112671303,-0.386
 3224452,-1.3579631533\H,0,-12.971027569,-1.6091321524,-3.7069036881\H,
 0,-12.3622063946,-0.1317419001,-3.7044880238\H,0,-11.206864034,-1.4735
 00294,-3.5038495005\H,0,-9.2332342193,-5.0241652648,-1.481825764\H,0,-
 7.9315468557,-5.7911692251,-0.7607603041\H,0,-9.1658987557,-5.08488527
 55,0.2348752313\H,0,-3.3696170937,-3.6676083453,-0.3872153745\H,0,-1.9
 684179318,-4.282856663,3.6396506521\H,0,-3.403585546,-5.4132519676,3.7
 261398361\H,0,-1.7488663131,-5.8593501121,2.8695336563\H,0,2.765601231
 2,-1.7922689168,-1.6570197783\H,0,2.8701187121,-0.0818752691,-2.065228
 5427\H,0,4.4086000843,-1.1481628225,0.3138337596\H,0,4.1751884551,1.45
 35264489,-2.5415775001\H,0,5.2875620546,2.3049848887,-2.0225166063\H,0
 ,5.7110164244,1.2541757478,-3.0269739967\H,0,6.7251455379,1.5888451122
 ,-0.0743699393\H,0,6.3906924172,-0.0886121101,0.7262436315\H,0,7.60400
 41425,-1.02408348,-1.3150356323\H,0,7.9515866897,0.6150483813,-1.90173
 03199\H,0,9.1481109083,0.9931319297,0.2782417867\H,0,8.74627245,-0.726
 2509805,0.8867332919\H,0,10.4509568072,-0.0951947532,-1.7890327339\H,0
 ,9.1263191283,-2.3725142957,-1.5568506463\H,0,11.0285459393,-2.4339499
 076,-1.6136175478\H,0,9.9551129849,-2.6920708297,-0.1337254632\H,0,11.
 6222669889,0.8683312406,0.1841703804\H,0,11.4605564653,-0.7120235405,0
 .7642538984\H,0,12.672082944,-1.6724441058,-0.7365819931\H,0,12.651224
 0284,-0.2727377948,-1.6265610199\H,0,13.5837898822,0.9281860741,0.6348
 101415\H,0,13.9657826686,-0.5593683741,1.0707522449\H,0,15.1370260947,
 0.2161914795,-1.4461442739\H,0,15.5266146625,-2.3770444303,-0.00537813
 54\H,0,14.8726848003,-1.9015683504,-1.5131590363\H,0,16.5454926079,-1.
 8496088895,-1.2148935982\H,0,15.8863938491,1.2863677095,0.4374171627\H
 ,0,16.1882505271,0.0141950238,1.4284857803\H,0,18.1887880707,-0.479924
 9563,-0.6243184394\H,0,17.7131914003,1.1912603845,-1.1616196459\H,0,18
 .433752058,2.0724791475,0.9683719381\H,0,18.9223585133,0.9135249638,1.
 8630726589\H,0,20.6135414208,0.3429707329,-0.0584480944\H,0,19.5203488
 682,3.1348724721,-0.7553558051\H,0,21.2671828322,2.4378496629,-1.39557
 08111\H,0,19.4903898722,1.6465560579,-1.8571461379\H,0,21.0076007754,0
 .9095302568,2.2106905107\H,0,22.0127659171,1.9376122924,1.0546597322\H
 ,0,20.610293562,2.7118048567,1.8779637276\\Version=ES64L-G09RevD.01\St
 ate=1-A\HF=-2932.5916779\RMSD=5.236e-09\PG=C01 [X(C55H72Mg1N4O5)]\\@


 GETTING A SIMPLE ANSWER FROM A PROFESSOR IS LIKE
 GETTING A THIMBLE OF WATER FROM A FIRE HYDRANT.
     -- PROF. LEN SHAPIRO, NDSU
 Job cpu time:       0 days  6 hours 23 minutes 29.0 seconds.
 File lengths (MBytes):  RWF=   2106 Int=      0 D2E=      0 Chk=    163 Scr=      1
 Normal termination of Gaussian 09 at Thu Jun 27 20:14:51 2019.
